 Entering Gaussian System, Link 0=/home/michal/g09/g09
 Input=JOB2-gau_m1-1-4.com
 Output=JOB2-gau_m1-1-4.log
 Initial command:
 /home/michal/g09/l1.exe "/home/michal/gauss_scratch/Gau-11648.inp" -scrdir="/home/michal/gauss_scratch/"
 Entering Link 1 = /home/michal/g09/l1.exe PID=     11649.
  
 Copyright (c) 1988,1990,1992,1993,1995,1998,2003,2009,2013,
            Gaussian, Inc.  All Rights Reserved.
  
 This is part of the Gaussian(R) 09 program.  It is based on
 the Gaussian(R) 03 system (copyright 2003, Gaussian, Inc.),
 the Gaussian(R) 98 system (copyright 1998, Gaussian, Inc.),
 the Gaussian(R) 94 system (copyright 1995, Gaussian, Inc.),
 the Gaussian 92(TM) system (copyright 1992, Gaussian, Inc.),
 the Gaussian 90(TM) system (copyright 1990, Gaussian, Inc.),
 the Gaussian 88(TM) system (copyright 1988, Gaussian, Inc.),
 the Gaussian 86(TM) system (copyright 1986, Carnegie Mellon
 University), and the Gaussian 82(TM) system (copyright 1983,
 Carnegie Mellon University). Gaussian is a federally registered
 trademark of Gaussian, Inc.
  
 This software contains proprietary and confidential information,
 including trade secrets, belonging to Gaussian, Inc.
  
 This software is provided under written license and may be
 used, copied, transmitted, or stored only in accord with that
 written license.
  
 The following legend is applicable only to US Government
 contracts under FAR:
  
                    RESTRICTED RIGHTS LEGEND
  
 Use, reproduction and disclosure by the US Government is
 subject to restrictions as set forth in subparagraphs (a)
 and (c) of the Commercial Computer Software - Restricted
 Rights clause in FAR 52.227-19.
  
 Gaussian, Inc.
 340 Quinnipiac St., Bldg. 40, Wallingford CT 06492
  
  
 ---------------------------------------------------------------
 Warning -- This program may not be used in any manner that
 competes with the business of Gaussian, Inc. or will provide
 assistance to any competitor of Gaussian, Inc.  The licensee
 of this program is prohibited from giving any competitor of
 Gaussian, Inc. access to this program.  By using this program,
 the user acknowledges that Gaussian, Inc. is engaged in the
 business of creating and licensing software in the field of
 computational chemistry and represents and warrants to the
 licensee that it is not a competitor of Gaussian, Inc. and that
 it will not use this program in any manner prohibited above.
 ---------------------------------------------------------------
  

 Cite this work as:
 Gaussian 09, Revision D.01,
 M. J. Frisch, G. W. Trucks, H. B. Schlegel, G. E. Scuseria, 
 M. A. Robb, J. R. Cheeseman, G. Scalmani, V. Barone, B. Mennucci, 
 G. A. Petersson, H. Nakatsuji, M. Caricato, X. Li, H. P. Hratchian, 
 A. F. Izmaylov, J. Bloino, G. Zheng, J. L. Sonnenberg, M. Hada, 
 M. Ehara, K. Toyota, R. Fukuda, J. Hasegawa, M. Ishida, T. Nakajima, 
 Y. Honda, O. Kitao, H. Nakai, T. Vreven, J. A. Montgomery, Jr., 
 J. E. Peralta, F. Ogliaro, M. Bearpark, J. J. Heyd, E. Brothers, 
 K. N. Kudin, V. N. Staroverov, T. Keith, R. Kobayashi, J. Normand, 
 K. Raghavachari, A. Rendell, J. C. Burant, S. S. Iyengar, J. Tomasi, 
 M. Cossi, N. Rega, J. M. Millam, M. Klene, J. E. Knox, J. B. Cross, 
 V. Bakken, C. Adamo, J. Jaramillo, R. Gomperts, R. E. Stratmann, 
 O. Yazyev, A. J. Austin, R. Cammi, C. Pomelli, J. W. Ochterski, 
 R. L. Martin, K. Morokuma, V. G. Zakrzewski, G. A. Voth, 
 P. Salvador, J. J. Dannenberg, S. Dapprich, A. D. Daniels, 
 O. Farkas, J. B. Foresman, J. V. Ortiz, J. Cioslowski, 
 and D. J. Fox, Gaussian, Inc., Wallingford CT, 2013.
 
 ******************************************
 Gaussian 09:  EM64L-G09RevD.01 24-Apr-2013
                28-Apr-2017 
 ******************************************
 %Mem=256MB
 %NProc=12
 Will use up to   12 processors via shared memory.
 ----------------------------------------------------------------------
 #P HF/6-31G* SCF(Conver=6) NoSymm Test Pop=chelpg IOp(6/33=2) GFInput 
 GFPrint
 ----------------------------------------------------------------------
 1/38=1/1;
 2/12=2,15=1,17=6,18=5,40=1/2;
 3/5=1,6=6,7=1,11=9,16=1,24=110,25=1,30=1/1,2,3;
 4//1;
 5/5=2,6=6,38=5/2;
 6/7=2,8=2,9=2,10=2,15=8,20=3,28=1,33=2/1,2;
 99/5=1,9=1/99;
 Leave Link    1 at Fri Apr 28 11:52:12 2017, MaxMem=    33554432 cpu:         0.6
 (Enter /home/michal/g09/l101.exe)
 ----------------------------------------------
 MEP - Input generated by R.E.D.-III.x MOLECULE
 ----------------------------------------------
 Symbolic Z-matrix:
 Charge =  0 Multiplicity = 1
 C                     1.01397  -0.88838  -1.6844 
 H                     1.14544   0.08074  -2.18112 
 C                     2.24924  -1.76021  -1.96082 
 H                     2.38866  -1.86991  -3.04079 
 H                     2.04281  -2.76739  -1.56583 
 C                     3.50738  -1.20029  -1.32305 
 C                     3.43279  -0.87028   0.17301 
 C                     2.12872  -0.05172   0.42443 
 H                     2.26742   0.95196   0. 
 H                     1.98788   0.08368   1.50223 
 C                     0.85483  -0.6614   -0.18105 
 H                     0.6187   -1.62032   0.3036 
 H                     0.        0.        0. 
 C                     4.61016  -1.02067  -2.06645 
 H                     4.5827   -1.27728  -3.12386 
 C                     5.91086  -0.47714  -1.54984 
 H                     6.75132  -1.04146  -1.9734 
 C                     5.9936   -0.49753  -0.01286 
 H                     6.14549  -1.55401   0.2498 
 C                     4.66286   0.00111   0.61064 
 H                     4.49252   1.00153   0.18643 
 C                     4.77363   0.17536   2.14421 
 H                     4.78312  -0.80494   2.63135 
 H                     3.87971   0.68764   2.51842 
 C                     6.01826   0.9583    2.61055 
 H                     5.95113   1.99914   2.26317 
 H                     6.01275   0.99354   3.70474 
 C                     7.32069   0.33912   2.06347 
 C                     7.17978   0.32311   0.51578 
 H                     6.98069   1.36629   0.2344 
 C                     8.58936   0.        0. 
 H                     8.74559   0.36922  -1.01736 
 H                     8.76115  -1.08386  -0.02085 
 C                     9.52335   0.69018   1.03285 
 H                     10.26818  -0.01722   1.4163 
 H                     10.08558   1.51182   0.57835 
 C                     8.61838   1.20948   2.19876 
 H                     8.31131   2.23768   1.95755 
 C                     7.55293  -1.06724   2.66059 
 H                     6.75629  -1.76928   2.40111 
 H                     8.4939   -1.50719   2.31672 
 H                     7.59553  -1.02033   3.75406 
 C                     9.36741   1.25769   3.55352 
 H                     9.68028   0.23049   3.79177 
 C                     8.50001   1.75341   4.72615 
 H                     8.008     2.70544   4.49751 
 H                     9.11614   1.90509   5.62042 
 H                     7.71886   1.03566   4.98952 
 C                     3.36937  -2.20716   0.96172 
 H                     3.11442  -2.03774   2.01202 
 H                     2.6138   -2.88231   0.55304 
 H                     4.32687  -2.73581   0.9228 
 O                     6.09703   0.90604  -1.95918 
 O                     6.27917   0.9176   -3.40293 
 H                     5.43781   1.30828  -3.69174 
 O                    -0.16366  -1.43186  -2.28632 
 H                    -0.35712  -2.28552  -1.87399 
 C                     10.68112   2.08036   3.46835 
 H                     11.19314   1.98729   4.43695 
 H                     11.35207   1.61912   2.73293 
 C                     10.53911   3.57499   3.13469 
 H                     10.06279   3.69035   2.15348 
 H                     9.87158   4.05341   3.8615 
 C                     11.8989   4.29297   3.13386 
 H                     12.56409   3.7847    2.42068 
 H                     12.36307   4.16553   4.12269 
 C                     11.88665   5.80168   2.79423 
 H                     12.9347   6.13141   2.85118 
 C                     11.40311   6.08333   1.36187 
 H                     10.3421   5.83822   1.23693 
 H                     11.52457   7.14328   1.11082 
 H                     11.96982   5.49928   0.62719 
 C                     11.09602   6.6337    3.8176 
 H                     10.02374   6.40973   3.77863 
 H                     11.21263   7.70577   3.62182 
 H                     11.44103   6.44155   4.84047 
 
 NAtoms=     76 NQM=       76 NQMF=       0 NMMI=      0 NMMIF=      0
                NMic=       0 NMicF=      0.
                    Isotopes and Nuclear Properties:
 (Nuclear quadrupole moments (NQMom) in fm**2, nuclear magnetic moments (NMagM)
  in nuclear magnetons)

  Atom         1           2           3           4           5           6           7           8           9          10
 IAtWgt=          12           1          12           1           1          12          12          12           1           1
 AtmWgt=  12.0000000   1.0078250  12.0000000   1.0078250   1.0078250  12.0000000  12.0000000  12.0000000   1.0078250   1.0078250
 NucSpn=           0           1           0           1           1           0           0           0           1           1
 AtZEff=   0.0000000   0.0000000   0.0000000   0.0000000   0.0000000   0.0000000   0.0000000   0.0000000   0.0000000   0.0000000
 NQMom=    0.0000000   0.0000000   0.0000000   0.0000000   0.0000000   0.0000000   0.0000000   0.0000000   0.0000000   0.0000000
 NMagM=    0.0000000   2.7928460   0.0000000   2.7928460   2.7928460   0.0000000   0.0000000   0.0000000   2.7928460   2.7928460
 AtZNuc=   6.0000000   1.0000000   6.0000000   1.0000000   1.0000000   6.0000000   6.0000000   6.0000000   1.0000000   1.0000000

  Atom        11          12          13          14          15          16          17          18          19          20
 IAtWgt=          12           1           1          12           1          12           1          12           1          12
 AtmWgt=  12.0000000   1.0078250   1.0078250  12.0000000   1.0078250  12.0000000   1.0078250  12.0000000   1.0078250  12.0000000
 NucSpn=           0           1           1           0           1           0           1           0           1           0
 AtZEff=   0.0000000   0.0000000   0.0000000   0.0000000   0.0000000   0.0000000   0.0000000   0.0000000   0.0000000   0.0000000
 NQMom=    0.0000000   0.0000000   0.0000000   0.0000000   0.0000000   0.0000000   0.0000000   0.0000000   0.0000000   0.0000000
 NMagM=    0.0000000   2.7928460   2.7928460   0.0000000   2.7928460   0.0000000   2.7928460   0.0000000   2.7928460   0.0000000
 AtZNuc=   6.0000000   1.0000000   1.0000000   6.0000000   1.0000000   6.0000000   1.0000000   6.0000000   1.0000000   6.0000000

  Atom        21          22          23          24          25          26          27          28          29          30
 IAtWgt=           1          12           1           1          12           1           1          12          12           1
 AtmWgt=   1.0078250  12.0000000   1.0078250   1.0078250  12.0000000   1.0078250   1.0078250  12.0000000  12.0000000   1.0078250
 NucSpn=           1           0           1           1           0           1           1           0           0           1
 AtZEff=   0.0000000   0.0000000   0.0000000   0.0000000   0.0000000   0.0000000   0.0000000   0.0000000   0.0000000   0.0000000
 NQMom=    0.0000000   0.0000000   0.0000000   0.0000000   0.0000000   0.0000000   0.0000000   0.0000000   0.0000000   0.0000000
 NMagM=    2.7928460   0.0000000   2.7928460   2.7928460   0.0000000   2.7928460   2.7928460   0.0000000   0.0000000   2.7928460
 AtZNuc=   1.0000000   6.0000000   1.0000000   1.0000000   6.0000000   1.0000000   1.0000000   6.0000000   6.0000000   1.0000000

  Atom        31          32          33          34          35          36          37          38          39          40
 IAtWgt=          12           1           1          12           1           1          12           1          12           1
 AtmWgt=  12.0000000   1.0078250   1.0078250  12.0000000   1.0078250   1.0078250  12.0000000   1.0078250  12.0000000   1.0078250
 NucSpn=           0           1           1           0           1           1           0           1           0           1
 AtZEff=   0.0000000   0.0000000   0.0000000   0.0000000   0.0000000   0.0000000   0.0000000   0.0000000   0.0000000   0.0000000
 NQMom=    0.0000000   0.0000000   0.0000000   0.0000000   0.0000000   0.0000000   0.0000000   0.0000000   0.0000000   0.0000000
 NMagM=    0.0000000   2.7928460   2.7928460   0.0000000   2.7928460   2.7928460   0.0000000   2.7928460   0.0000000   2.7928460
 AtZNuc=   6.0000000   1.0000000   1.0000000   6.0000000   1.0000000   1.0000000   6.0000000   1.0000000   6.0000000   1.0000000

  Atom        41          42          43          44          45          46          47          48          49          50
 IAtWgt=           1           1          12           1          12           1           1           1          12           1
 AtmWgt=   1.0078250   1.0078250  12.0000000   1.0078250  12.0000000   1.0078250   1.0078250   1.0078250  12.0000000   1.0078250
 NucSpn=           1           1           0           1           0           1           1           1           0           1
 AtZEff=   0.0000000   0.0000000   0.0000000   0.0000000   0.0000000   0.0000000   0.0000000   0.0000000   0.0000000   0.0000000
 NQMom=    0.0000000   0.0000000   0.0000000   0.0000000   0.0000000   0.0000000   0.0000000   0.0000000   0.0000000   0.0000000
 NMagM=    2.7928460   2.7928460   0.0000000   2.7928460   0.0000000   2.7928460   2.7928460   2.7928460   0.0000000   2.7928460
 AtZNuc=   1.0000000   1.0000000   6.0000000   1.0000000   6.0000000   1.0000000   1.0000000   1.0000000   6.0000000   1.0000000

  Atom        51          52          53          54          55          56          57          58          59          60
 IAtWgt=           1           1          16          16           1          16           1          12           1           1
 AtmWgt=   1.0078250   1.0078250  15.9949146  15.9949146   1.0078250  15.9949146   1.0078250  12.0000000   1.0078250   1.0078250
 NucSpn=           1           1           0           0           1           0           1           0           1           1
 AtZEff=   0.0000000   0.0000000   0.0000000   0.0000000   0.0000000   0.0000000   0.0000000   0.0000000   0.0000000   0.0000000
 NQMom=    0.0000000   0.0000000   0.0000000   0.0000000   0.0000000   0.0000000   0.0000000   0.0000000   0.0000000   0.0000000
 NMagM=    2.7928460   2.7928460   0.0000000   0.0000000   2.7928460   0.0000000   2.7928460   0.0000000   2.7928460   2.7928460
 AtZNuc=   1.0000000   1.0000000   8.0000000   8.0000000   1.0000000   8.0000000   1.0000000   6.0000000   1.0000000   1.0000000

  Atom        61          62          63          64          65          66          67          68          69          70
 IAtWgt=          12           1           1          12           1           1          12           1          12           1
 AtmWgt=  12.0000000   1.0078250   1.0078250  12.0000000   1.0078250   1.0078250  12.0000000   1.0078250  12.0000000   1.0078250
 NucSpn=           0           1           1           0           1           1           0           1           0           1
 AtZEff=   0.0000000   0.0000000   0.0000000   0.0000000   0.0000000   0.0000000   0.0000000   0.0000000   0.0000000   0.0000000
 NQMom=    0.0000000   0.0000000   0.0000000   0.0000000   0.0000000   0.0000000   0.0000000   0.0000000   0.0000000   0.0000000
 NMagM=    0.0000000   2.7928460   2.7928460   0.0000000   2.7928460   2.7928460   0.0000000   2.7928460   0.0000000   2.7928460
 AtZNuc=   6.0000000   1.0000000   1.0000000   6.0000000   1.0000000   1.0000000   6.0000000   1.0000000   6.0000000   1.0000000

  Atom        71          72          73          74          75          76
 IAtWgt=           1           1          12           1           1           1
 AtmWgt=   1.0078250   1.0078250  12.0000000   1.0078250   1.0078250   1.0078250
 NucSpn=           1           1           0           1           1           1
 AtZEff=   0.0000000   0.0000000   0.0000000   0.0000000   0.0000000   0.0000000
 NQMom=    0.0000000   0.0000000   0.0000000   0.0000000   0.0000000   0.0000000
 NMagM=    2.7928460   2.7928460   0.0000000   2.7928460   2.7928460   2.7928460
 AtZNuc=   1.0000000   1.0000000   6.0000000   1.0000000   1.0000000   1.0000000
 Leave Link  101 at Fri Apr 28 11:52:12 2017, MaxMem=    33554432 cpu:         1.0
 (Enter /home/michal/g09/l202.exe)
 Symmetry turned off by external request.
 Stoichiometry    C27H46O3
 Framework group  C1[X(C27H46O3)]
 Deg. of freedom   222
 Full point group                 C1      NOp   1
                          Input orientation:                          
 ---------------------------------------------------------------------
 Center     Atomic      Atomic             Coordinates (Angstroms)
 Number     Number       Type             X           Y           Z
 ---------------------------------------------------------------------
      1          6           0        1.013971   -0.888380   -1.684401
      2          1           0        1.145441    0.080745   -2.181120
      3          6           0        2.249236   -1.760207   -1.960819
      4          1           0        2.388661   -1.869908   -3.040786
      5          1           0        2.042808   -2.767393   -1.565831
      6          6           0        3.507381   -1.200291   -1.323047
      7          6           0        3.432792   -0.870276    0.173014
      8          6           0        2.128720   -0.051717    0.424426
      9          1           0        2.267418    0.951957    0.000000
     10          1           0        1.987876    0.083684    1.502233
     11          6           0        0.854827   -0.661399   -0.181046
     12          1           0        0.618701   -1.620317    0.303595
     13          1           0        0.000000    0.000000    0.000000
     14          6           0        4.610162   -1.020675   -2.066450
     15          1           0        4.582697   -1.277278   -3.123858
     16          6           0        5.910862   -0.477144   -1.549837
     17          1           0        6.751321   -1.041457   -1.973400
     18          6           0        5.993603   -0.497532   -0.012864
     19          1           0        6.145489   -1.554007    0.249797
     20          6           0        4.662862    0.001105    0.610635
     21          1           0        4.492522    1.001531    0.186429
     22          6           0        4.773625    0.175359    2.144212
     23          1           0        4.783124   -0.804937    2.631349
     24          1           0        3.879712    0.687639    2.518416
     25          6           0        6.018262    0.958301    2.610555
     26          1           0        5.951126    1.999144    2.263170
     27          1           0        6.012745    0.993544    3.704741
     28          6           0        7.320690    0.339122    2.063467
     29          6           0        7.179784    0.323111    0.515780
     30          1           0        6.980692    1.366285    0.234401
     31          6           0        8.589357    0.000000    0.000000
     32          1           0        8.745590    0.369217   -1.017365
     33          1           0        8.761145   -1.083864   -0.020848
     34          6           0        9.523346    0.690181    1.032854
     35          1           0       10.268177   -0.017220    1.416301
     36          1           0       10.085583    1.511823    0.578346
     37          6           0        8.618380    1.209482    2.198762
     38          1           0        8.311308    2.237676    1.957546
     39          6           0        7.552933   -1.067236    2.660589
     40          1           0        6.756293   -1.769275    2.401105
     41          1           0        8.493905   -1.507186    2.316717
     42          1           0        7.595529   -1.020333    3.754057
     43          6           0        9.367412    1.257687    3.553521
     44          1           0        9.680278    0.230490    3.791769
     45          6           0        8.500005    1.753412    4.726145
     46          1           0        8.008002    2.705436    4.497506
     47          1           0        9.116141    1.905094    5.620416
     48          1           0        7.718857    1.035656    4.989518
     49          6           0        3.369370   -2.207160    0.961724
     50          1           0        3.114416   -2.037744    2.012015
     51          1           0        2.613801   -2.882311    0.553041
     52          1           0        4.326869   -2.735809    0.922797
     53          8           0        6.097027    0.906039   -1.959177
     54          8           0        6.279167    0.917604   -3.402927
     55          1           0        5.437808    1.308284   -3.691736
     56          8           0       -0.163656   -1.431862   -2.286315
     57          1           0       -0.357121   -2.285516   -1.873993
     58          6           0       10.681117    2.080362    3.468347
     59          1           0       11.193136    1.987295    4.436946
     60          1           0       11.352073    1.619117    2.732926
     61          6           0       10.539113    3.574992    3.134693
     62          1           0       10.062793    3.690352    2.153484
     63          1           0        9.871585    4.053414    3.861500
     64          6           0       11.898897    4.292970    3.133857
     65          1           0       12.564090    3.784704    2.420679
     66          1           0       12.363069    4.165529    4.122687
     67          6           0       11.886649    5.801682    2.794235
     68          1           0       12.934699    6.131408    2.851178
     69          6           0       11.403112    6.083329    1.361873
     70          1           0       10.342100    5.838217    1.236929
     71          1           0       11.524566    7.143284    1.110817
     72          1           0       11.969822    5.499284    0.627195
     73          6           0       11.096022    6.633697    3.817602
     74          1           0       10.023743    6.409729    3.778632
     75          1           0       11.212634    7.705773    3.621817
     76          1           0       11.441028    6.441553    4.840466
 ---------------------------------------------------------------------
 Rotational constants (GHZ):      0.3073837      0.0605755      0.0576625
 Leave Link  202 at Fri Apr 28 11:52:12 2017, MaxMem=    33554432 cpu:         0.1
 (Enter /home/michal/g09/l301.exe)
 Standard basis: 6-31G(d) (6D, 7F)
 Ernie: Thresh=  0.10000D-02 Tol=  0.10000D-05 Strict=F.
 AO basis set in the form of general basis input (Overlap normalization):
      1 0
 S   6 1.00       0.000000000000
      0.3047524880D+04  0.1834737132D-02
      0.4573695180D+03  0.1403732281D-01
      0.1039486850D+03  0.6884262226D-01
      0.2921015530D+02  0.2321844432D+00
      0.9286662960D+01  0.4679413484D+00
      0.3163926960D+01  0.3623119853D+00
 SP   3 1.00       0.000000000000
      0.7868272350D+01 -0.1193324198D+00  0.6899906659D-01
      0.1881288540D+01 -0.1608541517D+00  0.3164239610D+00
      0.5442492580D+00  0.1143456438D+01  0.7443082909D+00
 SP   1 1.00       0.000000000000
      0.1687144782D+00  0.1000000000D+01  0.1000000000D+01
 D   1 1.00       0.000000000000
      0.8000000000D+00  0.1000000000D+01
 ****
      2 0
 S   3 1.00       0.000000000000
      0.1873113696D+02  0.3349460434D-01
      0.2825394365D+01  0.2347269535D+00
      0.6401216923D+00  0.8137573261D+00
 S   1 1.00       0.000000000000
      0.1612777588D+00  0.1000000000D+01
 ****
      3 0
 S   6 1.00       0.000000000000
      0.3047524880D+04  0.1834737132D-02
      0.4573695180D+03  0.1403732281D-01
      0.1039486850D+03  0.6884262226D-01
      0.2921015530D+02  0.2321844432D+00
      0.9286662960D+01  0.4679413484D+00
      0.3163926960D+01  0.3623119853D+00
 SP   3 1.00       0.000000000000
      0.7868272350D+01 -0.1193324198D+00  0.6899906659D-01
      0.1881288540D+01 -0.1608541517D+00  0.3164239610D+00
      0.5442492580D+00  0.1143456438D+01  0.7443082909D+00
 SP   1 1.00       0.000000000000
      0.1687144782D+00  0.1000000000D+01  0.1000000000D+01
 D   1 1.00       0.000000000000
      0.8000000000D+00  0.1000000000D+01
 ****
      4 0
 S   3 1.00       0.000000000000
      0.1873113696D+02  0.3349460434D-01
      0.2825394365D+01  0.2347269535D+00
      0.6401216923D+00  0.8137573261D+00
 S   1 1.00       0.000000000000
      0.1612777588D+00  0.1000000000D+01
 ****
      5 0
 S   3 1.00       0.000000000000
      0.1873113696D+02  0.3349460434D-01
      0.2825394365D+01  0.2347269535D+00
      0.6401216923D+00  0.8137573261D+00
 S   1 1.00       0.000000000000
      0.1612777588D+00  0.1000000000D+01
 ****
      6 0
 S   6 1.00       0.000000000000
      0.3047524880D+04  0.1834737132D-02
      0.4573695180D+03  0.1403732281D-01
      0.1039486850D+03  0.6884262226D-01
      0.2921015530D+02  0.2321844432D+00
      0.9286662960D+01  0.4679413484D+00
      0.3163926960D+01  0.3623119853D+00
 SP   3 1.00       0.000000000000
      0.7868272350D+01 -0.1193324198D+00  0.6899906659D-01
      0.1881288540D+01 -0.1608541517D+00  0.3164239610D+00
      0.5442492580D+00  0.1143456438D+01  0.7443082909D+00
 SP   1 1.00       0.000000000000
      0.1687144782D+00  0.1000000000D+01  0.1000000000D+01
 D   1 1.00       0.000000000000
      0.8000000000D+00  0.1000000000D+01
 ****
      7 0
 S   6 1.00       0.000000000000
      0.3047524880D+04  0.1834737132D-02
      0.4573695180D+03  0.1403732281D-01
      0.1039486850D+03  0.6884262226D-01
      0.2921015530D+02  0.2321844432D+00
      0.9286662960D+01  0.4679413484D+00
      0.3163926960D+01  0.3623119853D+00
 SP   3 1.00       0.000000000000
      0.7868272350D+01 -0.1193324198D+00  0.6899906659D-01
      0.1881288540D+01 -0.1608541517D+00  0.3164239610D+00
      0.5442492580D+00  0.1143456438D+01  0.7443082909D+00
 SP   1 1.00       0.000000000000
      0.1687144782D+00  0.1000000000D+01  0.1000000000D+01
 D   1 1.00       0.000000000000
      0.8000000000D+00  0.1000000000D+01
 ****
      8 0
 S   6 1.00       0.000000000000
      0.3047524880D+04  0.1834737132D-02
      0.4573695180D+03  0.1403732281D-01
      0.1039486850D+03  0.6884262226D-01
      0.2921015530D+02  0.2321844432D+00
      0.9286662960D+01  0.4679413484D+00
      0.3163926960D+01  0.3623119853D+00
 SP   3 1.00       0.000000000000
      0.7868272350D+01 -0.1193324198D+00  0.6899906659D-01
      0.1881288540D+01 -0.1608541517D+00  0.3164239610D+00
      0.5442492580D+00  0.1143456438D+01  0.7443082909D+00
 SP   1 1.00       0.000000000000
      0.1687144782D+00  0.1000000000D+01  0.1000000000D+01
 D   1 1.00       0.000000000000
      0.8000000000D+00  0.1000000000D+01
 ****
      9 0
 S   3 1.00       0.000000000000
      0.1873113696D+02  0.3349460434D-01
      0.2825394365D+01  0.2347269535D+00
      0.6401216923D+00  0.8137573261D+00
 S   1 1.00       0.000000000000
      0.1612777588D+00  0.1000000000D+01
 ****
     10 0
 S   3 1.00       0.000000000000
      0.1873113696D+02  0.3349460434D-01
      0.2825394365D+01  0.2347269535D+00
      0.6401216923D+00  0.8137573261D+00
 S   1 1.00       0.000000000000
      0.1612777588D+00  0.1000000000D+01
 ****
     11 0
 S   6 1.00       0.000000000000
      0.3047524880D+04  0.1834737132D-02
      0.4573695180D+03  0.1403732281D-01
      0.1039486850D+03  0.6884262226D-01
      0.2921015530D+02  0.2321844432D+00
      0.9286662960D+01  0.4679413484D+00
      0.3163926960D+01  0.3623119853D+00
 SP   3 1.00       0.000000000000
      0.7868272350D+01 -0.1193324198D+00  0.6899906659D-01
      0.1881288540D+01 -0.1608541517D+00  0.3164239610D+00
      0.5442492580D+00  0.1143456438D+01  0.7443082909D+00
 SP   1 1.00       0.000000000000
      0.1687144782D+00  0.1000000000D+01  0.1000000000D+01
 D   1 1.00       0.000000000000
      0.8000000000D+00  0.1000000000D+01
 ****
     12 0
 S   3 1.00       0.000000000000
      0.1873113696D+02  0.3349460434D-01
      0.2825394365D+01  0.2347269535D+00
      0.6401216923D+00  0.8137573261D+00
 S   1 1.00       0.000000000000
      0.1612777588D+00  0.1000000000D+01
 ****
     13 0
 S   3 1.00       0.000000000000
      0.1873113696D+02  0.3349460434D-01
      0.2825394365D+01  0.2347269535D+00
      0.6401216923D+00  0.8137573261D+00
 S   1 1.00       0.000000000000
      0.1612777588D+00  0.1000000000D+01
 ****
     14 0
 S   6 1.00       0.000000000000
      0.3047524880D+04  0.1834737132D-02
      0.4573695180D+03  0.1403732281D-01
      0.1039486850D+03  0.6884262226D-01
      0.2921015530D+02  0.2321844432D+00
      0.9286662960D+01  0.4679413484D+00
      0.3163926960D+01  0.3623119853D+00
 SP   3 1.00       0.000000000000
      0.7868272350D+01 -0.1193324198D+00  0.6899906659D-01
      0.1881288540D+01 -0.1608541517D+00  0.3164239610D+00
      0.5442492580D+00  0.1143456438D+01  0.7443082909D+00
 SP   1 1.00       0.000000000000
      0.1687144782D+00  0.1000000000D+01  0.1000000000D+01
 D   1 1.00       0.000000000000
      0.8000000000D+00  0.1000000000D+01
 ****
     15 0
 S   3 1.00       0.000000000000
      0.1873113696D+02  0.3349460434D-01
      0.2825394365D+01  0.2347269535D+00
      0.6401216923D+00  0.8137573261D+00
 S   1 1.00       0.000000000000
      0.1612777588D+00  0.1000000000D+01
 ****
     16 0
 S   6 1.00       0.000000000000
      0.3047524880D+04  0.1834737132D-02
      0.4573695180D+03  0.1403732281D-01
      0.1039486850D+03  0.6884262226D-01
      0.2921015530D+02  0.2321844432D+00
      0.9286662960D+01  0.4679413484D+00
      0.3163926960D+01  0.3623119853D+00
 SP   3 1.00       0.000000000000
      0.7868272350D+01 -0.1193324198D+00  0.6899906659D-01
      0.1881288540D+01 -0.1608541517D+00  0.3164239610D+00
      0.5442492580D+00  0.1143456438D+01  0.7443082909D+00
 SP   1 1.00       0.000000000000
      0.1687144782D+00  0.1000000000D+01  0.1000000000D+01
 D   1 1.00       0.000000000000
      0.8000000000D+00  0.1000000000D+01
 ****
     17 0
 S   3 1.00       0.000000000000
      0.1873113696D+02  0.3349460434D-01
      0.2825394365D+01  0.2347269535D+00
      0.6401216923D+00  0.8137573261D+00
 S   1 1.00       0.000000000000
      0.1612777588D+00  0.1000000000D+01
 ****
     18 0
 S   6 1.00       0.000000000000
      0.3047524880D+04  0.1834737132D-02
      0.4573695180D+03  0.1403732281D-01
      0.1039486850D+03  0.6884262226D-01
      0.2921015530D+02  0.2321844432D+00
      0.9286662960D+01  0.4679413484D+00
      0.3163926960D+01  0.3623119853D+00
 SP   3 1.00       0.000000000000
      0.7868272350D+01 -0.1193324198D+00  0.6899906659D-01
      0.1881288540D+01 -0.1608541517D+00  0.3164239610D+00
      0.5442492580D+00  0.1143456438D+01  0.7443082909D+00
 SP   1 1.00       0.000000000000
      0.1687144782D+00  0.1000000000D+01  0.1000000000D+01
 D   1 1.00       0.000000000000
      0.8000000000D+00  0.1000000000D+01
 ****
     19 0
 S   3 1.00       0.000000000000
      0.1873113696D+02  0.3349460434D-01
      0.2825394365D+01  0.2347269535D+00
      0.6401216923D+00  0.8137573261D+00
 S   1 1.00       0.000000000000
      0.1612777588D+00  0.1000000000D+01
 ****
     20 0
 S   6 1.00       0.000000000000
      0.3047524880D+04  0.1834737132D-02
      0.4573695180D+03  0.1403732281D-01
      0.1039486850D+03  0.6884262226D-01
      0.2921015530D+02  0.2321844432D+00
      0.9286662960D+01  0.4679413484D+00
      0.3163926960D+01  0.3623119853D+00
 SP   3 1.00       0.000000000000
      0.7868272350D+01 -0.1193324198D+00  0.6899906659D-01
      0.1881288540D+01 -0.1608541517D+00  0.3164239610D+00
      0.5442492580D+00  0.1143456438D+01  0.7443082909D+00
 SP   1 1.00       0.000000000000
      0.1687144782D+00  0.1000000000D+01  0.1000000000D+01
 D   1 1.00       0.000000000000
      0.8000000000D+00  0.1000000000D+01
 ****
     21 0
 S   3 1.00       0.000000000000
      0.1873113696D+02  0.3349460434D-01
      0.2825394365D+01  0.2347269535D+00
      0.6401216923D+00  0.8137573261D+00
 S   1 1.00       0.000000000000
      0.1612777588D+00  0.1000000000D+01
 ****
     22 0
 S   6 1.00       0.000000000000
      0.3047524880D+04  0.1834737132D-02
      0.4573695180D+03  0.1403732281D-01
      0.1039486850D+03  0.6884262226D-01
      0.2921015530D+02  0.2321844432D+00
      0.9286662960D+01  0.4679413484D+00
      0.3163926960D+01  0.3623119853D+00
 SP   3 1.00       0.000000000000
      0.7868272350D+01 -0.1193324198D+00  0.6899906659D-01
      0.1881288540D+01 -0.1608541517D+00  0.3164239610D+00
      0.5442492580D+00  0.1143456438D+01  0.7443082909D+00
 SP   1 1.00       0.000000000000
      0.1687144782D+00  0.1000000000D+01  0.1000000000D+01
 D   1 1.00       0.000000000000
      0.8000000000D+00  0.1000000000D+01
 ****
     23 0
 S   3 1.00       0.000000000000
      0.1873113696D+02  0.3349460434D-01
      0.2825394365D+01  0.2347269535D+00
      0.6401216923D+00  0.8137573261D+00
 S   1 1.00       0.000000000000
      0.1612777588D+00  0.1000000000D+01
 ****
     24 0
 S   3 1.00       0.000000000000
      0.1873113696D+02  0.3349460434D-01
      0.2825394365D+01  0.2347269535D+00
      0.6401216923D+00  0.8137573261D+00
 S   1 1.00       0.000000000000
      0.1612777588D+00  0.1000000000D+01
 ****
     25 0
 S   6 1.00       0.000000000000
      0.3047524880D+04  0.1834737132D-02
      0.4573695180D+03  0.1403732281D-01
      0.1039486850D+03  0.6884262226D-01
      0.2921015530D+02  0.2321844432D+00
      0.9286662960D+01  0.4679413484D+00
      0.3163926960D+01  0.3623119853D+00
 SP   3 1.00       0.000000000000
      0.7868272350D+01 -0.1193324198D+00  0.6899906659D-01
      0.1881288540D+01 -0.1608541517D+00  0.3164239610D+00
      0.5442492580D+00  0.1143456438D+01  0.7443082909D+00
 SP   1 1.00       0.000000000000
      0.1687144782D+00  0.1000000000D+01  0.1000000000D+01
 D   1 1.00       0.000000000000
      0.8000000000D+00  0.1000000000D+01
 ****
     26 0
 S   3 1.00       0.000000000000
      0.1873113696D+02  0.3349460434D-01
      0.2825394365D+01  0.2347269535D+00
      0.6401216923D+00  0.8137573261D+00
 S   1 1.00       0.000000000000
      0.1612777588D+00  0.1000000000D+01
 ****
     27 0
 S   3 1.00       0.000000000000
      0.1873113696D+02  0.3349460434D-01
      0.2825394365D+01  0.2347269535D+00
      0.6401216923D+00  0.8137573261D+00
 S   1 1.00       0.000000000000
      0.1612777588D+00  0.1000000000D+01
 ****
     28 0
 S   6 1.00       0.000000000000
      0.3047524880D+04  0.1834737132D-02
      0.4573695180D+03  0.1403732281D-01
      0.1039486850D+03  0.6884262226D-01
      0.2921015530D+02  0.2321844432D+00
      0.9286662960D+01  0.4679413484D+00
      0.3163926960D+01  0.3623119853D+00
 SP   3 1.00       0.000000000000
      0.7868272350D+01 -0.1193324198D+00  0.6899906659D-01
      0.1881288540D+01 -0.1608541517D+00  0.3164239610D+00
      0.5442492580D+00  0.1143456438D+01  0.7443082909D+00
 SP   1 1.00       0.000000000000
      0.1687144782D+00  0.1000000000D+01  0.1000000000D+01
 D   1 1.00       0.000000000000
      0.8000000000D+00  0.1000000000D+01
 ****
     29 0
 S   6 1.00       0.000000000000
      0.3047524880D+04  0.1834737132D-02
      0.4573695180D+03  0.1403732281D-01
      0.1039486850D+03  0.6884262226D-01
      0.2921015530D+02  0.2321844432D+00
      0.9286662960D+01  0.4679413484D+00
      0.3163926960D+01  0.3623119853D+00
 SP   3 1.00       0.000000000000
      0.7868272350D+01 -0.1193324198D+00  0.6899906659D-01
      0.1881288540D+01 -0.1608541517D+00  0.3164239610D+00
      0.5442492580D+00  0.1143456438D+01  0.7443082909D+00
 SP   1 1.00       0.000000000000
      0.1687144782D+00  0.1000000000D+01  0.1000000000D+01
 D   1 1.00       0.000000000000
      0.8000000000D+00  0.1000000000D+01
 ****
     30 0
 S   3 1.00       0.000000000000
      0.1873113696D+02  0.3349460434D-01
      0.2825394365D+01  0.2347269535D+00
      0.6401216923D+00  0.8137573261D+00
 S   1 1.00       0.000000000000
      0.1612777588D+00  0.1000000000D+01
 ****
     31 0
 S   6 1.00       0.000000000000
      0.3047524880D+04  0.1834737132D-02
      0.4573695180D+03  0.1403732281D-01
      0.1039486850D+03  0.6884262226D-01
      0.2921015530D+02  0.2321844432D+00
      0.9286662960D+01  0.4679413484D+00
      0.3163926960D+01  0.3623119853D+00
 SP   3 1.00       0.000000000000
      0.7868272350D+01 -0.1193324198D+00  0.6899906659D-01
      0.1881288540D+01 -0.1608541517D+00  0.3164239610D+00
      0.5442492580D+00  0.1143456438D+01  0.7443082909D+00
 SP   1 1.00       0.000000000000
      0.1687144782D+00  0.1000000000D+01  0.1000000000D+01
 D   1 1.00       0.000000000000
      0.8000000000D+00  0.1000000000D+01
 ****
     32 0
 S   3 1.00       0.000000000000
      0.1873113696D+02  0.3349460434D-01
      0.2825394365D+01  0.2347269535D+00
      0.6401216923D+00  0.8137573261D+00
 S   1 1.00       0.000000000000
      0.1612777588D+00  0.1000000000D+01
 ****
     33 0
 S   3 1.00       0.000000000000
      0.1873113696D+02  0.3349460434D-01
      0.2825394365D+01  0.2347269535D+00
      0.6401216923D+00  0.8137573261D+00
 S   1 1.00       0.000000000000
      0.1612777588D+00  0.1000000000D+01
 ****
     34 0
 S   6 1.00       0.000000000000
      0.3047524880D+04  0.1834737132D-02
      0.4573695180D+03  0.1403732281D-01
      0.1039486850D+03  0.6884262226D-01
      0.2921015530D+02  0.2321844432D+00
      0.9286662960D+01  0.4679413484D+00
      0.3163926960D+01  0.3623119853D+00
 SP   3 1.00       0.000000000000
      0.7868272350D+01 -0.1193324198D+00  0.6899906659D-01
      0.1881288540D+01 -0.1608541517D+00  0.3164239610D+00
      0.5442492580D+00  0.1143456438D+01  0.7443082909D+00
 SP   1 1.00       0.000000000000
      0.1687144782D+00  0.1000000000D+01  0.1000000000D+01
 D   1 1.00       0.000000000000
      0.8000000000D+00  0.1000000000D+01
 ****
     35 0
 S   3 1.00       0.000000000000
      0.1873113696D+02  0.3349460434D-01
      0.2825394365D+01  0.2347269535D+00
      0.6401216923D+00  0.8137573261D+00
 S   1 1.00       0.000000000000
      0.1612777588D+00  0.1000000000D+01
 ****
     36 0
 S   3 1.00       0.000000000000
      0.1873113696D+02  0.3349460434D-01
      0.2825394365D+01  0.2347269535D+00
      0.6401216923D+00  0.8137573261D+00
 S   1 1.00       0.000000000000
      0.1612777588D+00  0.1000000000D+01
 ****
     37 0
 S   6 1.00       0.000000000000
      0.3047524880D+04  0.1834737132D-02
      0.4573695180D+03  0.1403732281D-01
      0.1039486850D+03  0.6884262226D-01
      0.2921015530D+02  0.2321844432D+00
      0.9286662960D+01  0.4679413484D+00
      0.3163926960D+01  0.3623119853D+00
 SP   3 1.00       0.000000000000
      0.7868272350D+01 -0.1193324198D+00  0.6899906659D-01
      0.1881288540D+01 -0.1608541517D+00  0.3164239610D+00
      0.5442492580D+00  0.1143456438D+01  0.7443082909D+00
 SP   1 1.00       0.000000000000
      0.1687144782D+00  0.1000000000D+01  0.1000000000D+01
 D   1 1.00       0.000000000000
      0.8000000000D+00  0.1000000000D+01
 ****
     38 0
 S   3 1.00       0.000000000000
      0.1873113696D+02  0.3349460434D-01
      0.2825394365D+01  0.2347269535D+00
      0.6401216923D+00  0.8137573261D+00
 S   1 1.00       0.000000000000
      0.1612777588D+00  0.1000000000D+01
 ****
     39 0
 S   6 1.00       0.000000000000
      0.3047524880D+04  0.1834737132D-02
      0.4573695180D+03  0.1403732281D-01
      0.1039486850D+03  0.6884262226D-01
      0.2921015530D+02  0.2321844432D+00
      0.9286662960D+01  0.4679413484D+00
      0.3163926960D+01  0.3623119853D+00
 SP   3 1.00       0.000000000000
      0.7868272350D+01 -0.1193324198D+00  0.6899906659D-01
      0.1881288540D+01 -0.1608541517D+00  0.3164239610D+00
      0.5442492580D+00  0.1143456438D+01  0.7443082909D+00
 SP   1 1.00       0.000000000000
      0.1687144782D+00  0.1000000000D+01  0.1000000000D+01
 D   1 1.00       0.000000000000
      0.8000000000D+00  0.1000000000D+01
 ****
     40 0
 S   3 1.00       0.000000000000
      0.1873113696D+02  0.3349460434D-01
      0.2825394365D+01  0.2347269535D+00
      0.6401216923D+00  0.8137573261D+00
 S   1 1.00       0.000000000000
      0.1612777588D+00  0.1000000000D+01
 ****
     41 0
 S   3 1.00       0.000000000000
      0.1873113696D+02  0.3349460434D-01
      0.2825394365D+01  0.2347269535D+00
      0.6401216923D+00  0.8137573261D+00
 S   1 1.00       0.000000000000
      0.1612777588D+00  0.1000000000D+01
 ****
     42 0
 S   3 1.00       0.000000000000
      0.1873113696D+02  0.3349460434D-01
      0.2825394365D+01  0.2347269535D+00
      0.6401216923D+00  0.8137573261D+00
 S   1 1.00       0.000000000000
      0.1612777588D+00  0.1000000000D+01
 ****
     43 0
 S   6 1.00       0.000000000000
      0.3047524880D+04  0.1834737132D-02
      0.4573695180D+03  0.1403732281D-01
      0.1039486850D+03  0.6884262226D-01
      0.2921015530D+02  0.2321844432D+00
      0.9286662960D+01  0.4679413484D+00
      0.3163926960D+01  0.3623119853D+00
 SP   3 1.00       0.000000000000
      0.7868272350D+01 -0.1193324198D+00  0.6899906659D-01
      0.1881288540D+01 -0.1608541517D+00  0.3164239610D+00
      0.5442492580D+00  0.1143456438D+01  0.7443082909D+00
 SP   1 1.00       0.000000000000
      0.1687144782D+00  0.1000000000D+01  0.1000000000D+01
 D   1 1.00       0.000000000000
      0.8000000000D+00  0.1000000000D+01
 ****
     44 0
 S   3 1.00       0.000000000000
      0.1873113696D+02  0.3349460434D-01
      0.2825394365D+01  0.2347269535D+00
      0.6401216923D+00  0.8137573261D+00
 S   1 1.00       0.000000000000
      0.1612777588D+00  0.1000000000D+01
 ****
     45 0
 S   6 1.00       0.000000000000
      0.3047524880D+04  0.1834737132D-02
      0.4573695180D+03  0.1403732281D-01
      0.1039486850D+03  0.6884262226D-01
      0.2921015530D+02  0.2321844432D+00
      0.9286662960D+01  0.4679413484D+00
      0.3163926960D+01  0.3623119853D+00
 SP   3 1.00       0.000000000000
      0.7868272350D+01 -0.1193324198D+00  0.6899906659D-01
      0.1881288540D+01 -0.1608541517D+00  0.3164239610D+00
      0.5442492580D+00  0.1143456438D+01  0.7443082909D+00
 SP   1 1.00       0.000000000000
      0.1687144782D+00  0.1000000000D+01  0.1000000000D+01
 D   1 1.00       0.000000000000
      0.8000000000D+00  0.1000000000D+01
 ****
     46 0
 S   3 1.00       0.000000000000
      0.1873113696D+02  0.3349460434D-01
      0.2825394365D+01  0.2347269535D+00
      0.6401216923D+00  0.8137573261D+00
 S   1 1.00       0.000000000000
      0.1612777588D+00  0.1000000000D+01
 ****
     47 0
 S   3 1.00       0.000000000000
      0.1873113696D+02  0.3349460434D-01
      0.2825394365D+01  0.2347269535D+00
      0.6401216923D+00  0.8137573261D+00
 S   1 1.00       0.000000000000
      0.1612777588D+00  0.1000000000D+01
 ****
     48 0
 S   3 1.00       0.000000000000
      0.1873113696D+02  0.3349460434D-01
      0.2825394365D+01  0.2347269535D+00
      0.6401216923D+00  0.8137573261D+00
 S   1 1.00       0.000000000000
      0.1612777588D+00  0.1000000000D+01
 ****
     49 0
 S   6 1.00       0.000000000000
      0.3047524880D+04  0.1834737132D-02
      0.4573695180D+03  0.1403732281D-01
      0.1039486850D+03  0.6884262226D-01
      0.2921015530D+02  0.2321844432D+00
      0.9286662960D+01  0.4679413484D+00
      0.3163926960D+01  0.3623119853D+00
 SP   3 1.00       0.000000000000
      0.7868272350D+01 -0.1193324198D+00  0.6899906659D-01
      0.1881288540D+01 -0.1608541517D+00  0.3164239610D+00
      0.5442492580D+00  0.1143456438D+01  0.7443082909D+00
 SP   1 1.00       0.000000000000
      0.1687144782D+00  0.1000000000D+01  0.1000000000D+01
 D   1 1.00       0.000000000000
      0.8000000000D+00  0.1000000000D+01
 ****
     50 0
 S   3 1.00       0.000000000000
      0.1873113696D+02  0.3349460434D-01
      0.2825394365D+01  0.2347269535D+00
      0.6401216923D+00  0.8137573261D+00
 S   1 1.00       0.000000000000
      0.1612777588D+00  0.1000000000D+01
 ****
     51 0
 S   3 1.00       0.000000000000
      0.1873113696D+02  0.3349460434D-01
      0.2825394365D+01  0.2347269535D+00
      0.6401216923D+00  0.8137573261D+00
 S   1 1.00       0.000000000000
      0.1612777588D+00  0.1000000000D+01
 ****
     52 0
 S   3 1.00       0.000000000000
      0.1873113696D+02  0.3349460434D-01
      0.2825394365D+01  0.2347269535D+00
      0.6401216923D+00  0.8137573261D+00
 S   1 1.00       0.000000000000
      0.1612777588D+00  0.1000000000D+01
 ****
     53 0
 S   6 1.00       0.000000000000
      0.5484671660D+04  0.1831074430D-02
      0.8252349460D+03  0.1395017220D-01
      0.1880469580D+03  0.6844507810D-01
      0.5296450000D+02  0.2327143360D+00
      0.1689757040D+02  0.4701928980D+00
      0.5799635340D+01  0.3585208530D+00
 SP   3 1.00       0.000000000000
      0.1553961625D+02 -0.1107775495D+00  0.7087426823D-01
      0.3599933586D+01 -0.1480262627D+00  0.3397528391D+00
      0.1013761750D+01  0.1130767015D+01  0.7271585773D+00
 SP   1 1.00       0.000000000000
      0.2700058226D+00  0.1000000000D+01  0.1000000000D+01
 D   1 1.00       0.000000000000
      0.8000000000D+00  0.1000000000D+01
 ****
     54 0
 S   6 1.00       0.000000000000
      0.5484671660D+04  0.1831074430D-02
      0.8252349460D+03  0.1395017220D-01
      0.1880469580D+03  0.6844507810D-01
      0.5296450000D+02  0.2327143360D+00
      0.1689757040D+02  0.4701928980D+00
      0.5799635340D+01  0.3585208530D+00
 SP   3 1.00       0.000000000000
      0.1553961625D+02 -0.1107775495D+00  0.7087426823D-01
      0.3599933586D+01 -0.1480262627D+00  0.3397528391D+00
      0.1013761750D+01  0.1130767015D+01  0.7271585773D+00
 SP   1 1.00       0.000000000000
      0.2700058226D+00  0.1000000000D+01  0.1000000000D+01
 D   1 1.00       0.000000000000
      0.8000000000D+00  0.1000000000D+01
 ****
     55 0
 S   3 1.00       0.000000000000
      0.1873113696D+02  0.3349460434D-01
      0.2825394365D+01  0.2347269535D+00
      0.6401216923D+00  0.8137573261D+00
 S   1 1.00       0.000000000000
      0.1612777588D+00  0.1000000000D+01
 ****
     56 0
 S   6 1.00       0.000000000000
      0.5484671660D+04  0.1831074430D-02
      0.8252349460D+03  0.1395017220D-01
      0.1880469580D+03  0.6844507810D-01
      0.5296450000D+02  0.2327143360D+00
      0.1689757040D+02  0.4701928980D+00
      0.5799635340D+01  0.3585208530D+00
 SP   3 1.00       0.000000000000
      0.1553961625D+02 -0.1107775495D+00  0.7087426823D-01
      0.3599933586D+01 -0.1480262627D+00  0.3397528391D+00
      0.1013761750D+01  0.1130767015D+01  0.7271585773D+00
 SP   1 1.00       0.000000000000
      0.2700058226D+00  0.1000000000D+01  0.1000000000D+01
 D   1 1.00       0.000000000000
      0.8000000000D+00  0.1000000000D+01
 ****
     57 0
 S   3 1.00       0.000000000000
      0.1873113696D+02  0.3349460434D-01
      0.2825394365D+01  0.2347269535D+00
      0.6401216923D+00  0.8137573261D+00
 S   1 1.00       0.000000000000
      0.1612777588D+00  0.1000000000D+01
 ****
     58 0
 S   6 1.00       0.000000000000
      0.3047524880D+04  0.1834737132D-02
      0.4573695180D+03  0.1403732281D-01
      0.1039486850D+03  0.6884262226D-01
      0.2921015530D+02  0.2321844432D+00
      0.9286662960D+01  0.4679413484D+00
      0.3163926960D+01  0.3623119853D+00
 SP   3 1.00       0.000000000000
      0.7868272350D+01 -0.1193324198D+00  0.6899906659D-01
      0.1881288540D+01 -0.1608541517D+00  0.3164239610D+00
      0.5442492580D+00  0.1143456438D+01  0.7443082909D+00
 SP   1 1.00       0.000000000000
      0.1687144782D+00  0.1000000000D+01  0.1000000000D+01
 D   1 1.00       0.000000000000
      0.8000000000D+00  0.1000000000D+01
 ****
     59 0
 S   3 1.00       0.000000000000
      0.1873113696D+02  0.3349460434D-01
      0.2825394365D+01  0.2347269535D+00
      0.6401216923D+00  0.8137573261D+00
 S   1 1.00       0.000000000000
      0.1612777588D+00  0.1000000000D+01
 ****
     60 0
 S   3 1.00       0.000000000000
      0.1873113696D+02  0.3349460434D-01
      0.2825394365D+01  0.2347269535D+00
      0.6401216923D+00  0.8137573261D+00
 S   1 1.00       0.000000000000
      0.1612777588D+00  0.1000000000D+01
 ****
     61 0
 S   6 1.00       0.000000000000
      0.3047524880D+04  0.1834737132D-02
      0.4573695180D+03  0.1403732281D-01
      0.1039486850D+03  0.6884262226D-01
      0.2921015530D+02  0.2321844432D+00
      0.9286662960D+01  0.4679413484D+00
      0.3163926960D+01  0.3623119853D+00
 SP   3 1.00       0.000000000000
      0.7868272350D+01 -0.1193324198D+00  0.6899906659D-01
      0.1881288540D+01 -0.1608541517D+00  0.3164239610D+00
      0.5442492580D+00  0.1143456438D+01  0.7443082909D+00
 SP   1 1.00       0.000000000000
      0.1687144782D+00  0.1000000000D+01  0.1000000000D+01
 D   1 1.00       0.000000000000
      0.8000000000D+00  0.1000000000D+01
 ****
     62 0
 S   3 1.00       0.000000000000
      0.1873113696D+02  0.3349460434D-01
      0.2825394365D+01  0.2347269535D+00
      0.6401216923D+00  0.8137573261D+00
 S   1 1.00       0.000000000000
      0.1612777588D+00  0.1000000000D+01
 ****
     63 0
 S   3 1.00       0.000000000000
      0.1873113696D+02  0.3349460434D-01
      0.2825394365D+01  0.2347269535D+00
      0.6401216923D+00  0.8137573261D+00
 S   1 1.00       0.000000000000
      0.1612777588D+00  0.1000000000D+01
 ****
     64 0
 S   6 1.00       0.000000000000
      0.3047524880D+04  0.1834737132D-02
      0.4573695180D+03  0.1403732281D-01
      0.1039486850D+03  0.6884262226D-01
      0.2921015530D+02  0.2321844432D+00
      0.9286662960D+01  0.4679413484D+00
      0.3163926960D+01  0.3623119853D+00
 SP   3 1.00       0.000000000000
      0.7868272350D+01 -0.1193324198D+00  0.6899906659D-01
      0.1881288540D+01 -0.1608541517D+00  0.3164239610D+00
      0.5442492580D+00  0.1143456438D+01  0.7443082909D+00
 SP   1 1.00       0.000000000000
      0.1687144782D+00  0.1000000000D+01  0.1000000000D+01
 D   1 1.00       0.000000000000
      0.8000000000D+00  0.1000000000D+01
 ****
     65 0
 S   3 1.00       0.000000000000
      0.1873113696D+02  0.3349460434D-01
      0.2825394365D+01  0.2347269535D+00
      0.6401216923D+00  0.8137573261D+00
 S   1 1.00       0.000000000000
      0.1612777588D+00  0.1000000000D+01
 ****
     66 0
 S   3 1.00       0.000000000000
      0.1873113696D+02  0.3349460434D-01
      0.2825394365D+01  0.2347269535D+00
      0.6401216923D+00  0.8137573261D+00
 S   1 1.00       0.000000000000
      0.1612777588D+00  0.1000000000D+01
 ****
     67 0
 S   6 1.00       0.000000000000
      0.3047524880D+04  0.1834737132D-02
      0.4573695180D+03  0.1403732281D-01
      0.1039486850D+03  0.6884262226D-01
      0.2921015530D+02  0.2321844432D+00
      0.9286662960D+01  0.4679413484D+00
      0.3163926960D+01  0.3623119853D+00
 SP   3 1.00       0.000000000000
      0.7868272350D+01 -0.1193324198D+00  0.6899906659D-01
      0.1881288540D+01 -0.1608541517D+00  0.3164239610D+00
      0.5442492580D+00  0.1143456438D+01  0.7443082909D+00
 SP   1 1.00       0.000000000000
      0.1687144782D+00  0.1000000000D+01  0.1000000000D+01
 D   1 1.00       0.000000000000
      0.8000000000D+00  0.1000000000D+01
 ****
     68 0
 S   3 1.00       0.000000000000
      0.1873113696D+02  0.3349460434D-01
      0.2825394365D+01  0.2347269535D+00
      0.6401216923D+00  0.8137573261D+00
 S   1 1.00       0.000000000000
      0.1612777588D+00  0.1000000000D+01
 ****
     69 0
 S   6 1.00       0.000000000000
      0.3047524880D+04  0.1834737132D-02
      0.4573695180D+03  0.1403732281D-01
      0.1039486850D+03  0.6884262226D-01
      0.2921015530D+02  0.2321844432D+00
      0.9286662960D+01  0.4679413484D+00
      0.3163926960D+01  0.3623119853D+00
 SP   3 1.00       0.000000000000
      0.7868272350D+01 -0.1193324198D+00  0.6899906659D-01
      0.1881288540D+01 -0.1608541517D+00  0.3164239610D+00
      0.5442492580D+00  0.1143456438D+01  0.7443082909D+00
 SP   1 1.00       0.000000000000
      0.1687144782D+00  0.1000000000D+01  0.1000000000D+01
 D   1 1.00       0.000000000000
      0.8000000000D+00  0.1000000000D+01
 ****
     70 0
 S   3 1.00       0.000000000000
      0.1873113696D+02  0.3349460434D-01
      0.2825394365D+01  0.2347269535D+00
      0.6401216923D+00  0.8137573261D+00
 S   1 1.00       0.000000000000
      0.1612777588D+00  0.1000000000D+01
 ****
     71 0
 S   3 1.00       0.000000000000
      0.1873113696D+02  0.3349460434D-01
      0.2825394365D+01  0.2347269535D+00
      0.6401216923D+00  0.8137573261D+00
 S   1 1.00       0.000000000000
      0.1612777588D+00  0.1000000000D+01
 ****
     72 0
 S   3 1.00       0.000000000000
      0.1873113696D+02  0.3349460434D-01
      0.2825394365D+01  0.2347269535D+00
      0.6401216923D+00  0.8137573261D+00
 S   1 1.00       0.000000000000
      0.1612777588D+00  0.1000000000D+01
 ****
     73 0
 S   6 1.00       0.000000000000
      0.3047524880D+04  0.1834737132D-02
      0.4573695180D+03  0.1403732281D-01
      0.1039486850D+03  0.6884262226D-01
      0.2921015530D+02  0.2321844432D+00
      0.9286662960D+01  0.4679413484D+00
      0.3163926960D+01  0.3623119853D+00
 SP   3 1.00       0.000000000000
      0.7868272350D+01 -0.1193324198D+00  0.6899906659D-01
      0.1881288540D+01 -0.1608541517D+00  0.3164239610D+00
      0.5442492580D+00  0.1143456438D+01  0.7443082909D+00
 SP   1 1.00       0.000000000000
      0.1687144782D+00  0.1000000000D+01  0.1000000000D+01
 D   1 1.00       0.000000000000
      0.8000000000D+00  0.1000000000D+01
 ****
     74 0
 S   3 1.00       0.000000000000
      0.1873113696D+02  0.3349460434D-01
      0.2825394365D+01  0.2347269535D+00
      0.6401216923D+00  0.8137573261D+00
 S   1 1.00       0.000000000000
      0.1612777588D+00  0.1000000000D+01
 ****
     75 0
 S   3 1.00       0.000000000000
      0.1873113696D+02  0.3349460434D-01
      0.2825394365D+01  0.2347269535D+00
      0.6401216923D+00  0.8137573261D+00
 S   1 1.00       0.000000000000
      0.1612777588D+00  0.1000000000D+01
 ****
     76 0
 S   3 1.00       0.000000000000
      0.1873113696D+02  0.3349460434D-01
      0.2825394365D+01  0.2347269535D+00
      0.6401216923D+00  0.8137573261D+00
 S   1 1.00       0.000000000000
      0.1612777588D+00  0.1000000000D+01
 ****

 AO basis set (Overlap normalization):
 Atom C1       Shell     1 S   6     bf    1 -     1          1.916126797490         -1.678794977522         -3.183056172219
      0.3047524880D+04  0.1834737132D-02
      0.4573695180D+03  0.1403732281D-01
      0.1039486850D+03  0.6884262226D-01
      0.2921015530D+02  0.2321844432D+00
      0.9286662960D+01  0.4679413484D+00
      0.3163926960D+01  0.3623119853D+00
 Atom C1       Shell     2 SP   3    bf    2 -     5          1.916126797490         -1.678794977522         -3.183056172219
      0.7868272350D+01 -0.1193324198D+00  0.6899906659D-01
      0.1881288540D+01 -0.1608541517D+00  0.3164239610D+00
      0.5442492580D+00  0.1143456438D+01  0.7443082909D+00
 Atom C1       Shell     3 SP   1    bf    6 -     9          1.916126797490         -1.678794977522         -3.183056172219
      0.1687144782D+00  0.1000000000D+01  0.1000000000D+01
 Atom C1       Shell     4 D   1     bf   10 -    15          1.916126797490         -1.678794977522         -3.183056172219
      0.8000000000D+00  0.1000000000D+01
 Atom H2       Shell     5 S   3     bf   16 -    16          2.164569318947          0.152585672038         -4.121719368473
      0.1873113696D+02  0.3349460434D-01
      0.2825394365D+01  0.2347269535D+00
      0.6401216923D+00  0.8137573261D+00
 Atom H2       Shell     6 S   1     bf   17 -    17          2.164569318947          0.152585672038         -4.121719368473
      0.1612777588D+00  0.1000000000D+01
 Atom C3       Shell     7 S   6     bf   18 -    18          4.250440350583         -3.326308600270         -3.705410849467
      0.3047524880D+04  0.1834737132D-02
      0.4573695180D+03  0.1403732281D-01
      0.1039486850D+03  0.6884262226D-01
      0.2921015530D+02  0.2321844432D+00
      0.9286662960D+01  0.4679413484D+00
      0.3163926960D+01  0.3623119853D+00
 Atom C3       Shell     8 SP   3    bf   19 -    22          4.250440350583         -3.326308600270         -3.705410849467
      0.7868272350D+01 -0.1193324198D+00  0.6899906659D-01
      0.1881288540D+01 -0.1608541517D+00  0.3164239610D+00
      0.5442492580D+00  0.1143456438D+01  0.7443082909D+00
 Atom C3       Shell     9 SP   1    bf   23 -    26          4.250440350583         -3.326308600270         -3.705410849467
      0.1687144782D+00  0.1000000000D+01  0.1000000000D+01
 Atom C3       Shell    10 D   1     bf   27 -    32          4.250440350583         -3.326308600270         -3.705410849467
      0.8000000000D+00  0.1000000000D+01
 Atom H4       Shell    11 S   3     bf   33 -    33          4.513914358414         -3.533613881411         -5.746251823850
      0.1873113696D+02  0.3349460434D-01
      0.2825394365D+01  0.2347269535D+00
      0.6401216923D+00  0.8137573261D+00
 Atom H4       Shell    12 S   1     bf   34 -    34          4.513914358414         -3.533613881411         -5.746251823850
      0.1612777588D+00  0.1000000000D+01
 Atom H5       Shell    13 S   3     bf   35 -    35          3.860348380164         -5.229615741339         -2.958991873766
      0.1873113696D+02  0.3349460434D-01
      0.2825394365D+01  0.2347269535D+00
      0.6401216923D+00  0.8137573261D+00
 Atom H5       Shell    14 S   1     bf   36 -    36          3.860348380164         -5.229615741339         -2.958991873766
      0.1612777588D+00  0.1000000000D+01
 Atom C6       Shell    15 S   6     bf   37 -    37          6.627988815591         -2.268220551672         -2.500197020059
      0.3047524880D+04  0.1834737132D-02
      0.4573695180D+03  0.1403732281D-01
      0.1039486850D+03  0.6884262226D-01
      0.2921015530D+02  0.2321844432D+00
      0.9286662960D+01  0.4679413484D+00
      0.3163926960D+01  0.3623119853D+00
 Atom C6       Shell    16 SP   3    bf   38 -    41          6.627988815591         -2.268220551672         -2.500197020059
      0.7868272350D+01 -0.1193324198D+00  0.6899906659D-01
      0.1881288540D+01 -0.1608541517D+00  0.3164239610D+00
      0.5442492580D+00  0.1143456438D+01  0.7443082909D+00
 Atom C6       Shell    17 SP   1    bf   42 -    45          6.627988815591         -2.268220551672         -2.500197020059
      0.1687144782D+00  0.1000000000D+01  0.1000000000D+01
 Atom C6       Shell    18 D   1     bf   46 -    51          6.627988815591         -2.268220551672         -2.500197020059
      0.8000000000D+00  0.1000000000D+01
 Atom C7       Shell    19 S   6     bf   52 -    52          6.487036184243         -1.644583980325          0.326949719662
      0.3047524880D+04  0.1834737132D-02
      0.4573695180D+03  0.1403732281D-01
      0.1039486850D+03  0.6884262226D-01
      0.2921015530D+02  0.2321844432D+00
      0.9286662960D+01  0.4679413484D+00
      0.3163926960D+01  0.3623119853D+00
 Atom C7       Shell    20 SP   3    bf   53 -    56          6.487036184243         -1.644583980325          0.326949719662
      0.7868272350D+01 -0.1193324198D+00  0.6899906659D-01
      0.1881288540D+01 -0.1608541517D+00  0.3164239610D+00
      0.5442492580D+00  0.1143456438D+01  0.7443082909D+00
 Atom C7       Shell    21 SP   1    bf   57 -    60          6.487036184243         -1.644583980325          0.326949719662
      0.1687144782D+00  0.1000000000D+01  0.1000000000D+01
 Atom C7       Shell    22 D   1     bf   61 -    66          6.487036184243         -1.644583980325          0.326949719662
      0.8000000000D+00  0.1000000000D+01
 Atom C8       Shell    23 S   6     bf   67 -    67          4.022698663973         -0.097731042003          0.802049451697
      0.3047524880D+04  0.1834737132D-02
      0.4573695180D+03  0.1403732281D-01
      0.1039486850D+03  0.6884262226D-01
      0.2921015530D+02  0.2321844432D+00
      0.9286662960D+01  0.4679413484D+00
      0.3163926960D+01  0.3623119853D+00
 Atom C8       Shell    24 SP   3    bf   68 -    71          4.022698663973         -0.097731042003          0.802049451697
      0.7868272350D+01 -0.1193324198D+00  0.6899906659D-01
      0.1881288540D+01 -0.1608541517D+00  0.3164239610D+00
      0.5442492580D+00  0.1143456438D+01  0.7443082909D+00
 Atom C8       Shell    25 SP   1    bf   72 -    75          4.022698663973         -0.097731042003          0.802049451697
      0.1687144782D+00  0.1000000000D+01  0.1000000000D+01
 Atom C8       Shell    26 D   1     bf   76 -    81          4.022698663973         -0.097731042003          0.802049451697
      0.8000000000D+00  0.1000000000D+01
 Atom H9       Shell    27 S   3     bf   82 -    82          4.284799218851          1.798937528955          0.000000000000
      0.1873113696D+02  0.3349460434D-01
      0.2825394365D+01  0.2347269535D+00
      0.6401216923D+00  0.8137573261D+00
 Atom H9       Shell    28 S   1     bf   83 -    83          4.284799218851          1.798937528955          0.000000000000
      0.1612777588D+00  0.1000000000D+01
 Atom H10      Shell    29 S   3     bf   84 -    84          3.756541868643          0.158140710978          2.838808447557
      0.1873113696D+02  0.3349460434D-01
      0.2825394365D+01  0.2347269535D+00
      0.6401216923D+00  0.8137573261D+00
 Atom H10      Shell    30 S   1     bf   85 -    85          3.756541868643          0.158140710978          2.838808447557
      0.1612777588D+00  0.1000000000D+01
 Atom C11      Shell    31 S   6     bf   86 -    86          1.615389620195         -1.249863560380         -0.342126582667
      0.3047524880D+04  0.1834737132D-02
      0.4573695180D+03  0.1403732281D-01
      0.1039486850D+03  0.6884262226D-01
      0.2921015530D+02  0.2321844432D+00
      0.9286662960D+01  0.4679413484D+00
      0.3163926960D+01  0.3623119853D+00
 Atom C11      Shell    32 SP   3    bf   87 -    90          1.615389620195         -1.249863560380         -0.342126582667
      0.7868272350D+01 -0.1193324198D+00  0.6899906659D-01
      0.1881288540D+01 -0.1608541517D+00  0.3164239610D+00
      0.5442492580D+00  0.1143456438D+01  0.7443082909D+00
 Atom C11      Shell    33 SP   1    bf   91 -    94          1.615389620195         -1.249863560380         -0.342126582667
      0.1687144782D+00  0.1000000000D+01  0.1000000000D+01
 Atom C11      Shell    34 D   1     bf   95 -   100          1.615389620195         -1.249863560380         -0.342126582667
      0.8000000000D+00  0.1000000000D+01
 Atom H12      Shell    35 S   3     bf  101 -   101          1.169175882779         -3.061954528082          0.573711594286
      0.1873113696D+02  0.3349460434D-01
      0.2825394365D+01  0.2347269535D+00
      0.6401216923D+00  0.8137573261D+00
 Atom H12      Shell    36 S   1     bf  102 -   102          1.169175882779         -3.061954528082          0.573711594286
      0.1612777588D+00  0.1000000000D+01
 Atom H13      Shell    37 S   3     bf  103 -   103          0.000000000000          0.000000000000          0.000000000000
      0.1873113696D+02  0.3349460434D-01
      0.2825394365D+01  0.2347269535D+00
      0.6401216923D+00  0.8137573261D+00
 Atom H13      Shell    38 S   1     bf  104 -   104          0.000000000000          0.000000000000          0.000000000000
      0.1612777588D+00  0.1000000000D+01
 Atom C14      Shell    39 S   6     bf  105 -   105          8.711943135805         -1.928795729354         -3.905024075973
      0.3047524880D+04  0.1834737132D-02
      0.4573695180D+03  0.1403732281D-01
      0.1039486850D+03  0.6884262226D-01
      0.2921015530D+02  0.2321844432D+00
      0.9286662960D+01  0.4679413484D+00
      0.3163926960D+01  0.3623119853D+00
 Atom C14      Shell    40 SP   3    bf  106 -   109          8.711943135805         -1.928795729354         -3.905024075973
      0.7868272350D+01 -0.1193324198D+00  0.6899906659D-01
      0.1881288540D+01 -0.1608541517D+00  0.3164239610D+00
      0.5442492580D+00  0.1143456438D+01  0.7443082909D+00
 Atom C14      Shell    41 SP   1    bf  110 -   113          8.711943135805         -1.928795729354         -3.905024075973
      0.1687144782D+00  0.1000000000D+01  0.1000000000D+01
 Atom C14      Shell    42 D   1     bf  114 -   119          8.711943135805         -1.928795729354         -3.905024075973
      0.8000000000D+00  0.1000000000D+01
 Atom H15      Shell    43 S   3     bf  120 -   120          8.660042544558         -2.413705332101         -5.903236438175
      0.1873113696D+02  0.3349460434D-01
      0.2825394365D+01  0.2347269535D+00
      0.6401216923D+00  0.8137573261D+00
 Atom H15      Shell    44 S   1     bf  121 -   121          8.660042544558         -2.413705332101         -5.903236438175
      0.1612777588D+00  0.1000000000D+01
 Atom C16      Shell    45 S   6     bf  122 -   122         11.169910351486         -0.901671750511         -2.928767953045
      0.3047524880D+04  0.1834737132D-02
      0.4573695180D+03  0.1403732281D-01
      0.1039486850D+03  0.6884262226D-01
      0.2921015530D+02  0.2321844432D+00
      0.9286662960D+01  0.4679413484D+00
      0.3163926960D+01  0.3623119853D+00
 Atom C16      Shell    46 SP   3    bf  123 -   126         11.169910351486         -0.901671750511         -2.928767953045
      0.7868272350D+01 -0.1193324198D+00  0.6899906659D-01
      0.1881288540D+01 -0.1608541517D+00  0.3164239610D+00
      0.5442492580D+00  0.1143456438D+01  0.7443082909D+00
 Atom C16      Shell    47 SP   1    bf  127 -   130         11.169910351486         -0.901671750511         -2.928767953045
      0.1687144782D+00  0.1000000000D+01  0.1000000000D+01
 Atom C16      Shell    48 D   1     bf  131 -   136         11.169910351486         -0.901671750511         -2.928767953045
      0.8000000000D+00  0.1000000000D+01
 Atom H17      Shell    49 S   3     bf  137 -   137         12.758147366152         -1.968067923362         -3.729185588431
      0.1873113696D+02  0.3349460434D-01
      0.2825394365D+01  0.2347269535D+00
      0.6401216923D+00  0.8137573261D+00
 Atom H17      Shell    50 S   1     bf  138 -   138         12.758147366152         -1.968067923362         -3.729185588431
      0.1612777588D+00  0.1000000000D+01
 Atom C18      Shell    51 S   6     bf  139 -   139         11.326268143653         -0.940199184552         -0.024308548802
      0.3047524880D+04  0.1834737132D-02
      0.4573695180D+03  0.1403732281D-01
      0.1039486850D+03  0.6884262226D-01
      0.2921015530D+02  0.2321844432D+00
      0.9286662960D+01  0.4679413484D+00
      0.3163926960D+01  0.3623119853D+00
 Atom C18      Shell    52 SP   3    bf  140 -   143         11.326268143653         -0.940199184552         -0.024308548802
      0.7868272350D+01 -0.1193324198D+00  0.6899906659D-01
      0.1881288540D+01 -0.1608541517D+00  0.3164239610D+00
      0.5442492580D+00  0.1143456438D+01  0.7443082909D+00
 Atom C18      Shell    53 SP   1    bf  144 -   147         11.326268143653         -0.940199184552         -0.024308548802
      0.1687144782D+00  0.1000000000D+01  0.1000000000D+01
 Atom C18      Shell    54 D   1     bf  148 -   153         11.326268143653         -0.940199184552         -0.024308548802
      0.8000000000D+00  0.1000000000D+01
 Atom H19      Shell    55 S   3     bf  154 -   154         11.613292031935         -2.936646693724          0.472047011748
      0.1873113696D+02  0.3349460434D-01
      0.2825394365D+01  0.2347269535D+00
      0.6401216923D+00  0.8137573261D+00
 Atom H19      Shell    56 S   1     bf  155 -   155         11.613292031935         -2.936646693724          0.472047011748
      0.1612777588D+00  0.1000000000D+01
 Atom C20      Shell    57 S   6     bf  156 -   156          8.811531306165          0.002089054445          1.153933087230
      0.3047524880D+04  0.1834737132D-02
      0.4573695180D+03  0.1403732281D-01
      0.1039486850D+03  0.6884262226D-01
      0.2921015530D+02  0.2321844432D+00
      0.9286662960D+01  0.4679413484D+00
      0.3163926960D+01  0.3623119853D+00
 Atom C20      Shell    58 SP   3    bf  157 -   160          8.811531306165          0.002089054445          1.153933087230
      0.7868272350D+01 -0.1193324198D+00  0.6899906659D-01
      0.1881288540D+01 -0.1608541517D+00  0.3164239610D+00
      0.5442492580D+00  0.1143456438D+01  0.7443082909D+00
 Atom C20      Shell    59 SP   1    bf  161 -   164          8.811531306165          0.002089054445          1.153933087230
      0.1687144782D+00  0.1000000000D+01  0.1000000000D+01
 Atom C20      Shell    60 D   1     bf  165 -   170          8.811531306165          0.002089054445          1.153933087230
      0.8000000000D+00  0.1000000000D+01
 Atom H21      Shell    61 S   3     bf  171 -   171          8.489636320450          1.892619851616          0.352298997337
      0.1873113696D+02  0.3349460434D-01
      0.2825394365D+01  0.2347269535D+00
      0.6401216923D+00  0.8137573261D+00
 Atom H21      Shell    62 S   1     bf  172 -   172          8.489636320450          1.892619851616          0.352298997337
      0.1612777588D+00  0.1000000000D+01
 Atom C22      Shell    63 S   6     bf  173 -   173          9.020844118966          0.331381051855          4.051973261874
      0.3047524880D+04  0.1834737132D-02
      0.4573695180D+03  0.1403732281D-01
      0.1039486850D+03  0.6884262226D-01
      0.2921015530D+02  0.2321844432D+00
      0.9286662960D+01  0.4679413484D+00
      0.3163926960D+01  0.3623119853D+00
 Atom C22      Shell    64 SP   3    bf  174 -   177          9.020844118966          0.331381051855          4.051973261874
      0.7868272350D+01 -0.1193324198D+00  0.6899906659D-01
      0.1881288540D+01 -0.1608541517D+00  0.3164239610D+00
      0.5442492580D+00  0.1143456438D+01  0.7443082909D+00
 Atom C22      Shell    65 SP   1    bf  178 -   181          9.020844118966          0.331381051855          4.051973261874
      0.1687144782D+00  0.1000000000D+01  0.1000000000D+01
 Atom C22      Shell    66 D   1     bf  182 -   187          9.020844118966          0.331381051855          4.051973261874
      0.8000000000D+00  0.1000000000D+01
 Atom H23      Shell    67 S   3     bf  188 -   188          9.038794684194         -1.521110994453          4.972528478714
      0.1873113696D+02  0.3349460434D-01
      0.2825394365D+01  0.2347269535D+00
      0.6401216923D+00  0.8137573261D+00
 Atom H23      Shell    68 S   1     bf  189 -   189          9.038794684194         -1.521110994453          4.972528478714
      0.1612777588D+00  0.1000000000D+01
 Atom H24      Shell    69 S   3     bf  190 -   190          7.331593853669          1.299448575709          4.759117360157
      0.1873113696D+02  0.3349460434D-01
      0.2825394365D+01  0.2347269535D+00
      0.6401216923D+00  0.8137573261D+00
 Atom H24      Shell    70 S   1     bf  191 -   191          7.331593853669          1.299448575709          4.759117360157
      0.1612777588D+00  0.1000000000D+01
 Atom C25      Shell    71 S   6     bf  192 -   192         11.372866163370          1.810927142069          4.933233853657
      0.3047524880D+04  0.1834737132D-02
      0.4573695180D+03  0.1403732281D-01
      0.1039486850D+03  0.6884262226D-01
      0.2921015530D+02  0.2321844432D+00
      0.9286662960D+01  0.4679413484D+00
      0.3163926960D+01  0.3623119853D+00
 Atom C25      Shell    72 SP   3    bf  193 -   196         11.372866163370          1.810927142069          4.933233853657
      0.7868272350D+01 -0.1193324198D+00  0.6899906659D-01
      0.1881288540D+01 -0.1608541517D+00  0.3164239610D+00
      0.5442492580D+00  0.1143456438D+01  0.7443082909D+00
 Atom C25      Shell    73 SP   1    bf  197 -   200         11.372866163370          1.810927142069          4.933233853657
      0.1687144782D+00  0.1000000000D+01  0.1000000000D+01
 Atom C25      Shell    74 D   1     bf  201 -   206         11.372866163370          1.810927142069          4.933233853657
      0.8000000000D+00  0.1000000000D+01
 Atom H26      Shell    75 S   3     bf  207 -   207         11.245997585302          3.777834509023          4.276771548855
      0.1873113696D+02  0.3349460434D-01
      0.2825394365D+01  0.2347269535D+00
      0.6401216923D+00  0.8137573261D+00
 Atom H26      Shell    76 S   1     bf  208 -   208         11.245997585302          3.777834509023          4.276771548855
      0.1612777588D+00  0.1000000000D+01
 Atom H27      Shell    77 S   3     bf  209 -   209         11.362441526953          1.877525588540          7.000946639163
      0.1873113696D+02  0.3349460434D-01
      0.2825394365D+01  0.2347269535D+00
      0.6401216923D+00  0.8137573261D+00
 Atom H27      Shell    78 S   1     bf  210 -   210         11.362441526953          1.877525588540          7.000946639163
      0.1612777588D+00  0.1000000000D+01
 Atom C28      Shell    79 S   6     bf  211 -   211         13.834098882501          0.640847819020          3.899387703220
      0.3047524880D+04  0.1834737132D-02
      0.4573695180D+03  0.1403732281D-01
      0.1039486850D+03  0.6884262226D-01
      0.2921015530D+02  0.2321844432D+00
      0.9286662960D+01  0.4679413484D+00
      0.3163926960D+01  0.3623119853D+00
 Atom C28      Shell    80 SP   3    bf  212 -   215         13.834098882501          0.640847819020          3.899387703220
      0.7868272350D+01 -0.1193324198D+00  0.6899906659D-01
      0.1881288540D+01 -0.1608541517D+00  0.3164239610D+00
      0.5442492580D+00  0.1143456438D+01  0.7443082909D+00
 Atom C28      Shell    81 SP   1    bf  216 -   219         13.834098882501          0.640847819020          3.899387703220
      0.1687144782D+00  0.1000000000D+01  0.1000000000D+01
 Atom C28      Shell    82 D   1     bf  220 -   225         13.834098882501          0.640847819020          3.899387703220
      0.8000000000D+00  0.1000000000D+01
 Atom C29      Shell    83 S   6     bf  226 -   226         13.567825793425          0.610591980824          0.974683095998
      0.3047524880D+04  0.1834737132D-02
      0.4573695180D+03  0.1403732281D-01
      0.1039486850D+03  0.6884262226D-01
      0.2921015530D+02  0.2321844432D+00
      0.9286662960D+01  0.4679413484D+00
      0.3163926960D+01  0.3623119853D+00
 Atom C29      Shell    84 SP   3    bf  227 -   230         13.567825793425          0.610591980824          0.974683095998
      0.7868272350D+01 -0.1193324198D+00  0.6899906659D-01
      0.1881288540D+01 -0.1608541517D+00  0.3164239610D+00
      0.5442492580D+00  0.1143456438D+01  0.7443082909D+00
 Atom C29      Shell    85 SP   1    bf  231 -   234         13.567825793425          0.610591980824          0.974683095998
      0.1687144782D+00  0.1000000000D+01  0.1000000000D+01
 Atom C29      Shell    86 D   1     bf  235 -   240         13.567825793425          0.610591980824          0.974683095998
      0.8000000000D+00  0.1000000000D+01
 Atom H30      Shell    87 S   3     bf  241 -   241         13.191596891711          2.581904601750          0.442953487405
      0.1873113696D+02  0.3349460434D-01
      0.2825394365D+01  0.2347269535D+00
      0.6401216923D+00  0.8137573261D+00
 Atom H30      Shell    88 S   1     bf  242 -   242         13.191596891711          2.581904601750          0.442953487405
      0.1612777588D+00  0.1000000000D+01
 Atom C31      Shell    89 S   6     bf  243 -   243         16.231532293098          0.000000000000          0.000000000000
      0.3047524880D+04  0.1834737132D-02
      0.4573695180D+03  0.1403732281D-01
      0.1039486850D+03  0.6884262226D-01
      0.2921015530D+02  0.2321844432D+00
      0.9286662960D+01  0.4679413484D+00
      0.3163926960D+01  0.3623119853D+00
 Atom C31      Shell    90 SP   3    bf  244 -   247         16.231532293098          0.000000000000          0.000000000000
      0.7868272350D+01 -0.1193324198D+00  0.6899906659D-01
      0.1881288540D+01 -0.1608541517D+00  0.3164239610D+00
      0.5442492580D+00  0.1143456438D+01  0.7443082909D+00
 Atom C31      Shell    91 SP   1    bf  248 -   251         16.231532293098          0.000000000000          0.000000000000
      0.1687144782D+00  0.1000000000D+01  0.1000000000D+01
 Atom C31      Shell    92 D   1     bf  252 -   257         16.231532293098          0.000000000000          0.000000000000
      0.8000000000D+00  0.1000000000D+01
 Atom H32      Shell    93 S   3     bf  258 -   258         16.526770102784          0.697718144332         -1.922540962622
      0.1873113696D+02  0.3349460434D-01
      0.2825394365D+01  0.2347269535D+00
      0.6401216923D+00  0.8137573261D+00
 Atom H32      Shell    94 S   1     bf  259 -   259         16.526770102784          0.697718144332         -1.922540962622
      0.1612777588D+00  0.1000000000D+01
 Atom H33      Shell    95 S   3     bf  260 -   260         16.556165132932         -2.048206276472         -0.039396122247
      0.1873113696D+02  0.3349460434D-01
      0.2825394365D+01  0.2347269535D+00
      0.6401216923D+00  0.8137573261D+00
 Atom H33      Shell    96 S   1     bf  261 -   261         16.556165132932         -2.048206276472         -0.039396122247
      0.1612777588D+00  0.1000000000D+01
 Atom C34      Shell    97 S   6     bf  262 -   262         17.996516016582          1.304253317786          1.951811346434
      0.3047524880D+04  0.1834737132D-02
      0.4573695180D+03  0.1403732281D-01
      0.1039486850D+03  0.6884262226D-01
      0.2921015530D+02  0.2321844432D+00
      0.9286662960D+01  0.4679413484D+00
      0.3163926960D+01  0.3623119853D+00
 Atom C34      Shell    98 SP   3    bf  263 -   266         17.996516016582          1.304253317786          1.951811346434
      0.7868272350D+01 -0.1193324198D+00  0.6899906659D-01
      0.1881288540D+01 -0.1608541517D+00  0.3164239610D+00
      0.5442492580D+00  0.1143456438D+01  0.7443082909D+00
 Atom C34      Shell    99 SP   1    bf  267 -   270         17.996516016582          1.304253317786          1.951811346434
      0.1687144782D+00  0.1000000000D+01  0.1000000000D+01
 Atom C34      Shell   100 D   1     bf  271 -   276         17.996516016582          1.304253317786          1.951811346434
      0.8000000000D+00  0.1000000000D+01
 Atom H35      Shell   101 S   3     bf  277 -   277         19.404042943119         -0.032541065111          2.676421370780
      0.1873113696D+02  0.3349460434D-01
      0.2825394365D+01  0.2347269535D+00
      0.6401216923D+00  0.8137573261D+00
 Atom H35      Shell   102 S   1     bf  278 -   278         19.404042943119         -0.032541065111          2.676421370780
      0.1612777588D+00  0.1000000000D+01
 Atom H36      Shell   103 S   3     bf  279 -   279         19.058989023494          2.856931393603          1.092915247694
      0.1873113696D+02  0.3349460434D-01
      0.2825394365D+01  0.2347269535D+00
      0.6401216923D+00  0.8137573261D+00
 Atom H36      Shell   104 S   1     bf  280 -   280         19.058989023494          2.856931393603          1.092915247694
      0.1612777588D+00  0.1000000000D+01
 Atom C37      Shell   105 S   6     bf  281 -   281         16.286377625680          2.285589856038          4.155058616108
      0.3047524880D+04  0.1834737132D-02
      0.4573695180D+03  0.1403732281D-01
      0.1039486850D+03  0.6884262226D-01
      0.2921015530D+02  0.2321844432D+00
      0.9286662960D+01  0.4679413484D+00
      0.3163926960D+01  0.3623119853D+00
 Atom C37      Shell   106 SP   3    bf  282 -   285         16.286377625680          2.285589856038          4.155058616108
      0.7868272350D+01 -0.1193324198D+00  0.6899906659D-01
      0.1881288540D+01 -0.1608541517D+00  0.3164239610D+00
      0.5442492580D+00  0.1143456438D+01  0.7443082909D+00
[...]
 **** Fit      -0.000103
 **** Fit      -0.000606
 **** Fit      -0.000580
 **** Fit      -0.000606
 **** Fit      -0.000691
 **** Fit      -0.000853
 **** Fit      -0.001111
 **** Fit      -0.001471
 **** Fit      -0.001902
 **** Fit      -0.002328
 **** Fit      -0.002651
 **** Fit      -0.002782
 **** Fit      -0.002674
 **** Fit      -0.002340
 **** Fit      -0.001859
 **** Fit      -0.001339
 **** Fit      -0.000872
 **** Fit      -0.000504
 **** Fit      -0.000241
 **** Fit      -0.000064
 **** Fit      -0.000868
 **** Fit      -0.000770
 **** Fit      -0.000720
 **** Fit      -0.000717
 **** Fit      -0.000758
 **** Fit      -0.000840
 **** Fit      -0.000966
 **** Fit      -0.001140
 **** Fit      -0.001358
 **** Fit      -0.001604
 **** Fit      -0.001850
 **** Fit      -0.002055
 **** Fit      -0.002164
 **** Fit      -0.002118
 **** Fit      -0.001900
 **** Fit      -0.001548
 **** Fit      -0.001141
 **** Fit      -0.000757
 **** Fit      -0.000443
 **** Fit      -0.000210
 **** Fit      -0.000993
 **** Fit      -0.000918
 **** Fit      -0.000886
 **** Fit      -0.000893
 **** Fit      -0.000926
 **** Fit      -0.000971
 **** Fit      -0.001016
 **** Fit      -0.001049
 **** Fit      -0.001061
 **** Fit      -0.001070
 **** Fit      -0.001120
 **** Fit      -0.001240
 **** Fit      -0.001387
 **** Fit      -0.001468
 **** Fit      -0.001412
 **** Fit      -0.001219
 **** Fit      -0.000944
 **** Fit      -0.000656
 **** Fit      -0.000401
 **** Fit      -0.000201
 **** Fit      -0.001167
 **** Fit      -0.001116
 **** Fit      -0.001097
 **** Fit      -0.001099
 **** Fit      -0.001101
 **** Fit      -0.001078
 **** Fit      -0.001000
 **** Fit      -0.000835
 **** Fit      -0.000573
 **** Fit      -0.000281
 **** Fit      -0.000110
 **** Fit      -0.000183
 **** Fit      -0.000453
 **** Fit      -0.000744
 **** Fit      -0.000904
 **** Fit      -0.000893
 **** Fit      -0.000759
 **** Fit      -0.000568
 **** Fit      -0.000375
 **** Fit      -0.001371
 **** Fit      -0.001342
 **** Fit      -0.001330
 **** Fit      -0.001314
 **** Fit      -0.001269
 **** Fit      -0.001158
 **** Fit      -0.000933
 **** Fit      -0.000540
 **** Fit       0.000035
 **** Fit       0.000666
 **** Fit       0.001067
 **** Fit       0.001007
 **** Fit       0.000548
 **** Fit      -0.000012
 **** Fit      -0.000419
 **** Fit      -0.000599
 **** Fit      -0.000600
 **** Fit      -0.000501
 **** Fit      -0.001573
 **** Fit      -0.001561
 **** Fit      -0.001548
 **** Fit      -0.001508
 **** Fit      -0.001410
 **** Fit      -0.001211
 **** Fit      -0.000853
 **** Fit      -0.000265
 **** Fit       0.000567
 **** Fit       0.001466
 **** Fit       0.002045
 **** Fit       0.001981
 **** Fit       0.001358
 **** Fit       0.000573
 **** Fit      -0.000038
 **** Fit      -0.000374
 **** Fit      -0.000487
 **** Fit      -0.000465
 **** Fit      -0.001736
 **** Fit      -0.001715
 **** Fit      -0.001650
 **** Fit      -0.001506
 **** Fit      -0.001244
 **** Fit      -0.000806
 **** Fit      -0.000125
 **** Fit       0.000801
 **** Fit       0.001778
 **** Fit       0.002403
 **** Fit       0.002346
 **** Fit       0.001691
 **** Fit       0.000845
 **** Fit       0.000158
 **** Fit      -0.000255
 **** Fit      -0.000435
 **** Fit      -0.000465
 **** Fit      -0.001720
 **** Fit      -0.001548
 **** Fit      -0.001259
 **** Fit      -0.000810
 **** Fit      -0.000158
 **** Fit       0.000681
 **** Fit       0.001534
 **** Fit       0.002071
 **** Fit       0.002037
 **** Fit       0.001495
 **** Fit       0.000769
 **** Fit       0.000150
 **** Fit      -0.000249
 **** Fit      -0.000446
 **** Fit      -0.000501
 **** Fit      -0.001533
 **** Fit      -0.001251
 **** Fit      -0.000846
 **** Fit      -0.000302
 **** Fit       0.000351
 **** Fit       0.000981
 **** Fit       0.001372
 **** Fit       0.001362
 **** Fit       0.000993
 **** Fit       0.000471
 **** Fit      -0.000001
 **** Fit      -0.000327
 **** Fit      -0.000503
 **** Fit      -0.000561
 **** Fit      -0.001465
 **** Fit      -0.001213
 **** Fit      -0.000876
 **** Fit      -0.000461
 **** Fit       0.000001
 **** Fit       0.000420
 **** Fit       0.000675
 **** Fit       0.000680
 **** Fit       0.000457
 **** Fit       0.000123
 **** Fit      -0.000201
 **** Fit      -0.000442
 **** Fit      -0.000581
 **** Fit      -0.000630
 **** Fit      -0.001142
 **** Fit      -0.000877
 **** Fit      -0.000573
 **** Fit      -0.000262
 **** Fit       0.000005
 **** Fit       0.000162
 **** Fit       0.000169
 **** Fit       0.000039
 **** Fit      -0.000168
 **** Fit      -0.000381
 **** Fit      -0.000550
 **** Fit      -0.000653
 **** Fit      -0.000844
 **** Fit      -0.000626
 **** Fit      -0.000417
 **** Fit      -0.000249
 **** Fit      -0.000154
 **** Fit      -0.000152
 **** Fit      -0.000233
 **** Fit      -0.000366
 **** Fit      -0.000508
 **** Fit      -0.000627
 **** Fit      -0.000632
 **** Fit      -0.000490
 **** Fit      -0.000382
 **** Fit      -0.000327
 **** Fit      -0.000330
 **** Fit      -0.000387
 **** Fit      -0.000478
 **** Fit      -0.000579
 **** Fit      -0.000408
 **** Fit      -0.000416
 **** Fit      -0.000889
 **** Fit      -0.001031
 **** Fit      -0.001242
 **** Fit      -0.001499
 **** Fit      -0.001760
 **** Fit      -0.001975
 **** Fit      -0.000747
 **** Fit      -0.000828
 **** Fit      -0.000995
 **** Fit      -0.001247
 **** Fit      -0.001557
 **** Fit      -0.001874
 **** Fit      -0.002133
 **** Fit      -0.002280
 **** Fit      -0.000684
 **** Fit      -0.000776
 **** Fit      -0.000966
 **** Fit      -0.001256
 **** Fit      -0.001617
 **** Fit      -0.001987
 **** Fit      -0.002287
 **** Fit      -0.002449
 **** Fit      -0.002443
 **** Fit      -0.002279
 **** Fit      -0.001999
 **** Fit      -0.001658
 **** Fit      -0.000627
 **** Fit      -0.000647
 **** Fit      -0.000750
 **** Fit      -0.000960
 **** Fit      -0.001281
 **** Fit      -0.001681
 **** Fit      -0.002089
 **** Fit      -0.002415
 **** Fit      -0.002583
 **** Fit      -0.002559
 **** Fit      -0.002358
 **** Fit      -0.002034
 **** Fit      -0.001653
 **** Fit      -0.001274
 **** Fit      -0.000615
 **** Fit      -0.000646
 **** Fit      -0.000763
 **** Fit      -0.000988
 **** Fit      -0.001324
 **** Fit      -0.001740
 **** Fit      -0.002160
 **** Fit      -0.002488
 **** Fit      -0.002645
 **** Fit      -0.002599
 **** Fit      -0.002368
 **** Fit      -0.002012
 **** Fit      -0.001605
 **** Fit      -0.001209
 **** Fit      -0.000864
 **** Fit      -0.000638
 **** Fit      -0.000684
 **** Fit      -0.000812
 **** Fit      -0.001041
 **** Fit      -0.001371
 **** Fit      -0.001771
 **** Fit      -0.002166
 **** Fit      -0.002468
 **** Fit      -0.002602
 **** Fit      -0.002536
 **** Fit      -0.002290
 **** Fit      -0.001924
 **** Fit      -0.001512
 **** Fit      -0.001118
 **** Fit      -0.000782
 **** Fit      -0.000691
 **** Fit      -0.000750
 **** Fit      -0.000880
 **** Fit      -0.001095
 **** Fit      -0.001392
 **** Fit      -0.001741
 **** Fit      -0.002078
 **** Fit      -0.002329
 **** Fit      -0.002430
 **** Fit      -0.002355
 **** Fit      -0.002119
 **** Fit      -0.001772
 **** Fit      -0.001383
 **** Fit      -0.001012
 **** Fit      -0.000697
 **** Fit      -0.000767
 **** Fit      -0.000827
 **** Fit      -0.000942
 **** Fit      -0.001120
 **** Fit      -0.001354
 **** Fit      -0.001621
 **** Fit      -0.001874
 **** Fit      -0.002061
 **** Fit      -0.002134
 **** Fit      -0.002067
 **** Fit      -0.001865
 **** Fit      -0.001567
 **** Fit      -0.001227
 **** Fit      -0.000899
 **** Fit      -0.000616
 **** Fit      -0.000901
 **** Fit      -0.000979
 **** Fit      -0.001092
 **** Fit      -0.001235
 **** Fit      -0.001395
 **** Fit      -0.001551
 **** Fit      -0.001674
 **** Fit      -0.001731
 **** Fit      -0.001694
 **** Fit      -0.001552
 **** Fit      -0.001327
 **** Fit      -0.001057
 **** Fit      -0.000786
 **** Fit      -0.000545
 **** Fit      -0.000964
 **** Fit      -0.000981
 **** Fit      -0.001002
 **** Fit      -0.001026
 **** Fit      -0.001059
 **** Fit      -0.001110
 **** Fit      -0.001181
 **** Fit      -0.001245
 **** Fit      -0.001263
 **** Fit      -0.001206
 **** Fit      -0.001071
 **** Fit      -0.000884
 **** Fit      -0.000679
 **** Fit      -0.001053
 **** Fit      -0.001012
 **** Fit      -0.000949
 **** Fit      -0.000856
 **** Fit      -0.000739
 **** Fit      -0.000628
 **** Fit      -0.000573
 **** Fit      -0.000605
 **** Fit      -0.000704
 **** Fit      -0.000806
 **** Fit      -0.000853
 **** Fit      -0.000820
 **** Fit      -0.000720
 **** Fit      -0.001144
 **** Fit      -0.001045
 **** Fit      -0.000893
 **** Fit      -0.000679
 **** Fit      -0.000415
 **** Fit      -0.000160
 **** Fit      -0.000004
 **** Fit      -0.000014
 **** Fit      -0.000167
 **** Fit      -0.000369
 **** Fit      -0.000526
 **** Fit      -0.000596
 **** Fit      -0.000581
 **** Fit      -0.001219
 **** Fit      -0.001064
 **** Fit      -0.000834
 **** Fit      -0.000517
 **** Fit      -0.000135
 **** Fit       0.000234
 **** Fit       0.000464
 **** Fit       0.000467
 **** Fit       0.000266
 **** Fit      -0.000020
 **** Fit      -0.000270
 **** Fit      -0.000423
 **** Fit      -0.000478
 **** Fit      -0.000459
 **** Fit      -0.001271
 **** Fit      -0.001075
 **** Fit      -0.000793
 **** Fit      -0.000419
 **** Fit       0.000022
 **** Fit       0.000439
 **** Fit       0.000701
 **** Fit       0.000712
 **** Fit       0.000495
 **** Fit       0.000176
 **** Fit      -0.000119
 **** Fit      -0.000321
 **** Fit      -0.000421
 **** Fit      -0.000441
 **** Fit      -0.001295
 **** Fit      -0.001079
 **** Fit      -0.000782
 **** Fit      -0.000403
 **** Fit       0.000026
 **** Fit       0.000423
 **** Fit       0.000670
 **** Fit       0.000688
 **** Fit       0.000496
 **** Fit       0.000200
 **** Fit      -0.000086
 **** Fit      -0.000295
 **** Fit      -0.000412
 **** Fit      -0.001288
 **** Fit      -0.001073
 **** Fit      -0.000792
 **** Fit      -0.000451
 **** Fit      -0.000081
 **** Fit       0.000249
 **** Fit       0.000454
 **** Fit       0.000477
 **** Fit       0.000332
 **** Fit       0.000096
 **** Fit      -0.000143
 **** Fit      -0.000328
 **** Fit      -0.000441
 **** Fit      -0.001052
 **** Fit      -0.000806
 **** Fit      -0.000523
 **** Fit      -0.000230
 **** Fit       0.000022
 **** Fit       0.000178
 **** Fit       0.000201
 **** Fit       0.000103
 **** Fit      -0.000067
 **** Fit      -0.000248
 **** Fit      -0.000396
 **** Fit      -0.000490
 **** Fit      -0.000809
 **** Fit      -0.000585
 **** Fit      -0.000365
 **** Fit      -0.000181
 **** Fit      -0.000069
 **** Fit      -0.000049
 **** Fit      -0.000112
 **** Fit      -0.000229
 **** Fit      -0.000358
 **** Fit      -0.000469
 **** Fit      -0.000622
 **** Fit      -0.000460
 **** Fit      -0.000329
 **** Fit      -0.000251
 **** Fit      -0.000236
 **** Fit      -0.000278
 **** Fit      -0.000357
 **** Fit      -0.000449
 **** Fit      -0.000422
 **** Fit      -0.000368
 **** Fit      -0.000358
 **** Fit      -0.000387
 **** Fit      -0.001434
 **** Fit      -0.001057
 **** Fit      -0.001252
 **** Fit      -0.001481
 **** Fit      -0.001706
 **** Fit      -0.001882
 **** Fit      -0.000907
 **** Fit      -0.001060
 **** Fit      -0.001273
 **** Fit      -0.001522
 **** Fit      -0.001764
 **** Fit      -0.001951
 **** Fit      -0.002043
 **** Fit      -0.000913
 **** Fit      -0.001074
 **** Fit      -0.001294
 **** Fit      -0.001547
 **** Fit      -0.001792
 **** Fit      -0.001978
 **** Fit      -0.002063
 **** Fit      -0.000932
 **** Fit      -0.001091
 **** Fit      -0.001303
 **** Fit      -0.001545
 **** Fit      -0.001774
 **** Fit      -0.001944
 **** Fit      -0.002016
 **** Fit      -0.001819
 **** Fit      -0.001587
 **** Fit      -0.000956
 **** Fit      -0.001100
 **** Fit      -0.001288
 **** Fit      -0.001497
 **** Fit      -0.001694
 **** Fit      -0.001836
 **** Fit      -0.001890
 **** Fit      -0.001693
 **** Fit      -0.001473
 **** Fit      -0.001087
 **** Fit      -0.001232
 **** Fit      -0.001392
 **** Fit      -0.001542
 **** Fit      -0.001649
 **** Fit      -0.001687
 **** Fit      -0.001042
 **** Fit      -0.001128
 **** Fit      -0.001226
 **** Fit      -0.001319
 **** Fit      -0.001390
 **** Fit      -0.001418
 **** Fit      -0.001387
 **** Fit      -0.001291
 **** Fit      -0.000956
 **** Fit      -0.000963
 **** Fit      -0.000978
 **** Fit      -0.001002
 **** Fit      -0.001037
 **** Fit      -0.001075
 **** Fit      -0.001101
 **** Fit      -0.001097
 **** Fit      -0.001047
 **** Fit      -0.000918
 **** Fit      -0.000856
 **** Fit      -0.000792
 **** Fit      -0.000739
 **** Fit      -0.000715
 **** Fit      -0.000727
 **** Fit      -0.000763
 **** Fit      -0.000796
 **** Fit      -0.000799
 **** Fit      -0.000762
 **** Fit      -0.000979
 **** Fit      -0.000870
 **** Fit      -0.000738
 **** Fit      -0.000596
 **** Fit      -0.000470
 **** Fit      -0.000394
 **** Fit      -0.000387
 **** Fit      -0.000439
 **** Fit      -0.000514
 **** Fit      -0.000573
 **** Fit      -0.000593
 **** Fit      -0.000981
 **** Fit      -0.000823
 **** Fit      -0.000632
 **** Fit      -0.000427
 **** Fit      -0.000244
 **** Fit      -0.000128
 **** Fit      -0.000109
 **** Fit      -0.000177
 **** Fit      -0.000288
 **** Fit      -0.000393
 **** Fit      -0.000462
 **** Fit      -0.000482
 **** Fit      -0.000980
 **** Fit      -0.000788
 **** Fit      -0.000561
 **** Fit      -0.000319
 **** Fit      -0.000105
 **** Fit       0.000031
 **** Fit       0.000058
 **** Fit      -0.000017
 **** Fit      -0.000146
 **** Fit      -0.000279
 **** Fit      -0.000378
 **** Fit      -0.000429
 **** Fit      -0.000976
 **** Fit      -0.000772
 **** Fit      -0.000534
 **** Fit      -0.000287
 **** Fit      -0.000071
 **** Fit       0.000067
 **** Fit       0.000097
 **** Fit       0.000029
 **** Fit      -0.000099
 **** Fit      -0.000235
 **** Fit      -0.000345
 **** Fit      -0.000770
 **** Fit      -0.000545
 **** Fit      -0.000317
 **** Fit      -0.000121
 **** Fit       0.000004
 **** Fit       0.000035
 **** Fit      -0.000020
 **** Fit      -0.000129
 **** Fit      -0.000251
 **** Fit      -0.000354
 **** Fit      -0.000774
 **** Fit      -0.000575
 **** Fit      -0.000380
 **** Fit      -0.000216
 **** Fit      -0.000111
 **** Fit      -0.000081
 **** Fit      -0.000120
 **** Fit      -0.000205
 **** Fit      -0.000304
 **** Fit      -0.000608
 **** Fit      -0.000449
 **** Fit      -0.000318
 **** Fit      -0.000234
 **** Fit      -0.000207
 **** Fit      -0.000233
 **** Fit      -0.000295
 **** Fit      -0.000403
 **** Fit      -0.000338
 **** Fit      -0.000316
 **** Fit      -0.000938
 **** Fit      -0.000950
 **** Fit      -0.000967
 **** Fit      -0.000983
 **** Fit      -0.000989
 **** Fit      -0.000853
 **** Fit      -0.000810
 **** Fit      -0.000777
 **** Fit      -0.000760
 **** Fit      -0.000759
 **** Fit      -0.000767
 **** Fit      -0.000770
 **** Fit      -0.000770
 **** Fit      -0.000681
 **** Fit      -0.000607
 **** Fit      -0.000560
 **** Fit      -0.000545
 **** Fit      -0.000557
 **** Fit      -0.000581
 **** Fit      -0.000596
 **** Fit      -0.000695
 **** Fit      -0.000570
 **** Fit      -0.000463
 **** Fit      -0.000392
 **** Fit      -0.000368
 **** Fit      -0.000386
 **** Fit      -0.000426
 **** Fit      -0.000467
 **** Fit      -0.000641
 **** Fit      -0.000493
 **** Fit      -0.000365
 **** Fit      -0.000281
 **** Fit      -0.000251
 **** Fit      -0.000271
 **** Fit      -0.000322
 **** Fit      -0.000379
 **** Fit      -0.000613
 **** Fit      -0.000457
 **** Fit      -0.000323
 **** Fit      -0.000234
 **** Fit      -0.000202
 **** Fit      -0.000221
 **** Fit      -0.000274
 **** Fit      -0.000337
 **** Fit      -0.000457
 **** Fit      -0.000330
 **** Fit      -0.000245
 **** Fit      -0.000211
 **** Fit      -0.000226
 **** Fit      -0.000274
 **** Fit      -0.000368
 **** Fit      -0.000291
 **** Fit      -0.000259
 **** Fit      -0.000268
 -----------------------------------------------------------------
 Leave Link  602 at Fri Apr 28 11:53:14 2017, MaxMem=    33554432 cpu:        38.8
 (Enter /home/michal/g09/l9999.exe)

 Test job not archived.
 1\1\GINC-LINUX\SP\RHF\6-31G(d)\C27H46O3\MICHAL\28-Apr-2017\0\\#P HF/6-
 31G* SCF(Conver=6) NoSymm Test Pop=chelpg IOp(6/33=2) GFInput GFPrint\
 \MEP - Input generated by R.E.D.-III.x MOLECULE\\0,1\C,0,1.01397063,-0
 .88838004,-1.68440078\H,0,1.14544075,0.08074486,-2.18111995\C,0,2.2492
 3616,-1.7602067,-1.96081897\H,0,2.3886606,-1.86990793,-3.0407855\H,0,2
 .04280838,-2.76739346,-1.56583106\C,0,3.50738062,-1.20029062,-1.323047
 28\C,0,3.4327917,-0.87027636,0.17301434\C,0,2.12872045,-0.05171704,0.4
 2442629\H,0,2.26741809,0.95195674,0.\H,0,1.98787634,0.08368446,1.50223
 273\C,0,0.85482737,-0.66139931,-0.18104559\H,0,0.61870123,-1.62031655,
 0.3035951\H,0,0.,0.,0.\C,0,4.61016175,-1.02067474,-2.06644974\H,0,4.58
 269714,-1.27727785,-3.12385818\C,0,5.91086198,-0.47714414,-1.54983725\
 H,0,6.75132081,-1.04145669,-1.97340002\C,0,5.99360296,-0.49753198,-0.0
 1286353\H,0,6.14548946,-1.5540065,0.24979652\C,0,4.66286154,0.00110548
 ,0.61063509\H,0,4.49252205,1.00153129,0.1864286\C,0,4.77362511,0.17535
 93,2.1442119\H,0,4.78312414,-0.80493727,2.63134874\H,0,3.87971237,0.68
 763857,2.51841644\C,0,6.01826157,0.95830137,2.61055492\H,0,5.95112561,
 1.99914392,2.26317003\H,0,6.01274509,0.99354375,3.7047414\C,0,7.320689
 83,0.33912206,2.0634671\C,0,7.17978418,0.32311136,0.51578008\H,0,6.980
 69242,1.36628507,0.23440089\C,0,8.58935695,0.,0.\H,0,8.74559007,0.3692
 1654,-1.01736486\H,0,8.76114525,-1.08386408,-0.02084753\C,0,9.52334611
 ,0.69018113,1.03285408\H,0,10.26817728,-0.01721999,1.41630119\H,0,10.0
 8558261,1.51182298,0.57834584\C,0,8.61837985,1.20948206,2.19876232\H,0
 ,8.31130777,2.23767595,1.95754644\C,0,7.5529329,-1.06723594,2.66058853
 \H,0,6.7562934,-1.76927502,2.40110519\H,0,8.49390496,-1.50718628,2.316
 71665\H,0,7.59552855,-1.02033343,3.75405738\C,0,9.3674119,1.2576869,3.
 5535211\H,0,9.68027826,0.23048951,3.79176939\C,0,8.50000537,1.75341212
 ,4.7261453\H,0,8.00800161,2.7054363,4.49750616\H,0,9.11614069,1.905094
 42,5.62041603\H,0,7.71885726,1.0356559,4.98951767\C,0,3.36937029,-2.20
 715985,0.96172355\H,0,3.1144164,-2.03774448,2.01201515\H,0,2.61380066,
 -2.88231147,0.55304141\H,0,4.32686894,-2.73580939,0.92279694\O,0,6.097
 02742,0.90603879,-1.95917715\O,0,6.27916739,0.91760443,-3.40292749\H,0
 ,5.43780846,1.30828421,-3.69173621\O,0,-0.16365627,-1.43186216,-2.2863
 1505\H,0,-0.35712105,-2.2855155,-1.87399323\C,0,10.68111654,2.08036157
 ,3.46834668\H,0,11.19313582,1.98729478,4.43694573\H,0,11.3520725,1.619
 11719,2.73292599\C,0,10.53911293,3.57499175,3.13469252\H,0,10.06279344
 ,3.69035176,2.15348409\H,0,9.87158489,4.05341413,3.8615004\C,0,11.8988
 9678,4.29297031,3.13385702\H,0,12.56408972,3.78470403,2.42067902\H,0,1
 2.36306892,4.16552887,4.12268696\C,0,11.88664888,5.80168157,2.79423476
 \H,0,12.9346988,6.13140829,2.85117829\C,0,11.4031123,6.08332926,1.3618
 7316\H,0,10.34209968,5.83821669,1.23692857\H,0,11.52456635,7.14328374,
 1.11081678\H,0,11.9698222,5.49928356,0.62719498\C,0,11.09602179,6.6336
 9734,3.8176018\H,0,10.02374265,6.40972926,3.77863151\H,0,11.2126335,7.
 7057725,3.62181746\H,0,11.4410283,6.44155292,4.84046575\\Version=EM64L
 -G09RevD.01\HF=-1273.6829869\RMSD=5.672e-07\Dipole=-0.3571194,-0.60187
 65,0.7147648\Quadrupole=-9.194293,7.7419938,1.4522993,-4.6633335,4.402
 4822,-0.5523779\PG=C01 [X(C27H46O3)]\\@


 SCIENCE AND PEACE WILL TRIUMPH OVER IGNORANCE AND WAR

                          -- PASTEUR
 Job cpu time:       0 days  0 hours 12 minutes 17.6 seconds.
 File lengths (MBytes):  RWF=    159 Int=      0 D2E=      0 Chk=     11 Scr=      1
 Normal termination of Gaussian 09 at Fri Apr 28 11:53:14 2017.
