 Entering Gaussian System, Link 0=/home/michal/g09/g09
 Input=JOB2-gau_m1-12-2.com
 Output=JOB2-gau_m1-12-2.log
 Initial command:
 /home/michal/g09/l1.exe "/home/michal/gauss_scratch/Gau-17249.inp" -scrdir="/home/michal/gauss_scratch/"
 Entering Link 1 = /home/michal/g09/l1.exe PID=     17250.
  
 Copyright (c) 1988,1990,1992,1993,1995,1998,2003,2009,2013,
            Gaussian, Inc.  All Rights Reserved.
  
 This is part of the Gaussian(R) 09 program.  It is based on
 the Gaussian(R) 03 system (copyright 2003, Gaussian, Inc.),
 the Gaussian(R) 98 system (copyright 1998, Gaussian, Inc.),
 the Gaussian(R) 94 system (copyright 1995, Gaussian, Inc.),
 the Gaussian 92(TM) system (copyright 1992, Gaussian, Inc.),
 the Gaussian 90(TM) system (copyright 1990, Gaussian, Inc.),
 the Gaussian 88(TM) system (copyright 1988, Gaussian, Inc.),
 the Gaussian 86(TM) system (copyright 1986, Carnegie Mellon
 University), and the Gaussian 82(TM) system (copyright 1983,
 Carnegie Mellon University). Gaussian is a federally registered
 trademark of Gaussian, Inc.
  
 This software contains proprietary and confidential information,
 including trade secrets, belonging to Gaussian, Inc.
  
 This software is provided under written license and may be
 used, copied, transmitted, or stored only in accord with that
 written license.
  
 The following legend is applicable only to US Government
 contracts under FAR:
  
                    RESTRICTED RIGHTS LEGEND
  
 Use, reproduction and disclosure by the US Government is
 subject to restrictions as set forth in subparagraphs (a)
 and (c) of the Commercial Computer Software - Restricted
 Rights clause in FAR 52.227-19.
  
 Gaussian, Inc.
 340 Quinnipiac St., Bldg. 40, Wallingford CT 06492
  
  
 ---------------------------------------------------------------
 Warning -- This program may not be used in any manner that
 competes with the business of Gaussian, Inc. or will provide
 assistance to any competitor of Gaussian, Inc.  The licensee
 of this program is prohibited from giving any competitor of
 Gaussian, Inc. access to this program.  By using this program,
 the user acknowledges that Gaussian, Inc. is engaged in the
 business of creating and licensing software in the field of
 computational chemistry and represents and warrants to the
 licensee that it is not a competitor of Gaussian, Inc. and that
 it will not use this program in any manner prohibited above.
 ---------------------------------------------------------------
  

 Cite this work as:
 Gaussian 09, Revision D.01,
 M. J. Frisch, G. W. Trucks, H. B. Schlegel, G. E. Scuseria, 
 M. A. Robb, J. R. Cheeseman, G. Scalmani, V. Barone, B. Mennucci, 
 G. A. Petersson, H. Nakatsuji, M. Caricato, X. Li, H. P. Hratchian, 
 A. F. Izmaylov, J. Bloino, G. Zheng, J. L. Sonnenberg, M. Hada, 
 M. Ehara, K. Toyota, R. Fukuda, J. Hasegawa, M. Ishida, T. Nakajima, 
 Y. Honda, O. Kitao, H. Nakai, T. Vreven, J. A. Montgomery, Jr., 
 J. E. Peralta, F. Ogliaro, M. Bearpark, J. J. Heyd, E. Brothers, 
 K. N. Kudin, V. N. Staroverov, T. Keith, R. Kobayashi, J. Normand, 
 K. Raghavachari, A. Rendell, J. C. Burant, S. S. Iyengar, J. Tomasi, 
 M. Cossi, N. Rega, J. M. Millam, M. Klene, J. E. Knox, J. B. Cross, 
 V. Bakken, C. Adamo, J. Jaramillo, R. Gomperts, R. E. Stratmann, 
 O. Yazyev, A. J. Austin, R. Cammi, C. Pomelli, J. W. Ochterski, 
 R. L. Martin, K. Morokuma, V. G. Zakrzewski, G. A. Voth, 
 P. Salvador, J. J. Dannenberg, S. Dapprich, A. D. Daniels, 
 O. Farkas, J. B. Foresman, J. V. Ortiz, J. Cioslowski, 
 and D. J. Fox, Gaussian, Inc., Wallingford CT, 2013.
 
 ******************************************
 Gaussian 09:  EM64L-G09RevD.01 24-Apr-2013
                28-Apr-2017 
 ******************************************
 %Mem=256MB
 %NProc=12
 Will use up to   12 processors via shared memory.
 ----------------------------------------------------------------------
 #P HF/6-31G* SCF(Conver=6) NoSymm Test Pop=chelpg IOp(6/33=2) GFInput 
 GFPrint
 ----------------------------------------------------------------------
 1/38=1/1;
 2/12=2,15=1,17=6,18=5,40=1/2;
 3/5=1,6=6,7=1,11=9,16=1,24=110,25=1,30=1/1,2,3;
 4//1;
 5/5=2,6=6,38=5/2;
 6/7=2,8=2,9=2,10=2,15=8,20=3,28=1,33=2/1,2;
 99/5=1,9=1/99;
 Leave Link    1 at Fri Apr 28 12:35:29 2017, MaxMem=    33554432 cpu:         0.6
 (Enter /home/michal/g09/l101.exe)
 ----------------------------------------------
 MEP - Input generated by R.E.D.-III.x MOLECULE
 ----------------------------------------------
 Symbolic Z-matrix:
 Charge =  0 Multiplicity = 1
 C                     7.50843   2.15044  -0.05203 
 H                     7.40397   2.06948   1.03691 
 C                     6.75683   0.98323  -0.71158 
 H                     7.14679   0.03311  -0.33341 
 H                     6.97977   1.00869  -1.78988 
 C                     5.25754   1.06134  -0.4897 
 C                     4.57561   2.38612  -0.85357 
 C                     5.4101    3.54829  -0.23148 
 H                     5.25969   3.5334    0.85658 
 H                     5.0168    4.50709  -0.58622 
 C                     6.91934   3.4838   -0.51247 
 H                     7.11682   3.61132  -1.58713 
 H                     7.43165   4.3059    0. 
 C                     4.59808   0.        0. 
 H                     5.1543   -0.90529   0.23619 
 C                     3.11994  -0.04339   0.26053 
 H                     2.7083   -1.00926  -0.05864 
 C                     2.36117   1.10094  -0.43571 
 H                     2.34495   0.82565  -1.49967 
 C                     3.1225    2.4417   -0.26308 
 H                     3.24053   2.57898   0.82182 
 C                     2.29764   3.64374  -0.78148 
 H                     2.28566   3.64422  -1.87619 
 H                     2.78928   4.57792  -0.48632 
 C                     0.83843   3.68006  -0.28321 
 H                     0.82366   3.83746   0.80468 
 H                     0.34504   4.54877  -0.73006 
 C                     0.0924    2.36715  -0.60002 
 C                     0.91512   1.22949   0.06726 
 H                     0.98183   1.50617   1.12849 
 C                     0.        0.        0. 
 H                     0.24963  -0.73872   0.76667 
 H                     0.0879   -0.50176  -0.97218 
 C                    -1.42139   0.59583   0.19273 
 H                    -2.10601   0.23468  -0.58424 
 H                    -1.85053   0.28628   1.15009 
 C                    -1.28693   2.15598   0.11808 
 H                    -1.15562   2.53404   1.14433 
 C                    -0.06497   2.17483  -2.12583 
 H                     0.89671   2.10298  -2.64054 
 H                    -0.62732   1.26751  -2.36633 
 H                    -0.60414   3.01831  -2.56953 
 C                    -2.56067   2.83574  -0.44869 
 H                    -2.74773   2.41722  -1.44965 
 C                    -2.42534   4.36214  -0.59082 
 H                    -2.1612    4.82334   0.36932 
 H                    -3.36336   4.81295  -0.92816 
 H                    -1.65925   4.64311  -1.31677 
 C                     4.56946   2.51982  -2.40129 
 H                     4.27761   3.52725  -2.71232 
 H                     5.55642   2.32569  -2.82786 
 H                     3.87641   1.80636  -2.85778 
 O                     2.83743   0.07406   1.6824 
 O                     3.32981  -1.13197   2.33098 
 H                     4.10174  -0.78325   2.80685 
 O                     8.91836   2.06602  -0.27439 
 H                     9.08892   2.1569   -1.22244 
 C                    -3.78915   2.48467   0.42783 
 H                    -3.80902   1.40327   0.60673 
 H                    -3.65622   2.95337   1.41368 
 C                    -5.15095   2.88338  -0.16621 
 H                    -5.23927   3.97382  -0.2319 
 H                    -5.20187   2.51585  -1.20107 
 C                    -6.36145   2.31635   0.59854 
 H                    -6.29579   1.21869   0.59236 
 H                    -7.27739   2.56832   0.04354 
 C                    -6.53999   2.78467   2.05863 
 H                    -5.63162   2.51979   2.61844 
 C                    -6.73455   4.30539   2.1675 
 H                    -7.61972   4.62601   1.60266 
 H                    -6.87982   4.6074    3.21098 
 H                    -5.87384   4.86107   1.78143 
 C                    -7.71645   2.04286   2.71317 
 H                    -8.65835   2.27161   2.19795 
 H                    -7.83435   2.33148   3.76391 
 H                    -7.57341   0.95673   2.67767 
 
 NAtoms=     76 NQM=       76 NQMF=       0 NMMI=      0 NMMIF=      0
                NMic=       0 NMicF=      0.
                    Isotopes and Nuclear Properties:
 (Nuclear quadrupole moments (NQMom) in fm**2, nuclear magnetic moments (NMagM)
  in nuclear magnetons)

  Atom         1           2           3           4           5           6           7           8           9          10
 IAtWgt=          12           1          12           1           1          12          12          12           1           1
 AtmWgt=  12.0000000   1.0078250  12.0000000   1.0078250   1.0078250  12.0000000  12.0000000  12.0000000   1.0078250   1.0078250
 NucSpn=           0           1           0           1           1           0           0           0           1           1
 AtZEff=   0.0000000   0.0000000   0.0000000   0.0000000   0.0000000   0.0000000   0.0000000   0.0000000   0.0000000   0.0000000
 NQMom=    0.0000000   0.0000000   0.0000000   0.0000000   0.0000000   0.0000000   0.0000000   0.0000000   0.0000000   0.0000000
 NMagM=    0.0000000   2.7928460   0.0000000   2.7928460   2.7928460   0.0000000   0.0000000   0.0000000   2.7928460   2.7928460
 AtZNuc=   6.0000000   1.0000000   6.0000000   1.0000000   1.0000000   6.0000000   6.0000000   6.0000000   1.0000000   1.0000000

  Atom        11          12          13          14          15          16          17          18          19          20
 IAtWgt=          12           1           1          12           1          12           1          12           1          12
 AtmWgt=  12.0000000   1.0078250   1.0078250  12.0000000   1.0078250  12.0000000   1.0078250  12.0000000   1.0078250  12.0000000
 NucSpn=           0           1           1           0           1           0           1           0           1           0
 AtZEff=   0.0000000   0.0000000   0.0000000   0.0000000   0.0000000   0.0000000   0.0000000   0.0000000   0.0000000   0.0000000
 NQMom=    0.0000000   0.0000000   0.0000000   0.0000000   0.0000000   0.0000000   0.0000000   0.0000000   0.0000000   0.0000000
 NMagM=    0.0000000   2.7928460   2.7928460   0.0000000   2.7928460   0.0000000   2.7928460   0.0000000   2.7928460   0.0000000
 AtZNuc=   6.0000000   1.0000000   1.0000000   6.0000000   1.0000000   6.0000000   1.0000000   6.0000000   1.0000000   6.0000000

  Atom        21          22          23          24          25          26          27          28          29          30
 IAtWgt=           1          12           1           1          12           1           1          12          12           1
 AtmWgt=   1.0078250  12.0000000   1.0078250   1.0078250  12.0000000   1.0078250   1.0078250  12.0000000  12.0000000   1.0078250
 NucSpn=           1           0           1           1           0           1           1           0           0           1
 AtZEff=   0.0000000   0.0000000   0.0000000   0.0000000   0.0000000   0.0000000   0.0000000   0.0000000   0.0000000   0.0000000
 NQMom=    0.0000000   0.0000000   0.0000000   0.0000000   0.0000000   0.0000000   0.0000000   0.0000000   0.0000000   0.0000000
 NMagM=    2.7928460   0.0000000   2.7928460   2.7928460   0.0000000   2.7928460   2.7928460   0.0000000   0.0000000   2.7928460
 AtZNuc=   1.0000000   6.0000000   1.0000000   1.0000000   6.0000000   1.0000000   1.0000000   6.0000000   6.0000000   1.0000000

  Atom        31          32          33          34          35          36          37          38          39          40
 IAtWgt=          12           1           1          12           1           1          12           1          12           1
 AtmWgt=  12.0000000   1.0078250   1.0078250  12.0000000   1.0078250   1.0078250  12.0000000   1.0078250  12.0000000   1.0078250
 NucSpn=           0           1           1           0           1           1           0           1           0           1
 AtZEff=   0.0000000   0.0000000   0.0000000   0.0000000   0.0000000   0.0000000   0.0000000   0.0000000   0.0000000   0.0000000
 NQMom=    0.0000000   0.0000000   0.0000000   0.0000000   0.0000000   0.0000000   0.0000000   0.0000000   0.0000000   0.0000000
 NMagM=    0.0000000   2.7928460   2.7928460   0.0000000   2.7928460   2.7928460   0.0000000   2.7928460   0.0000000   2.7928460
 AtZNuc=   6.0000000   1.0000000   1.0000000   6.0000000   1.0000000   1.0000000   6.0000000   1.0000000   6.0000000   1.0000000

  Atom        41          42          43          44          45          46          47          48          49          50
 IAtWgt=           1           1          12           1          12           1           1           1          12           1
 AtmWgt=   1.0078250   1.0078250  12.0000000   1.0078250  12.0000000   1.0078250   1.0078250   1.0078250  12.0000000   1.0078250
 NucSpn=           1           1           0           1           0           1           1           1           0           1
 AtZEff=   0.0000000   0.0000000   0.0000000   0.0000000   0.0000000   0.0000000   0.0000000   0.0000000   0.0000000   0.0000000
 NQMom=    0.0000000   0.0000000   0.0000000   0.0000000   0.0000000   0.0000000   0.0000000   0.0000000   0.0000000   0.0000000
 NMagM=    2.7928460   2.7928460   0.0000000   2.7928460   0.0000000   2.7928460   2.7928460   2.7928460   0.0000000   2.7928460
 AtZNuc=   1.0000000   1.0000000   6.0000000   1.0000000   6.0000000   1.0000000   1.0000000   1.0000000   6.0000000   1.0000000

  Atom        51          52          53          54          55          56          57          58          59          60
 IAtWgt=           1           1          16          16           1          16           1          12           1           1
 AtmWgt=   1.0078250   1.0078250  15.9949146  15.9949146   1.0078250  15.9949146   1.0078250  12.0000000   1.0078250   1.0078250
 NucSpn=           1           1           0           0           1           0           1           0           1           1
 AtZEff=   0.0000000   0.0000000   0.0000000   0.0000000   0.0000000   0.0000000   0.0000000   0.0000000   0.0000000   0.0000000
 NQMom=    0.0000000   0.0000000   0.0000000   0.0000000   0.0000000   0.0000000   0.0000000   0.0000000   0.0000000   0.0000000
 NMagM=    2.7928460   2.7928460   0.0000000   0.0000000   2.7928460   0.0000000   2.7928460   0.0000000   2.7928460   2.7928460
 AtZNuc=   1.0000000   1.0000000   8.0000000   8.0000000   1.0000000   8.0000000   1.0000000   6.0000000   1.0000000   1.0000000

  Atom        61          62          63          64          65          66          67          68          69          70
 IAtWgt=          12           1           1          12           1           1          12           1          12           1
 AtmWgt=  12.0000000   1.0078250   1.0078250  12.0000000   1.0078250   1.0078250  12.0000000   1.0078250  12.0000000   1.0078250
 NucSpn=           0           1           1           0           1           1           0           1           0           1
 AtZEff=   0.0000000   0.0000000   0.0000000   0.0000000   0.0000000   0.0000000   0.0000000   0.0000000   0.0000000   0.0000000
 NQMom=    0.0000000   0.0000000   0.0000000   0.0000000   0.0000000   0.0000000   0.0000000   0.0000000   0.0000000   0.0000000
 NMagM=    0.0000000   2.7928460   2.7928460   0.0000000   2.7928460   2.7928460   0.0000000   2.7928460   0.0000000   2.7928460
 AtZNuc=   6.0000000   1.0000000   1.0000000   6.0000000   1.0000000   1.0000000   6.0000000   1.0000000   6.0000000   1.0000000

  Atom        71          72          73          74          75          76
 IAtWgt=           1           1          12           1           1           1
 AtmWgt=   1.0078250   1.0078250  12.0000000   1.0078250   1.0078250   1.0078250
 NucSpn=           1           1           0           1           1           1
 AtZEff=   0.0000000   0.0000000   0.0000000   0.0000000   0.0000000   0.0000000
 NQMom=    0.0000000   0.0000000   0.0000000   0.0000000   0.0000000   0.0000000
 NMagM=    2.7928460   2.7928460   0.0000000   2.7928460   2.7928460   2.7928460
 AtZNuc=   1.0000000   1.0000000   6.0000000   1.0000000   1.0000000   1.0000000
 Leave Link  101 at Fri Apr 28 12:35:29 2017, MaxMem=    33554432 cpu:         1.0
 (Enter /home/michal/g09/l202.exe)
 Symmetry turned off by external request.
 Stoichiometry    C27H46O3
 Framework group  C1[X(C27H46O3)]
 Deg. of freedom   222
 Full point group                 C1      NOp   1
                          Input orientation:                          
 ---------------------------------------------------------------------
 Center     Atomic      Atomic             Coordinates (Angstroms)
 Number     Number       Type             X           Y           Z
 ---------------------------------------------------------------------
      1          6           0        7.508431    2.150444   -0.052028
      2          1           0        7.403974    2.069481    1.036911
      3          6           0        6.756827    0.983225   -0.711578
      4          1           0        7.146785    0.033114   -0.333406
      5          1           0        6.979768    1.008685   -1.789885
      6          6           0        5.257538    1.061337   -0.489700
      7          6           0        4.575610    2.386123   -0.853571
      8          6           0        5.410101    3.548293   -0.231476
      9          1           0        5.259688    3.533404    0.856579
     10          1           0        5.016804    4.507085   -0.586218
     11          6           0        6.919338    3.483800   -0.512468
     12          1           0        7.116822    3.611325   -1.587132
     13          1           0        7.431650    4.305904    0.000000
     14          6           0        4.598081    0.000000    0.000000
     15          1           0        5.154297   -0.905288    0.236194
     16          6           0        3.119945   -0.043393    0.260527
     17          1           0        2.708304   -1.009261   -0.058643
     18          6           0        2.361174    1.100941   -0.435713
     19          1           0        2.344947    0.825648   -1.499666
     20          6           0        3.122499    2.441702   -0.263080
     21          1           0        3.240534    2.578982    0.821821
     22          6           0        2.297635    3.643737   -0.781483
     23          1           0        2.285664    3.644217   -1.876192
     24          1           0        2.789279    4.577922   -0.486322
     25          6           0        0.838432    3.680058   -0.283214
     26          1           0        0.823660    3.837463    0.804682
     27          1           0        0.345035    4.548769   -0.730060
     28          6           0        0.092403    2.367145   -0.600016
     29          6           0        0.915119    1.229485    0.067265
     30          1           0        0.981825    1.506173    1.128486
     31          6           0        0.000000    0.000000    0.000000
     32          1           0        0.249627   -0.738716    0.766668
     33          1           0        0.087896   -0.501764   -0.972177
     34          6           0       -1.421394    0.595833    0.192735
     35          1           0       -2.106008    0.234682   -0.584239
     36          1           0       -1.850529    0.286284    1.150087
     37          6           0       -1.286932    2.155978    0.118076
     38          1           0       -1.155624    2.534041    1.144328
     39          6           0       -0.064969    2.174833   -2.125832
     40          1           0        0.896706    2.102976   -2.640537
     41          1           0       -0.627319    1.267515   -2.366333
     42          1           0       -0.604141    3.018306   -2.569533
     43          6           0       -2.560668    2.835735   -0.448688
     44          1           0       -2.747728    2.417221   -1.449645
     45          6           0       -2.425342    4.362142   -0.590818
     46          1           0       -2.161200    4.823335    0.369317
     47          1           0       -3.363363    4.812949   -0.928159
     48          1           0       -1.659246    4.643111   -1.316774
     49          6           0        4.569458    2.519818   -2.401293
     50          1           0        4.277609    3.527250   -2.712325
     51          1           0        5.556418    2.325688   -2.827863
     52          1           0        3.876406    1.806360   -2.857782
     53          8           0        2.837428    0.074060    1.682396
     54          8           0        3.329808   -1.131967    2.330980
     55          1           0        4.101744   -0.783250    2.806852
     56          8           0        8.918360    2.066020   -0.274387
     57          1           0        9.088919    2.156903   -1.222445
     58          6           0       -3.789155    2.484673    0.427825
     59          1           0       -3.809022    1.403274    0.606725
     60          1           0       -3.656218    2.953368    1.413683
     61          6           0       -5.150945    2.883384   -0.166212
     62          1           0       -5.239269    3.973822   -0.231898
     63          1           0       -5.201870    2.515847   -1.201068
     64          6           0       -6.361445    2.316354    0.598542
     65          1           0       -6.295786    1.218686    0.592359
     66          1           0       -7.277390    2.568319    0.043539
     67          6           0       -6.539992    2.784671    2.058630
     68          1           0       -5.631621    2.519787    2.618435
     69          6           0       -6.734550    4.305386    2.167503
     70          1           0       -7.619718    4.626009    1.602656
     71          1           0       -6.879823    4.607399    3.210976
     72          1           0       -5.873841    4.861066    1.781429
     73          6           0       -7.716451    2.042861    2.713174
     74          1           0       -8.658350    2.271612    2.197951
     75          1           0       -7.834355    2.331484    3.763906
     76          1           0       -7.573413    0.956730    2.677673
 ---------------------------------------------------------------------
 Rotational constants (GHZ):      0.3864282      0.0536688      0.0505183
 Leave Link  202 at Fri Apr 28 12:35:29 2017, MaxMem=    33554432 cpu:         0.0
 (Enter /home/michal/g09/l301.exe)
 Standard basis: 6-31G(d) (6D, 7F)
 Ernie: Thresh=  0.10000D-02 Tol=  0.10000D-05 Strict=F.
 AO basis set in the form of general basis input (Overlap normalization):
      1 0
 S   6 1.00       0.000000000000
      0.3047524880D+04  0.1834737132D-02
      0.4573695180D+03  0.1403732281D-01
      0.1039486850D+03  0.6884262226D-01
      0.2921015530D+02  0.2321844432D+00
      0.9286662960D+01  0.4679413484D+00
      0.3163926960D+01  0.3623119853D+00
 SP   3 1.00       0.000000000000
      0.7868272350D+01 -0.1193324198D+00  0.6899906659D-01
      0.1881288540D+01 -0.1608541517D+00  0.3164239610D+00
      0.5442492580D+00  0.1143456438D+01  0.7443082909D+00
 SP   1 1.00       0.000000000000
      0.1687144782D+00  0.1000000000D+01  0.1000000000D+01
 D   1 1.00       0.000000000000
      0.8000000000D+00  0.1000000000D+01
 ****
      2 0
 S   3 1.00       0.000000000000
      0.1873113696D+02  0.3349460434D-01
      0.2825394365D+01  0.2347269535D+00
      0.6401216923D+00  0.8137573261D+00
 S   1 1.00       0.000000000000
      0.1612777588D+00  0.1000000000D+01
 ****
      3 0
 S   6 1.00       0.000000000000
      0.3047524880D+04  0.1834737132D-02
      0.4573695180D+03  0.1403732281D-01
      0.1039486850D+03  0.6884262226D-01
      0.2921015530D+02  0.2321844432D+00
      0.9286662960D+01  0.4679413484D+00
      0.3163926960D+01  0.3623119853D+00
 SP   3 1.00       0.000000000000
      0.7868272350D+01 -0.1193324198D+00  0.6899906659D-01
      0.1881288540D+01 -0.1608541517D+00  0.3164239610D+00
      0.5442492580D+00  0.1143456438D+01  0.7443082909D+00
 SP   1 1.00       0.000000000000
      0.1687144782D+00  0.1000000000D+01  0.1000000000D+01
 D   1 1.00       0.000000000000
      0.8000000000D+00  0.1000000000D+01
 ****
      4 0
 S   3 1.00       0.000000000000
      0.1873113696D+02  0.3349460434D-01
      0.2825394365D+01  0.2347269535D+00
      0.6401216923D+00  0.8137573261D+00
 S   1 1.00       0.000000000000
      0.1612777588D+00  0.1000000000D+01
 ****
      5 0
 S   3 1.00       0.000000000000
      0.1873113696D+02  0.3349460434D-01
      0.2825394365D+01  0.2347269535D+00
      0.6401216923D+00  0.8137573261D+00
 S   1 1.00       0.000000000000
      0.1612777588D+00  0.1000000000D+01
 ****
      6 0
 S   6 1.00       0.000000000000
      0.3047524880D+04  0.1834737132D-02
      0.4573695180D+03  0.1403732281D-01
      0.1039486850D+03  0.6884262226D-01
      0.2921015530D+02  0.2321844432D+00
      0.9286662960D+01  0.4679413484D+00
      0.3163926960D+01  0.3623119853D+00
 SP   3 1.00       0.000000000000
      0.7868272350D+01 -0.1193324198D+00  0.6899906659D-01
      0.1881288540D+01 -0.1608541517D+00  0.3164239610D+00
      0.5442492580D+00  0.1143456438D+01  0.7443082909D+00
 SP   1 1.00       0.000000000000
      0.1687144782D+00  0.1000000000D+01  0.1000000000D+01
 D   1 1.00       0.000000000000
      0.8000000000D+00  0.1000000000D+01
 ****
      7 0
 S   6 1.00       0.000000000000
      0.3047524880D+04  0.1834737132D-02
      0.4573695180D+03  0.1403732281D-01
      0.1039486850D+03  0.6884262226D-01
      0.2921015530D+02  0.2321844432D+00
      0.9286662960D+01  0.4679413484D+00
      0.3163926960D+01  0.3623119853D+00
 SP   3 1.00       0.000000000000
      0.7868272350D+01 -0.1193324198D+00  0.6899906659D-01
      0.1881288540D+01 -0.1608541517D+00  0.3164239610D+00
      0.5442492580D+00  0.1143456438D+01  0.7443082909D+00
 SP   1 1.00       0.000000000000
      0.1687144782D+00  0.1000000000D+01  0.1000000000D+01
 D   1 1.00       0.000000000000
      0.8000000000D+00  0.1000000000D+01
 ****
      8 0
 S   6 1.00       0.000000000000
      0.3047524880D+04  0.1834737132D-02
      0.4573695180D+03  0.1403732281D-01
      0.1039486850D+03  0.6884262226D-01
      0.2921015530D+02  0.2321844432D+00
      0.9286662960D+01  0.4679413484D+00
      0.3163926960D+01  0.3623119853D+00
 SP   3 1.00       0.000000000000
      0.7868272350D+01 -0.1193324198D+00  0.6899906659D-01
      0.1881288540D+01 -0.1608541517D+00  0.3164239610D+00
      0.5442492580D+00  0.1143456438D+01  0.7443082909D+00
 SP   1 1.00       0.000000000000
      0.1687144782D+00  0.1000000000D+01  0.1000000000D+01
 D   1 1.00       0.000000000000
      0.8000000000D+00  0.1000000000D+01
 ****
      9 0
 S   3 1.00       0.000000000000
      0.1873113696D+02  0.3349460434D-01
      0.2825394365D+01  0.2347269535D+00
      0.6401216923D+00  0.8137573261D+00
 S   1 1.00       0.000000000000
      0.1612777588D+00  0.1000000000D+01
 ****
     10 0
 S   3 1.00       0.000000000000
      0.1873113696D+02  0.3349460434D-01
      0.2825394365D+01  0.2347269535D+00
      0.6401216923D+00  0.8137573261D+00
 S   1 1.00       0.000000000000
      0.1612777588D+00  0.1000000000D+01
 ****
     11 0
 S   6 1.00       0.000000000000
      0.3047524880D+04  0.1834737132D-02
      0.4573695180D+03  0.1403732281D-01
      0.1039486850D+03  0.6884262226D-01
      0.2921015530D+02  0.2321844432D+00
      0.9286662960D+01  0.4679413484D+00
      0.3163926960D+01  0.3623119853D+00
 SP   3 1.00       0.000000000000
      0.7868272350D+01 -0.1193324198D+00  0.6899906659D-01
      0.1881288540D+01 -0.1608541517D+00  0.3164239610D+00
      0.5442492580D+00  0.1143456438D+01  0.7443082909D+00
 SP   1 1.00       0.000000000000
      0.1687144782D+00  0.1000000000D+01  0.1000000000D+01
 D   1 1.00       0.000000000000
      0.8000000000D+00  0.1000000000D+01
 ****
     12 0
 S   3 1.00       0.000000000000
      0.1873113696D+02  0.3349460434D-01
      0.2825394365D+01  0.2347269535D+00
      0.6401216923D+00  0.8137573261D+00
 S   1 1.00       0.000000000000
      0.1612777588D+00  0.1000000000D+01
 ****
     13 0
 S   3 1.00       0.000000000000
      0.1873113696D+02  0.3349460434D-01
      0.2825394365D+01  0.2347269535D+00
      0.6401216923D+00  0.8137573261D+00
 S   1 1.00       0.000000000000
      0.1612777588D+00  0.1000000000D+01
 ****
     14 0
 S   6 1.00       0.000000000000
      0.3047524880D+04  0.1834737132D-02
      0.4573695180D+03  0.1403732281D-01
      0.1039486850D+03  0.6884262226D-01
      0.2921015530D+02  0.2321844432D+00
      0.9286662960D+01  0.4679413484D+00
      0.3163926960D+01  0.3623119853D+00
 SP   3 1.00       0.000000000000
      0.7868272350D+01 -0.1193324198D+00  0.6899906659D-01
      0.1881288540D+01 -0.1608541517D+00  0.3164239610D+00
      0.5442492580D+00  0.1143456438D+01  0.7443082909D+00
 SP   1 1.00       0.000000000000
      0.1687144782D+00  0.1000000000D+01  0.1000000000D+01
 D   1 1.00       0.000000000000
      0.8000000000D+00  0.1000000000D+01
 ****
     15 0
 S   3 1.00       0.000000000000
      0.1873113696D+02  0.3349460434D-01
      0.2825394365D+01  0.2347269535D+00
      0.6401216923D+00  0.8137573261D+00
 S   1 1.00       0.000000000000
      0.1612777588D+00  0.1000000000D+01
 ****
     16 0
 S   6 1.00       0.000000000000
      0.3047524880D+04  0.1834737132D-02
      0.4573695180D+03  0.1403732281D-01
      0.1039486850D+03  0.6884262226D-01
      0.2921015530D+02  0.2321844432D+00
      0.9286662960D+01  0.4679413484D+00
      0.3163926960D+01  0.3623119853D+00
 SP   3 1.00       0.000000000000
      0.7868272350D+01 -0.1193324198D+00  0.6899906659D-01
      0.1881288540D+01 -0.1608541517D+00  0.3164239610D+00
      0.5442492580D+00  0.1143456438D+01  0.7443082909D+00
 SP   1 1.00       0.000000000000
      0.1687144782D+00  0.1000000000D+01  0.1000000000D+01
 D   1 1.00       0.000000000000
      0.8000000000D+00  0.1000000000D+01
 ****
     17 0
 S   3 1.00       0.000000000000
      0.1873113696D+02  0.3349460434D-01
      0.2825394365D+01  0.2347269535D+00
      0.6401216923D+00  0.8137573261D+00
 S   1 1.00       0.000000000000
      0.1612777588D+00  0.1000000000D+01
 ****
     18 0
 S   6 1.00       0.000000000000
      0.3047524880D+04  0.1834737132D-02
      0.4573695180D+03  0.1403732281D-01
      0.1039486850D+03  0.6884262226D-01
      0.2921015530D+02  0.2321844432D+00
      0.9286662960D+01  0.4679413484D+00
      0.3163926960D+01  0.3623119853D+00
 SP   3 1.00       0.000000000000
      0.7868272350D+01 -0.1193324198D+00  0.6899906659D-01
      0.1881288540D+01 -0.1608541517D+00  0.3164239610D+00
      0.5442492580D+00  0.1143456438D+01  0.7443082909D+00
 SP   1 1.00       0.000000000000
      0.1687144782D+00  0.1000000000D+01  0.1000000000D+01
 D   1 1.00       0.000000000000
      0.8000000000D+00  0.1000000000D+01
 ****
     19 0
 S   3 1.00       0.000000000000
      0.1873113696D+02  0.3349460434D-01
      0.2825394365D+01  0.2347269535D+00
      0.6401216923D+00  0.8137573261D+00
 S   1 1.00       0.000000000000
      0.1612777588D+00  0.1000000000D+01
 ****
     20 0
 S   6 1.00       0.000000000000
      0.3047524880D+04  0.1834737132D-02
      0.4573695180D+03  0.1403732281D-01
      0.1039486850D+03  0.6884262226D-01
      0.2921015530D+02  0.2321844432D+00
      0.9286662960D+01  0.4679413484D+00
      0.3163926960D+01  0.3623119853D+00
 SP   3 1.00       0.000000000000
      0.7868272350D+01 -0.1193324198D+00  0.6899906659D-01
      0.1881288540D+01 -0.1608541517D+00  0.3164239610D+00
      0.5442492580D+00  0.1143456438D+01  0.7443082909D+00
 SP   1 1.00       0.000000000000
      0.1687144782D+00  0.1000000000D+01  0.1000000000D+01
 D   1 1.00       0.000000000000
      0.8000000000D+00  0.1000000000D+01
 ****
     21 0
 S   3 1.00       0.000000000000
      0.1873113696D+02  0.3349460434D-01
      0.2825394365D+01  0.2347269535D+00
      0.6401216923D+00  0.8137573261D+00
 S   1 1.00       0.000000000000
      0.1612777588D+00  0.1000000000D+01
 ****
     22 0
 S   6 1.00       0.000000000000
      0.3047524880D+04  0.1834737132D-02
      0.4573695180D+03  0.1403732281D-01
      0.1039486850D+03  0.6884262226D-01
      0.2921015530D+02  0.2321844432D+00
      0.9286662960D+01  0.4679413484D+00
      0.3163926960D+01  0.3623119853D+00
 SP   3 1.00       0.000000000000
      0.7868272350D+01 -0.1193324198D+00  0.6899906659D-01
      0.1881288540D+01 -0.1608541517D+00  0.3164239610D+00
      0.5442492580D+00  0.1143456438D+01  0.7443082909D+00
 SP   1 1.00       0.000000000000
      0.1687144782D+00  0.1000000000D+01  0.1000000000D+01
 D   1 1.00       0.000000000000
      0.8000000000D+00  0.1000000000D+01
 ****
     23 0
 S   3 1.00       0.000000000000
      0.1873113696D+02  0.3349460434D-01
      0.2825394365D+01  0.2347269535D+00
      0.6401216923D+00  0.8137573261D+00
 S   1 1.00       0.000000000000
      0.1612777588D+00  0.1000000000D+01
 ****
     24 0
 S   3 1.00       0.000000000000
      0.1873113696D+02  0.3349460434D-01
      0.2825394365D+01  0.2347269535D+00
      0.6401216923D+00  0.8137573261D+00
 S   1 1.00       0.000000000000
      0.1612777588D+00  0.1000000000D+01
 ****
     25 0
 S   6 1.00       0.000000000000
      0.3047524880D+04  0.1834737132D-02
      0.4573695180D+03  0.1403732281D-01
      0.1039486850D+03  0.6884262226D-01
      0.2921015530D+02  0.2321844432D+00
      0.9286662960D+01  0.4679413484D+00
      0.3163926960D+01  0.3623119853D+00
 SP   3 1.00       0.000000000000
      0.7868272350D+01 -0.1193324198D+00  0.6899906659D-01
      0.1881288540D+01 -0.1608541517D+00  0.3164239610D+00
      0.5442492580D+00  0.1143456438D+01  0.7443082909D+00
 SP   1 1.00       0.000000000000
      0.1687144782D+00  0.1000000000D+01  0.1000000000D+01
 D   1 1.00       0.000000000000
      0.8000000000D+00  0.1000000000D+01
 ****
     26 0
 S   3 1.00       0.000000000000
      0.1873113696D+02  0.3349460434D-01
      0.2825394365D+01  0.2347269535D+00
      0.6401216923D+00  0.8137573261D+00
 S   1 1.00       0.000000000000
      0.1612777588D+00  0.1000000000D+01
 ****
     27 0
 S   3 1.00       0.000000000000
      0.1873113696D+02  0.3349460434D-01
      0.2825394365D+01  0.2347269535D+00
      0.6401216923D+00  0.8137573261D+00
 S   1 1.00       0.000000000000
      0.1612777588D+00  0.1000000000D+01
 ****
     28 0
 S   6 1.00       0.000000000000
      0.3047524880D+04  0.1834737132D-02
      0.4573695180D+03  0.1403732281D-01
      0.1039486850D+03  0.6884262226D-01
      0.2921015530D+02  0.2321844432D+00
      0.9286662960D+01  0.4679413484D+00
      0.3163926960D+01  0.3623119853D+00
 SP   3 1.00       0.000000000000
      0.7868272350D+01 -0.1193324198D+00  0.6899906659D-01
      0.1881288540D+01 -0.1608541517D+00  0.3164239610D+00
      0.5442492580D+00  0.1143456438D+01  0.7443082909D+00
 SP   1 1.00       0.000000000000
      0.1687144782D+00  0.1000000000D+01  0.1000000000D+01
 D   1 1.00       0.000000000000
      0.8000000000D+00  0.1000000000D+01
 ****
     29 0
 S   6 1.00       0.000000000000
      0.3047524880D+04  0.1834737132D-02
      0.4573695180D+03  0.1403732281D-01
      0.1039486850D+03  0.6884262226D-01
      0.2921015530D+02  0.2321844432D+00
      0.9286662960D+01  0.4679413484D+00
      0.3163926960D+01  0.3623119853D+00
 SP   3 1.00       0.000000000000
      0.7868272350D+01 -0.1193324198D+00  0.6899906659D-01
      0.1881288540D+01 -0.1608541517D+00  0.3164239610D+00
      0.5442492580D+00  0.1143456438D+01  0.7443082909D+00
 SP   1 1.00       0.000000000000
      0.1687144782D+00  0.1000000000D+01  0.1000000000D+01
 D   1 1.00       0.000000000000
      0.8000000000D+00  0.1000000000D+01
 ****
     30 0
 S   3 1.00       0.000000000000
      0.1873113696D+02  0.3349460434D-01
      0.2825394365D+01  0.2347269535D+00
      0.6401216923D+00  0.8137573261D+00
 S   1 1.00       0.000000000000
      0.1612777588D+00  0.1000000000D+01
 ****
     31 0
 S   6 1.00       0.000000000000
      0.3047524880D+04  0.1834737132D-02
      0.4573695180D+03  0.1403732281D-01
      0.1039486850D+03  0.6884262226D-01
      0.2921015530D+02  0.2321844432D+00
      0.9286662960D+01  0.4679413484D+00
      0.3163926960D+01  0.3623119853D+00
 SP   3 1.00       0.000000000000
      0.7868272350D+01 -0.1193324198D+00  0.6899906659D-01
      0.1881288540D+01 -0.1608541517D+00  0.3164239610D+00
      0.5442492580D+00  0.1143456438D+01  0.7443082909D+00
 SP   1 1.00       0.000000000000
      0.1687144782D+00  0.1000000000D+01  0.1000000000D+01
 D   1 1.00       0.000000000000
      0.8000000000D+00  0.1000000000D+01
 ****
     32 0
 S   3 1.00       0.000000000000
      0.1873113696D+02  0.3349460434D-01
      0.2825394365D+01  0.2347269535D+00
      0.6401216923D+00  0.8137573261D+00
 S   1 1.00       0.000000000000
      0.1612777588D+00  0.1000000000D+01
 ****
     33 0
 S   3 1.00       0.000000000000
      0.1873113696D+02  0.3349460434D-01
      0.2825394365D+01  0.2347269535D+00
      0.6401216923D+00  0.8137573261D+00
 S   1 1.00       0.000000000000
      0.1612777588D+00  0.1000000000D+01
 ****
     34 0
 S   6 1.00       0.000000000000
      0.3047524880D+04  0.1834737132D-02
      0.4573695180D+03  0.1403732281D-01
      0.1039486850D+03  0.6884262226D-01
      0.2921015530D+02  0.2321844432D+00
      0.9286662960D+01  0.4679413484D+00
      0.3163926960D+01  0.3623119853D+00
 SP   3 1.00       0.000000000000
      0.7868272350D+01 -0.1193324198D+00  0.6899906659D-01
      0.1881288540D+01 -0.1608541517D+00  0.3164239610D+00
      0.5442492580D+00  0.1143456438D+01  0.7443082909D+00
 SP   1 1.00       0.000000000000
      0.1687144782D+00  0.1000000000D+01  0.1000000000D+01
 D   1 1.00       0.000000000000
      0.8000000000D+00  0.1000000000D+01
 ****
     35 0
 S   3 1.00       0.000000000000
      0.1873113696D+02  0.3349460434D-01
      0.2825394365D+01  0.2347269535D+00
      0.6401216923D+00  0.8137573261D+00
 S   1 1.00       0.000000000000
      0.1612777588D+00  0.1000000000D+01
 ****
     36 0
 S   3 1.00       0.000000000000
      0.1873113696D+02  0.3349460434D-01
      0.2825394365D+01  0.2347269535D+00
      0.6401216923D+00  0.8137573261D+00
 S   1 1.00       0.000000000000
      0.1612777588D+00  0.1000000000D+01
 ****
     37 0
 S   6 1.00       0.000000000000
      0.3047524880D+04  0.1834737132D-02
      0.4573695180D+03  0.1403732281D-01
      0.1039486850D+03  0.6884262226D-01
      0.2921015530D+02  0.2321844432D+00
      0.9286662960D+01  0.4679413484D+00
      0.3163926960D+01  0.3623119853D+00
 SP   3 1.00       0.000000000000
      0.7868272350D+01 -0.1193324198D+00  0.6899906659D-01
      0.1881288540D+01 -0.1608541517D+00  0.3164239610D+00
      0.5442492580D+00  0.1143456438D+01  0.7443082909D+00
 SP   1 1.00       0.000000000000
      0.1687144782D+00  0.1000000000D+01  0.1000000000D+01
 D   1 1.00       0.000000000000
      0.8000000000D+00  0.1000000000D+01
 ****
     38 0
 S   3 1.00       0.000000000000
      0.1873113696D+02  0.3349460434D-01
      0.2825394365D+01  0.2347269535D+00
      0.6401216923D+00  0.8137573261D+00
 S   1 1.00       0.000000000000
      0.1612777588D+00  0.1000000000D+01
 ****
     39 0
 S   6 1.00       0.000000000000
      0.3047524880D+04  0.1834737132D-02
      0.4573695180D+03  0.1403732281D-01
      0.1039486850D+03  0.6884262226D-01
      0.2921015530D+02  0.2321844432D+00
      0.9286662960D+01  0.4679413484D+00
      0.3163926960D+01  0.3623119853D+00
 SP   3 1.00       0.000000000000
      0.7868272350D+01 -0.1193324198D+00  0.6899906659D-01
      0.1881288540D+01 -0.1608541517D+00  0.3164239610D+00
      0.5442492580D+00  0.1143456438D+01  0.7443082909D+00
 SP   1 1.00       0.000000000000
      0.1687144782D+00  0.1000000000D+01  0.1000000000D+01
 D   1 1.00       0.000000000000
      0.8000000000D+00  0.1000000000D+01
 ****
     40 0
 S   3 1.00       0.000000000000
      0.1873113696D+02  0.3349460434D-01
      0.2825394365D+01  0.2347269535D+00
      0.6401216923D+00  0.8137573261D+00
 S   1 1.00       0.000000000000
      0.1612777588D+00  0.1000000000D+01
 ****
     41 0
 S   3 1.00       0.000000000000
      0.1873113696D+02  0.3349460434D-01
      0.2825394365D+01  0.2347269535D+00
      0.6401216923D+00  0.8137573261D+00
 S   1 1.00       0.000000000000
      0.1612777588D+00  0.1000000000D+01
 ****
     42 0
 S   3 1.00       0.000000000000
      0.1873113696D+02  0.3349460434D-01
      0.2825394365D+01  0.2347269535D+00
      0.6401216923D+00  0.8137573261D+00
 S   1 1.00       0.000000000000
      0.1612777588D+00  0.1000000000D+01
 ****
     43 0
 S   6 1.00       0.000000000000
      0.3047524880D+04  0.1834737132D-02
      0.4573695180D+03  0.1403732281D-01
      0.1039486850D+03  0.6884262226D-01
      0.2921015530D+02  0.2321844432D+00
      0.9286662960D+01  0.4679413484D+00
      0.3163926960D+01  0.3623119853D+00
 SP   3 1.00       0.000000000000
      0.7868272350D+01 -0.1193324198D+00  0.6899906659D-01
      0.1881288540D+01 -0.1608541517D+00  0.3164239610D+00
      0.5442492580D+00  0.1143456438D+01  0.7443082909D+00
 SP   1 1.00       0.000000000000
      0.1687144782D+00  0.1000000000D+01  0.1000000000D+01
 D   1 1.00       0.000000000000
      0.8000000000D+00  0.1000000000D+01
 ****
     44 0
 S   3 1.00       0.000000000000
      0.1873113696D+02  0.3349460434D-01
      0.2825394365D+01  0.2347269535D+00
      0.6401216923D+00  0.8137573261D+00
 S   1 1.00       0.000000000000
      0.1612777588D+00  0.1000000000D+01
 ****
     45 0
 S   6 1.00       0.000000000000
      0.3047524880D+04  0.1834737132D-02
      0.4573695180D+03  0.1403732281D-01
      0.1039486850D+03  0.6884262226D-01
      0.2921015530D+02  0.2321844432D+00
      0.9286662960D+01  0.4679413484D+00
      0.3163926960D+01  0.3623119853D+00
 SP   3 1.00       0.000000000000
      0.7868272350D+01 -0.1193324198D+00  0.6899906659D-01
      0.1881288540D+01 -0.1608541517D+00  0.3164239610D+00
      0.5442492580D+00  0.1143456438D+01  0.7443082909D+00
 SP   1 1.00       0.000000000000
      0.1687144782D+00  0.1000000000D+01  0.1000000000D+01
 D   1 1.00       0.000000000000
      0.8000000000D+00  0.1000000000D+01
 ****
     46 0
 S   3 1.00       0.000000000000
      0.1873113696D+02  0.3349460434D-01
      0.2825394365D+01  0.2347269535D+00
      0.6401216923D+00  0.8137573261D+00
 S   1 1.00       0.000000000000
      0.1612777588D+00  0.1000000000D+01
 ****
     47 0
 S   3 1.00       0.000000000000
      0.1873113696D+02  0.3349460434D-01
      0.2825394365D+01  0.2347269535D+00
      0.6401216923D+00  0.8137573261D+00
 S   1 1.00       0.000000000000
      0.1612777588D+00  0.1000000000D+01
 ****
     48 0
 S   3 1.00       0.000000000000
      0.1873113696D+02  0.3349460434D-01
      0.2825394365D+01  0.2347269535D+00
      0.6401216923D+00  0.8137573261D+00
 S   1 1.00       0.000000000000
      0.1612777588D+00  0.1000000000D+01
 ****
     49 0
 S   6 1.00       0.000000000000
      0.3047524880D+04  0.1834737132D-02
      0.4573695180D+03  0.1403732281D-01
      0.1039486850D+03  0.6884262226D-01
      0.2921015530D+02  0.2321844432D+00
      0.9286662960D+01  0.4679413484D+00
      0.3163926960D+01  0.3623119853D+00
 SP   3 1.00       0.000000000000
      0.7868272350D+01 -0.1193324198D+00  0.6899906659D-01
      0.1881288540D+01 -0.1608541517D+00  0.3164239610D+00
      0.5442492580D+00  0.1143456438D+01  0.7443082909D+00
 SP   1 1.00       0.000000000000
      0.1687144782D+00  0.1000000000D+01  0.1000000000D+01
 D   1 1.00       0.000000000000
      0.8000000000D+00  0.1000000000D+01
 ****
     50 0
 S   3 1.00       0.000000000000
      0.1873113696D+02  0.3349460434D-01
      0.2825394365D+01  0.2347269535D+00
      0.6401216923D+00  0.8137573261D+00
 S   1 1.00       0.000000000000
      0.1612777588D+00  0.1000000000D+01
 ****
     51 0
 S   3 1.00       0.000000000000
      0.1873113696D+02  0.3349460434D-01
      0.2825394365D+01  0.2347269535D+00
      0.6401216923D+00  0.8137573261D+00
 S   1 1.00       0.000000000000
      0.1612777588D+00  0.1000000000D+01
 ****
     52 0
 S   3 1.00       0.000000000000
      0.1873113696D+02  0.3349460434D-01
      0.2825394365D+01  0.2347269535D+00
      0.6401216923D+00  0.8137573261D+00
 S   1 1.00       0.000000000000
      0.1612777588D+00  0.1000000000D+01
 ****
     53 0
 S   6 1.00       0.000000000000
      0.5484671660D+04  0.1831074430D-02
      0.8252349460D+03  0.1395017220D-01
      0.1880469580D+03  0.6844507810D-01
      0.5296450000D+02  0.2327143360D+00
      0.1689757040D+02  0.4701928980D+00
      0.5799635340D+01  0.3585208530D+00
 SP   3 1.00       0.000000000000
      0.1553961625D+02 -0.1107775495D+00  0.7087426823D-01
      0.3599933586D+01 -0.1480262627D+00  0.3397528391D+00
      0.1013761750D+01  0.1130767015D+01  0.7271585773D+00
 SP   1 1.00       0.000000000000
      0.2700058226D+00  0.1000000000D+01  0.1000000000D+01
 D   1 1.00       0.000000000000
      0.8000000000D+00  0.1000000000D+01
 ****
     54 0
 S   6 1.00       0.000000000000
      0.5484671660D+04  0.1831074430D-02
      0.8252349460D+03  0.1395017220D-01
      0.1880469580D+03  0.6844507810D-01
      0.5296450000D+02  0.2327143360D+00
      0.1689757040D+02  0.4701928980D+00
      0.5799635340D+01  0.3585208530D+00
 SP   3 1.00       0.000000000000
      0.1553961625D+02 -0.1107775495D+00  0.7087426823D-01
      0.3599933586D+01 -0.1480262627D+00  0.3397528391D+00
      0.1013761750D+01  0.1130767015D+01  0.7271585773D+00
 SP   1 1.00       0.000000000000
      0.2700058226D+00  0.1000000000D+01  0.1000000000D+01
 D   1 1.00       0.000000000000
      0.8000000000D+00  0.1000000000D+01
 ****
     55 0
 S   3 1.00       0.000000000000
      0.1873113696D+02  0.3349460434D-01
      0.2825394365D+01  0.2347269535D+00
      0.6401216923D+00  0.8137573261D+00
 S   1 1.00       0.000000000000
      0.1612777588D+00  0.1000000000D+01
 ****
     56 0
 S   6 1.00       0.000000000000
      0.5484671660D+04  0.1831074430D-02
      0.8252349460D+03  0.1395017220D-01
      0.1880469580D+03  0.6844507810D-01
      0.5296450000D+02  0.2327143360D+00
      0.1689757040D+02  0.4701928980D+00
      0.5799635340D+01  0.3585208530D+00
 SP   3 1.00       0.000000000000
      0.1553961625D+02 -0.1107775495D+00  0.7087426823D-01
      0.3599933586D+01 -0.1480262627D+00  0.3397528391D+00
      0.1013761750D+01  0.1130767015D+01  0.7271585773D+00
 SP   1 1.00       0.000000000000
      0.2700058226D+00  0.1000000000D+01  0.1000000000D+01
 D   1 1.00       0.000000000000
      0.8000000000D+00  0.1000000000D+01
 ****
     57 0
 S   3 1.00       0.000000000000
      0.1873113696D+02  0.3349460434D-01
      0.2825394365D+01  0.2347269535D+00
      0.6401216923D+00  0.8137573261D+00
 S   1 1.00       0.000000000000
      0.1612777588D+00  0.1000000000D+01
 ****
     58 0
 S   6 1.00       0.000000000000
      0.3047524880D+04  0.1834737132D-02
      0.4573695180D+03  0.1403732281D-01
      0.1039486850D+03  0.6884262226D-01
      0.2921015530D+02  0.2321844432D+00
      0.9286662960D+01  0.4679413484D+00
      0.3163926960D+01  0.3623119853D+00
 SP   3 1.00       0.000000000000
      0.7868272350D+01 -0.1193324198D+00  0.6899906659D-01
      0.1881288540D+01 -0.1608541517D+00  0.3164239610D+00
      0.5442492580D+00  0.1143456438D+01  0.7443082909D+00
 SP   1 1.00       0.000000000000
      0.1687144782D+00  0.1000000000D+01  0.1000000000D+01
 D   1 1.00       0.000000000000
      0.8000000000D+00  0.1000000000D+01
 ****
     59 0
 S   3 1.00       0.000000000000
      0.1873113696D+02  0.3349460434D-01
      0.2825394365D+01  0.2347269535D+00
      0.6401216923D+00  0.8137573261D+00
 S   1 1.00       0.000000000000
      0.1612777588D+00  0.1000000000D+01
 ****
     60 0
 S   3 1.00       0.000000000000
      0.1873113696D+02  0.3349460434D-01
      0.2825394365D+01  0.2347269535D+00
      0.6401216923D+00  0.8137573261D+00
 S   1 1.00       0.000000000000
      0.1612777588D+00  0.1000000000D+01
 ****
     61 0
 S   6 1.00       0.000000000000
      0.3047524880D+04  0.1834737132D-02
      0.4573695180D+03  0.1403732281D-01
      0.1039486850D+03  0.6884262226D-01
      0.2921015530D+02  0.2321844432D+00
      0.9286662960D+01  0.4679413484D+00
      0.3163926960D+01  0.3623119853D+00
 SP   3 1.00       0.000000000000
      0.7868272350D+01 -0.1193324198D+00  0.6899906659D-01
      0.1881288540D+01 -0.1608541517D+00  0.3164239610D+00
      0.5442492580D+00  0.1143456438D+01  0.7443082909D+00
 SP   1 1.00       0.000000000000
      0.1687144782D+00  0.1000000000D+01  0.1000000000D+01
 D   1 1.00       0.000000000000
      0.8000000000D+00  0.1000000000D+01
 ****
     62 0
 S   3 1.00       0.000000000000
      0.1873113696D+02  0.3349460434D-01
      0.2825394365D+01  0.2347269535D+00
      0.6401216923D+00  0.8137573261D+00
 S   1 1.00       0.000000000000
      0.1612777588D+00  0.1000000000D+01
 ****
     63 0
 S   3 1.00       0.000000000000
      0.1873113696D+02  0.3349460434D-01
      0.2825394365D+01  0.2347269535D+00
      0.6401216923D+00  0.8137573261D+00
 S   1 1.00       0.000000000000
      0.1612777588D+00  0.1000000000D+01
 ****
     64 0
 S   6 1.00       0.000000000000
      0.3047524880D+04  0.1834737132D-02
      0.4573695180D+03  0.1403732281D-01
      0.1039486850D+03  0.6884262226D-01
      0.2921015530D+02  0.2321844432D+00
      0.9286662960D+01  0.4679413484D+00
      0.3163926960D+01  0.3623119853D+00
 SP   3 1.00       0.000000000000
      0.7868272350D+01 -0.1193324198D+00  0.6899906659D-01
      0.1881288540D+01 -0.1608541517D+00  0.3164239610D+00
      0.5442492580D+00  0.1143456438D+01  0.7443082909D+00
 SP   1 1.00       0.000000000000
      0.1687144782D+00  0.1000000000D+01  0.1000000000D+01
 D   1 1.00       0.000000000000
      0.8000000000D+00  0.1000000000D+01
 ****
     65 0
 S   3 1.00       0.000000000000
      0.1873113696D+02  0.3349460434D-01
      0.2825394365D+01  0.2347269535D+00
      0.6401216923D+00  0.8137573261D+00
 S   1 1.00       0.000000000000
      0.1612777588D+00  0.1000000000D+01
 ****
     66 0
 S   3 1.00       0.000000000000
      0.1873113696D+02  0.3349460434D-01
      0.2825394365D+01  0.2347269535D+00
      0.6401216923D+00  0.8137573261D+00
 S   1 1.00       0.000000000000
      0.1612777588D+00  0.1000000000D+01
 ****
     67 0
 S   6 1.00       0.000000000000
      0.3047524880D+04  0.1834737132D-02
      0.4573695180D+03  0.1403732281D-01
      0.1039486850D+03  0.6884262226D-01
      0.2921015530D+02  0.2321844432D+00
      0.9286662960D+01  0.4679413484D+00
      0.3163926960D+01  0.3623119853D+00
 SP   3 1.00       0.000000000000
      0.7868272350D+01 -0.1193324198D+00  0.6899906659D-01
      0.1881288540D+01 -0.1608541517D+00  0.3164239610D+00
      0.5442492580D+00  0.1143456438D+01  0.7443082909D+00
 SP   1 1.00       0.000000000000
      0.1687144782D+00  0.1000000000D+01  0.1000000000D+01
 D   1 1.00       0.000000000000
      0.8000000000D+00  0.1000000000D+01
 ****
     68 0
 S   3 1.00       0.000000000000
      0.1873113696D+02  0.3349460434D-01
      0.2825394365D+01  0.2347269535D+00
      0.6401216923D+00  0.8137573261D+00
 S   1 1.00       0.000000000000
      0.1612777588D+00  0.1000000000D+01
 ****
     69 0
 S   6 1.00       0.000000000000
      0.3047524880D+04  0.1834737132D-02
      0.4573695180D+03  0.1403732281D-01
      0.1039486850D+03  0.6884262226D-01
      0.2921015530D+02  0.2321844432D+00
      0.9286662960D+01  0.4679413484D+00
      0.3163926960D+01  0.3623119853D+00
 SP   3 1.00       0.000000000000
      0.7868272350D+01 -0.1193324198D+00  0.6899906659D-01
      0.1881288540D+01 -0.1608541517D+00  0.3164239610D+00
      0.5442492580D+00  0.1143456438D+01  0.7443082909D+00
 SP   1 1.00       0.000000000000
      0.1687144782D+00  0.1000000000D+01  0.1000000000D+01
 D   1 1.00       0.000000000000
      0.8000000000D+00  0.1000000000D+01
 ****
     70 0
 S   3 1.00       0.000000000000
      0.1873113696D+02  0.3349460434D-01
      0.2825394365D+01  0.2347269535D+00
      0.6401216923D+00  0.8137573261D+00
 S   1 1.00       0.000000000000
      0.1612777588D+00  0.1000000000D+01
 ****
     71 0
 S   3 1.00       0.000000000000
      0.1873113696D+02  0.3349460434D-01
      0.2825394365D+01  0.2347269535D+00
      0.6401216923D+00  0.8137573261D+00
 S   1 1.00       0.000000000000
      0.1612777588D+00  0.1000000000D+01
 ****
     72 0
 S   3 1.00       0.000000000000
      0.1873113696D+02  0.3349460434D-01
      0.2825394365D+01  0.2347269535D+00
      0.6401216923D+00  0.8137573261D+00
 S   1 1.00       0.000000000000
      0.1612777588D+00  0.1000000000D+01
 ****
     73 0
 S   6 1.00       0.000000000000
      0.3047524880D+04  0.1834737132D-02
      0.4573695180D+03  0.1403732281D-01
      0.1039486850D+03  0.6884262226D-01
      0.2921015530D+02  0.2321844432D+00
      0.9286662960D+01  0.4679413484D+00
      0.3163926960D+01  0.3623119853D+00
 SP   3 1.00       0.000000000000
      0.7868272350D+01 -0.1193324198D+00  0.6899906659D-01
      0.1881288540D+01 -0.1608541517D+00  0.3164239610D+00
      0.5442492580D+00  0.1143456438D+01  0.7443082909D+00
 SP   1 1.00       0.000000000000
      0.1687144782D+00  0.1000000000D+01  0.1000000000D+01
 D   1 1.00       0.000000000000
      0.8000000000D+00  0.1000000000D+01
 ****
     74 0
 S   3 1.00       0.000000000000
      0.1873113696D+02  0.3349460434D-01
      0.2825394365D+01  0.2347269535D+00
      0.6401216923D+00  0.8137573261D+00
 S   1 1.00       0.000000000000
      0.1612777588D+00  0.1000000000D+01
 ****
     75 0
 S   3 1.00       0.000000000000
      0.1873113696D+02  0.3349460434D-01
      0.2825394365D+01  0.2347269535D+00
      0.6401216923D+00  0.8137573261D+00
 S   1 1.00       0.000000000000
      0.1612777588D+00  0.1000000000D+01
 ****
     76 0
 S   3 1.00       0.000000000000
      0.1873113696D+02  0.3349460434D-01
      0.2825394365D+01  0.2347269535D+00
      0.6401216923D+00  0.8137573261D+00
 S   1 1.00       0.000000000000
      0.1612777588D+00  0.1000000000D+01
 ****

 AO basis set (Overlap normalization):
 Atom C1       Shell     1 S   6     bf    1 -     1         14.188877578470          4.063750791025         -0.098318274399
      0.3047524880D+04  0.1834737132D-02
      0.4573695180D+03  0.1403732281D-01
      0.1039486850D+03  0.6884262226D-01
      0.2921015530D+02  0.2321844432D+00
      0.9286662960D+01  0.4679413484D+00
      0.3163926960D+01  0.3623119853D+00
 Atom C1       Shell     2 SP   3    bf    2 -     5         14.188877578470          4.063750791025         -0.098318274399
      0.7868272350D+01 -0.1193324198D+00  0.6899906659D-01
      0.1881288540D+01 -0.1608541517D+00  0.3164239610D+00
      0.5442492580D+00  0.1143456438D+01  0.7443082909D+00
 Atom C1       Shell     3 SP   1    bf    6 -     9         14.188877578470          4.063750791025         -0.098318274399
      0.1687144782D+00  0.1000000000D+01  0.1000000000D+01
 Atom C1       Shell     4 D   1     bf   10 -    15         14.188877578470          4.063750791025         -0.098318274399
      0.8000000000D+00  0.1000000000D+01
 Atom H2       Shell     5 S   3     bf   16 -    16         13.991482531396          3.910752724053          1.959478551170
      0.1873113696D+02  0.3349460434D-01
      0.2825394365D+01  0.2347269535D+00
      0.6401216923D+00  0.8137573261D+00
 Atom H2       Shell     6 S   1     bf   17 -    17         13.991482531396          3.910752724053          1.959478551170
      0.1612777588D+00  0.1000000000D+01
 Atom C3       Shell     7 S   6     bf   18 -    18         12.768552519493          1.858026865178         -1.344688203591
      0.3047524880D+04  0.1834737132D-02
      0.4573695180D+03  0.1403732281D-01
      0.1039486850D+03  0.6884262226D-01
      0.2921015530D+02  0.2321844432D+00
      0.9286662960D+01  0.4679413484D+00
      0.3163926960D+01  0.3623119853D+00
 Atom C3       Shell     8 SP   3    bf   19 -    22         12.768552519493          1.858026865178         -1.344688203591
      0.7868272350D+01 -0.1193324198D+00  0.6899906659D-01
      0.1881288540D+01 -0.1608541517D+00  0.3164239610D+00
      0.5442492580D+00  0.1143456438D+01  0.7443082909D+00
 Atom C3       Shell     9 SP   1    bf   23 -    26         12.768552519493          1.858026865178         -1.344688203591
      0.1687144782D+00  0.1000000000D+01  0.1000000000D+01
 Atom C3       Shell    10 D   1     bf   27 -    32         12.768552519493          1.858026865178         -1.344688203591
      0.8000000000D+00  0.1000000000D+01
 Atom H4       Shell    11 S   3     bf   33 -    33         13.505466493999          0.062576126603         -0.630045615321
      0.1873113696D+02  0.3349460434D-01
      0.2825394365D+01  0.2347269535D+00
      0.6401216923D+00  0.8137573261D+00
 Atom H4       Shell    12 S   1     bf   34 -    34         13.505466493999          0.062576126603         -0.630045615321
      0.1612777588D+00  0.1000000000D+01
 Atom H5       Shell    13 S   3     bf   35 -    35         13.189850576894          1.906138404350         -3.382392251490
      0.1873113696D+02  0.3349460434D-01
      0.2825394365D+01  0.2347269535D+00
      0.6401216923D+00  0.8137573261D+00
 Atom H5       Shell    14 S   1     bf   36 -    36         13.189850576894          1.906138404350         -3.382392251490
      0.1612777588D+00  0.1000000000D+01
 Atom C6       Shell    15 S   6     bf   37 -    37          9.935306424116          2.005635924548         -0.925398471534
      0.3047524880D+04  0.1834737132D-02
      0.4573695180D+03  0.1403732281D-01
      0.1039486850D+03  0.6884262226D-01
      0.2921015530D+02  0.2321844432D+00
      0.9286662960D+01  0.4679413484D+00
      0.3163926960D+01  0.3623119853D+00
 Atom C6       Shell    16 SP   3    bf   38 -    41          9.935306424116          2.005635924548         -0.925398471534
      0.7868272350D+01 -0.1193324198D+00  0.6899906659D-01
      0.1881288540D+01 -0.1608541517D+00  0.3164239610D+00
      0.5442492580D+00  0.1143456438D+01  0.7443082909D+00
 Atom C6       Shell    17 SP   1    bf   42 -    45          9.935306424116          2.005635924548         -0.925398471534
      0.1687144782D+00  0.1000000000D+01  0.1000000000D+01
 Atom C6       Shell    18 D   1     bf   46 -    51          9.935306424116          2.005635924548         -0.925398471534
      0.8000000000D+00  0.1000000000D+01
 Atom C7       Shell    19 S   6     bf   52 -    52          8.646649072797          4.509118611434         -1.613014820261
      0.3047524880D+04  0.1834737132D-02
      0.4573695180D+03  0.1403732281D-01
      0.1039486850D+03  0.6884262226D-01
      0.2921015530D+02  0.2321844432D+00
      0.9286662960D+01  0.4679413484D+00
      0.3163926960D+01  0.3623119853D+00
 Atom C7       Shell    20 SP   3    bf   53 -    56          8.646649072797          4.509118611434         -1.613014820261
      0.7868272350D+01 -0.1193324198D+00  0.6899906659D-01
      0.1881288540D+01 -0.1608541517D+00  0.3164239610D+00
      0.5442492580D+00  0.1143456438D+01  0.7443082909D+00
 Atom C7       Shell    21 SP   1    bf   57 -    60          8.646649072797          4.509118611434         -1.613014820261
      0.1687144782D+00  0.1000000000D+01  0.1000000000D+01
 Atom C7       Shell    22 D   1     bf   61 -    66          8.646649072797          4.509118611434         -1.613014820261
      0.8000000000D+00  0.1000000000D+01
 Atom C8       Shell    23 S   6     bf   67 -    67         10.223608504258          6.705301669084         -0.437426643178
      0.3047524880D+04  0.1834737132D-02
      0.4573695180D+03  0.1403732281D-01
      0.1039486850D+03  0.6884262226D-01
      0.2921015530D+02  0.2321844432D+00
      0.9286662960D+01  0.4679413484D+00
      0.3163926960D+01  0.3623119853D+00
 Atom C8       Shell    24 SP   3    bf   68 -    71         10.223608504258          6.705301669084         -0.437426643178
      0.7868272350D+01 -0.1193324198D+00  0.6899906659D-01
      0.1881288540D+01 -0.1608541517D+00  0.3164239610D+00
      0.5442492580D+00  0.1143456438D+01  0.7443082909D+00
 Atom C8       Shell    25 SP   1    bf   72 -    75         10.223608504258          6.705301669084         -0.437426643178
      0.1687144782D+00  0.1000000000D+01  0.1000000000D+01
 Atom C8       Shell    26 D   1     bf   76 -    81         10.223608504258          6.705301669084         -0.437426643178
      0.8000000000D+00  0.1000000000D+01
 Atom H9       Shell    27 S   3     bf   82 -    82          9.939370185678          6.677166330377          1.618698946393
      0.1873113696D+02  0.3349460434D-01
      0.2825394365D+01  0.2347269535D+00
      0.6401216923D+00  0.8137573261D+00
 Atom H9       Shell    28 S   1     bf   83 -    83          9.939370185678          6.677166330377          1.618698946393
      0.1612777588D+00  0.1000000000D+01
 Atom H10      Shell    29 S   3     bf   84 -    84          9.480385225523          8.517156950144         -1.107791190709
      0.1873113696D+02  0.3349460434D-01
      0.2825394365D+01  0.2347269535D+00
      0.6401216923D+00  0.8137573261D+00
 Atom H10      Shell    30 S   1     bf   85 -    85          9.480385225523          8.517156950144         -1.107791190709
      0.1612777588D+00  0.1000000000D+01
 Atom C11      Shell    31 S   6     bf   86 -    86         13.075652914903          6.583427750569         -0.968423623847
      0.3047524880D+04  0.1834737132D-02
      0.4573695180D+03  0.1403732281D-01
      0.1039486850D+03  0.6884262226D-01
      0.2921015530D+02  0.2321844432D+00
      0.9286662960D+01  0.4679413484D+00
      0.3163926960D+01  0.3623119853D+00
 Atom C11      Shell    32 SP   3    bf   87 -    90         13.075652914903          6.583427750569         -0.968423623847
      0.7868272350D+01 -0.1193324198D+00  0.6899906659D-01
      0.1881288540D+01 -0.1608541517D+00  0.3164239610D+00
      0.5442492580D+00  0.1143456438D+01  0.7443082909D+00
 Atom C11      Shell    33 SP   1    bf   91 -    94         13.075652914903          6.583427750569         -0.968423623847
      0.1687144782D+00  0.1000000000D+01  0.1000000000D+01
 Atom C11      Shell    34 D   1     bf   95 -   100         13.075652914903          6.583427750569         -0.968423623847
      0.8000000000D+00  0.1000000000D+01
 Atom H12      Shell    35 S   3     bf  101 -   101         13.448844403112          6.824414886693         -2.999244646664
      0.1873113696D+02  0.3349460434D-01
      0.2825394365D+01  0.2347269535D+00
      0.6401216923D+00  0.8137573261D+00
 Atom H12      Shell    36 S   1     bf  102 -   102         13.448844403112          6.824414886693         -2.999244646664
      0.1612777588D+00  0.1000000000D+01
 Atom H13      Shell    37 S   3     bf  103 -   103         14.043783385535          8.136979163319          0.000000000000
      0.1873113696D+02  0.3349460434D-01
      0.2825394365D+01  0.2347269535D+00
      0.6401216923D+00  0.8137573261D+00
 Atom H13      Shell    38 S   1     bf  104 -   104         14.043783385535          8.136979163319          0.000000000000
      0.1612777588D+00  0.1000000000D+01
 Atom C14      Shell    39 S   6     bf  105 -   105          8.689113222113          0.000000000000          0.000000000000
      0.3047524880D+04  0.1834737132D-02
      0.4573695180D+03  0.1403732281D-01
      0.1039486850D+03  0.6884262226D-01
      0.2921015530D+02  0.2321844432D+00
      0.9286662960D+01  0.4679413484D+00
      0.3163926960D+01  0.3623119853D+00
 Atom C14      Shell    40 SP   3    bf  106 -   109          8.689113222113          0.000000000000          0.000000000000
      0.7868272350D+01 -0.1193324198D+00  0.6899906659D-01
      0.1881288540D+01 -0.1608541517D+00  0.3164239610D+00
      0.5442492580D+00  0.1143456438D+01  0.7443082909D+00
 Atom C14      Shell    41 SP   1    bf  110 -   113          8.689113222113          0.000000000000          0.000000000000
      0.1687144782D+00  0.1000000000D+01  0.1000000000D+01
 Atom C14      Shell    42 D   1     bf  114 -   119          8.689113222113          0.000000000000          0.000000000000
      0.8000000000D+00  0.1000000000D+01
 Atom H15      Shell    43 S   3     bf  120 -   120          9.740209548581         -1.710745446525          0.446341388416
      0.1873113696D+02  0.3349460434D-01
      0.2825394365D+01  0.2347269535D+00
      0.6401216923D+00  0.8137573261D+00
 Atom H15      Shell    44 S   1     bf  121 -   121          9.740209548581         -1.710745446525          0.446341388416
      0.1612777588D+00  0.1000000000D+01
 Atom C16      Shell    45 S   6     bf  122 -   122          5.895840862673         -0.082000545934          0.492325020373
      0.3047524880D+04  0.1834737132D-02
      0.4573695180D+03  0.1403732281D-01
      0.1039486850D+03  0.6884262226D-01
      0.2921015530D+02  0.2321844432D+00
      0.9286662960D+01  0.4679413484D+00
      0.3163926960D+01  0.3623119853D+00
 Atom C16      Shell    46 SP   3    bf  123 -   126          5.895840862673         -0.082000545934          0.492325020373
      0.7868272350D+01 -0.1193324198D+00  0.6899906659D-01
      0.1881288540D+01 -0.1608541517D+00  0.3164239610D+00
      0.5442492580D+00  0.1143456438D+01  0.7443082909D+00
 Atom C16      Shell    47 SP   1    bf  127 -   130          5.895840862673         -0.082000545934          0.492325020373
      0.1687144782D+00  0.1000000000D+01  0.1000000000D+01
 Atom C16      Shell    48 D   1     bf  131 -   136          5.895840862673         -0.082000545934          0.492325020373
      0.8000000000D+00  0.1000000000D+01
 Atom H17      Shell    49 S   3     bf  137 -   137          5.117952712318         -1.907226489760         -0.110819587556
      0.1873113696D+02  0.3349460434D-01
      0.2825394365D+01  0.2347269535D+00
      0.6401216923D+00  0.8137573261D+00
 Atom H17      Shell    50 S   1     bf  138 -   138          5.117952712318         -1.907226489760         -0.110819587556
      0.1612777588D+00  0.1000000000D+01
 Atom C18      Shell    51 S   6     bf  139 -   139          4.461971267227          2.080476392650         -0.823378034668
      0.3047524880D+04  0.1834737132D-02
      0.4573695180D+03  0.1403732281D-01
      0.1039486850D+03  0.6884262226D-01
      0.2921015530D+02  0.2321844432D+00
      0.9286662960D+01  0.4679413484D+00
      0.3163926960D+01  0.3623119853D+00
 Atom C18      Shell    52 SP   3    bf  140 -   143          4.461971267227          2.080476392650         -0.823378034668
      0.7868272350D+01 -0.1193324198D+00  0.6899906659D-01
      0.1881288540D+01 -0.1608541517D+00  0.3164239610D+00
      0.5442492580D+00  0.1143456438D+01  0.7443082909D+00
 Atom C18      Shell    53 SP   1    bf  144 -   147          4.461971267227          2.080476392650         -0.823378034668
      0.1687144782D+00  0.1000000000D+01  0.1000000000D+01
 Atom C18      Shell    54 D   1     bf  148 -   153          4.461971267227          2.080476392650         -0.823378034668
      0.8000000000D+00  0.1000000000D+01
 Atom H19      Shell    55 S   3     bf  154 -   154          4.431307304878          1.560248224220         -2.833958635512
      0.1873113696D+02  0.3349460434D-01
      0.2825394365D+01  0.2347269535D+00
      0.6401216923D+00  0.8137573261D+00
 Atom H19      Shell    56 S   1     bf  155 -   155          4.431307304878          1.560248224220         -2.833958635512
      0.1612777588D+00  0.1000000000D+01
 Atom C20      Shell    57 S   6     bf  156 -   156          5.900667506675          4.614148493859         -0.497149888033
      0.3047524880D+04  0.1834737132D-02
      0.4573695180D+03  0.1403732281D-01
      0.1039486850D+03  0.6884262226D-01
      0.2921015530D+02  0.2321844432D+00
      0.9286662960D+01  0.4679413484D+00
      0.3163926960D+01  0.3623119853D+00
 Atom C20      Shell    58 SP   3    bf  157 -   160          5.900667506675          4.614148493859         -0.497149888033
      0.7868272350D+01 -0.1193324198D+00  0.6899906659D-01
      0.1881288540D+01 -0.1608541517D+00  0.3164239610D+00
      0.5442492580D+00  0.1143456438D+01  0.7443082909D+00
 Atom C20      Shell    59 SP   1    bf  161 -   164          5.900667506675          4.614148493859         -0.497149888033
      0.1687144782D+00  0.1000000000D+01  0.1000000000D+01
 Atom C20      Shell    60 D   1     bf  165 -   170          5.900667506675          4.614148493859         -0.497149888033
      0.8000000000D+00  0.1000000000D+01
 Atom H21      Shell    61 S   3     bf  171 -   171          6.123721292976          4.873570059587          1.553016374590
      0.1873113696D+02  0.3349460434D-01
      0.2825394365D+01  0.2347269535D+00
      0.6401216923D+00  0.8137573261D+00
 Atom H21      Shell    62 S   1     bf  172 -   172          6.123721292976          4.873570059587          1.553016374590
      0.1612777588D+00  0.1000000000D+01
 Atom C22      Shell    63 S   6     bf  173 -   173          4.341901602531          6.885665143646         -1.476789395526
      0.3047524880D+04  0.1834737132D-02
      0.4573695180D+03  0.1403732281D-01
      0.1039486850D+03  0.6884262226D-01
      0.2921015530D+02  0.2321844432D+00
      0.9286662960D+01  0.4679413484D+00
      0.3163926960D+01  0.3623119853D+00
 Atom C22      Shell    64 SP   3    bf  174 -   177          4.341901602531          6.885665143646         -1.476789395526
      0.7868272350D+01 -0.1193324198D+00  0.6899906659D-01
      0.1881288540D+01 -0.1608541517D+00  0.3164239610D+00
      0.5442492580D+00  0.1143456438D+01  0.7443082909D+00
 Atom C22      Shell    65 SP   1    bf  178 -   181          4.341901602531          6.885665143646         -1.476789395526
      0.1687144782D+00  0.1000000000D+01  0.1000000000D+01
 Atom C22      Shell    66 D   1     bf  182 -   187          4.341901602531          6.885665143646         -1.476789395526
      0.8000000000D+00  0.1000000000D+01
 Atom H23      Shell    67 S   3     bf  188 -   188          4.319278330392          6.886571796450         -3.545489619629
      0.1873113696D+02  0.3349460434D-01
      0.2825394365D+01  0.2347269535D+00
      0.6401216923D+00  0.8137573261D+00
 Atom H23      Shell    68 S   1     bf  189 -   189          4.319278330392          6.886571796450         -3.545489619629
      0.1612777588D+00  0.1000000000D+01
 Atom H24      Shell    69 S   3     bf  190 -   190          5.270972605627          8.651018025130         -0.919015808137
      0.1873113696D+02  0.3349460434D-01
      0.2825394365D+01  0.2347269535D+00
      0.6401216923D+00  0.8137573261D+00
 Atom H24      Shell    70 S   1     bf  191 -   191          5.270972605627          8.651018025130         -0.919015808137
      0.1612777588D+00  0.1000000000D+01
 Atom C25      Shell    71 S   6     bf  192 -   192          1.584406237438          6.954301017244         -0.535197407225
      0.3047524880D+04  0.1834737132D-02
      0.4573695180D+03  0.1403732281D-01
      0.1039486850D+03  0.6884262226D-01
      0.2921015530D+02  0.2321844432D+00
      0.9286662960D+01  0.4679413484D+00
      0.3163926960D+01  0.3623119853D+00
 Atom C25      Shell    72 SP   3    bf  193 -   196          1.584406237438          6.954301017244         -0.535197407225
      0.7868272350D+01 -0.1193324198D+00  0.6899906659D-01
      0.1881288540D+01 -0.1608541517D+00  0.3164239610D+00
      0.5442492580D+00  0.1143456438D+01  0.7443082909D+00
 Atom C25      Shell    73 SP   1    bf  197 -   200          1.584406237438          6.954301017244         -0.535197407225
      0.1687144782D+00  0.1000000000D+01  0.1000000000D+01
 Atom C25      Shell    74 D   1     bf  201 -   206          1.584406237438          6.954301017244         -0.535197407225
      0.8000000000D+00  0.1000000000D+01
 Atom H26      Shell    75 S   3     bf  207 -   207          1.556491203003          7.251753453678          1.520627696994
      0.1873113696D+02  0.3349460434D-01
      0.2825394365D+01  0.2347269535D+00
      0.6401216923D+00  0.8137573261D+00
 Atom H26      Shell    76 S   1     bf  208 -   208          1.556491203003          7.251753453678          1.520627696994
      0.1612777588D+00  0.1000000000D+01
 Atom H27      Shell    77 S   3     bf  209 -   209          0.652022355459          8.595927198226         -1.379612950348
      0.1873113696D+02  0.3349460434D-01
      0.2825394365D+01  0.2347269535D+00
      0.6401216923D+00  0.8137573261D+00
 Atom H27      Shell    78 S   1     bf  210 -   210          0.652022355459          8.595927198226         -1.379612950348
      0.1612777588D+00  0.1000000000D+01
 Atom C28      Shell    79 S   6     bf  211 -   211          0.174615834734          4.473256522720         -1.133866293295
      0.3047524880D+04  0.1834737132D-02
      0.4573695180D+03  0.1403732281D-01
      0.1039486850D+03  0.6884262226D-01
      0.2921015530D+02  0.2321844432D+00
      0.9286662960D+01  0.4679413484D+00
      0.3163926960D+01  0.3623119853D+00
 Atom C28      Shell    80 SP   3    bf  212 -   215          0.174615834734          4.473256522720         -1.133866293295
      0.7868272350D+01 -0.1193324198D+00  0.6899906659D-01
      0.1881288540D+01 -0.1608541517D+00  0.3164239610D+00
      0.5442492580D+00  0.1143456438D+01  0.7443082909D+00
 Atom C28      Shell    81 SP   1    bf  216 -   219          0.174615834734          4.473256522720         -1.133866293295
      0.1687144782D+00  0.1000000000D+01  0.1000000000D+01
 Atom C28      Shell    82 D   1     bf  220 -   225          0.174615834734          4.473256522720         -1.133866293295
      0.8000000000D+00  0.1000000000D+01
 Atom C29      Shell    83 S   6     bf  226 -   226          1.729324666945          2.323390784868          0.127111918102
      0.3047524880D+04  0.1834737132D-02
      0.4573695180D+03  0.1403732281D-01
      0.1039486850D+03  0.6884262226D-01
      0.2921015530D+02  0.2321844432D+00
      0.9286662960D+01  0.4679413484D+00
      0.3163926960D+01  0.3623119853D+00
 Atom C29      Shell    84 SP   3    bf  227 -   230          1.729324666945          2.323390784868          0.127111918102
      0.7868272350D+01 -0.1193324198D+00  0.6899906659D-01
      0.1881288540D+01 -0.1608541517D+00  0.3164239610D+00
      0.5442492580D+00  0.1143456438D+01  0.7443082909D+00
 Atom C29      Shell    85 SP   1    bf  231 -   234          1.729324666945          2.323390784868          0.127111918102
      0.1687144782D+00  0.1000000000D+01  0.1000000000D+01
 Atom C29      Shell    86 D   1     bf  235 -   240          1.729324666945          2.323390784868          0.127111918102
      0.8000000000D+00  0.1000000000D+01
 Atom H30      Shell    87 S   3     bf  241 -   241          1.855380606085          2.846255348021          2.132530259583
      0.1873113696D+02  0.3349460434D-01
      0.2825394365D+01  0.2347269535D+00
      0.6401216923D+00  0.8137573261D+00
 Atom H30      Shell    88 S   1     bf  242 -   242          1.855380606085          2.846255348021          2.132530259583
      0.1612777588D+00  0.1000000000D+01
 Atom C31      Shell    89 S   6     bf  243 -   243          0.000000000000          0.000000000000          0.000000000000
      0.3047524880D+04  0.1834737132D-02
      0.4573695180D+03  0.1403732281D-01
      0.1039486850D+03  0.6884262226D-01
      0.2921015530D+02  0.2321844432D+00
      0.9286662960D+01  0.4679413484D+00
      0.3163926960D+01  0.3623119853D+00
 Atom C31      Shell    90 SP   3    bf  244 -   247          0.000000000000          0.000000000000          0.000000000000
      0.7868272350D+01 -0.1193324198D+00  0.6899906659D-01
      0.1881288540D+01 -0.1608541517D+00  0.3164239610D+00
      0.5442492580D+00  0.1143456438D+01  0.7443082909D+00
 Atom C31      Shell    91 SP   1    bf  248 -   251          0.000000000000          0.000000000000          0.000000000000
      0.1687144782D+00  0.1000000000D+01  0.1000000000D+01
 Atom C31      Shell    92 D   1     bf  252 -   257          0.000000000000          0.000000000000          0.000000000000
      0.8000000000D+00  0.1000000000D+01
 Atom H32      Shell    93 S   3     bf  258 -   258          0.471727251189         -1.395970060707          1.448793367429
      0.1873113696D+02  0.3349460434D-01
      0.2825394365D+01  0.2347269535D+00
      0.6401216923D+00  0.8137573261D+00
 Atom H32      Shell    94 S   1     bf  259 -   259          0.471727251189         -1.395970060707          1.448793367429
      0.1612777588D+00  0.1000000000D+01
 Atom H33      Shell    95 S   3     bf  260 -   260          0.166098555594         -0.948197223643         -1.837148244896
      0.1873113696D+02  0.3349460434D-01
      0.2825394365D+01  0.2347269535D+00
      0.6401216923D+00  0.8137573261D+00
 Atom H33      Shell    96 S   1     bf  261 -   261          0.166098555594         -0.948197223643         -1.837148244896
      0.1612777588D+00  0.1000000000D+01
 Atom C34      Shell    97 S   6     bf  262 -   262         -2.686045216852          1.125961342114          0.364216063866
      0.3047524880D+04  0.1834737132D-02
      0.4573695180D+03  0.1403732281D-01
      0.1039486850D+03  0.6884262226D-01
      0.2921015530D+02  0.2321844432D+00
      0.9286662960D+01  0.4679413484D+00
      0.3163926960D+01  0.3623119853D+00
 Atom C34      Shell    98 SP   3    bf  263 -   266         -2.686045216852          1.125961342114          0.364216063866
      0.7868272350D+01 -0.1193324198D+00  0.6899906659D-01
      0.1881288540D+01 -0.1608541517D+00  0.3164239610D+00
      0.5442492580D+00  0.1143456438D+01  0.7443082909D+00
 Atom C34      Shell    99 SP   1    bf  267 -   270         -2.686045216852          1.125961342114          0.364216063866
      0.1687144782D+00  0.1000000000D+01  0.1000000000D+01
 Atom C34      Shell   100 D   1     bf  271 -   276         -2.686045216852          1.125961342114          0.364216063866
      0.8000000000D+00  0.1000000000D+01
 Atom H35      Shell   101 S   3     bf  277 -   277         -3.979777522187          0.443484935085         -1.104050969158
      0.1873113696D+02  0.3349460434D-01
      0.2825394365D+01  0.2347269535D+00
      0.6401216923D+00  0.8137573261D+00
 Atom H35      Shell   102 S   1     bf  278 -   278         -3.979777522187          0.443484935085         -1.104050969158
      0.1612777588D+00  0.1000000000D+01
 Atom H36      Shell   103 S   3     bf  279 -   279         -3.496992916476          0.540997600337          2.173348778691
      0.1873113696D+02  0.3349460434D-01
      0.2825394365D+01  0.2347269535D+00
      0.6401216923D+00  0.8137573261D+00
 Atom H36      Shell   104 S   1     bf  280 -   280         -3.496992916476          0.540997600337          2.173348778691
      0.1612777588D+00  0.1000000000D+01
 Atom C37      Shell   105 S   6     bf  281 -   281         -2.431949655256          4.074207458300          0.223131302867
      0.3047524880D+04  0.1834737132D-02
      0.4573695180D+03  0.1403732281D-01
      0.1039486850D+03  0.6884262226D-01
      0.2921015530D+02  0.2321844432D+00
      0.9286662960D+01  0.4679413484D+00
      0.3163926960D+01  0.3623119853D+00
 Atom C37      Shell   106 SP   3    bf  282 -   285         -2.431949655256          4.074207458300          0.223131302867
      0.7868272350D+01 -0.1193324198D+00  0.6899906659D-01
      0.1881288540D+01 -0.1608541517D+00  0.3164239610D+00
      0.5442492580D+00  0.1143456438D+01  0.7443082909D+00
[...]
 **** Fit      -0.047936
 **** Fit      -0.042343
 **** Fit      -0.035749
 **** Fit      -0.029459
 **** Fit      -0.024009
 **** Fit       0.014373
 **** Fit       0.015818
 **** Fit       0.017131
 **** Fit       0.017963
 **** Fit       0.017705
 **** Fit       0.015469
 **** Fit       0.010300
 **** Fit       0.001735
 **** Fit      -0.009577
 **** Fit      -0.021768
 **** Fit      -0.032358
 **** Fit      -0.039233
 **** Fit      -0.041534
 **** Fit      -0.039900
 **** Fit      -0.035841
 **** Fit      -0.030841
 **** Fit      -0.025879
 **** Fit       0.013749
 **** Fit       0.014420
 **** Fit       0.014523
 **** Fit       0.013598
 **** Fit       0.011066
 **** Fit       0.006411
 **** Fit      -0.000496
 **** Fit      -0.009083
 **** Fit      -0.018051
 **** Fit      -0.025761
 **** Fit      -0.030856
 **** Fit      -0.032797
 **** Fit      -0.031969
 **** Fit      -0.029303
 **** Fit      -0.025769
 **** Fit      -0.022075
 **** Fit       0.011758
 **** Fit       0.011945
 **** Fit       0.011570
 **** Fit       0.010317
 **** Fit       0.007844
 **** Fit       0.003909
 **** Fit      -0.001452
 **** Fit      -0.007782
 **** Fit      -0.014219
 **** Fit      -0.019737
 **** Fit      -0.023505
 **** Fit      -0.025176
 **** Fit      -0.024945
 **** Fit      -0.023350
 **** Fit      -0.020997
 **** Fit       0.009844
 **** Fit       0.009210
 **** Fit       0.007875
 **** Fit       0.005655
 **** Fit       0.002458
 **** Fit      -0.001617
 **** Fit      -0.006229
 **** Fit      -0.010822
 **** Fit      -0.014768
 **** Fit      -0.017565
 **** Fit      -0.018987
 **** Fit      -0.019120
 **** Fit      -0.018261
 **** Fit       0.006134
 **** Fit       0.004236
 **** Fit       0.001699
 **** Fit      -0.001371
 **** Fit      -0.004731
 **** Fit      -0.008023
 **** Fit      -0.010867
 **** Fit      -0.012957
 **** Fit      -0.003412
 **** Fit      -0.006523
 **** Fit      -0.009772
 **** Fit       0.004470
 **** Fit       0.002646
 **** Fit       0.000065
 **** Fit      -0.003286
 **** Fit      -0.007263
 **** Fit      -0.011534
 **** Fit      -0.015614
 **** Fit      -0.018982
 **** Fit      -0.021234
 **** Fit      -0.022198
 **** Fit      -0.021962
 **** Fit       0.007298
 **** Fit       0.006217
 **** Fit       0.004325
 **** Fit       0.001416
 **** Fit      -0.002602
 **** Fit      -0.007599
 **** Fit      -0.013147
 **** Fit      -0.018557
 **** Fit      -0.023048
 **** Fit      -0.025995
 **** Fit      -0.027143
 **** Fit      -0.026647
 **** Fit      -0.024939
 **** Fit      -0.022523
 **** Fit       0.009472
 **** Fit       0.009273
 **** Fit       0.008434
 **** Fit       0.006633
 **** Fit       0.003527
 **** Fit      -0.001114
 **** Fit      -0.007218
 **** Fit      -0.014269
 **** Fit      -0.021324
 **** Fit      -0.027247
 **** Fit      -0.031104
 **** Fit      -0.032506
 **** Fit      -0.031693
 **** Fit      -0.029322
 **** Fit      -0.026125
 **** Fit       0.011257
 **** Fit       0.011463
 **** Fit       0.011030
 **** Fit       0.009526
 **** Fit       0.006437
 **** Fit       0.001334
 **** Fit      -0.005837
 **** Fit      -0.014495
 **** Fit      -0.023414
 **** Fit      -0.031040
 **** Fit      -0.036036
 **** Fit      -0.037809
 **** Fit      -0.036688
 **** Fit      -0.033604
 **** Fit      -0.029573
 **** Fit      -0.025357
 **** Fit       0.012046
 **** Fit       0.012973
 **** Fit       0.013650
 **** Fit       0.013744
 **** Fit       0.012728
 **** Fit       0.009902
 **** Fit       0.004591
 **** Fit      -0.003442
 **** Fit      -0.013591
 **** Fit      -0.024362
 **** Fit      -0.033782
 **** Fit      -0.040067
 **** Fit      -0.042355
 **** Fit      -0.041025
 **** Fit      -0.037300
 **** Fit      -0.032503
 **** Fit      -0.027584
 **** Fit       0.013130
 **** Fit       0.014398
 **** Fit       0.015516
 **** Fit       0.016142
 **** Fit       0.015681
 **** Fit       0.013275
 **** Fit       0.008007
 **** Fit      -0.000565
 **** Fit      -0.011843
 **** Fit      -0.024120
 **** Fit      -0.035081
 **** Fit      -0.042562
 **** Fit      -0.045420
 **** Fit      -0.044036
 **** Fit      -0.039871
 **** Fit      -0.034519
 **** Fit      -0.029093
 **** Fit      -0.024163
 **** Fit       0.013820
 **** Fit       0.015311
 **** Fit       0.016723
 **** Fit       0.017718
 **** Fit       0.017672
 **** Fit       0.015631
 **** Fit       0.010521
 **** Fit       0.001750
 **** Fit      -0.010104
 **** Fit      -0.023207
 **** Fit      -0.035047
 **** Fit      -0.043250
 **** Fit      -0.046508
 **** Fit      -0.045187
 **** Fit      -0.040872
 **** Fit      -0.035298
 **** Fit      -0.029666
 **** Fit      -0.024573
 **** Fit       0.014025
 **** Fit       0.015563
 **** Fit       0.017037
 **** Fit       0.018111
 **** Fit       0.018162
 **** Fit       0.016235
 **** Fit       0.011245
 **** Fit       0.002588
 **** Fit      -0.009169
 **** Fit      -0.022191
 **** Fit      -0.033963
 **** Fit      -0.042131
 **** Fit      -0.045430
 **** Fit      -0.044233
 **** Fit      -0.040088
 **** Fit      -0.034685
 **** Fit      -0.029199
 **** Fit      -0.024224
 **** Fit       0.013732
 **** Fit       0.015139
 **** Fit       0.016435
 **** Fit       0.017287
 **** Fit       0.017107
 **** Fit       0.015030
 **** Fit       0.010121
 **** Fit       0.001902
 **** Fit      -0.009062
 **** Fit      -0.021076
 **** Fit      -0.031840
 **** Fit      -0.039263
 **** Fit      -0.042287
 **** Fit      -0.041286
 **** Fit      -0.037614
 **** Fit      -0.032750
 **** Fit      -0.027743
 **** Fit       0.013011
 **** Fit       0.014153
 **** Fit       0.015105
 **** Fit       0.015548
 **** Fit       0.014962
 **** Fit       0.012646
 **** Fit       0.007902
 **** Fit       0.000452
 **** Fit      -0.009154
 **** Fit      -0.019478
 **** Fit      -0.028617
 **** Fit      -0.034896
 **** Fit      -0.037521
 **** Fit      -0.036814
 **** Fit      -0.033841
 **** Fit      -0.029775
 **** Fit      -0.025484
 **** Fit       0.012805
 **** Fit       0.013355
 **** Fit       0.013353
 **** Fit       0.012378
 **** Fit       0.009916
 **** Fit       0.005517
 **** Fit      -0.000918
 **** Fit      -0.008880
 **** Fit      -0.017243
 **** Fit      -0.024571
 **** Fit      -0.029639
 **** Fit      -0.031880
 **** Fit      -0.031526
 **** Fit      -0.029335
 **** Fit      -0.026167
 **** Fit      -0.022701
 **** Fit       0.011302
 **** Fit       0.011483
 **** Fit       0.011115
 **** Fit       0.009883
 **** Fit       0.007445
 **** Fit       0.003551
 **** Fit      -0.001776
 **** Fit      -0.008104
 **** Fit      -0.014602
 **** Fit      -0.020263
 **** Fit      -0.024243
 **** Fit      -0.026152
 **** Fit      -0.026123
 **** Fit      -0.024655
 **** Fit      -0.022341
 **** Fit       0.009709
 **** Fit       0.009098
 **** Fit       0.007764
 **** Fit       0.005499
 **** Fit       0.002188
 **** Fit      -0.002088
 **** Fit      -0.006982
 **** Fit      -0.011909
 **** Fit      -0.016194
 **** Fit      -0.019279
 **** Fit      -0.020895
 **** Fit      -0.021108
 **** Fit      -0.020221
 **** Fit       0.006105
 **** Fit       0.004099
 **** Fit       0.001365
 **** Fit      -0.001999
 **** Fit      -0.005728
 **** Fit      -0.009422
 **** Fit      -0.012641
 **** Fit      -0.015020
 **** Fit      -0.016378
 **** Fit       0.000942
 **** Fit      -0.001675
 **** Fit      -0.000545
 **** Fit      -0.003293
 **** Fit      -0.006462
 **** Fit      -0.009809
 **** Fit      -0.015680
 **** Fit       0.004543
 **** Fit       0.002806
 **** Fit       0.000330
 **** Fit      -0.002905
 **** Fit      -0.006769
 **** Fit      -0.010956
 **** Fit      -0.015012
 **** Fit      -0.018437
 **** Fit      -0.020827
 **** Fit      -0.021989
 **** Fit      -0.021973
 **** Fit       0.007076
 **** Fit       0.006075
 **** Fit       0.004325
 **** Fit       0.001644
 **** Fit      -0.002051
 **** Fit      -0.006648
 **** Fit      -0.011777
 **** Fit      -0.016840
 **** Fit      -0.021153
 **** Fit      -0.024148
 **** Fit      -0.025551
 **** Fit      -0.025440
 **** Fit      -0.024149
 **** Fit       0.008617
 **** Fit       0.007810
 **** Fit       0.006154
 **** Fit       0.003375
 **** Fit      -0.000698
 **** Fit      -0.005994
 **** Fit      -0.012091
 **** Fit      -0.018239
 **** Fit      -0.023540
 **** Fit      -0.027227
 **** Fit      -0.028924
 **** Fit      -0.028732
 **** Fit      -0.027103
 **** Fit      -0.024607
 **** Fit       0.010090
 **** Fit       0.010123
 **** Fit       0.009572
 **** Fit       0.008103
 **** Fit       0.005346
 **** Fit       0.001024
 **** Fit      -0.004852
 **** Fit      -0.011827
 **** Fit      -0.019011
 **** Fit      -0.025292
 **** Fit      -0.029693
 **** Fit      -0.031719
 **** Fit      -0.031488
 **** Fit      -0.029569
 **** Fit      -0.026672
 **** Fit       0.011118
 **** Fit       0.011394
 **** Fit       0.011102
 **** Fit       0.009858
 **** Fit       0.007209
 **** Fit       0.002781
 **** Fit      -0.003485
 **** Fit      -0.011118
 **** Fit      -0.019119
 **** Fit      -0.026203
 **** Fit      -0.031216
 **** Fit      -0.033553
 **** Fit      -0.033336
 **** Fit      -0.031228
 **** Fit      -0.028053
 **** Fit      -0.024495
 **** Fit       0.011786
 **** Fit       0.012229
 **** Fit       0.012123
 **** Fit       0.011059
 **** Fit       0.008535
 **** Fit       0.004113
 **** Fit      -0.002312
 **** Fit      -0.010269
 **** Fit      -0.018701
 **** Fit      -0.026228
 **** Fit      -0.031599
 **** Fit      -0.034145
 **** Fit      -0.033985
 **** Fit      -0.031829
 **** Fit      -0.028555
 **** Fit      -0.024890
 **** Fit       0.012003
 **** Fit       0.012492
 **** Fit       0.012444
 **** Fit       0.011448
 **** Fit       0.009001
 **** Fit       0.004661
 **** Fit      -0.001681
 **** Fit      -0.009565
 **** Fit      -0.017936
 **** Fit      -0.025426
 **** Fit      -0.030796
 **** Fit      -0.033385
 **** Fit      -0.033308
 **** Fit      -0.031256
 **** Fit      -0.028088
 **** Fit      -0.024520
 **** Fit       0.011755
 **** Fit       0.012166
 **** Fit       0.012039
 **** Fit       0.010992
 **** Fit       0.008568
 **** Fit       0.004380
 **** Fit      -0.001645
 **** Fit      -0.009060
 **** Fit      -0.016885
 **** Fit      -0.023868
 **** Fit      -0.028887
 **** Fit      -0.031357
 **** Fit      -0.031381
 **** Fit      -0.029572
 **** Fit      -0.026701
 **** Fit       0.011110
 **** Fit       0.011352
 **** Fit       0.011057
 **** Fit       0.009892
 **** Fit       0.007481
 **** Fit       0.003533
 **** Fit      -0.001966
 **** Fit      -0.008598
 **** Fit      -0.015514
 **** Fit      -0.021652
 **** Fit      -0.026084
 **** Fit      -0.028330
 **** Fit      -0.028471
 **** Fit      -0.027005
 **** Fit      -0.024568
 **** Fit       0.010227
 **** Fit       0.009740
 **** Fit       0.008462
 **** Fit       0.006113
 **** Fit       0.002503
 **** Fit      -0.002327
 **** Fit      -0.008001
 **** Fit      -0.013829
 **** Fit      -0.018976
 **** Fit      -0.022724
 **** Fit      -0.024703
 **** Fit      -0.024967
 **** Fit      -0.023883
 **** Fit       0.008975
 **** Fit       0.008329
 **** Fit       0.006994
 **** Fit       0.004780
 **** Fit       0.001584
 **** Fit      -0.002516
 **** Fit      -0.007200
 **** Fit      -0.011938
 **** Fit      -0.016109
 **** Fit      -0.019188
 **** Fit      -0.020899
 **** Fit      -0.021267
 **** Fit       0.007000
 **** Fit       0.005678
 **** Fit       0.003664
 **** Fit       0.000917
 **** Fit      -0.002471
 **** Fit      -0.006241
 **** Fit      -0.010001
 **** Fit      -0.013308
 **** Fit      -0.015791
 **** Fit      -0.017251
 **** Fit       0.000517
 **** Fit      -0.002229
 **** Fit      -0.005215
 **** Fit      -0.003031
 **** Fit      -0.006032
 **** Fit      -0.009216
 **** Fit       0.002641
 **** Fit       0.000374
 **** Fit      -0.002562
 **** Fit      -0.006052
 **** Fit      -0.009836
 **** Fit      -0.013531
 **** Fit      -0.016715
 **** Fit      -0.019036
 **** Fit      -0.020305
 **** Fit       0.005406
 **** Fit       0.003796
 **** Fit       0.001405
 **** Fit      -0.001818
 **** Fit      -0.005767
 **** Fit      -0.010145
 **** Fit      -0.014487
 **** Fit      -0.018261
 **** Fit      -0.021013
 **** Fit      -0.022500
 **** Fit      -0.022733
 **** Fit       0.007404
 **** Fit       0.006554
 **** Fit       0.004998
 **** Fit       0.002550
 **** Fit      -0.000882
 **** Fit      -0.005212
 **** Fit      -0.010116
 **** Fit      -0.015051
 **** Fit      -0.019380
 **** Fit      -0.022550
 **** Fit      -0.024258
 **** Fit      -0.024517
 **** Fit      -0.023593
 **** Fit       0.008273
 **** Fit       0.007545
 **** Fit       0.006070
 **** Fit       0.003625
 **** Fit       0.000075
 **** Fit      -0.004515
 **** Fit      -0.009803
 **** Fit      -0.015191
 **** Fit      -0.019957
 **** Fit      -0.023468
 **** Fit      -0.025369
 **** Fit      -0.025671
 **** Fit      -0.024675
 **** Fit       0.008857
 **** Fit       0.008223
 **** Fit       0.006827
 **** Fit       0.004420
 **** Fit       0.000842
 **** Fit      -0.003856
 **** Fit      -0.009330
 **** Fit      -0.014950
 **** Fit      -0.019952
 **** Fit      -0.023656
 **** Fit      -0.025683
 **** Fit      -0.026036
 **** Fit      -0.025034
 **** Fit       0.009077
 **** Fit       0.008485
 **** Fit       0.007136
 **** Fit       0.004782
 **** Fit       0.001259
 **** Fit      -0.003386
 **** Fit      -0.008812
 **** Fit      -0.014396
 **** Fit      -0.019379
 **** Fit      -0.023089
 **** Fit      -0.025145
 **** Fit      -0.025549
 **** Fit      -0.024611
 **** Fit       0.008920
 **** Fit       0.008312
 **** Fit       0.006975
 **** Fit       0.004683
 **** Fit       0.001292
 **** Fit      -0.003142
 **** Fit      -0.008293
 **** Fit      -0.013578
 **** Fit      -0.018294
 **** Fit      -0.021821
 **** Fit      -0.023809
 **** Fit      -0.024258
 **** Fit      -0.023445
 **** Fit       0.008439
 **** Fit       0.007776
 **** Fit       0.006434
 **** Fit       0.004223
 **** Fit       0.001038
 **** Fit      -0.003052
 **** Fit      -0.007744
 **** Fit      -0.012523
 **** Fit      -0.016780
 **** Fit      -0.019982
 **** Fit      -0.021829
 **** Fit      -0.022314
 **** Fit       0.007007
 **** Fit       0.005666
 **** Fit       0.003571
 **** Fit       0.000657
 **** Fit      -0.002994
 **** Fit      -0.007113
 **** Fit      -0.011268
 **** Fit      -0.014961
 **** Fit      -0.017761
 **** Fit      -0.019424
 **** Fit      -0.019937
 **** Fit       0.004831
 **** Fit       0.002890
 **** Fit       0.000292
 **** Fit      -0.002874
 **** Fit      -0.006380
 **** Fit      -0.009881
 **** Fit      -0.012988
 **** Fit       0.000030
 **** Fit      -0.002652
 **** Fit      -0.005567
 **** Fit       0.000171
 **** Fit      -0.002375
 **** Fit      -0.005358
 **** Fit      -0.008570
 **** Fit       0.002935
 **** Fit       0.000852
 **** Fit      -0.001854
 **** Fit      -0.005089
 **** Fit      -0.008623
 **** Fit      -0.012120
 **** Fit      -0.015201
 **** Fit      -0.017539
 **** Fit       0.003610
 **** Fit       0.001498
 **** Fit      -0.001307
 **** Fit      -0.004712
 **** Fit      -0.008478
 **** Fit      -0.012237
 **** Fit      -0.015570
 **** Fit      -0.018108
 **** Fit      -0.019636
 **** Fit       0.005524
 **** Fit       0.004106
 **** Fit       0.002001
 **** Fit      -0.000834
 **** Fit      -0.004312
 **** Fit      -0.008187
 **** Fit      -0.012078
 **** Fit      -0.015543
 **** Fit      -0.018195
 **** Fit      -0.019802
 **** Fit       0.005738
 **** Fit       0.004354
 **** Fit       0.002284
 **** Fit      -0.000514
 **** Fit      -0.003957
 **** Fit      -0.007803
 **** Fit      -0.011672
 **** Fit      -0.015128
 **** Fit      -0.017785
 **** Fit      -0.019411
 **** Fit       0.004336
 **** Fit       0.002329
 **** Fit      -0.000370
 **** Fit      -0.003675
 **** Fit      -0.007355
 **** Fit      -0.011054
 **** Fit      -0.014360
 **** Fit      -0.016914
 **** Fit       0.004094
 **** Fit       0.002174
 **** Fit      -0.000368
 **** Fit      -0.003447
 **** Fit      -0.006849
 **** Fit      -0.010254
 **** Fit      -0.013298
 **** Fit       0.001899
 **** Fit      -0.000440
 **** Fit      -0.003229
 **** Fit      -0.006278
 -----------------------------------------------------------------
 Leave Link  602 at Fri Apr 28 12:36:29 2017, MaxMem=    33554432 cpu:        50.5
 (Enter /home/michal/g09/l9999.exe)

 Test job not archived.
 1\1\GINC-LINUX\SP\RHF\6-31G(d)\C27H46O3\MICHAL\28-Apr-2017\0\\#P HF/6-
 31G* SCF(Conver=6) NoSymm Test Pop=chelpg IOp(6/33=2) GFInput GFPrint\
 \MEP - Input generated by R.E.D.-III.x MOLECULE\\0,1\C,0,7.50843063,2.
 1504443,-0.05202779\H,0,7.40397367,2.06948121,1.03691139\C,0,6.7568269
 8,0.98322547,-0.71157835\H,0,7.14678506,0.03311386,-0.33340578\H,0,6.9
 7976831,1.008685,-1.78988489\C,0,5.25753772,1.06133682,-0.48969978\C,0
 ,4.57560962,2.3861228,-0.85357068\C,0,5.41010061,3.54829282,-0.2314762
 1\H,0,5.25968817,3.53340424,0.85657859\H,0,5.01680379,4.50708534,-0.58
 621785\C,0,6.91933751,3.48379992,-0.51246771\H,0,7.11682194,3.61132482
 ,-1.58713191\H,0,7.43165009,4.30590392,0.\C,0,4.59808068,0.,0.\H,0,5.1
 542969,-0.9052875,0.23619369\C,0,3.11994461,-0.04339282,0.26052718\H,0
 ,2.70830393,-1.00926079,-0.0586432\C,0,2.3611735,1.10094069,-0.4357128
 9\H,0,2.34494683,0.8256478,-1.49966632\C,0,3.12249876,2.44170222,-0.26
 308039\H,0,3.24053374,2.5789822,0.82182087\C,0,2.29763537,3.64373706,-
 0.78148329\H,0,2.28566365,3.64421684,-1.8761923\H,0,2.78927857,4.57792
 157,-0.48632222\C,0,0.83843167,3.6800576,-0.28321427\H,0,0.82365967,3.
 83746265,0.80468152\H,0,0.34503537,4.54876876,-0.73005973\C,0,0.092402
 72,2.3671454,-0.6000162\C,0,0.9151192,1.22948545,0.06726473\H,0,0.9818
 2513,1.50617346,1.12848641\C,0,0.,0.,0.\H,0,0.24962731,-0.73871554,0.7
 6666843\H,0,0.08789557,-0.50176436,-0.97217698\C,0,-1.42139391,0.59583
 308,0.19273484\H,0,-2.10600756,0.23468212,-0.58423861\H,0,-1.85052895,
 0.2862836,1.15008664\C,0,-1.28693233,2.15597773,0.118076\H,0,-1.155624
 14,2.53404141,1.14432786\C,0,-0.06496879,2.17483257,-2.12583207\H,0,0.
 89670641,2.10297567,-2.64053702\H,0,-0.62731891,1.2675147,-2.36633316\
 H,0,-0.60414114,3.01830591,-2.56953262\C,0,-2.56066844,2.83573512,-0.4
 4868761\H,0,-2.74772763,2.41722052,-1.44964549\C,0,-2.42534181,4.36214
 22,-0.5908178\H,0,-2.16120015,4.8233354,0.36931721\H,0,-3.36336296,4.8
 1294913,-0.92815857\H,0,-1.6592464,4.6431109,-1.31677441\C,0,4.5694580
 4,2.51981753,-2.40129303\H,0,4.27760896,3.52725036,-2.71232465\H,0,5.5
 564177,2.32568814,-2.82786277\H,0,3.87640573,1.80636017,-2.85778175\O,
 0,2.83742823,0.07406031,1.6823963\O,0,3.32980765,-1.13196708,2.3309804
 9\H,0,4.10174391,-0.78325023,2.80685163\O,0,8.91836022,2.06601992,-0.2
 7438722\H,0,9.08891939,2.15690344,-1.22244498\C,0,-3.7891546,2.4846727
 6,0.42782507\H,0,-3.80902223,1.40327377,0.60672518\H,0,-3.6562177,2.95
 33678,1.41368328\C,0,-5.15094545,2.88338381,-0.16621166\H,0,-5.2392691
 2,3.97382197,-0.2318979\H,0,-5.20186972,2.51584745,-1.20106774\C,0,-6.
 36144512,2.31635369,0.59854218\H,0,-6.29578619,1.21868594,0.59235854\H
 ,0,-7.2773896,2.56831859,0.04353862\C,0,-6.53999217,2.78467132,2.05863
 009\H,0,-5.63162064,2.51978714,2.61843536\C,0,-6.73455016,4.3053862,2.
 16750327\H,0,-7.61971848,4.62600885,1.60265594\H,0,-6.87982265,4.60739
 893,3.21097561\H,0,-5.8738409,4.86106617,1.78142895\C,0,-7.71645123,2.
 04286099,2.71317401\H,0,-8.65835,2.27161232,2.19795061\H,0,-7.83435483
 ,2.3314839,3.76390604\H,0,-7.57341287,0.95672996,2.67767257\\Version=E
 M64L-G09RevD.01\HF=-1273.6834603\RMSD=5.500e-07\Dipole=0.172303,0.5039
 239,-0.8530377\Quadrupole=-6.2424605,2.4635981,3.7788625,2.347628,-7.3
 356641,-1.7728692\PG=C01 [X(C27H46O3)]\\@


 One man practicing sportsmanship is far better than 50 preaching it.
 -- Knute K. Rockne
 Job cpu time:       0 days  0 hours 11 minutes 53.7 seconds.
 File lengths (MBytes):  RWF=    159 Int=      0 D2E=      0 Chk=     11 Scr=      1
 Normal termination of Gaussian 09 at Fri Apr 28 12:36:29 2017.
