 Entering Gaussian System, Link 0=/home/michal/g09/g09
 Input=JOB2-gau_m1-15-1.com
 Output=JOB2-gau_m1-15-1.log
 Initial command:
 /home/michal/g09/l1.exe "/home/michal/gauss_scratch/Gau-18635.inp" -scrdir="/home/michal/gauss_scratch/"
 Entering Link 1 = /home/michal/g09/l1.exe PID=     18636.
  
 Copyright (c) 1988,1990,1992,1993,1995,1998,2003,2009,2013,
            Gaussian, Inc.  All Rights Reserved.
  
 This is part of the Gaussian(R) 09 program.  It is based on
 the Gaussian(R) 03 system (copyright 2003, Gaussian, Inc.),
 the Gaussian(R) 98 system (copyright 1998, Gaussian, Inc.),
 the Gaussian(R) 94 system (copyright 1995, Gaussian, Inc.),
 the Gaussian 92(TM) system (copyright 1992, Gaussian, Inc.),
 the Gaussian 90(TM) system (copyright 1990, Gaussian, Inc.),
 the Gaussian 88(TM) system (copyright 1988, Gaussian, Inc.),
 the Gaussian 86(TM) system (copyright 1986, Carnegie Mellon
 University), and the Gaussian 82(TM) system (copyright 1983,
 Carnegie Mellon University). Gaussian is a federally registered
 trademark of Gaussian, Inc.
  
 This software contains proprietary and confidential information,
 including trade secrets, belonging to Gaussian, Inc.
  
 This software is provided under written license and may be
 used, copied, transmitted, or stored only in accord with that
 written license.
  
 The following legend is applicable only to US Government
 contracts under FAR:
  
                    RESTRICTED RIGHTS LEGEND
  
 Use, reproduction and disclosure by the US Government is
 subject to restrictions as set forth in subparagraphs (a)
 and (c) of the Commercial Computer Software - Restricted
 Rights clause in FAR 52.227-19.
  
 Gaussian, Inc.
 340 Quinnipiac St., Bldg. 40, Wallingford CT 06492
  
  
 ---------------------------------------------------------------
 Warning -- This program may not be used in any manner that
 competes with the business of Gaussian, Inc. or will provide
 assistance to any competitor of Gaussian, Inc.  The licensee
 of this program is prohibited from giving any competitor of
 Gaussian, Inc. access to this program.  By using this program,
 the user acknowledges that Gaussian, Inc. is engaged in the
 business of creating and licensing software in the field of
 computational chemistry and represents and warrants to the
 licensee that it is not a competitor of Gaussian, Inc. and that
 it will not use this program in any manner prohibited above.
 ---------------------------------------------------------------
  

 Cite this work as:
 Gaussian 09, Revision D.01,
 M. J. Frisch, G. W. Trucks, H. B. Schlegel, G. E. Scuseria, 
 M. A. Robb, J. R. Cheeseman, G. Scalmani, V. Barone, B. Mennucci, 
 G. A. Petersson, H. Nakatsuji, M. Caricato, X. Li, H. P. Hratchian, 
 A. F. Izmaylov, J. Bloino, G. Zheng, J. L. Sonnenberg, M. Hada, 
 M. Ehara, K. Toyota, R. Fukuda, J. Hasegawa, M. Ishida, T. Nakajima, 
 Y. Honda, O. Kitao, H. Nakai, T. Vreven, J. A. Montgomery, Jr., 
 J. E. Peralta, F. Ogliaro, M. Bearpark, J. J. Heyd, E. Brothers, 
 K. N. Kudin, V. N. Staroverov, T. Keith, R. Kobayashi, J. Normand, 
 K. Raghavachari, A. Rendell, J. C. Burant, S. S. Iyengar, J. Tomasi, 
 M. Cossi, N. Rega, J. M. Millam, M. Klene, J. E. Knox, J. B. Cross, 
 V. Bakken, C. Adamo, J. Jaramillo, R. Gomperts, R. E. Stratmann, 
 O. Yazyev, A. J. Austin, R. Cammi, C. Pomelli, J. W. Ochterski, 
 R. L. Martin, K. Morokuma, V. G. Zakrzewski, G. A. Voth, 
 P. Salvador, J. J. Dannenberg, S. Dapprich, A. D. Daniels, 
 O. Farkas, J. B. Foresman, J. V. Ortiz, J. Cioslowski, 
 and D. J. Fox, Gaussian, Inc., Wallingford CT, 2013.
 
 ******************************************
 Gaussian 09:  EM64L-G09RevD.01 24-Apr-2013
                28-Apr-2017 
 ******************************************
 %Mem=256MB
 %NProc=12
 Will use up to   12 processors via shared memory.
 ----------------------------------------------------------------------
 #P HF/6-31G* SCF(Conver=6) NoSymm Test Pop=chelpg IOp(6/33=2) GFInput 
 GFPrint
 ----------------------------------------------------------------------
 1/38=1/1;
 2/12=2,15=1,17=6,18=5,40=1/2;
 3/5=1,6=6,7=1,11=9,16=1,24=110,25=1,30=1/1,2,3;
 4//1;
 5/5=2,6=6,38=5/2;
 6/7=2,8=2,9=2,10=2,15=8,20=3,28=1,33=2/1,2;
 99/5=1,9=1/99;
 Leave Link    1 at Fri Apr 28 12:46:52 2017, MaxMem=    33554432 cpu:         0.6
 (Enter /home/michal/g09/l101.exe)
 ----------------------------------------------
 MEP - Input generated by R.E.D.-III.x MOLECULE
 ----------------------------------------------
 Symbolic Z-matrix:
 Charge =  0 Multiplicity = 1
 C                     1.75597  -1.24462   0.14275 
 H                     1.88491  -1.27651  -0.94579 
 C                     3.14278  -1.2151    0.80581 
 H                     3.72275  -2.08593   0.48495 
 H                     2.99682  -1.31483   1.89284 
 C                     3.89908   0.06294   0.4986 
 C                     3.17122   1.38294   0.77682 
 C                     1.74297   1.28491   0.15617 
 H                     1.8413    1.33371  -0.93666 
 H                     1.15752   2.16077   0.45569 
 C                     0.96596   0.00926   0.51752 
 H                     0.74549  -0.01478   1.59513 
 H                     0.        0.        0. 
 C                     5.14311   0.        0. 
 H                     5.58811  -0.97106  -0.20964 
 C                     5.97267   1.19619  -0.36204 
 H                     7.02757   1.01976  -0.12484 
 C                     5.46768   2.48531   0.31403 
 H                     5.6919    2.36117   1.38376 
 C                     3.93084   2.58275   0.10771 
 H                     3.78036   2.47102  -0.97614 
 C                     3.34912   3.96275   0.49389 
 H                     3.28524   4.05718   1.58251 
 H                     2.31935   4.03659   0.12561 
 C                     4.15063   5.16212  -0.04803 
 H                     4.09584   5.17921  -1.14585 
 H                     3.67449   6.083     0.30341 
 C                     5.63099   5.08541   0.37138 
 C                     6.1839    3.74475  -0.19497 
 H                     5.99973   3.78798  -1.27784 
 C                     7.70443   3.85845   0. 
 H                     8.25587   3.21797  -0.69066 
 H                     7.9879    3.56024   1.01778 
 C                     7.99231   5.3668   -0.23594 
 H                     8.58796   5.7834    0.58513 
 H                     8.57592   5.52231  -1.14866 
 C                     6.60879   6.09176  -0.32739 
 H                     6.30584   6.11484  -1.38436 
 C                     5.76921   5.18638   1.90836 
 H                     5.29879   4.34705   2.4268 
 H                     6.8161    5.21326   2.22465 
 H                     5.29399   6.10092   2.27958 
 C                     6.67671   7.55868   0.16614 
 H                     6.9983    7.5354    1.21776 
 C                     5.32511   8.29651   0.12149 
 H                     4.84384   8.2148   -0.85935 
 H                     5.4644    9.36304   0.33506 
 H                     4.62349   7.90709   0.86349 
 C                     3.05921   1.56222   2.31583 
 H                     2.38711   2.38663   2.57151 
 H                     2.6648    0.66548   2.79981 
 H                     4.03641   1.7663    2.76409 
 O                     5.87267   1.23857  -1.81734 
 O                     7.10728   1.7947   -2.37814 
 H                     7.37535   1.05313  -2.94429 
 O                     1.04996  -2.45028   0.44737 
 H                     0.86959  -2.47213   1.39771 
 C                     7.76572   8.37745  -0.58018 
 H                     7.80972   9.37177  -0.11191 
 H                     8.74424   7.91935  -0.39768 
 C                     7.56234   8.56415  -2.09355 
 H                     7.61833   7.59485  -2.604 
 H                     6.54966   8.94236  -2.28132 
 C                     8.5531    9.5505   -2.74123 
 H                     8.44286   10.52685  -2.2472 
 H                     8.25849   9.70716  -3.78967 
 C                     10.04614   9.15906  -2.7175 
 H                     10.34525   8.9987   -1.67183 
 C                     10.32378   7.86121  -3.49259 
 H                     10.02479   7.96471  -4.54389 
 H                     11.39158   7.61482  -3.47409 
 H                     9.78199   7.00638  -3.07548 
 C                     10.90404   10.30889  -3.26977 
 H                     10.65082   10.51733  -4.31735 
 H                     11.97177   10.06471  -3.22884 
 H                     10.74893   11.23251  -2.70028 
 
 NAtoms=     76 NQM=       76 NQMF=       0 NMMI=      0 NMMIF=      0
                NMic=       0 NMicF=      0.
                    Isotopes and Nuclear Properties:
 (Nuclear quadrupole moments (NQMom) in fm**2, nuclear magnetic moments (NMagM)
  in nuclear magnetons)

  Atom         1           2           3           4           5           6           7           8           9          10
 IAtWgt=          12           1          12           1           1          12          12          12           1           1
 AtmWgt=  12.0000000   1.0078250  12.0000000   1.0078250   1.0078250  12.0000000  12.0000000  12.0000000   1.0078250   1.0078250
 NucSpn=           0           1           0           1           1           0           0           0           1           1
 AtZEff=   0.0000000   0.0000000   0.0000000   0.0000000   0.0000000   0.0000000   0.0000000   0.0000000   0.0000000   0.0000000
 NQMom=    0.0000000   0.0000000   0.0000000   0.0000000   0.0000000   0.0000000   0.0000000   0.0000000   0.0000000   0.0000000
 NMagM=    0.0000000   2.7928460   0.0000000   2.7928460   2.7928460   0.0000000   0.0000000   0.0000000   2.7928460   2.7928460
 AtZNuc=   6.0000000   1.0000000   6.0000000   1.0000000   1.0000000   6.0000000   6.0000000   6.0000000   1.0000000   1.0000000

  Atom        11          12          13          14          15          16          17          18          19          20
 IAtWgt=          12           1           1          12           1          12           1          12           1          12
 AtmWgt=  12.0000000   1.0078250   1.0078250  12.0000000   1.0078250  12.0000000   1.0078250  12.0000000   1.0078250  12.0000000
 NucSpn=           0           1           1           0           1           0           1           0           1           0
 AtZEff=   0.0000000   0.0000000   0.0000000   0.0000000   0.0000000   0.0000000   0.0000000   0.0000000   0.0000000   0.0000000
 NQMom=    0.0000000   0.0000000   0.0000000   0.0000000   0.0000000   0.0000000   0.0000000   0.0000000   0.0000000   0.0000000
 NMagM=    0.0000000   2.7928460   2.7928460   0.0000000   2.7928460   0.0000000   2.7928460   0.0000000   2.7928460   0.0000000
 AtZNuc=   6.0000000   1.0000000   1.0000000   6.0000000   1.0000000   6.0000000   1.0000000   6.0000000   1.0000000   6.0000000

  Atom        21          22          23          24          25          26          27          28          29          30
 IAtWgt=           1          12           1           1          12           1           1          12          12           1
 AtmWgt=   1.0078250  12.0000000   1.0078250   1.0078250  12.0000000   1.0078250   1.0078250  12.0000000  12.0000000   1.0078250
 NucSpn=           1           0           1           1           0           1           1           0           0           1
 AtZEff=   0.0000000   0.0000000   0.0000000   0.0000000   0.0000000   0.0000000   0.0000000   0.0000000   0.0000000   0.0000000
 NQMom=    0.0000000   0.0000000   0.0000000   0.0000000   0.0000000   0.0000000   0.0000000   0.0000000   0.0000000   0.0000000
 NMagM=    2.7928460   0.0000000   2.7928460   2.7928460   0.0000000   2.7928460   2.7928460   0.0000000   0.0000000   2.7928460
 AtZNuc=   1.0000000   6.0000000   1.0000000   1.0000000   6.0000000   1.0000000   1.0000000   6.0000000   6.0000000   1.0000000

  Atom        31          32          33          34          35          36          37          38          39          40
 IAtWgt=          12           1           1          12           1           1          12           1          12           1
 AtmWgt=  12.0000000   1.0078250   1.0078250  12.0000000   1.0078250   1.0078250  12.0000000   1.0078250  12.0000000   1.0078250
 NucSpn=           0           1           1           0           1           1           0           1           0           1
 AtZEff=   0.0000000   0.0000000   0.0000000   0.0000000   0.0000000   0.0000000   0.0000000   0.0000000   0.0000000   0.0000000
 NQMom=    0.0000000   0.0000000   0.0000000   0.0000000   0.0000000   0.0000000   0.0000000   0.0000000   0.0000000   0.0000000
 NMagM=    0.0000000   2.7928460   2.7928460   0.0000000   2.7928460   2.7928460   0.0000000   2.7928460   0.0000000   2.7928460
 AtZNuc=   6.0000000   1.0000000   1.0000000   6.0000000   1.0000000   1.0000000   6.0000000   1.0000000   6.0000000   1.0000000

  Atom        41          42          43          44          45          46          47          48          49          50
 IAtWgt=           1           1          12           1          12           1           1           1          12           1
 AtmWgt=   1.0078250   1.0078250  12.0000000   1.0078250  12.0000000   1.0078250   1.0078250   1.0078250  12.0000000   1.0078250
 NucSpn=           1           1           0           1           0           1           1           1           0           1
 AtZEff=   0.0000000   0.0000000   0.0000000   0.0000000   0.0000000   0.0000000   0.0000000   0.0000000   0.0000000   0.0000000
 NQMom=    0.0000000   0.0000000   0.0000000   0.0000000   0.0000000   0.0000000   0.0000000   0.0000000   0.0000000   0.0000000
 NMagM=    2.7928460   2.7928460   0.0000000   2.7928460   0.0000000   2.7928460   2.7928460   2.7928460   0.0000000   2.7928460
 AtZNuc=   1.0000000   1.0000000   6.0000000   1.0000000   6.0000000   1.0000000   1.0000000   1.0000000   6.0000000   1.0000000

  Atom        51          52          53          54          55          56          57          58          59          60
 IAtWgt=           1           1          16          16           1          16           1          12           1           1
 AtmWgt=   1.0078250   1.0078250  15.9949146  15.9949146   1.0078250  15.9949146   1.0078250  12.0000000   1.0078250   1.0078250
 NucSpn=           1           1           0           0           1           0           1           0           1           1
 AtZEff=   0.0000000   0.0000000   0.0000000   0.0000000   0.0000000   0.0000000   0.0000000   0.0000000   0.0000000   0.0000000
 NQMom=    0.0000000   0.0000000   0.0000000   0.0000000   0.0000000   0.0000000   0.0000000   0.0000000   0.0000000   0.0000000
 NMagM=    2.7928460   2.7928460   0.0000000   0.0000000   2.7928460   0.0000000   2.7928460   0.0000000   2.7928460   2.7928460
 AtZNuc=   1.0000000   1.0000000   8.0000000   8.0000000   1.0000000   8.0000000   1.0000000   6.0000000   1.0000000   1.0000000

  Atom        61          62          63          64          65          66          67          68          69          70
 IAtWgt=          12           1           1          12           1           1          12           1          12           1
 AtmWgt=  12.0000000   1.0078250   1.0078250  12.0000000   1.0078250   1.0078250  12.0000000   1.0078250  12.0000000   1.0078250
 NucSpn=           0           1           1           0           1           1           0           1           0           1
 AtZEff=   0.0000000   0.0000000   0.0000000   0.0000000   0.0000000   0.0000000   0.0000000   0.0000000   0.0000000   0.0000000
 NQMom=    0.0000000   0.0000000   0.0000000   0.0000000   0.0000000   0.0000000   0.0000000   0.0000000   0.0000000   0.0000000
 NMagM=    0.0000000   2.7928460   2.7928460   0.0000000   2.7928460   2.7928460   0.0000000   2.7928460   0.0000000   2.7928460
 AtZNuc=   6.0000000   1.0000000   1.0000000   6.0000000   1.0000000   1.0000000   6.0000000   1.0000000   6.0000000   1.0000000

  Atom        71          72          73          74          75          76
 IAtWgt=           1           1          12           1           1           1
 AtmWgt=   1.0078250   1.0078250  12.0000000   1.0078250   1.0078250   1.0078250
 NucSpn=           1           1           0           1           1           1
 AtZEff=   0.0000000   0.0000000   0.0000000   0.0000000   0.0000000   0.0000000
 NQMom=    0.0000000   0.0000000   0.0000000   0.0000000   0.0000000   0.0000000
 NMagM=    2.7928460   2.7928460   0.0000000   2.7928460   2.7928460   2.7928460
 AtZNuc=   1.0000000   1.0000000   6.0000000   1.0000000   1.0000000   1.0000000
 Leave Link  101 at Fri Apr 28 12:46:53 2017, MaxMem=    33554432 cpu:         1.0
 (Enter /home/michal/g09/l202.exe)
 Symmetry turned off by external request.
 Stoichiometry    C27H46O3
 Framework group  C1[X(C27H46O3)]
 Deg. of freedom   222
 Full point group                 C1      NOp   1
                          Input orientation:                          
 ---------------------------------------------------------------------
 Center     Atomic      Atomic             Coordinates (Angstroms)
 Number     Number       Type             X           Y           Z
 ---------------------------------------------------------------------
      1          6           0        1.755970   -1.244618    0.142753
      2          1           0        1.884906   -1.276513   -0.945791
      3          6           0        3.142779   -1.215105    0.805812
      4          1           0        3.722752   -2.085933    0.484945
      5          1           0        2.996821   -1.314826    1.892838
      6          6           0        3.899084    0.062939    0.498604
      7          6           0        3.171219    1.382941    0.776818
      8          6           0        1.742967    1.284911    0.156168
      9          1           0        1.841301    1.333710   -0.936664
     10          1           0        1.157518    2.160770    0.455695
     11          6           0        0.965957    0.009256    0.517515
     12          1           0        0.745488   -0.014785    1.595126
     13          1           0        0.000000    0.000000    0.000000
     14          6           0        5.143114    0.000000    0.000000
     15          1           0        5.588110   -0.971057   -0.209638
     16          6           0        5.972668    1.196186   -0.362037
     17          1           0        7.027571    1.019764   -0.124840
     18          6           0        5.467676    2.485315    0.314033
     19          1           0        5.691903    2.361173    1.383764
     20          6           0        3.930843    2.582752    0.107705
     21          1           0        3.780364    2.471023   -0.976143
     22          6           0        3.349117    3.962750    0.493889
     23          1           0        3.285241    4.057176    1.582506
     24          1           0        2.319350    4.036590    0.125605
     25          6           0        4.150625    5.162122   -0.048029
     26          1           0        4.095838    5.179214   -1.145854
     27          1           0        3.674494    6.083004    0.303410
     28          6           0        5.630993    5.085414    0.371378
     29          6           0        6.183901    3.744752   -0.194974
     30          1           0        5.999728    3.787978   -1.277842
     31          6           0        7.704429    3.858452    0.000000
     32          1           0        8.255869    3.217974   -0.690661
     33          1           0        7.987905    3.560238    1.017776
     34          6           0        7.992308    5.366804   -0.235943
     35          1           0        8.587956    5.783400    0.585126
     36          1           0        8.575921    5.522312   -1.148664
     37          6           0        6.608789    6.091757   -0.327386
     38          1           0        6.305837    6.114844   -1.384359
     39          6           0        5.769213    5.186381    1.908357
     40          1           0        5.298793    4.347049    2.426804
     41          1           0        6.816102    5.213255    2.224654
     42          1           0        5.293989    6.100915    2.279576
     43          6           0        6.676713    7.558677    0.166144
     44          1           0        6.998298    7.535396    1.217760
     45          6           0        5.325114    8.296510    0.121491
     46          1           0        4.843843    8.214798   -0.859353
     47          1           0        5.464399    9.363035    0.335064
     48          1           0        4.623492    7.907089    0.863493
     49          6           0        3.059207    1.562218    2.315833
     50          1           0        2.387107    2.386630    2.571513
     51          1           0        2.664802    0.665482    2.799808
     52          1           0        4.036410    1.766303    2.764086
     53          8           0        5.872668    1.238572   -1.817342
     54          8           0        7.107278    1.794696   -2.378139
     55          1           0        7.375351    1.053134   -2.944289
     56          8           0        1.049959   -2.450285    0.447368
     57          1           0        0.869585   -2.472127    1.397708
     58          6           0        7.765725    8.377447   -0.580179
     59          1           0        7.809724    9.371767   -0.111911
     60          1           0        8.744239    7.919354   -0.397680
     61          6           0        7.562335    8.564155   -2.093552
     62          1           0        7.618334    7.594851   -2.604002
     63          1           0        6.549662    8.942358   -2.281324
     64          6           0        8.553101    9.550501   -2.741229
     65          1           0        8.442857   10.526847   -2.247202
     66          1           0        8.258492    9.707162   -3.789672
     67          6           0       10.046135    9.159063   -2.717499
     68          1           0       10.345251    8.998695   -1.671833
     69          6           0       10.323782    7.861214   -3.492592
     70          1           0       10.024786    7.964712   -4.543891
     71          1           0       11.391584    7.614815   -3.474089
     72          1           0        9.781990    7.006381   -3.075482
     73          6           0       10.904037   10.308885   -3.269767
     74          1           0       10.650823   10.517334   -4.317348
     75          1           0       11.971770   10.064705   -3.228843
     76          1           0       10.748930   11.232514   -2.700281
 ---------------------------------------------------------------------
 Rotational constants (GHZ):      0.3737590      0.0601282      0.0556076
 Leave Link  202 at Fri Apr 28 12:46:53 2017, MaxMem=    33554432 cpu:         0.0
 (Enter /home/michal/g09/l301.exe)
 Standard basis: 6-31G(d) (6D, 7F)
 Ernie: Thresh=  0.10000D-02 Tol=  0.10000D-05 Strict=F.
 AO basis set in the form of general basis input (Overlap normalization):
      1 0
 S   6 1.00       0.000000000000
      0.3047524880D+04  0.1834737132D-02
      0.4573695180D+03  0.1403732281D-01
      0.1039486850D+03  0.6884262226D-01
      0.2921015530D+02  0.2321844432D+00
      0.9286662960D+01  0.4679413484D+00
      0.3163926960D+01  0.3623119853D+00
 SP   3 1.00       0.000000000000
      0.7868272350D+01 -0.1193324198D+00  0.6899906659D-01
      0.1881288540D+01 -0.1608541517D+00  0.3164239610D+00
      0.5442492580D+00  0.1143456438D+01  0.7443082909D+00
 SP   1 1.00       0.000000000000
      0.1687144782D+00  0.1000000000D+01  0.1000000000D+01
 D   1 1.00       0.000000000000
      0.8000000000D+00  0.1000000000D+01
 ****
      2 0
 S   3 1.00       0.000000000000
      0.1873113696D+02  0.3349460434D-01
      0.2825394365D+01  0.2347269535D+00
      0.6401216923D+00  0.8137573261D+00
 S   1 1.00       0.000000000000
      0.1612777588D+00  0.1000000000D+01
 ****
      3 0
 S   6 1.00       0.000000000000
      0.3047524880D+04  0.1834737132D-02
      0.4573695180D+03  0.1403732281D-01
      0.1039486850D+03  0.6884262226D-01
      0.2921015530D+02  0.2321844432D+00
      0.9286662960D+01  0.4679413484D+00
      0.3163926960D+01  0.3623119853D+00
 SP   3 1.00       0.000000000000
      0.7868272350D+01 -0.1193324198D+00  0.6899906659D-01
      0.1881288540D+01 -0.1608541517D+00  0.3164239610D+00
      0.5442492580D+00  0.1143456438D+01  0.7443082909D+00
 SP   1 1.00       0.000000000000
      0.1687144782D+00  0.1000000000D+01  0.1000000000D+01
 D   1 1.00       0.000000000000
      0.8000000000D+00  0.1000000000D+01
 ****
      4 0
 S   3 1.00       0.000000000000
      0.1873113696D+02  0.3349460434D-01
      0.2825394365D+01  0.2347269535D+00
      0.6401216923D+00  0.8137573261D+00
 S   1 1.00       0.000000000000
      0.1612777588D+00  0.1000000000D+01
 ****
      5 0
 S   3 1.00       0.000000000000
      0.1873113696D+02  0.3349460434D-01
      0.2825394365D+01  0.2347269535D+00
      0.6401216923D+00  0.8137573261D+00
 S   1 1.00       0.000000000000
      0.1612777588D+00  0.1000000000D+01
 ****
      6 0
 S   6 1.00       0.000000000000
      0.3047524880D+04  0.1834737132D-02
      0.4573695180D+03  0.1403732281D-01
      0.1039486850D+03  0.6884262226D-01
      0.2921015530D+02  0.2321844432D+00
      0.9286662960D+01  0.4679413484D+00
      0.3163926960D+01  0.3623119853D+00
 SP   3 1.00       0.000000000000
      0.7868272350D+01 -0.1193324198D+00  0.6899906659D-01
      0.1881288540D+01 -0.1608541517D+00  0.3164239610D+00
      0.5442492580D+00  0.1143456438D+01  0.7443082909D+00
 SP   1 1.00       0.000000000000
      0.1687144782D+00  0.1000000000D+01  0.1000000000D+01
 D   1 1.00       0.000000000000
      0.8000000000D+00  0.1000000000D+01
 ****
      7 0
 S   6 1.00       0.000000000000
      0.3047524880D+04  0.1834737132D-02
      0.4573695180D+03  0.1403732281D-01
      0.1039486850D+03  0.6884262226D-01
      0.2921015530D+02  0.2321844432D+00
      0.9286662960D+01  0.4679413484D+00
      0.3163926960D+01  0.3623119853D+00
 SP   3 1.00       0.000000000000
      0.7868272350D+01 -0.1193324198D+00  0.6899906659D-01
      0.1881288540D+01 -0.1608541517D+00  0.3164239610D+00
      0.5442492580D+00  0.1143456438D+01  0.7443082909D+00
 SP   1 1.00       0.000000000000
      0.1687144782D+00  0.1000000000D+01  0.1000000000D+01
 D   1 1.00       0.000000000000
      0.8000000000D+00  0.1000000000D+01
 ****
      8 0
 S   6 1.00       0.000000000000
      0.3047524880D+04  0.1834737132D-02
      0.4573695180D+03  0.1403732281D-01
      0.1039486850D+03  0.6884262226D-01
      0.2921015530D+02  0.2321844432D+00
      0.9286662960D+01  0.4679413484D+00
      0.3163926960D+01  0.3623119853D+00
 SP   3 1.00       0.000000000000
      0.7868272350D+01 -0.1193324198D+00  0.6899906659D-01
      0.1881288540D+01 -0.1608541517D+00  0.3164239610D+00
      0.5442492580D+00  0.1143456438D+01  0.7443082909D+00
 SP   1 1.00       0.000000000000
      0.1687144782D+00  0.1000000000D+01  0.1000000000D+01
 D   1 1.00       0.000000000000
      0.8000000000D+00  0.1000000000D+01
 ****
      9 0
 S   3 1.00       0.000000000000
      0.1873113696D+02  0.3349460434D-01
      0.2825394365D+01  0.2347269535D+00
      0.6401216923D+00  0.8137573261D+00
 S   1 1.00       0.000000000000
      0.1612777588D+00  0.1000000000D+01
 ****
     10 0
 S   3 1.00       0.000000000000
      0.1873113696D+02  0.3349460434D-01
      0.2825394365D+01  0.2347269535D+00
      0.6401216923D+00  0.8137573261D+00
 S   1 1.00       0.000000000000
      0.1612777588D+00  0.1000000000D+01
 ****
     11 0
 S   6 1.00       0.000000000000
      0.3047524880D+04  0.1834737132D-02
      0.4573695180D+03  0.1403732281D-01
      0.1039486850D+03  0.6884262226D-01
      0.2921015530D+02  0.2321844432D+00
      0.9286662960D+01  0.4679413484D+00
      0.3163926960D+01  0.3623119853D+00
 SP   3 1.00       0.000000000000
      0.7868272350D+01 -0.1193324198D+00  0.6899906659D-01
      0.1881288540D+01 -0.1608541517D+00  0.3164239610D+00
      0.5442492580D+00  0.1143456438D+01  0.7443082909D+00
 SP   1 1.00       0.000000000000
      0.1687144782D+00  0.1000000000D+01  0.1000000000D+01
 D   1 1.00       0.000000000000
      0.8000000000D+00  0.1000000000D+01
 ****
     12 0
 S   3 1.00       0.000000000000
      0.1873113696D+02  0.3349460434D-01
      0.2825394365D+01  0.2347269535D+00
      0.6401216923D+00  0.8137573261D+00
 S   1 1.00       0.000000000000
      0.1612777588D+00  0.1000000000D+01
 ****
     13 0
 S   3 1.00       0.000000000000
      0.1873113696D+02  0.3349460434D-01
      0.2825394365D+01  0.2347269535D+00
      0.6401216923D+00  0.8137573261D+00
 S   1 1.00       0.000000000000
      0.1612777588D+00  0.1000000000D+01
 ****
     14 0
 S   6 1.00       0.000000000000
      0.3047524880D+04  0.1834737132D-02
      0.4573695180D+03  0.1403732281D-01
      0.1039486850D+03  0.6884262226D-01
      0.2921015530D+02  0.2321844432D+00
      0.9286662960D+01  0.4679413484D+00
      0.3163926960D+01  0.3623119853D+00
 SP   3 1.00       0.000000000000
      0.7868272350D+01 -0.1193324198D+00  0.6899906659D-01
      0.1881288540D+01 -0.1608541517D+00  0.3164239610D+00
      0.5442492580D+00  0.1143456438D+01  0.7443082909D+00
 SP   1 1.00       0.000000000000
      0.1687144782D+00  0.1000000000D+01  0.1000000000D+01
 D   1 1.00       0.000000000000
      0.8000000000D+00  0.1000000000D+01
 ****
     15 0
 S   3 1.00       0.000000000000
      0.1873113696D+02  0.3349460434D-01
      0.2825394365D+01  0.2347269535D+00
      0.6401216923D+00  0.8137573261D+00
 S   1 1.00       0.000000000000
      0.1612777588D+00  0.1000000000D+01
 ****
     16 0
 S   6 1.00       0.000000000000
      0.3047524880D+04  0.1834737132D-02
      0.4573695180D+03  0.1403732281D-01
      0.1039486850D+03  0.6884262226D-01
      0.2921015530D+02  0.2321844432D+00
      0.9286662960D+01  0.4679413484D+00
      0.3163926960D+01  0.3623119853D+00
 SP   3 1.00       0.000000000000
      0.7868272350D+01 -0.1193324198D+00  0.6899906659D-01
      0.1881288540D+01 -0.1608541517D+00  0.3164239610D+00
      0.5442492580D+00  0.1143456438D+01  0.7443082909D+00
 SP   1 1.00       0.000000000000
      0.1687144782D+00  0.1000000000D+01  0.1000000000D+01
 D   1 1.00       0.000000000000
      0.8000000000D+00  0.1000000000D+01
 ****
     17 0
 S   3 1.00       0.000000000000
      0.1873113696D+02  0.3349460434D-01
      0.2825394365D+01  0.2347269535D+00
      0.6401216923D+00  0.8137573261D+00
 S   1 1.00       0.000000000000
      0.1612777588D+00  0.1000000000D+01
 ****
     18 0
 S   6 1.00       0.000000000000
      0.3047524880D+04  0.1834737132D-02
      0.4573695180D+03  0.1403732281D-01
      0.1039486850D+03  0.6884262226D-01
      0.2921015530D+02  0.2321844432D+00
      0.9286662960D+01  0.4679413484D+00
      0.3163926960D+01  0.3623119853D+00
 SP   3 1.00       0.000000000000
      0.7868272350D+01 -0.1193324198D+00  0.6899906659D-01
      0.1881288540D+01 -0.1608541517D+00  0.3164239610D+00
      0.5442492580D+00  0.1143456438D+01  0.7443082909D+00
 SP   1 1.00       0.000000000000
      0.1687144782D+00  0.1000000000D+01  0.1000000000D+01
 D   1 1.00       0.000000000000
      0.8000000000D+00  0.1000000000D+01
 ****
     19 0
 S   3 1.00       0.000000000000
      0.1873113696D+02  0.3349460434D-01
      0.2825394365D+01  0.2347269535D+00
      0.6401216923D+00  0.8137573261D+00
 S   1 1.00       0.000000000000
      0.1612777588D+00  0.1000000000D+01
 ****
     20 0
 S   6 1.00       0.000000000000
      0.3047524880D+04  0.1834737132D-02
      0.4573695180D+03  0.1403732281D-01
      0.1039486850D+03  0.6884262226D-01
      0.2921015530D+02  0.2321844432D+00
      0.9286662960D+01  0.4679413484D+00
      0.3163926960D+01  0.3623119853D+00
 SP   3 1.00       0.000000000000
      0.7868272350D+01 -0.1193324198D+00  0.6899906659D-01
      0.1881288540D+01 -0.1608541517D+00  0.3164239610D+00
      0.5442492580D+00  0.1143456438D+01  0.7443082909D+00
 SP   1 1.00       0.000000000000
      0.1687144782D+00  0.1000000000D+01  0.1000000000D+01
 D   1 1.00       0.000000000000
      0.8000000000D+00  0.1000000000D+01
 ****
     21 0
 S   3 1.00       0.000000000000
      0.1873113696D+02  0.3349460434D-01
      0.2825394365D+01  0.2347269535D+00
      0.6401216923D+00  0.8137573261D+00
 S   1 1.00       0.000000000000
      0.1612777588D+00  0.1000000000D+01
 ****
     22 0
 S   6 1.00       0.000000000000
      0.3047524880D+04  0.1834737132D-02
      0.4573695180D+03  0.1403732281D-01
      0.1039486850D+03  0.6884262226D-01
      0.2921015530D+02  0.2321844432D+00
      0.9286662960D+01  0.4679413484D+00
      0.3163926960D+01  0.3623119853D+00
 SP   3 1.00       0.000000000000
      0.7868272350D+01 -0.1193324198D+00  0.6899906659D-01
      0.1881288540D+01 -0.1608541517D+00  0.3164239610D+00
      0.5442492580D+00  0.1143456438D+01  0.7443082909D+00
 SP   1 1.00       0.000000000000
      0.1687144782D+00  0.1000000000D+01  0.1000000000D+01
 D   1 1.00       0.000000000000
      0.8000000000D+00  0.1000000000D+01
 ****
     23 0
 S   3 1.00       0.000000000000
      0.1873113696D+02  0.3349460434D-01
      0.2825394365D+01  0.2347269535D+00
      0.6401216923D+00  0.8137573261D+00
 S   1 1.00       0.000000000000
      0.1612777588D+00  0.1000000000D+01
 ****
     24 0
 S   3 1.00       0.000000000000
      0.1873113696D+02  0.3349460434D-01
      0.2825394365D+01  0.2347269535D+00
      0.6401216923D+00  0.8137573261D+00
 S   1 1.00       0.000000000000
      0.1612777588D+00  0.1000000000D+01
 ****
     25 0
 S   6 1.00       0.000000000000
      0.3047524880D+04  0.1834737132D-02
      0.4573695180D+03  0.1403732281D-01
      0.1039486850D+03  0.6884262226D-01
      0.2921015530D+02  0.2321844432D+00
      0.9286662960D+01  0.4679413484D+00
      0.3163926960D+01  0.3623119853D+00
 SP   3 1.00       0.000000000000
      0.7868272350D+01 -0.1193324198D+00  0.6899906659D-01
      0.1881288540D+01 -0.1608541517D+00  0.3164239610D+00
      0.5442492580D+00  0.1143456438D+01  0.7443082909D+00
 SP   1 1.00       0.000000000000
      0.1687144782D+00  0.1000000000D+01  0.1000000000D+01
 D   1 1.00       0.000000000000
      0.8000000000D+00  0.1000000000D+01
 ****
     26 0
 S   3 1.00       0.000000000000
      0.1873113696D+02  0.3349460434D-01
      0.2825394365D+01  0.2347269535D+00
      0.6401216923D+00  0.8137573261D+00
 S   1 1.00       0.000000000000
      0.1612777588D+00  0.1000000000D+01
 ****
     27 0
 S   3 1.00       0.000000000000
      0.1873113696D+02  0.3349460434D-01
      0.2825394365D+01  0.2347269535D+00
      0.6401216923D+00  0.8137573261D+00
 S   1 1.00       0.000000000000
      0.1612777588D+00  0.1000000000D+01
 ****
     28 0
 S   6 1.00       0.000000000000
      0.3047524880D+04  0.1834737132D-02
      0.4573695180D+03  0.1403732281D-01
      0.1039486850D+03  0.6884262226D-01
      0.2921015530D+02  0.2321844432D+00
      0.9286662960D+01  0.4679413484D+00
      0.3163926960D+01  0.3623119853D+00
 SP   3 1.00       0.000000000000
      0.7868272350D+01 -0.1193324198D+00  0.6899906659D-01
      0.1881288540D+01 -0.1608541517D+00  0.3164239610D+00
      0.5442492580D+00  0.1143456438D+01  0.7443082909D+00
 SP   1 1.00       0.000000000000
      0.1687144782D+00  0.1000000000D+01  0.1000000000D+01
 D   1 1.00       0.000000000000
      0.8000000000D+00  0.1000000000D+01
 ****
     29 0
 S   6 1.00       0.000000000000
      0.3047524880D+04  0.1834737132D-02
      0.4573695180D+03  0.1403732281D-01
      0.1039486850D+03  0.6884262226D-01
      0.2921015530D+02  0.2321844432D+00
      0.9286662960D+01  0.4679413484D+00
      0.3163926960D+01  0.3623119853D+00
 SP   3 1.00       0.000000000000
      0.7868272350D+01 -0.1193324198D+00  0.6899906659D-01
      0.1881288540D+01 -0.1608541517D+00  0.3164239610D+00
      0.5442492580D+00  0.1143456438D+01  0.7443082909D+00
 SP   1 1.00       0.000000000000
      0.1687144782D+00  0.1000000000D+01  0.1000000000D+01
 D   1 1.00       0.000000000000
      0.8000000000D+00  0.1000000000D+01
 ****
     30 0
 S   3 1.00       0.000000000000
      0.1873113696D+02  0.3349460434D-01
      0.2825394365D+01  0.2347269535D+00
      0.6401216923D+00  0.8137573261D+00
 S   1 1.00       0.000000000000
      0.1612777588D+00  0.1000000000D+01
 ****
     31 0
 S   6 1.00       0.000000000000
      0.3047524880D+04  0.1834737132D-02
      0.4573695180D+03  0.1403732281D-01
      0.1039486850D+03  0.6884262226D-01
      0.2921015530D+02  0.2321844432D+00
      0.9286662960D+01  0.4679413484D+00
      0.3163926960D+01  0.3623119853D+00
 SP   3 1.00       0.000000000000
      0.7868272350D+01 -0.1193324198D+00  0.6899906659D-01
      0.1881288540D+01 -0.1608541517D+00  0.3164239610D+00
      0.5442492580D+00  0.1143456438D+01  0.7443082909D+00
 SP   1 1.00       0.000000000000
      0.1687144782D+00  0.1000000000D+01  0.1000000000D+01
 D   1 1.00       0.000000000000
      0.8000000000D+00  0.1000000000D+01
 ****
     32 0
 S   3 1.00       0.000000000000
      0.1873113696D+02  0.3349460434D-01
      0.2825394365D+01  0.2347269535D+00
      0.6401216923D+00  0.8137573261D+00
 S   1 1.00       0.000000000000
      0.1612777588D+00  0.1000000000D+01
 ****
     33 0
 S   3 1.00       0.000000000000
      0.1873113696D+02  0.3349460434D-01
      0.2825394365D+01  0.2347269535D+00
      0.6401216923D+00  0.8137573261D+00
 S   1 1.00       0.000000000000
      0.1612777588D+00  0.1000000000D+01
 ****
     34 0
 S   6 1.00       0.000000000000
      0.3047524880D+04  0.1834737132D-02
      0.4573695180D+03  0.1403732281D-01
      0.1039486850D+03  0.6884262226D-01
      0.2921015530D+02  0.2321844432D+00
      0.9286662960D+01  0.4679413484D+00
      0.3163926960D+01  0.3623119853D+00
 SP   3 1.00       0.000000000000
      0.7868272350D+01 -0.1193324198D+00  0.6899906659D-01
      0.1881288540D+01 -0.1608541517D+00  0.3164239610D+00
      0.5442492580D+00  0.1143456438D+01  0.7443082909D+00
 SP   1 1.00       0.000000000000
      0.1687144782D+00  0.1000000000D+01  0.1000000000D+01
 D   1 1.00       0.000000000000
      0.8000000000D+00  0.1000000000D+01
 ****
     35 0
 S   3 1.00       0.000000000000
      0.1873113696D+02  0.3349460434D-01
      0.2825394365D+01  0.2347269535D+00
      0.6401216923D+00  0.8137573261D+00
 S   1 1.00       0.000000000000
      0.1612777588D+00  0.1000000000D+01
 ****
     36 0
 S   3 1.00       0.000000000000
      0.1873113696D+02  0.3349460434D-01
      0.2825394365D+01  0.2347269535D+00
      0.6401216923D+00  0.8137573261D+00
 S   1 1.00       0.000000000000
      0.1612777588D+00  0.1000000000D+01
 ****
     37 0
 S   6 1.00       0.000000000000
      0.3047524880D+04  0.1834737132D-02
      0.4573695180D+03  0.1403732281D-01
      0.1039486850D+03  0.6884262226D-01
      0.2921015530D+02  0.2321844432D+00
      0.9286662960D+01  0.4679413484D+00
      0.3163926960D+01  0.3623119853D+00
 SP   3 1.00       0.000000000000
      0.7868272350D+01 -0.1193324198D+00  0.6899906659D-01
      0.1881288540D+01 -0.1608541517D+00  0.3164239610D+00
      0.5442492580D+00  0.1143456438D+01  0.7443082909D+00
 SP   1 1.00       0.000000000000
      0.1687144782D+00  0.1000000000D+01  0.1000000000D+01
 D   1 1.00       0.000000000000
      0.8000000000D+00  0.1000000000D+01
 ****
     38 0
 S   3 1.00       0.000000000000
      0.1873113696D+02  0.3349460434D-01
      0.2825394365D+01  0.2347269535D+00
      0.6401216923D+00  0.8137573261D+00
 S   1 1.00       0.000000000000
      0.1612777588D+00  0.1000000000D+01
 ****
     39 0
 S   6 1.00       0.000000000000
      0.3047524880D+04  0.1834737132D-02
      0.4573695180D+03  0.1403732281D-01
      0.1039486850D+03  0.6884262226D-01
      0.2921015530D+02  0.2321844432D+00
      0.9286662960D+01  0.4679413484D+00
      0.3163926960D+01  0.3623119853D+00
 SP   3 1.00       0.000000000000
      0.7868272350D+01 -0.1193324198D+00  0.6899906659D-01
      0.1881288540D+01 -0.1608541517D+00  0.3164239610D+00
      0.5442492580D+00  0.1143456438D+01  0.7443082909D+00
 SP   1 1.00       0.000000000000
      0.1687144782D+00  0.1000000000D+01  0.1000000000D+01
 D   1 1.00       0.000000000000
      0.8000000000D+00  0.1000000000D+01
 ****
     40 0
 S   3 1.00       0.000000000000
      0.1873113696D+02  0.3349460434D-01
      0.2825394365D+01  0.2347269535D+00
      0.6401216923D+00  0.8137573261D+00
 S   1 1.00       0.000000000000
      0.1612777588D+00  0.1000000000D+01
 ****
     41 0
 S   3 1.00       0.000000000000
      0.1873113696D+02  0.3349460434D-01
      0.2825394365D+01  0.2347269535D+00
      0.6401216923D+00  0.8137573261D+00
 S   1 1.00       0.000000000000
      0.1612777588D+00  0.1000000000D+01
 ****
     42 0
 S   3 1.00       0.000000000000
      0.1873113696D+02  0.3349460434D-01
      0.2825394365D+01  0.2347269535D+00
      0.6401216923D+00  0.8137573261D+00
 S   1 1.00       0.000000000000
      0.1612777588D+00  0.1000000000D+01
 ****
     43 0
 S   6 1.00       0.000000000000
      0.3047524880D+04  0.1834737132D-02
      0.4573695180D+03  0.1403732281D-01
      0.1039486850D+03  0.6884262226D-01
      0.2921015530D+02  0.2321844432D+00
      0.9286662960D+01  0.4679413484D+00
      0.3163926960D+01  0.3623119853D+00
 SP   3 1.00       0.000000000000
      0.7868272350D+01 -0.1193324198D+00  0.6899906659D-01
      0.1881288540D+01 -0.1608541517D+00  0.3164239610D+00
      0.5442492580D+00  0.1143456438D+01  0.7443082909D+00
 SP   1 1.00       0.000000000000
      0.1687144782D+00  0.1000000000D+01  0.1000000000D+01
 D   1 1.00       0.000000000000
      0.8000000000D+00  0.1000000000D+01
 ****
     44 0
 S   3 1.00       0.000000000000
      0.1873113696D+02  0.3349460434D-01
      0.2825394365D+01  0.2347269535D+00
      0.6401216923D+00  0.8137573261D+00
 S   1 1.00       0.000000000000
      0.1612777588D+00  0.1000000000D+01
 ****
     45 0
 S   6 1.00       0.000000000000
      0.3047524880D+04  0.1834737132D-02
      0.4573695180D+03  0.1403732281D-01
      0.1039486850D+03  0.6884262226D-01
      0.2921015530D+02  0.2321844432D+00
      0.9286662960D+01  0.4679413484D+00
      0.3163926960D+01  0.3623119853D+00
 SP   3 1.00       0.000000000000
      0.7868272350D+01 -0.1193324198D+00  0.6899906659D-01
      0.1881288540D+01 -0.1608541517D+00  0.3164239610D+00
      0.5442492580D+00  0.1143456438D+01  0.7443082909D+00
 SP   1 1.00       0.000000000000
      0.1687144782D+00  0.1000000000D+01  0.1000000000D+01
 D   1 1.00       0.000000000000
      0.8000000000D+00  0.1000000000D+01
 ****
     46 0
 S   3 1.00       0.000000000000
      0.1873113696D+02  0.3349460434D-01
      0.2825394365D+01  0.2347269535D+00
      0.6401216923D+00  0.8137573261D+00
 S   1 1.00       0.000000000000
      0.1612777588D+00  0.1000000000D+01
 ****
     47 0
 S   3 1.00       0.000000000000
      0.1873113696D+02  0.3349460434D-01
      0.2825394365D+01  0.2347269535D+00
      0.6401216923D+00  0.8137573261D+00
 S   1 1.00       0.000000000000
      0.1612777588D+00  0.1000000000D+01
 ****
     48 0
 S   3 1.00       0.000000000000
      0.1873113696D+02  0.3349460434D-01
      0.2825394365D+01  0.2347269535D+00
      0.6401216923D+00  0.8137573261D+00
 S   1 1.00       0.000000000000
      0.1612777588D+00  0.1000000000D+01
 ****
     49 0
 S   6 1.00       0.000000000000
      0.3047524880D+04  0.1834737132D-02
      0.4573695180D+03  0.1403732281D-01
      0.1039486850D+03  0.6884262226D-01
      0.2921015530D+02  0.2321844432D+00
      0.9286662960D+01  0.4679413484D+00
      0.3163926960D+01  0.3623119853D+00
 SP   3 1.00       0.000000000000
      0.7868272350D+01 -0.1193324198D+00  0.6899906659D-01
      0.1881288540D+01 -0.1608541517D+00  0.3164239610D+00
      0.5442492580D+00  0.1143456438D+01  0.7443082909D+00
 SP   1 1.00       0.000000000000
      0.1687144782D+00  0.1000000000D+01  0.1000000000D+01
 D   1 1.00       0.000000000000
      0.8000000000D+00  0.1000000000D+01
 ****
     50 0
 S   3 1.00       0.000000000000
      0.1873113696D+02  0.3349460434D-01
      0.2825394365D+01  0.2347269535D+00
      0.6401216923D+00  0.8137573261D+00
 S   1 1.00       0.000000000000
      0.1612777588D+00  0.1000000000D+01
 ****
     51 0
 S   3 1.00       0.000000000000
      0.1873113696D+02  0.3349460434D-01
      0.2825394365D+01  0.2347269535D+00
      0.6401216923D+00  0.8137573261D+00
 S   1 1.00       0.000000000000
      0.1612777588D+00  0.1000000000D+01
 ****
     52 0
 S   3 1.00       0.000000000000
      0.1873113696D+02  0.3349460434D-01
      0.2825394365D+01  0.2347269535D+00
      0.6401216923D+00  0.8137573261D+00
 S   1 1.00       0.000000000000
      0.1612777588D+00  0.1000000000D+01
 ****
     53 0
 S   6 1.00       0.000000000000
      0.5484671660D+04  0.1831074430D-02
      0.8252349460D+03  0.1395017220D-01
      0.1880469580D+03  0.6844507810D-01
      0.5296450000D+02  0.2327143360D+00
      0.1689757040D+02  0.4701928980D+00
      0.5799635340D+01  0.3585208530D+00
 SP   3 1.00       0.000000000000
      0.1553961625D+02 -0.1107775495D+00  0.7087426823D-01
      0.3599933586D+01 -0.1480262627D+00  0.3397528391D+00
      0.1013761750D+01  0.1130767015D+01  0.7271585773D+00
 SP   1 1.00       0.000000000000
      0.2700058226D+00  0.1000000000D+01  0.1000000000D+01
 D   1 1.00       0.000000000000
      0.8000000000D+00  0.1000000000D+01
 ****
     54 0
 S   6 1.00       0.000000000000
      0.5484671660D+04  0.1831074430D-02
      0.8252349460D+03  0.1395017220D-01
      0.1880469580D+03  0.6844507810D-01
      0.5296450000D+02  0.2327143360D+00
      0.1689757040D+02  0.4701928980D+00
      0.5799635340D+01  0.3585208530D+00
 SP   3 1.00       0.000000000000
      0.1553961625D+02 -0.1107775495D+00  0.7087426823D-01
      0.3599933586D+01 -0.1480262627D+00  0.3397528391D+00
      0.1013761750D+01  0.1130767015D+01  0.7271585773D+00
 SP   1 1.00       0.000000000000
      0.2700058226D+00  0.1000000000D+01  0.1000000000D+01
 D   1 1.00       0.000000000000
      0.8000000000D+00  0.1000000000D+01
 ****
     55 0
 S   3 1.00       0.000000000000
      0.1873113696D+02  0.3349460434D-01
      0.2825394365D+01  0.2347269535D+00
      0.6401216923D+00  0.8137573261D+00
 S   1 1.00       0.000000000000
      0.1612777588D+00  0.1000000000D+01
 ****
     56 0
 S   6 1.00       0.000000000000
      0.5484671660D+04  0.1831074430D-02
      0.8252349460D+03  0.1395017220D-01
      0.1880469580D+03  0.6844507810D-01
      0.5296450000D+02  0.2327143360D+00
      0.1689757040D+02  0.4701928980D+00
      0.5799635340D+01  0.3585208530D+00
 SP   3 1.00       0.000000000000
      0.1553961625D+02 -0.1107775495D+00  0.7087426823D-01
      0.3599933586D+01 -0.1480262627D+00  0.3397528391D+00
      0.1013761750D+01  0.1130767015D+01  0.7271585773D+00
 SP   1 1.00       0.000000000000
      0.2700058226D+00  0.1000000000D+01  0.1000000000D+01
 D   1 1.00       0.000000000000
      0.8000000000D+00  0.1000000000D+01
 ****
     57 0
 S   3 1.00       0.000000000000
      0.1873113696D+02  0.3349460434D-01
      0.2825394365D+01  0.2347269535D+00
      0.6401216923D+00  0.8137573261D+00
 S   1 1.00       0.000000000000
      0.1612777588D+00  0.1000000000D+01
 ****
     58 0
 S   6 1.00       0.000000000000
      0.3047524880D+04  0.1834737132D-02
      0.4573695180D+03  0.1403732281D-01
      0.1039486850D+03  0.6884262226D-01
      0.2921015530D+02  0.2321844432D+00
      0.9286662960D+01  0.4679413484D+00
      0.3163926960D+01  0.3623119853D+00
 SP   3 1.00       0.000000000000
      0.7868272350D+01 -0.1193324198D+00  0.6899906659D-01
      0.1881288540D+01 -0.1608541517D+00  0.3164239610D+00
      0.5442492580D+00  0.1143456438D+01  0.7443082909D+00
 SP   1 1.00       0.000000000000
      0.1687144782D+00  0.1000000000D+01  0.1000000000D+01
 D   1 1.00       0.000000000000
      0.8000000000D+00  0.1000000000D+01
 ****
     59 0
 S   3 1.00       0.000000000000
      0.1873113696D+02  0.3349460434D-01
      0.2825394365D+01  0.2347269535D+00
      0.6401216923D+00  0.8137573261D+00
 S   1 1.00       0.000000000000
      0.1612777588D+00  0.1000000000D+01
 ****
     60 0
 S   3 1.00       0.000000000000
      0.1873113696D+02  0.3349460434D-01
      0.2825394365D+01  0.2347269535D+00
      0.6401216923D+00  0.8137573261D+00
 S   1 1.00       0.000000000000
      0.1612777588D+00  0.1000000000D+01
 ****
     61 0
 S   6 1.00       0.000000000000
      0.3047524880D+04  0.1834737132D-02
      0.4573695180D+03  0.1403732281D-01
      0.1039486850D+03  0.6884262226D-01
      0.2921015530D+02  0.2321844432D+00
      0.9286662960D+01  0.4679413484D+00
      0.3163926960D+01  0.3623119853D+00
 SP   3 1.00       0.000000000000
      0.7868272350D+01 -0.1193324198D+00  0.6899906659D-01
      0.1881288540D+01 -0.1608541517D+00  0.3164239610D+00
      0.5442492580D+00  0.1143456438D+01  0.7443082909D+00
 SP   1 1.00       0.000000000000
      0.1687144782D+00  0.1000000000D+01  0.1000000000D+01
 D   1 1.00       0.000000000000
      0.8000000000D+00  0.1000000000D+01
 ****
     62 0
 S   3 1.00       0.000000000000
      0.1873113696D+02  0.3349460434D-01
      0.2825394365D+01  0.2347269535D+00
      0.6401216923D+00  0.8137573261D+00
 S   1 1.00       0.000000000000
      0.1612777588D+00  0.1000000000D+01
 ****
     63 0
 S   3 1.00       0.000000000000
      0.1873113696D+02  0.3349460434D-01
      0.2825394365D+01  0.2347269535D+00
      0.6401216923D+00  0.8137573261D+00
 S   1 1.00       0.000000000000
      0.1612777588D+00  0.1000000000D+01
 ****
     64 0
 S   6 1.00       0.000000000000
      0.3047524880D+04  0.1834737132D-02
      0.4573695180D+03  0.1403732281D-01
      0.1039486850D+03  0.6884262226D-01
      0.2921015530D+02  0.2321844432D+00
      0.9286662960D+01  0.4679413484D+00
      0.3163926960D+01  0.3623119853D+00
 SP   3 1.00       0.000000000000
      0.7868272350D+01 -0.1193324198D+00  0.6899906659D-01
      0.1881288540D+01 -0.1608541517D+00  0.3164239610D+00
      0.5442492580D+00  0.1143456438D+01  0.7443082909D+00
 SP   1 1.00       0.000000000000
      0.1687144782D+00  0.1000000000D+01  0.1000000000D+01
 D   1 1.00       0.000000000000
      0.8000000000D+00  0.1000000000D+01
 ****
     65 0
 S   3 1.00       0.000000000000
      0.1873113696D+02  0.3349460434D-01
      0.2825394365D+01  0.2347269535D+00
      0.6401216923D+00  0.8137573261D+00
 S   1 1.00       0.000000000000
      0.1612777588D+00  0.1000000000D+01
 ****
     66 0
 S   3 1.00       0.000000000000
      0.1873113696D+02  0.3349460434D-01
      0.2825394365D+01  0.2347269535D+00
      0.6401216923D+00  0.8137573261D+00
 S   1 1.00       0.000000000000
      0.1612777588D+00  0.1000000000D+01
 ****
     67 0
 S   6 1.00       0.000000000000
      0.3047524880D+04  0.1834737132D-02
      0.4573695180D+03  0.1403732281D-01
      0.1039486850D+03  0.6884262226D-01
      0.2921015530D+02  0.2321844432D+00
      0.9286662960D+01  0.4679413484D+00
      0.3163926960D+01  0.3623119853D+00
 SP   3 1.00       0.000000000000
      0.7868272350D+01 -0.1193324198D+00  0.6899906659D-01
      0.1881288540D+01 -0.1608541517D+00  0.3164239610D+00
      0.5442492580D+00  0.1143456438D+01  0.7443082909D+00
 SP   1 1.00       0.000000000000
      0.1687144782D+00  0.1000000000D+01  0.1000000000D+01
 D   1 1.00       0.000000000000
      0.8000000000D+00  0.1000000000D+01
 ****
     68 0
 S   3 1.00       0.000000000000
      0.1873113696D+02  0.3349460434D-01
      0.2825394365D+01  0.2347269535D+00
      0.6401216923D+00  0.8137573261D+00
 S   1 1.00       0.000000000000
      0.1612777588D+00  0.1000000000D+01
 ****
     69 0
 S   6 1.00       0.000000000000
      0.3047524880D+04  0.1834737132D-02
      0.4573695180D+03  0.1403732281D-01
      0.1039486850D+03  0.6884262226D-01
      0.2921015530D+02  0.2321844432D+00
      0.9286662960D+01  0.4679413484D+00
      0.3163926960D+01  0.3623119853D+00
 SP   3 1.00       0.000000000000
      0.7868272350D+01 -0.1193324198D+00  0.6899906659D-01
      0.1881288540D+01 -0.1608541517D+00  0.3164239610D+00
      0.5442492580D+00  0.1143456438D+01  0.7443082909D+00
 SP   1 1.00       0.000000000000
      0.1687144782D+00  0.1000000000D+01  0.1000000000D+01
 D   1 1.00       0.000000000000
      0.8000000000D+00  0.1000000000D+01
 ****
     70 0
 S   3 1.00       0.000000000000
      0.1873113696D+02  0.3349460434D-01
      0.2825394365D+01  0.2347269535D+00
      0.6401216923D+00  0.8137573261D+00
 S   1 1.00       0.000000000000
      0.1612777588D+00  0.1000000000D+01
 ****
     71 0
 S   3 1.00       0.000000000000
      0.1873113696D+02  0.3349460434D-01
      0.2825394365D+01  0.2347269535D+00
      0.6401216923D+00  0.8137573261D+00
 S   1 1.00       0.000000000000
      0.1612777588D+00  0.1000000000D+01
 ****
     72 0
 S   3 1.00       0.000000000000
      0.1873113696D+02  0.3349460434D-01
      0.2825394365D+01  0.2347269535D+00
      0.6401216923D+00  0.8137573261D+00
 S   1 1.00       0.000000000000
      0.1612777588D+00  0.1000000000D+01
 ****
     73 0
 S   6 1.00       0.000000000000
      0.3047524880D+04  0.1834737132D-02
      0.4573695180D+03  0.1403732281D-01
      0.1039486850D+03  0.6884262226D-01
      0.2921015530D+02  0.2321844432D+00
      0.9286662960D+01  0.4679413484D+00
      0.3163926960D+01  0.3623119853D+00
 SP   3 1.00       0.000000000000
      0.7868272350D+01 -0.1193324198D+00  0.6899906659D-01
      0.1881288540D+01 -0.1608541517D+00  0.3164239610D+00
      0.5442492580D+00  0.1143456438D+01  0.7443082909D+00
 SP   1 1.00       0.000000000000
      0.1687144782D+00  0.1000000000D+01  0.1000000000D+01
 D   1 1.00       0.000000000000
      0.8000000000D+00  0.1000000000D+01
 ****
     74 0
 S   3 1.00       0.000000000000
      0.1873113696D+02  0.3349460434D-01
      0.2825394365D+01  0.2347269535D+00
      0.6401216923D+00  0.8137573261D+00
 S   1 1.00       0.000000000000
      0.1612777588D+00  0.1000000000D+01
 ****
     75 0
 S   3 1.00       0.000000000000
      0.1873113696D+02  0.3349460434D-01
      0.2825394365D+01  0.2347269535D+00
      0.6401216923D+00  0.8137573261D+00
 S   1 1.00       0.000000000000
      0.1612777588D+00  0.1000000000D+01
 ****
     76 0
 S   3 1.00       0.000000000000
      0.1873113696D+02  0.3349460434D-01
      0.2825394365D+01  0.2347269535D+00
      0.6401216923D+00  0.8137573261D+00
 S   1 1.00       0.000000000000
      0.1612777588D+00  0.1000000000D+01
 ****

 AO basis set (Overlap normalization):
 Atom C1       Shell     1 S   6     bf    1 -     1          3.318302681022         -2.351987726978          0.269764244723
      0.3047524880D+04  0.1834737132D-02
      0.4573695180D+03  0.1403732281D-01
      0.1039486850D+03  0.6884262226D-01
      0.2921015530D+02  0.2321844432D+00
      0.9286662960D+01  0.4679413484D+00
      0.3163926960D+01  0.3623119853D+00
 Atom C1       Shell     2 SP   3    bf    2 -     5          3.318302681022         -2.351987726978          0.269764244723
      0.7868272350D+01 -0.1193324198D+00  0.6899906659D-01
      0.1881288540D+01 -0.1608541517D+00  0.3164239610D+00
      0.5442492580D+00  0.1143456438D+01  0.7443082909D+00
 Atom C1       Shell     3 SP   1    bf    6 -     9          3.318302681022         -2.351987726978          0.269764244723
      0.1687144782D+00  0.1000000000D+01  0.1000000000D+01
 Atom C1       Shell     4 D   1     bf   10 -    15          3.318302681022         -2.351987726978          0.269764244723
      0.8000000000D+00  0.1000000000D+01
 Atom H2       Shell     5 S   3     bf   16 -    16          3.561956541973         -2.412259993966         -1.787285080777
      0.1873113696D+02  0.3349460434D-01
      0.2825394365D+01  0.2347269535D+00
      0.6401216923D+00  0.8137573261D+00
 Atom H2       Shell     6 S   1     bf   17 -    17          3.561956541973         -2.412259993966         -1.787285080777
      0.1612777588D+00  0.1000000000D+01
 Atom C3       Shell     7 S   6     bf   18 -    18          5.938991549492         -2.296214727837          1.522763635545
      0.3047524880D+04  0.1834737132D-02
      0.4573695180D+03  0.1403732281D-01
      0.1039486850D+03  0.6884262226D-01
      0.2921015530D+02  0.2321844432D+00
      0.9286662960D+01  0.4679413484D+00
      0.3163926960D+01  0.3623119853D+00
 Atom C3       Shell     8 SP   3    bf   19 -    22          5.938991549492         -2.296214727837          1.522763635545
      0.7868272350D+01 -0.1193324198D+00  0.6899906659D-01
      0.1881288540D+01 -0.1608541517D+00  0.3164239610D+00
      0.5442492580D+00  0.1143456438D+01  0.7443082909D+00
 Atom C3       Shell     9 SP   1    bf   23 -    26          5.938991549492         -2.296214727837          1.522763635545
      0.1687144782D+00  0.1000000000D+01  0.1000000000D+01
 Atom C3       Shell    10 D   1     bf   27 -    32          5.938991549492         -2.296214727837          1.522763635545
      0.8000000000D+00  0.1000000000D+01
 Atom H4       Shell    11 S   3     bf   33 -    33          7.034981740652         -3.941842158240          0.916413428485
      0.1873113696D+02  0.3349460434D-01
      0.2825394365D+01  0.2347269535D+00
      0.6401216923D+00  0.8137573261D+00
 Atom H4       Shell    12 S   1     bf   34 -    34          7.034981740652         -3.941842158240          0.916413428485
      0.1612777588D+00  0.1000000000D+01
 Atom H5       Shell    13 S   3     bf   35 -    35          5.663170543541         -2.484661411445          3.576944904796
      0.1873113696D+02  0.3349460434D-01
      0.2825394365D+01  0.2347269535D+00
      0.6401216923D+00  0.8137573261D+00
 Atom H5       Shell    14 S   1     bf   36 -    36          5.663170543541         -2.484661411445          3.576944904796
      0.1612777588D+00  0.1000000000D+01
 Atom C6       Shell    15 S   6     bf   37 -    37          7.368200872425          0.118936622701          0.942224914275
      0.3047524880D+04  0.1834737132D-02
      0.4573695180D+03  0.1403732281D-01
      0.1039486850D+03  0.6884262226D-01
      0.2921015530D+02  0.2321844432D+00
      0.9286662960D+01  0.4679413484D+00
      0.3163926960D+01  0.3623119853D+00
 Atom C6       Shell    16 SP   3    bf   38 -    41          7.368200872425          0.118936622701          0.942224914275
      0.7868272350D+01 -0.1193324198D+00  0.6899906659D-01
      0.1881288540D+01 -0.1608541517D+00  0.3164239610D+00
      0.5442492580D+00  0.1143456438D+01  0.7443082909D+00
 Atom C6       Shell    17 SP   1    bf   42 -    45          7.368200872425          0.118936622701          0.942224914275
      0.1687144782D+00  0.1000000000D+01  0.1000000000D+01
 Atom C6       Shell    18 D   1     bf   46 -    51          7.368200872425          0.118936622701          0.942224914275
      0.8000000000D+00  0.1000000000D+01
 Atom C7       Shell    19 S   6     bf   52 -    52          5.992735908732          2.613380409343          1.467972405822
      0.3047524880D+04  0.1834737132D-02
      0.4573695180D+03  0.1403732281D-01
      0.1039486850D+03  0.6884262226D-01
      0.2921015530D+02  0.2321844432D+00
      0.9286662960D+01  0.4679413484D+00
      0.3163926960D+01  0.3623119853D+00
 Atom C7       Shell    20 SP   3    bf   53 -    56          5.992735908732          2.613380409343          1.467972405822
      0.7868272350D+01 -0.1193324198D+00  0.6899906659D-01
      0.1881288540D+01 -0.1608541517D+00  0.3164239610D+00
      0.5442492580D+00  0.1143456438D+01  0.7443082909D+00
 Atom C7       Shell    21 SP   1    bf   57 -    60          5.992735908732          2.613380409343          1.467972405822
      0.1687144782D+00  0.1000000000D+01  0.1000000000D+01
 Atom C7       Shell    22 D   1     bf   61 -    66          5.992735908732          2.613380409343          1.467972405822
      0.8000000000D+00  0.1000000000D+01
 Atom C8       Shell    23 S   6     bf   67 -    67          3.293730402041          2.428130499845          0.295115676686
      0.3047524880D+04  0.1834737132D-02
      0.4573695180D+03  0.1403732281D-01
      0.1039486850D+03  0.6884262226D-01
      0.2921015530D+02  0.2321844432D+00
      0.9286662960D+01  0.4679413484D+00
      0.3163926960D+01  0.3623119853D+00
 Atom C8       Shell    24 SP   3    bf   68 -    71          3.293730402041          2.428130499845          0.295115676686
      0.7868272350D+01 -0.1193324198D+00  0.6899906659D-01
      0.1881288540D+01 -0.1608541517D+00  0.3164239610D+00
      0.5442492580D+00  0.1143456438D+01  0.7443082909D+00
 Atom C8       Shell    25 SP   1    bf   72 -    75          3.293730402041          2.428130499845          0.295115676686
      0.1687144782D+00  0.1000000000D+01  0.1000000000D+01
 Atom C8       Shell    26 D   1     bf   76 -    81          3.293730402041          2.428130499845          0.295115676686
      0.8000000000D+00  0.1000000000D+01
 Atom H9       Shell    27 S   3     bf   82 -    82          3.479554221366          2.520347132020         -1.770038892067
      0.1873113696D+02  0.3349460434D-01
      0.2825394365D+01  0.2347269535D+00
      0.6401216923D+00  0.8137573261D+00
 Atom H9       Shell    28 S   1     bf   83 -    83          3.479554221366          2.520347132020         -1.770038892067
      0.1612777588D+00  0.1000000000D+01
 Atom H10      Shell    29 S   3     bf   84 -    84          2.187391919399          4.083262610190          0.861138088721
      0.1873113696D+02  0.3349460434D-01
      0.2825394365D+01  0.2347269535D+00
      0.6401216923D+00  0.8137573261D+00
 Atom H10      Shell    30 S   1     bf   85 -    85          2.187391919399          4.083262610190          0.861138088721
      0.1612777588D+00  0.1000000000D+01
 Atom C11      Shell    31 S   6     bf   86 -    86          1.825394658575          0.017490870449          0.977962129886
      0.3047524880D+04  0.1834737132D-02
      0.4573695180D+03  0.1403732281D-01
      0.1039486850D+03  0.6884262226D-01
      0.2921015530D+02  0.2321844432D+00
      0.9286662960D+01  0.4679413484D+00
      0.3163926960D+01  0.3623119853D+00
 Atom C11      Shell    32 SP   3    bf   87 -    90          1.825394658575          0.017490870449          0.977962129886
      0.7868272350D+01 -0.1193324198D+00  0.6899906659D-01
      0.1881288540D+01 -0.1608541517D+00  0.3164239610D+00
      0.5442492580D+00  0.1143456438D+01  0.7443082909D+00
 Atom C11      Shell    33 SP   1    bf   91 -    94          1.825394658575          0.017490870449          0.977962129886
      0.1687144782D+00  0.1000000000D+01  0.1000000000D+01
 Atom C11      Shell    34 D   1     bf   95 -   100          1.825394658575          0.017490870449          0.977962129886
      0.8000000000D+00  0.1000000000D+01
 Atom H12      Shell    35 S   3     bf  101 -   101          1.408767815202         -0.027938863882          3.014350361480
      0.1873113696D+02  0.3349460434D-01
      0.2825394365D+01  0.2347269535D+00
      0.6401216923D+00  0.8137573261D+00
 Atom H12      Shell    36 S   1     bf  102 -   102          1.408767815202         -0.027938863882          3.014350361480
      0.1612777588D+00  0.1000000000D+01
 Atom H13      Shell    37 S   3     bf  103 -   103          0.000000000000          0.000000000000          0.000000000000
      0.1873113696D+02  0.3349460434D-01
      0.2825394365D+01  0.2347269535D+00
      0.6401216923D+00  0.8137573261D+00
 Atom H13      Shell    38 S   1     bf  104 -   104          0.000000000000          0.000000000000          0.000000000000
      0.1612777588D+00  0.1000000000D+01
 Atom C14      Shell    39 S   6     bf  105 -   105          9.719077761690          0.000000000000          0.000000000000
      0.3047524880D+04  0.1834737132D-02
      0.4573695180D+03  0.1403732281D-01
      0.1039486850D+03  0.6884262226D-01
      0.2921015530D+02  0.2321844432D+00
      0.9286662960D+01  0.4679413484D+00
      0.3163926960D+01  0.3623119853D+00
 Atom C14      Shell    40 SP   3    bf  106 -   109          9.719077761690          0.000000000000          0.000000000000
      0.7868272350D+01 -0.1193324198D+00  0.6899906659D-01
      0.1881288540D+01 -0.1608541517D+00  0.3164239610D+00
      0.5442492580D+00  0.1143456438D+01  0.7443082909D+00
 Atom C14      Shell    41 SP   1    bf  110 -   113          9.719077761690          0.000000000000          0.000000000000
      0.1687144782D+00  0.1000000000D+01  0.1000000000D+01
 Atom C14      Shell    42 D   1     bf  114 -   119          9.719077761690          0.000000000000          0.000000000000
      0.8000000000D+00  0.1000000000D+01
 Atom H15      Shell    43 S   3     bf  120 -   120         10.559998237433         -1.835032148470         -0.396157537772
      0.1873113696D+02  0.3349460434D-01
      0.2825394365D+01  0.2347269535D+00
      0.6401216923D+00  0.8137573261D+00
 Atom H15      Shell    44 S   1     bf  121 -   121         10.559998237433         -1.835032148470         -0.396157537772
      0.1612777588D+00  0.1000000000D+01
 Atom C16      Shell    45 S   6     bf  122 -   122         11.286707407362          2.260464737677         -0.684150874458
      0.3047524880D+04  0.1834737132D-02
      0.4573695180D+03  0.1403732281D-01
      0.1039486850D+03  0.6884262226D-01
      0.2921015530D+02  0.2321844432D+00
      0.9286662960D+01  0.4679413484D+00
      0.3163926960D+01  0.3623119853D+00
 Atom C16      Shell    46 SP   3    bf  123 -   126         11.286707407362          2.260464737677         -0.684150874458
      0.7868272350D+01 -0.1193324198D+00  0.6899906659D-01
      0.1881288540D+01 -0.1608541517D+00  0.3164239610D+00
      0.5442492580D+00  0.1143456438D+01  0.7443082909D+00
 Atom C16      Shell    47 SP   1    bf  127 -   130         11.286707407362          2.260464737677         -0.684150874458
      0.1687144782D+00  0.1000000000D+01  0.1000000000D+01
 Atom C16      Shell    48 D   1     bf  131 -   136         11.286707407362          2.260464737677         -0.684150874458
      0.8000000000D+00  0.1000000000D+01
 Atom H17      Shell    49 S   3     bf  137 -   137         13.280184758382          1.927074547895         -0.235913297046
      0.1873113696D+02  0.3349460434D-01
      0.2825394365D+01  0.2347269535D+00
      0.6401216923D+00  0.8137573261D+00
 Atom H17      Shell    50 S   1     bf  138 -   138         13.280184758382          1.927074547895         -0.235913297046
      0.1612777588D+00  0.1000000000D+01
 Atom C18      Shell    51 S   6     bf  139 -   139         10.332410695783          4.696564193727          0.593436196613
      0.3047524880D+04  0.1834737132D-02
      0.4573695180D+03  0.1403732281D-01
      0.1039486850D+03  0.6884262226D-01
      0.2921015530D+02  0.2321844432D+00
      0.9286662960D+01  0.4679413484D+00
      0.3163926960D+01  0.3623119853D+00
 Atom C18      Shell    52 SP   3    bf  140 -   143         10.332410695783          4.696564193727          0.593436196613
      0.7868272350D+01 -0.1193324198D+00  0.6899906659D-01
      0.1881288540D+01 -0.1608541517D+00  0.3164239610D+00
      0.5442492580D+00  0.1143456438D+01  0.7443082909D+00
 Atom C18      Shell    53 SP   1    bf  144 -   147         10.332410695783          4.696564193727          0.593436196613
      0.1687144782D+00  0.1000000000D+01  0.1000000000D+01
 Atom C18      Shell    54 D   1     bf  148 -   153         10.332410695783          4.696564193727          0.593436196613
      0.8000000000D+00  0.1000000000D+01
 Atom H19      Shell    55 S   3     bf  154 -   154         10.756137637080          4.461970794796          2.614934898060
      0.1873113696D+02  0.3349460434D-01
      0.2825394365D+01  0.2347269535D+00
      0.6401216923D+00  0.8137573261D+00
 Atom H19      Shell    56 S   1     bf  155 -   155         10.756137637080          4.461970794796          2.614934898060
      0.1612777588D+00  0.1000000000D+01
 Atom C20      Shell    57 S   6     bf  156 -   156          7.428217232699          4.880694440491          0.203533671238
      0.3047524880D+04  0.1834737132D-02
      0.4573695180D+03  0.1403732281D-01
      0.1039486850D+03  0.6884262226D-01
      0.2921015530D+02  0.2321844432D+00
      0.9286662960D+01  0.4679413484D+00
      0.3163926960D+01  0.3623119853D+00
 Atom C20      Shell    58 SP   3    bf  157 -   160          7.428217232699          4.880694440491          0.203533671238
      0.7868272350D+01 -0.1193324198D+00  0.6899906659D-01
      0.1881288540D+01 -0.1608541517D+00  0.3164239610D+00
      0.5442492580D+00  0.1143456438D+01  0.7443082909D+00
 Atom C20      Shell    59 SP   1    bf  161 -   164          7.428217232699          4.880694440491          0.203533671238
      0.1687144782D+00  0.1000000000D+01  0.1000000000D+01
 Atom C20      Shell    60 D   1     bf  165 -   170          7.428217232699          4.880694440491          0.203533671238
      0.8000000000D+00  0.1000000000D+01
 Atom H21      Shell    61 S   3     bf  171 -   171          7.143853304024          4.669555849890         -1.844643465657
      0.1873113696D+02  0.3349460434D-01
      0.2825394365D+01  0.2347269535D+00
      0.6401216923D+00  0.8137573261D+00
 Atom H21      Shell    62 S   1     bf  172 -   172          7.143853304024          4.669555849890         -1.844643465657
      0.1612777588D+00  0.1000000000D+01
 Atom C22      Shell    63 S   6     bf  173 -   173          6.328913406766          7.488512856702          0.933315857113
      0.3047524880D+04  0.1834737132D-02
      0.4573695180D+03  0.1403732281D-01
      0.1039486850D+03  0.6884262226D-01
      0.2921015530D+02  0.2321844432D+00
      0.9286662960D+01  0.4679413484D+00
      0.3163926960D+01  0.3623119853D+00
 Atom C22      Shell    64 SP   3    bf  174 -   177          6.328913406766          7.488512856702          0.933315857113
      0.7868272350D+01 -0.1193324198D+00  0.6899906659D-01
      0.1881288540D+01 -0.1608541517D+00  0.3164239610D+00
      0.5442492580D+00  0.1143456438D+01  0.7443082909D+00
 Atom C22      Shell    65 SP   1    bf  178 -   181          6.328913406766          7.488512856702          0.933315857113
      0.1687144782D+00  0.1000000000D+01  0.1000000000D+01
 Atom C22      Shell    66 D   1     bf  182 -   187          6.328913406766          7.488512856702          0.933315857113
      0.8000000000D+00  0.1000000000D+01
 Atom H23      Shell    67 S   3     bf  188 -   188          6.208205430377          7.666951323944          2.990502660189
      0.1873113696D+02  0.3349460434D-01
      0.2825394365D+01  0.2347269535D+00
      0.6401216923D+00  0.8137573261D+00
 Atom H23      Shell    68 S   1     bf  189 -   189          6.208205430377          7.666951323944          2.990502660189
      0.1612777588D+00  0.1000000000D+01
 Atom H24      Shell    69 S   3     bf  190 -   190          4.382935796082          7.628050215457          0.237359315483
      0.1873113696D+02  0.3349460434D-01
      0.2825394365D+01  0.2347269535D+00
      0.6401216923D+00  0.8137573261D+00
 Atom H24      Shell    70 S   1     bf  191 -   191          4.382935796082          7.628050215457          0.237359315483
      0.1612777588D+00  0.1000000000D+01
 Atom C25      Shell    71 S   6     bf  192 -   192          7.843545248404          9.754995975270         -0.090761108416
      0.3047524880D+04  0.1834737132D-02
      0.4573695180D+03  0.1403732281D-01
      0.1039486850D+03  0.6884262226D-01
      0.2921015530D+02  0.2321844432D+00
      0.9286662960D+01  0.4679413484D+00
      0.3163926960D+01  0.3623119853D+00
 Atom C25      Shell    72 SP   3    bf  193 -   196          7.843545248404          9.754995975270         -0.090761108416
      0.7868272350D+01 -0.1193324198D+00  0.6899906659D-01
      0.1881288540D+01 -0.1608541517D+00  0.3164239610D+00
      0.5442492580D+00  0.1143456438D+01  0.7443082909D+00
 Atom C25      Shell    73 SP   1    bf  197 -   200          7.843545248404          9.754995975270         -0.090761108416
      0.1687144782D+00  0.1000000000D+01  0.1000000000D+01
 Atom C25      Shell    74 D   1     bf  201 -   206          7.843545248404          9.754995975270         -0.090761108416
      0.8000000000D+00  0.1000000000D+01
 Atom H26      Shell    75 S   3     bf  207 -   207          7.740012520406          9.787296345963         -2.165350890778
      0.1873113696D+02  0.3349460434D-01
      0.2825394365D+01  0.2347269535D+00
      0.6401216923D+00  0.8137573261D+00
 Atom H26      Shell    76 S   1     bf  208 -   208          7.740012520406          9.787296345963         -2.165350890778
      0.1612777588D+00  0.1000000000D+01
 Atom H27      Shell    77 S   3     bf  209 -   209          6.943787431418         11.495211001638          0.573361125677
      0.1873113696D+02  0.3349460434D-01
      0.2825394365D+01  0.2347269535D+00
      0.6401216923D+00  0.8137573261D+00
 Atom H27      Shell    78 S   1     bf  210 -   210          6.943787431418         11.495211001638          0.573361125677
      0.1612777588D+00  0.1000000000D+01
 Atom C28      Shell    79 S   6     bf  211 -   211         10.641034909655          9.610039259911          0.701803505464
      0.3047524880D+04  0.1834737132D-02
      0.4573695180D+03  0.1403732281D-01
      0.1039486850D+03  0.6884262226D-01
      0.2921015530D+02  0.2321844432D+00
      0.9286662960D+01  0.4679413484D+00
      0.3163926960D+01  0.3623119853D+00
 Atom C28      Shell    80 SP   3    bf  212 -   215         10.641034909655          9.610039259911          0.701803505464
      0.7868272350D+01 -0.1193324198D+00  0.6899906659D-01
      0.1881288540D+01 -0.1608541517D+00  0.3164239610D+00
      0.5442492580D+00  0.1143456438D+01  0.7443082909D+00
 Atom C28      Shell    81 SP   1    bf  216 -   219         10.641034909655          9.610039259911          0.701803505464
      0.1687144782D+00  0.1000000000D+01  0.1000000000D+01
 Atom C28      Shell    82 D   1     bf  220 -   225         10.641034909655          9.610039259911          0.701803505464
      0.8000000000D+00  0.1000000000D+01
 Atom C29      Shell    83 S   6     bf  226 -   226         11.685878774857          7.076556169110         -0.368447878773
      0.3047524880D+04  0.1834737132D-02
      0.4573695180D+03  0.1403732281D-01
      0.1039486850D+03  0.6884262226D-01
      0.2921015530D+02  0.2321844432D+00
      0.9286662960D+01  0.4679413484D+00
      0.3163926960D+01  0.3623119853D+00
 Atom C29      Shell    84 SP   3    bf  227 -   230         11.685878774857          7.076556169110         -0.368447878773
      0.7868272350D+01 -0.1193324198D+00  0.6899906659D-01
      0.1881288540D+01 -0.1608541517D+00  0.3164239610D+00
      0.5442492580D+00  0.1143456438D+01  0.7443082909D+00
 Atom C29      Shell    85 SP   1    bf  231 -   234         11.685878774857          7.076556169110         -0.368447878773
      0.1687144782D+00  0.1000000000D+01  0.1000000000D+01
 Atom C29      Shell    86 D   1     bf  235 -   240         11.685878774857          7.076556169110         -0.368447878773
      0.8000000000D+00  0.1000000000D+01
 Atom H30      Shell    87 S   3     bf  241 -   241         11.337842640628          7.158241338649         -2.414770910873
      0.1873113696D+02  0.3349460434D-01
      0.2825394365D+01  0.2347269535D+00
      0.6401216923D+00  0.8137573261D+00
 Atom H30      Shell    88 S   1     bf  242 -   242         11.337842640628          7.158241338649         -2.414770910873
      0.1612777588D+00  0.1000000000D+01
 Atom C31      Shell    89 S   6     bf  243 -   243         14.559261141515          7.291417898138          0.000000000000
      0.3047524880D+04  0.1834737132D-02
      0.4573695180D+03  0.1403732281D-01
      0.1039486850D+03  0.6884262226D-01
      0.2921015530D+02  0.2321844432D+00
      0.9286662960D+01  0.4679413484D+00
      0.3163926960D+01  0.3623119853D+00
 Atom C31      Shell    90 SP   3    bf  244 -   247         14.559261141515          7.291417898138          0.000000000000
      0.7868272350D+01 -0.1193324198D+00  0.6899906659D-01
      0.1881288540D+01 -0.1608541517D+00  0.3164239610D+00
      0.5442492580D+00  0.1143456438D+01  0.7443082909D+00
 Atom C31      Shell    91 SP   1    bf  248 -   251         14.559261141515          7.291417898138          0.000000000000
      0.1687144782D+00  0.1000000000D+01  0.1000000000D+01
 Atom C31      Shell    92 D   1     bf  252 -   257         14.559261141515          7.291417898138          0.000000000000
      0.8000000000D+00  0.1000000000D+01
 Atom H32      Shell    93 S   3     bf  258 -   258         15.601330945446          6.081089260390         -1.305160556405
      0.1873113696D+02  0.3349460434D-01
      0.2825394365D+01  0.2347269535D+00
      0.6401216923D+00  0.8137573261D+00
 Atom H32      Shell    94 S   1     bf  259 -   259         15.601330945446          6.081089260390         -1.305160556405
      0.1612777588D+00  0.1000000000D+01
 Atom H33      Shell    95 S   3     bf  260 -   260         15.094952031823          6.727875619372          1.923317167631
      0.1873113696D+02  0.3349460434D-01
      0.2825394365D+01  0.2347269535D+00
      0.6401216923D+00  0.8137573261D+00
 Atom H33      Shell    96 S   1     bf  261 -   261         15.094952031823          6.727875619372          1.923317167631
      0.1612777588D+00  0.1000000000D+01
 Atom C34      Shell    97 S   6     bf  262 -   262         15.103274177842         10.141790468074         -0.445867709663
      0.3047524880D+04  0.1834737132D-02
      0.4573695180D+03  0.1403732281D-01
      0.1039486850D+03  0.6884262226D-01
      0.2921015530D+02  0.2321844432D+00
      0.9286662960D+01  0.4679413484D+00
      0.3163926960D+01  0.3623119853D+00
 Atom C34      Shell    98 SP   3    bf  263 -   266         15.103274177842         10.141790468074         -0.445867709663
      0.7868272350D+01 -0.1193324198D+00  0.6899906659D-01
      0.1881288540D+01 -0.1608541517D+00  0.3164239610D+00
      0.5442492580D+00  0.1143456438D+01  0.7443082909D+00
 Atom C34      Shell    99 SP   1    bf  267 -   270         15.103274177842         10.141790468074         -0.445867709663
      0.1687144782D+00  0.1000000000D+01  0.1000000000D+01
 Atom C34      Shell   100 D   1     bf  271 -   276         15.103274177842         10.141790468074         -0.445867709663
      0.8000000000D+00  0.1000000000D+01
 Atom H35      Shell   101 S   3     bf  277 -   277         16.228884219868         10.929042778335          1.105727666464
      0.1873113696D+02  0.3349460434D-01
      0.2825394365D+01  0.2347269535D+00
      0.6401216923D+00  0.8137573261D+00
 Atom H35      Shell   102 S   1     bf  278 -   278         16.228884219868         10.929042778335          1.105727666464
      0.1612777588D+00  0.1000000000D+01
 Atom H36      Shell   103 S   3     bf  279 -   279         16.206142140646         10.435656714533         -2.170659433842
      0.1873113696D+02  0.3349460434D-01
      0.2825394365D+01  0.2347269535D+00
      0.6401216923D+00  0.8137573261D+00
 Atom H36      Shell   104 S   1     bf  280 -   280         16.206142140646         10.435656714533         -2.170659433842
      0.1612777588D+00  0.1000000000D+01
 Atom C37      Shell   105 S   6     bf  281 -   281         12.488800524137         11.511751831171         -0.618670182097
      0.3047524880D+04  0.1834737132D-02
      0.4573695180D+03  0.1403732281D-01
      0.1039486850D+03  0.6884262226D-01
      0.2921015530D+02  0.2321844432D+00
      0.9286662960D+01  0.4679413484D+00
      0.3163926960D+01  0.3623119853D+00
 Atom C37      Shell   106 SP   3    bf  282 -   285         12.488800524137         11.511751831171         -0.618670182097
      0.7868272350D+01 -0.1193324198D+00  0.6899906659D-01
      0.1881288540D+01 -0.1608541517D+00  0.3164239610D+00
      0.5442492580D+00  0.1143456438D+01  0.7443082909D+00
[...]
 **** Fit       0.002906
 **** Fit       0.004474
 **** Fit       0.002107
 **** Fit       0.000405
 **** Fit      -0.000527
 **** Fit      -0.000920
 **** Fit      -0.001018
 **** Fit      -0.000975
 **** Fit      -0.002381
 **** Fit      -0.002474
 **** Fit      -0.002343
 **** Fit      -0.001795
 **** Fit      -0.000623
 **** Fit       0.001188
 **** Fit       0.003152
 **** Fit       0.003898
 **** Fit       0.002377
 **** Fit       0.000702
 **** Fit      -0.000483
 **** Fit      -0.001086
 **** Fit      -0.001283
 **** Fit      -0.001261
 **** Fit      -0.001144
 **** Fit      -0.002438
 **** Fit      -0.002602
 **** Fit      -0.002615
 **** Fit      -0.002353
 **** Fit      -0.001696
 **** Fit      -0.000658
 **** Fit       0.000456
 **** Fit       0.001103
 **** Fit       0.000925
 **** Fit       0.000129
 **** Fit      -0.000753
 **** Fit      -0.001346
 **** Fit      -0.001589
 **** Fit      -0.001583
 **** Fit      -0.001449
 **** Fit      -0.002445
 **** Fit      -0.002656
 **** Fit      -0.002778
 **** Fit      -0.002737
 **** Fit      -0.002477
 **** Fit      -0.002015
 **** Fit      -0.001507
 **** Fit      -0.001196
 **** Fit      -0.001229
 **** Fit      -0.001512
 **** Fit      -0.001811
 **** Fit      -0.001958
 **** Fit      -0.001925
 **** Fit      -0.001768
 **** Fit      -0.001554
 **** Fit      -0.002634
 **** Fit      -0.002816
 **** Fit      -0.002907
 **** Fit      -0.002878
 **** Fit      -0.002739
 **** Fit      -0.002553
 **** Fit      -0.002413
 **** Fit      -0.002366
 **** Fit      -0.002374
 **** Fit      -0.002354
 **** Fit      -0.002249
 **** Fit      -0.002061
 **** Fit      -0.001822
 **** Fit      -0.002750
 **** Fit      -0.002897
 **** Fit      -0.002971
 **** Fit      -0.002974
 **** Fit      -0.002924
 **** Fit      -0.002849
 **** Fit      -0.002761
 **** Fit      -0.002648
 **** Fit      -0.002490
 **** Fit      -0.002280
 **** Fit      -0.002032
 **** Fit      -0.001769
 **** Fit      -0.002766
 **** Fit      -0.002871
 **** Fit      -0.002918
 **** Fit      -0.002909
 **** Fit      -0.002849
 **** Fit      -0.002741
 **** Fit      -0.002586
 **** Fit      -0.002385
 **** Fit      -0.002150
 **** Fit      -0.002717
 **** Fit      -0.002711
 **** Fit      -0.002649
 **** Fit      -0.002534
 **** Fit      -0.002371
 **** Fit      -0.002170
 **** Fit      -0.000262
 **** Fit      -0.000170
 **** Fit      -0.000129
 **** Fit      -0.000140
 **** Fit      -0.000422
 **** Fit      -0.000217
 **** Fit      -0.000035
 **** Fit       0.000093
 **** Fit       0.000143
 **** Fit       0.000117
 **** Fit       0.000033
 **** Fit      -0.000543
 **** Fit      -0.000286
 **** Fit      -0.000010
 **** Fit       0.000238
 **** Fit       0.000408
 **** Fit       0.000470
 **** Fit       0.000423
 **** Fit       0.000297
 **** Fit       0.000134
 **** Fit      -0.000477
 **** Fit      -0.000154
 **** Fit       0.000197
 **** Fit       0.000514
 **** Fit       0.000733
 **** Fit       0.000809
 **** Fit       0.000742
 **** Fit       0.000573
 **** Fit       0.000358
 **** Fit       0.000147
 **** Fit      -0.000735
 **** Fit      -0.000436
 **** Fit      -0.000057
 **** Fit       0.000359
 **** Fit       0.000741
 **** Fit       0.001007
 **** Fit       0.001101
 **** Fit       0.001022
 **** Fit       0.000819
 **** Fit       0.000562
 **** Fit       0.000309
 **** Fit      -0.000760
 **** Fit      -0.000436
 **** Fit      -0.000021
 **** Fit       0.000441
 **** Fit       0.000871
 **** Fit       0.001176
 **** Fit       0.001295
 **** Fit       0.001220
 **** Fit       0.001005
 **** Fit       0.000724
 **** Fit       0.000444
 **** Fit      -0.000814
 **** Fit      -0.000482
 **** Fit      -0.000051
 **** Fit       0.000434
 **** Fit       0.000894
 **** Fit       0.001233
 **** Fit       0.001382
 **** Fit       0.001330
 **** Fit       0.001124
 **** Fit       0.000839
 **** Fit       0.000545
 **** Fit      -0.000562
 **** Fit      -0.000127
 **** Fit       0.000370
 **** Fit       0.000853
 **** Fit       0.001227
 **** Fit       0.001416
 **** Fit       0.001398
 **** Fit       0.001211
 **** Fit       0.000928
 **** Fit       0.000623
 **** Fit      -0.000657
 **** Fit      -0.000215
 **** Fit       0.000306
 **** Fit       0.000831
 **** Fit       0.001258
 **** Fit       0.001498
 **** Fit       0.001512
 **** Fit       0.001330
 **** Fit       0.001029
 **** Fit       0.000695
 **** Fit       0.000391
 **** Fit      -0.000751
 **** Fit      -0.000283
 **** Fit       0.000295
 **** Fit       0.000905
 **** Fit       0.001427
 **** Fit       0.001735
 **** Fit       0.001766
 **** Fit       0.001547
 **** Fit       0.001179
 **** Fit       0.000776
 **** Fit       0.000417
 **** Fit       0.000141
 **** Fit      -0.001183
 **** Fit      -0.000842
 **** Fit      -0.000324
 **** Fit       0.000356
 **** Fit       0.001115
 **** Fit       0.001791
 **** Fit       0.002193
 **** Fit       0.002213
 **** Fit       0.001891
 **** Fit       0.001385
 **** Fit       0.000860
 **** Fit       0.000420
 **** Fit       0.000099
 **** Fit      -0.001298
 **** Fit      -0.000943
 **** Fit      -0.000361
 **** Fit       0.000454
 **** Fit       0.001414
 **** Fit       0.002299
 **** Fit       0.002819
 **** Fit       0.002798
 **** Fit       0.002308
 **** Fit       0.001599
 **** Fit       0.000912
 **** Fit       0.000374
 **** Fit       0.000009
 **** Fit      -0.000211
 **** Fit      -0.001589
 **** Fit      -0.001432
 **** Fit      -0.001077
 **** Fit      -0.000449
 **** Fit       0.000486
 **** Fit       0.001640
 **** Fit       0.002734
 **** Fit       0.003367
 **** Fit       0.003290
 **** Fit       0.002614
 **** Fit       0.001696
 **** Fit       0.000859
 **** Fit       0.000245
 **** Fit      -0.000142
 **** Fit      -0.000355
 **** Fit      -0.001707
 **** Fit      -0.001588
 **** Fit      -0.001263
 **** Fit      -0.000645
 **** Fit       0.000323
 **** Fit       0.001560
 **** Fit       0.002755
 **** Fit       0.003442
 **** Fit       0.003323
 **** Fit       0.002538
 **** Fit       0.001518
 **** Fit       0.000625
 **** Fit       0.000005
 **** Fit      -0.000359
 **** Fit      -0.000538
 **** Fit      -0.001824
 **** Fit      -0.001757
 **** Fit      -0.001502
 **** Fit      -0.000970
 **** Fit      -0.000104
 **** Fit       0.001028
 **** Fit       0.002133
 **** Fit       0.002767
 **** Fit       0.002649
 **** Fit       0.001918
 **** Fit       0.000983
 **** Fit       0.000186
 **** Fit      -0.000343
 **** Fit      -0.000628
 **** Fit      -0.000742
 **** Fit      -0.001925
 **** Fit      -0.001920
 **** Fit      -0.001763
 **** Fit      -0.001379
 **** Fit      -0.000724
 **** Fit       0.000142
 **** Fit       0.000990
 **** Fit       0.001482
 **** Fit       0.001408
 **** Fit       0.000873
 **** Fit       0.000187
 **** Fit      -0.000386
 **** Fit      -0.000745
 **** Fit      -0.000911
 **** Fit      -0.000943
 **** Fit      -0.002054
 **** Fit      -0.001997
 **** Fit      -0.001778
 **** Fit      -0.001370
 **** Fit      -0.000817
 **** Fit      -0.000272
 **** Fit       0.000054
 **** Fit       0.000037
 **** Fit      -0.000260
 **** Fit      -0.000647
 **** Fit      -0.000956
 **** Fit      -0.001124
 **** Fit      -0.001162
 **** Fit      -0.001113
 **** Fit      -0.002138
 **** Fit      -0.002165
 **** Fit      -0.002086
 **** Fit      -0.001885
 **** Fit      -0.001593
 **** Fit      -0.001294
 **** Fit      -0.001099
 **** Fit      -0.001069
 **** Fit      -0.001173
 **** Fit      -0.001313
 **** Fit      -0.001403
 **** Fit      -0.001410
 **** Fit      -0.001343
 **** Fit      -0.002249
 **** Fit      -0.002264
 **** Fit      -0.002203
 **** Fit      -0.002080
 **** Fit      -0.001936
 **** Fit      -0.001821
 **** Fit      -0.001761
 **** Fit      -0.001742
 **** Fit      -0.001724
 **** Fit      -0.001672
 **** Fit      -0.001573
 **** Fit      -0.001438
 **** Fit      -0.002318
 **** Fit      -0.002333
 **** Fit      -0.002300
 **** Fit      -0.002236
 **** Fit      -0.002161
 **** Fit      -0.002084
 **** Fit      -0.002001
 **** Fit      -0.001900
 **** Fit      -0.001773
 **** Fit      -0.001620
 **** Fit      -0.002322
 **** Fit      -0.002329
 **** Fit      -0.002298
 **** Fit      -0.002238
 **** Fit      -0.002152
 **** Fit      -0.002042
 **** Fit      -0.001907
 **** Fit       0.000095
 **** Fit       0.000217
 **** Fit       0.000273
 **** Fit       0.000261
 **** Fit       0.000053
 **** Fit       0.000265
 **** Fit       0.000416
 **** Fit       0.000484
 **** Fit       0.000466
 **** Fit       0.000380
 **** Fit      -0.000120
 **** Fit       0.000157
 **** Fit       0.000406
 **** Fit       0.000586
 **** Fit       0.000668
 **** Fit       0.000649
 **** Fit       0.000548
 **** Fit       0.000401
 **** Fit      -0.000090
 **** Fit       0.000218
 **** Fit       0.000500
 **** Fit       0.000707
 **** Fit       0.000806
 **** Fit       0.000791
 **** Fit       0.000685
 **** Fit       0.000524
 **** Fit      -0.000097
 **** Fit       0.000235
 **** Fit       0.000542
 **** Fit       0.000775
 **** Fit       0.000895
 **** Fit       0.000893
 **** Fit       0.000789
 **** Fit       0.000621
 **** Fit      -0.000130
 **** Fit       0.000221
 **** Fit       0.000554
 **** Fit       0.000815
 **** Fit       0.000960
 **** Fit       0.000975
 **** Fit       0.000875
 **** Fit       0.000202
 **** Fit       0.000569
 **** Fit       0.000866
 **** Fit       0.001042
 **** Fit       0.001072
 **** Fit       0.000971
 **** Fit       0.000781
 **** Fit      -0.000217
 **** Fit       0.000198
 **** Fit       0.000616
 **** Fit       0.000966
 **** Fit       0.001178
 **** Fit       0.001217
 **** Fit       0.001098
 **** Fit       0.000872
 **** Fit       0.000605
 **** Fit       0.000350
 **** Fit      -0.000643
 **** Fit      -0.000257
 **** Fit       0.000211
 **** Fit       0.000700
 **** Fit       0.001119
 **** Fit       0.001374
 **** Fit       0.001413
 **** Fit       0.001253
 **** Fit       0.000967
 **** Fit       0.000641
 **** Fit       0.000341
 **** Fit      -0.001016
 **** Fit      -0.000728
 **** Fit      -0.000311
 **** Fit       0.000216
 **** Fit       0.000786
 **** Fit       0.001284
 **** Fit       0.001583
 **** Fit       0.001611
 **** Fit       0.001393
 **** Fit       0.001030
 **** Fit       0.000636
 **** Fit       0.000291
 **** Fit       0.000030
 **** Fit      -0.001124
 **** Fit      -0.000840
 **** Fit      -0.000408
 **** Fit       0.000160
 **** Fit       0.000794
 **** Fit       0.001358
 **** Fit       0.001692
 **** Fit       0.001705
 **** Fit       0.001430
 **** Fit       0.000999
 **** Fit       0.000552
 **** Fit       0.000179
 **** Fit      -0.000089
 **** Fit      -0.001251
 **** Fit      -0.000992
 **** Fit      -0.000576
 **** Fit      -0.000010
 **** Fit       0.000638
 **** Fit       0.001221
 **** Fit       0.001564
 **** Fit       0.001565
 **** Fit       0.001265
 **** Fit       0.000811
 **** Fit       0.000356
 **** Fit      -0.000008
 **** Fit      -0.000257
 **** Fit      -0.001392
 **** Fit      -0.001180
 **** Fit      -0.000820
 **** Fit      -0.000314
 **** Fit       0.000275
 **** Fit       0.000810
 **** Fit       0.001127
 **** Fit       0.001128
 **** Fit       0.000855
 **** Fit       0.000446
 **** Fit       0.000045
 **** Fit      -0.000264
 **** Fit      -0.000462
 **** Fit      -0.001532
 **** Fit      -0.001385
 **** Fit      -0.001111
 **** Fit      -0.000714
 **** Fit      -0.000245
 **** Fit       0.000186
 **** Fit       0.000446
 **** Fit       0.000460
 **** Fit       0.000258
 **** Fit      -0.000047
 **** Fit      -0.000340
 **** Fit      -0.000557
 **** Fit      -0.000681
 **** Fit      -0.001577
 **** Fit      -0.001402
 **** Fit      -0.001132
 **** Fit      -0.000805
 **** Fit      -0.000500
 **** Fit      -0.000306
 **** Fit      -0.000275
 **** Fit      -0.000386
 **** Fit      -0.000564
 **** Fit      -0.000731
 **** Fit      -0.000841
 **** Fit      -0.000885
 **** Fit      -0.001729
 **** Fit      -0.001642
 **** Fit      -0.001487
 **** Fit      -0.001288
 **** Fit      -0.001095
 **** Fit      -0.000959
 **** Fit      -0.000912
 **** Fit      -0.000942
 **** Fit      -0.001006
 **** Fit      -0.001058
 **** Fit      -0.001074
 **** Fit      -0.001803
 **** Fit      -0.001734
 **** Fit      -0.001629
 **** Fit      -0.001516
 **** Fit      -0.001422
 **** Fit      -0.001363
 **** Fit      -0.001335
 **** Fit      -0.001316
 **** Fit      -0.001285
 **** Fit      -0.001865
 **** Fit      -0.001819
 **** Fit      -0.001755
 **** Fit      -0.001686
 **** Fit      -0.001620
 **** Fit      -0.001555
 **** Fit      -0.001486
 **** Fit      -0.001844
 **** Fit      -0.001788
 **** Fit      -0.001718
 **** Fit       0.000697
 **** Fit       0.000087
 **** Fit       0.000378
 **** Fit       0.000618
 **** Fit       0.000769
 **** Fit       0.000810
 **** Fit       0.000748
 **** Fit       0.000612
 **** Fit      -0.000250
 **** Fit       0.000075
 **** Fit       0.000401
 **** Fit       0.000674
 **** Fit       0.000845
 **** Fit       0.000888
 **** Fit       0.000810
 **** Fit       0.000647
 **** Fit       0.000445
 **** Fit      -0.000309
 **** Fit       0.000042
 **** Fit       0.000401
 **** Fit       0.000707
 **** Fit       0.000897
 **** Fit       0.000937
 **** Fit       0.000838
 **** Fit       0.000644
 **** Fit       0.000414
 **** Fit       0.000195
 **** Fit      -0.000703
 **** Fit      -0.000402
 **** Fit      -0.000038
 **** Fit       0.000343
 **** Fit       0.000670
 **** Fit       0.000872
 **** Fit       0.000908
 **** Fit       0.000791
 **** Fit       0.000575
 **** Fit       0.000327
 **** Fit       0.000098
 **** Fit      -0.000827
 **** Fit      -0.000541
 **** Fit      -0.000187
 **** Fit       0.000191
 **** Fit       0.000518
 **** Fit       0.000719
 **** Fit       0.000752
 **** Fit       0.000631
 **** Fit       0.000413
 **** Fit       0.000169
 **** Fit      -0.000049
 **** Fit      -0.000975
 **** Fit      -0.000726
 **** Fit      -0.000409
 **** Fit      -0.000066
 **** Fit       0.000234
 **** Fit       0.000420
 **** Fit       0.000454
 **** Fit       0.000347
 **** Fit       0.000155
 **** Fit      -0.000057
 **** Fit      -0.000240
 **** Fit      -0.001135
 **** Fit      -0.000939
 **** Fit      -0.000683
 **** Fit      -0.000401
 **** Fit      -0.000150
 **** Fit       0.000010
 **** Fit       0.000047
 **** Fit      -0.000029
 **** Fit      -0.000171
 **** Fit      -0.000327
 **** Fit      -0.000457
 **** Fit      -0.001153
 **** Fit      -0.000967
 **** Fit      -0.000758
 **** Fit      -0.000567
 **** Fit      -0.000438
 **** Fit      -0.000396
 **** Fit      -0.000431
 **** Fit      -0.000513
 **** Fit      -0.000602
 **** Fit      -0.000670
 **** Fit      -0.001338
 **** Fit      -0.001219
 **** Fit      -0.001078
 **** Fit      -0.000944
 **** Fit      -0.000845
 **** Fit      -0.000796
 **** Fit      -0.000794
 **** Fit      -0.000818
 **** Fit      -0.000844
 **** Fit      -0.001323
 **** Fit      -0.001234
 **** Fit      -0.001157
 **** Fit      -0.001104
 **** Fit      -0.001071
 **** Fit      -0.001050
 **** Fit       0.000371
 **** Fit       0.000492
 **** Fit       0.000533
 **** Fit       0.000153
 **** Fit       0.000352
 **** Fit       0.000482
 **** Fit       0.000523
 **** Fit       0.000481
 **** Fit      -0.000165
 **** Fit       0.000079
 **** Fit       0.000285
 **** Fit       0.000418
 **** Fit       0.000459
 **** Fit       0.000412
 **** Fit       0.000301
 **** Fit      -0.000289
 **** Fit      -0.000052
 **** Fit       0.000151
 **** Fit       0.000282
 **** Fit       0.000322
 **** Fit       0.000276
 **** Fit       0.000168
 **** Fit      -0.000455
 **** Fit      -0.000239
 **** Fit      -0.000053
 **** Fit       0.000070
 **** Fit       0.000110
 **** Fit       0.000072
 **** Fit      -0.000020
 **** Fit      -0.000650
 **** Fit      -0.000468
 **** Fit      -0.000308
 **** Fit      -0.000200
 **** Fit      -0.000158
 **** Fit      -0.000180
 **** Fit      -0.000246
 **** Fit      -0.000709
 **** Fit      -0.000581
 **** Fit      -0.000489
 **** Fit      -0.000445
 **** Fit      -0.000448
 **** Fit      -0.000834
 **** Fit      -0.000758
 **** Fit      -0.000712
 -----------------------------------------------------------------
 Leave Link  602 at Fri Apr 28 12:47:58 2017, MaxMem=    33554432 cpu:        39.6
 (Enter /home/michal/g09/l9999.exe)

 Test job not archived.
 1\1\GINC-LINUX\SP\RHF\6-31G(d)\C27H46O3\MICHAL\28-Apr-2017\0\\#P HF/6-
 31G* SCF(Conver=6) NoSymm Test Pop=chelpg IOp(6/33=2) GFInput GFPrint\
 \MEP - Input generated by R.E.D.-III.x MOLECULE\\0,1\C,0,1.75597015,-1
 .2446183,0.14275309\H,0,1.88490622,-1.27651301,-0.94579053\C,0,3.14277
 897,-1.2151045,0.80581181\H,0,3.722752,-2.08593303,0.4849451\H,0,2.996
 82078,-1.31482619,1.89283772\C,0,3.89908397,0.06293855,0.49860395\C,0,
 3.17121926,1.38294135,0.77681754\C,0,1.74296706,1.28491132,0.15616849\
 H,0,1.84130079,1.33371026,-0.93666424\H,0,1.15751795,2.16076951,0.4556
 9465\C,0,0.96595725,0.00925577,0.51751527\H,0,0.74548782,-0.01478461,1
 .59512551\H,0,0.,0.,0.\C,0,5.14311444,0.,0.\H,0,5.58811039,-0.97105719
 ,-0.20963754\C,0,5.97266832,1.19618642,-0.36203705\H,0,7.0275711,1.019
 76393,-0.12483994\C,0,5.46767625,2.48531473,0.31403291\H,0,5.69190289,
 2.36117325,1.38376395\C,0,3.93084326,2.58275226,0.10770538\H,0,3.78036
 435,2.47102253,-0.97614328\C,0,3.34911673,3.96275033,0.49388948\H,0,3.
 28524082,4.0571759,1.58250585\H,0,2.31934973,4.03659032,0.12560514\C,0
 ,4.15062538,5.16212154,-0.04802871\H,0,4.09583822,5.17921416,-1.145854
 34\H,0,3.67449405,6.08300367,0.30340964\C,0,5.63099315,5.08541375,0.37
 137842\C,0,6.18390071,3.74475224,-0.19497422\H,0,5.99972792,3.78797817
 ,-1.27784173\C,0,7.70442917,3.85845217,0.\H,0,8.25586876,3.21797384,-0
 .69066122\H,0,7.98790458,3.56023844,1.01777561\C,0,7.99230847,5.366804
 37,-0.23594303\H,0,8.58795565,5.78340035,0.58512588\H,0,8.57592106,5.5
 2231169,-1.1486635\C,0,6.6087886,6.0917567,-0.32738616\H,0,6.30583673,
 6.11484434,-1.3843586\C,0,5.7692134,5.1863809,1.90835697\H,0,5.2987932
 4,4.34704868,2.42680444\H,0,6.81610206,5.21325503,2.22465395\H,0,5.293
 98907,6.10091504,2.27957597\C,0,6.67671266,7.55867665,0.16614361\H,0,6
 .99829767,7.53539599,1.21775994\C,0,5.32511396,8.29651009,0.12149091\H
 ,0,4.84384322,8.21479801,-0.85935266\H,0,5.46439929,9.36303545,0.33506
 443\H,0,4.62349179,7.90708887,0.86349285\C,0,3.05920676,1.5622184,2.31
 583347\H,0,2.38710737,2.38662987,2.57151271\H,0,2.66480196,0.66548202,
 2.7998083\H,0,4.03641012,1.76630286,2.7640863\O,0,5.87266845,1.2385716
 3,-1.8173417\O,0,7.10727792,1.79469579,-2.37813853\H,0,7.37535098,1.05
 313445,-2.94428896\O,0,1.04995941,-2.45028478,0.4473678\H,0,0.86958501
 ,-2.47212691,1.39770823\C,0,7.76572462,8.37744658,-0.58017907\H,0,7.80
 972404,9.37176667,-0.11191067\H,0,8.74423869,7.91935371,-0.39768023\C,
 0,7.56233548,8.56415456,-2.09355183\H,0,7.61833422,7.59485076,-2.60400
 166\H,0,6.54966188,8.94235807,-2.28132376\C,0,8.55310087,9.55050121,-2
 .74122932\H,0,8.44285685,10.52684747,-2.24720194\H,0,8.25849176,9.7071
 6163,-3.78967195\C,0,10.04613518,9.15906302,-2.71749867\H,0,10.3452508
 6,8.99869525,-1.67183257\C,0,10.32378206,7.86121398,-3.49259195\H,0,10
 .02478595,7.9647121,-4.54389101\H,0,11.39158382,7.61481523,-3.4740894\
 H,0,9.78198973,7.00638115,-3.07548171\C,0,10.90403669,10.30888544,-3.2
 6976682\H,0,10.65082336,10.51733398,-4.31734791\H,0,11.97177048,10.064
 70512,-3.22884345\H,0,10.74892951,11.23251414,-2.70028096\\Version=EM6
 4L-G09RevD.01\HF=-1273.6791383\RMSD=5.475e-07\Dipole=0.2169672,-0.0037
 016,0.7204823\Quadrupole=4.4517086,-7.4483263,2.9966177,-7.6927677,1.3
 622952,1.6054193\PG=C01 [X(C27H46O3)]\\@


 It takes a long time to grow an old friend.
                            -- John Leonard
 Job cpu time:       0 days  0 hours 12 minutes 46.6 seconds.
 File lengths (MBytes):  RWF=    159 Int=      0 D2E=      0 Chk=     11 Scr=      1
 Normal termination of Gaussian 09 at Fri Apr 28 12:47:58 2017.
