 Entering Gaussian System, Link 0=/home/michal/g09/g09
 Input=JOB2-gau_m1-8-3.com
 Output=JOB2-gau_m1-8-3.log
 Initial command:
 /home/michal/g09/l1.exe "/home/michal/gauss_scratch/Gau-15252.inp" -scrdir="/home/michal/gauss_scratch/"
 Entering Link 1 = /home/michal/g09/l1.exe PID=     15255.
  
 Copyright (c) 1988,1990,1992,1993,1995,1998,2003,2009,2013,
            Gaussian, Inc.  All Rights Reserved.
  
 This is part of the Gaussian(R) 09 program.  It is based on
 the Gaussian(R) 03 system (copyright 2003, Gaussian, Inc.),
 the Gaussian(R) 98 system (copyright 1998, Gaussian, Inc.),
 the Gaussian(R) 94 system (copyright 1995, Gaussian, Inc.),
 the Gaussian 92(TM) system (copyright 1992, Gaussian, Inc.),
 the Gaussian 90(TM) system (copyright 1990, Gaussian, Inc.),
 the Gaussian 88(TM) system (copyright 1988, Gaussian, Inc.),
 the Gaussian 86(TM) system (copyright 1986, Carnegie Mellon
 University), and the Gaussian 82(TM) system (copyright 1983,
 Carnegie Mellon University). Gaussian is a federally registered
 trademark of Gaussian, Inc.
  
 This software contains proprietary and confidential information,
 including trade secrets, belonging to Gaussian, Inc.
  
 This software is provided under written license and may be
 used, copied, transmitted, or stored only in accord with that
 written license.
  
 The following legend is applicable only to US Government
 contracts under FAR:
  
                    RESTRICTED RIGHTS LEGEND
  
 Use, reproduction and disclosure by the US Government is
 subject to restrictions as set forth in subparagraphs (a)
 and (c) of the Commercial Computer Software - Restricted
 Rights clause in FAR 52.227-19.
  
 Gaussian, Inc.
 340 Quinnipiac St., Bldg. 40, Wallingford CT 06492
  
  
 ---------------------------------------------------------------
 Warning -- This program may not be used in any manner that
 competes with the business of Gaussian, Inc. or will provide
 assistance to any competitor of Gaussian, Inc.  The licensee
 of this program is prohibited from giving any competitor of
 Gaussian, Inc. access to this program.  By using this program,
 the user acknowledges that Gaussian, Inc. is engaged in the
 business of creating and licensing software in the field of
 computational chemistry and represents and warrants to the
 licensee that it is not a competitor of Gaussian, Inc. and that
 it will not use this program in any manner prohibited above.
 ---------------------------------------------------------------
  

 Cite this work as:
 Gaussian 09, Revision D.01,
 M. J. Frisch, G. W. Trucks, H. B. Schlegel, G. E. Scuseria, 
 M. A. Robb, J. R. Cheeseman, G. Scalmani, V. Barone, B. Mennucci, 
 G. A. Petersson, H. Nakatsuji, M. Caricato, X. Li, H. P. Hratchian, 
 A. F. Izmaylov, J. Bloino, G. Zheng, J. L. Sonnenberg, M. Hada, 
 M. Ehara, K. Toyota, R. Fukuda, J. Hasegawa, M. Ishida, T. Nakajima, 
 Y. Honda, O. Kitao, H. Nakai, T. Vreven, J. A. Montgomery, Jr., 
 J. E. Peralta, F. Ogliaro, M. Bearpark, J. J. Heyd, E. Brothers, 
 K. N. Kudin, V. N. Staroverov, T. Keith, R. Kobayashi, J. Normand, 
 K. Raghavachari, A. Rendell, J. C. Burant, S. S. Iyengar, J. Tomasi, 
 M. Cossi, N. Rega, J. M. Millam, M. Klene, J. E. Knox, J. B. Cross, 
 V. Bakken, C. Adamo, J. Jaramillo, R. Gomperts, R. E. Stratmann, 
 O. Yazyev, A. J. Austin, R. Cammi, C. Pomelli, J. W. Ochterski, 
 R. L. Martin, K. Morokuma, V. G. Zakrzewski, G. A. Voth, 
 P. Salvador, J. J. Dannenberg, S. Dapprich, A. D. Daniels, 
 O. Farkas, J. B. Foresman, J. V. Ortiz, J. Cioslowski, 
 and D. J. Fox, Gaussian, Inc., Wallingford CT, 2013.
 
 ******************************************
 Gaussian 09:  EM64L-G09RevD.01 24-Apr-2013
                28-Apr-2017 
 ******************************************
 %Mem=256MB
 %NProc=12
 Will use up to   12 processors via shared memory.
 ----------------------------------------------------------------------
 #P HF/6-31G* SCF(Conver=6) NoSymm Test Pop=chelpg IOp(6/33=2) GFInput 
 GFPrint
 ----------------------------------------------------------------------
 1/38=1/1;
 2/12=2,15=1,17=6,18=5,40=1/2;
 3/5=1,6=6,7=1,11=9,16=1,24=110,25=1,30=1/1,2,3;
 4//1;
 5/5=2,6=6,38=5/2;
 6/7=2,8=2,9=2,10=2,15=8,20=3,28=1,33=2/1,2;
 99/5=1,9=1/99;
 Leave Link    1 at Fri Apr 28 12:20:11 2017, MaxMem=    33554432 cpu:         0.6
 (Enter /home/michal/g09/l101.exe)
 ----------------------------------------------
 MEP - Input generated by R.E.D.-III.x MOLECULE
 ----------------------------------------------
 Symbolic Z-matrix:
 Charge =  0 Multiplicity = 1
 C                    -0.96295   2.00367   1.68913 
 H                    -0.98026   1.0241    2.18248 
 C                     0.38925   2.67794   1.97027 
 H                     0.54142   2.76227   3.05079 
 H                     0.33843   3.70584   1.57799 
 C                     1.54951   1.93579   1.33284 
 C                     1.42898   1.62492  -0.16442 
 C                     0.01617   1.01458  -0.42086 
 H                     0.        0.        0. 
 H                    -0.1414    0.90601  -1.49935 
 C                    -1.15161   1.80851   0.1848 
 H                    -1.23837   2.79377  -0.29676 
 H                    -2.09653   1.28512   0. 
 C                     2.61082   1.58921   2.07758 
 H                     2.62015   1.84412   3.1357 
 C                     3.81566   0.85683   1.56136 
 H                     4.73067   1.28612   1.98882 
 C                     3.90392   0.87104   0.02455 
 H                     4.21057   1.8948   -0.23142 
 C                     2.51393   0.57852  -0.60239 
 H                     2.19438  -0.38522  -0.17947 
 C                     2.59537   0.39005  -2.1372 
 H                     2.75409   1.35707  -2.62495 
 H                     1.63322   0.01987  -2.50955 
 C                     3.70598  -0.57401  -2.60216 
 H                     3.47948  -1.59233  -2.256 
 H                     3.70323  -0.60708  -3.69781 
 C                     5.08488  -0.15674  -2.05552 
 C                     4.95535  -0.11515  -0.50543 
 H                     4.6061   -1.11547  -0.21673 
 C                     6.40332   0.        0. 
 H                     6.51098  -0.38579   1.01759 
 H                     6.73042   1.04755   0.0161 
 C                     7.22088  -0.82186  -1.03777 
 H                     8.05419  -0.23068  -1.43084 
 H                     7.66511  -1.71694  -0.58913 
 C                     6.2262   -1.22434  -2.1722 
 H                     5.75256  -2.16284  -1.84675 
 C                     5.50438   1.20945  -2.64533 
 H                     4.85811   2.02243  -2.30398 
 H                     6.52886   1.47893  -2.37576 
 H                     5.44519   1.19308  -3.73762 
 C                     6.93062  -1.60323  -3.50765 
 H                     7.66299  -2.3676   -3.19908 
 C                     7.74306  -0.49547  -4.20807 
 H                     7.10022   0.20229  -4.7534 
 H                     8.43574  -0.93373  -4.93353 
 H                     8.34565   0.0864   -3.50473 
 C                     1.57076   2.95787  -0.94962 
 H                     1.29785   2.8308   -2.00138 
 H                     0.92341   3.73804  -0.54222 
 H                     2.59666   3.33645  -0.90564 
 O                     3.78969  -0.54017   1.96526 
 O                     3.95897  -0.58492   3.40984 
 H                     3.06537  -0.8412    3.69231 
 O                    -2.0462    2.71668   2.29137 
 H                    -2.10823   3.5909    1.88143 
 C                     5.97503  -2.30389  -4.50047 
 H                     5.33736  -3.00456  -3.94288 
 H                     5.29913  -1.5591   -4.93921 
 C                     6.68091  -3.08285  -5.62322 
 H                     7.22108  -2.39226  -6.28183 
 H                     7.44798  -3.72852  -5.17226 
 C                     5.74537  -3.97269  -6.46209 
 H                     5.27237  -4.70761  -5.79467 
 H                     6.35455  -4.55424  -7.16997 
 C                     4.63526  -3.25554  -7.25962 
 H                     4.01443  -2.68847  -6.55114 
 C                     5.19944  -2.26488  -8.29041 
 H                     5.84834  -2.77996  -9.01075 
 H                     4.39177  -1.78578  -8.85555 
 H                     5.78868  -1.47053  -7.82086 
 C                     3.72466  -4.2866   -7.94555 
 H                     4.28942  -4.88489  -8.67215 
 H                     2.90443  -3.79817  -8.48405 
 H                     3.28384  -4.97729  -7.21751 
 
 NAtoms=     76 NQM=       76 NQMF=       0 NMMI=      0 NMMIF=      0
                NMic=       0 NMicF=      0.
                    Isotopes and Nuclear Properties:
 (Nuclear quadrupole moments (NQMom) in fm**2, nuclear magnetic moments (NMagM)
  in nuclear magnetons)

  Atom         1           2           3           4           5           6           7           8           9          10
 IAtWgt=          12           1          12           1           1          12          12          12           1           1
 AtmWgt=  12.0000000   1.0078250  12.0000000   1.0078250   1.0078250  12.0000000  12.0000000  12.0000000   1.0078250   1.0078250
 NucSpn=           0           1           0           1           1           0           0           0           1           1
 AtZEff=   0.0000000   0.0000000   0.0000000   0.0000000   0.0000000   0.0000000   0.0000000   0.0000000   0.0000000   0.0000000
 NQMom=    0.0000000   0.0000000   0.0000000   0.0000000   0.0000000   0.0000000   0.0000000   0.0000000   0.0000000   0.0000000
 NMagM=    0.0000000   2.7928460   0.0000000   2.7928460   2.7928460   0.0000000   0.0000000   0.0000000   2.7928460   2.7928460
 AtZNuc=   6.0000000   1.0000000   6.0000000   1.0000000   1.0000000   6.0000000   6.0000000   6.0000000   1.0000000   1.0000000

  Atom        11          12          13          14          15          16          17          18          19          20
 IAtWgt=          12           1           1          12           1          12           1          12           1          12
 AtmWgt=  12.0000000   1.0078250   1.0078250  12.0000000   1.0078250  12.0000000   1.0078250  12.0000000   1.0078250  12.0000000
 NucSpn=           0           1           1           0           1           0           1           0           1           0
 AtZEff=   0.0000000   0.0000000   0.0000000   0.0000000   0.0000000   0.0000000   0.0000000   0.0000000   0.0000000   0.0000000
 NQMom=    0.0000000   0.0000000   0.0000000   0.0000000   0.0000000   0.0000000   0.0000000   0.0000000   0.0000000   0.0000000
 NMagM=    0.0000000   2.7928460   2.7928460   0.0000000   2.7928460   0.0000000   2.7928460   0.0000000   2.7928460   0.0000000
 AtZNuc=   6.0000000   1.0000000   1.0000000   6.0000000   1.0000000   6.0000000   1.0000000   6.0000000   1.0000000   6.0000000

  Atom        21          22          23          24          25          26          27          28          29          30
 IAtWgt=           1          12           1           1          12           1           1          12          12           1
 AtmWgt=   1.0078250  12.0000000   1.0078250   1.0078250  12.0000000   1.0078250   1.0078250  12.0000000  12.0000000   1.0078250
 NucSpn=           1           0           1           1           0           1           1           0           0           1
 AtZEff=   0.0000000   0.0000000   0.0000000   0.0000000   0.0000000   0.0000000   0.0000000   0.0000000   0.0000000   0.0000000
 NQMom=    0.0000000   0.0000000   0.0000000   0.0000000   0.0000000   0.0000000   0.0000000   0.0000000   0.0000000   0.0000000
 NMagM=    2.7928460   0.0000000   2.7928460   2.7928460   0.0000000   2.7928460   2.7928460   0.0000000   0.0000000   2.7928460
 AtZNuc=   1.0000000   6.0000000   1.0000000   1.0000000   6.0000000   1.0000000   1.0000000   6.0000000   6.0000000   1.0000000

  Atom        31          32          33          34          35          36          37          38          39          40
 IAtWgt=          12           1           1          12           1           1          12           1          12           1
 AtmWgt=  12.0000000   1.0078250   1.0078250  12.0000000   1.0078250   1.0078250  12.0000000   1.0078250  12.0000000   1.0078250
 NucSpn=           0           1           1           0           1           1           0           1           0           1
 AtZEff=   0.0000000   0.0000000   0.0000000   0.0000000   0.0000000   0.0000000   0.0000000   0.0000000   0.0000000   0.0000000
 NQMom=    0.0000000   0.0000000   0.0000000   0.0000000   0.0000000   0.0000000   0.0000000   0.0000000   0.0000000   0.0000000
 NMagM=    0.0000000   2.7928460   2.7928460   0.0000000   2.7928460   2.7928460   0.0000000   2.7928460   0.0000000   2.7928460
 AtZNuc=   6.0000000   1.0000000   1.0000000   6.0000000   1.0000000   1.0000000   6.0000000   1.0000000   6.0000000   1.0000000

  Atom        41          42          43          44          45          46          47          48          49          50
 IAtWgt=           1           1          12           1          12           1           1           1          12           1
 AtmWgt=   1.0078250   1.0078250  12.0000000   1.0078250  12.0000000   1.0078250   1.0078250   1.0078250  12.0000000   1.0078250
 NucSpn=           1           1           0           1           0           1           1           1           0           1
 AtZEff=   0.0000000   0.0000000   0.0000000   0.0000000   0.0000000   0.0000000   0.0000000   0.0000000   0.0000000   0.0000000
 NQMom=    0.0000000   0.0000000   0.0000000   0.0000000   0.0000000   0.0000000   0.0000000   0.0000000   0.0000000   0.0000000
 NMagM=    2.7928460   2.7928460   0.0000000   2.7928460   0.0000000   2.7928460   2.7928460   2.7928460   0.0000000   2.7928460
 AtZNuc=   1.0000000   1.0000000   6.0000000   1.0000000   6.0000000   1.0000000   1.0000000   1.0000000   6.0000000   1.0000000

  Atom        51          52          53          54          55          56          57          58          59          60
 IAtWgt=           1           1          16          16           1          16           1          12           1           1
 AtmWgt=   1.0078250   1.0078250  15.9949146  15.9949146   1.0078250  15.9949146   1.0078250  12.0000000   1.0078250   1.0078250
 NucSpn=           1           1           0           0           1           0           1           0           1           1
 AtZEff=   0.0000000   0.0000000   0.0000000   0.0000000   0.0000000   0.0000000   0.0000000   0.0000000   0.0000000   0.0000000
 NQMom=    0.0000000   0.0000000   0.0000000   0.0000000   0.0000000   0.0000000   0.0000000   0.0000000   0.0000000   0.0000000
 NMagM=    2.7928460   2.7928460   0.0000000   0.0000000   2.7928460   0.0000000   2.7928460   0.0000000   2.7928460   2.7928460
 AtZNuc=   1.0000000   1.0000000   8.0000000   8.0000000   1.0000000   8.0000000   1.0000000   6.0000000   1.0000000   1.0000000

  Atom        61          62          63          64          65          66          67          68          69          70
 IAtWgt=          12           1           1          12           1           1          12           1          12           1
 AtmWgt=  12.0000000   1.0078250   1.0078250  12.0000000   1.0078250   1.0078250  12.0000000   1.0078250  12.0000000   1.0078250
 NucSpn=           0           1           1           0           1           1           0           1           0           1
 AtZEff=   0.0000000   0.0000000   0.0000000   0.0000000   0.0000000   0.0000000   0.0000000   0.0000000   0.0000000   0.0000000
 NQMom=    0.0000000   0.0000000   0.0000000   0.0000000   0.0000000   0.0000000   0.0000000   0.0000000   0.0000000   0.0000000
 NMagM=    0.0000000   2.7928460   2.7928460   0.0000000   2.7928460   2.7928460   0.0000000   2.7928460   0.0000000   2.7928460
 AtZNuc=   6.0000000   1.0000000   1.0000000   6.0000000   1.0000000   1.0000000   6.0000000   1.0000000   6.0000000   1.0000000

  Atom        71          72          73          74          75          76
 IAtWgt=           1           1          12           1           1           1
 AtmWgt=   1.0078250   1.0078250  12.0000000   1.0078250   1.0078250   1.0078250
 NucSpn=           1           1           0           1           1           1
 AtZEff=   0.0000000   0.0000000   0.0000000   0.0000000   0.0000000   0.0000000
 NQMom=    0.0000000   0.0000000   0.0000000   0.0000000   0.0000000   0.0000000
 NMagM=    2.7928460   2.7928460   0.0000000   2.7928460   2.7928460   2.7928460
 AtZNuc=   1.0000000   1.0000000   6.0000000   1.0000000   1.0000000   1.0000000
 Leave Link  101 at Fri Apr 28 12:20:11 2017, MaxMem=    33554432 cpu:         1.0
 (Enter /home/michal/g09/l202.exe)
 Symmetry turned off by external request.
 Stoichiometry    C27H46O3
 Framework group  C1[X(C27H46O3)]
 Deg. of freedom   222
 Full point group                 C1      NOp   1
                          Input orientation:                          
 ---------------------------------------------------------------------
 Center     Atomic      Atomic             Coordinates (Angstroms)
 Number     Number       Type             X           Y           Z
 ---------------------------------------------------------------------
      1          6           0       -0.962946    2.003665    1.689129
      2          1           0       -0.980255    1.024104    2.182481
      3          6           0        0.389248    2.677945    1.970274
      4          1           0        0.541424    2.762267    3.050794
      5          1           0        0.338430    3.705841    1.577994
      6          6           0        1.549509    1.935789    1.332843
      7          6           0        1.428984    1.624918   -0.164415
      8          6           0        0.016171    1.014583   -0.420856
      9          1           0        0.000000    0.000000    0.000000
     10          1           0       -0.141400    0.906015   -1.499350
     11          6           0       -1.151615    1.808513    0.184802
     12          1           0       -1.238373    2.793768   -0.296762
     13          1           0       -2.096527    1.285115    0.000000
     14          6           0        2.610819    1.589211    2.077578
     15          1           0        2.620149    1.844120    3.135702
     16          6           0        3.815657    0.856827    1.561362
     17          1           0        4.730673    1.286120    1.988818
     18          6           0        3.903921    0.871041    0.024546
     19          1           0        4.210569    1.894803   -0.231423
     20          6           0        2.513927    0.578518   -0.602392
     21          1           0        2.194382   -0.385223   -0.179475
     22          6           0        2.595370    0.390049   -2.137196
     23          1           0        2.754094    1.357065   -2.624953
     24          1           0        1.633218    0.019872   -2.509548
     25          6           0        3.705976   -0.574012   -2.602160
     26          1           0        3.479481   -1.592326   -2.255998
     27          1           0        3.703227   -0.607079   -3.697807
     28          6           0        5.084877   -0.156741   -2.055524
     29          6           0        4.955349   -0.115150   -0.505435
     30          1           0        4.606099   -1.115466   -0.216735
     31          6           0        6.403317    0.000000    0.000000
     32          1           0        6.510984   -0.385785    1.017586
     33          1           0        6.730420    1.047546    0.016095
     34          6           0        7.220880   -0.821859   -1.037766
     35          1           0        8.054191   -0.230682   -1.430842
     36          1           0        7.665110   -1.716945   -0.589134
     37          6           0        6.226196   -1.224337   -2.172198
     38          1           0        5.752565   -2.162835   -1.846748
     39          6           0        5.504377    1.209452   -2.645328
     40          1           0        4.858108    2.022430   -2.303978
     41          1           0        6.528860    1.478926   -2.375760
     42          1           0        5.445187    1.193079   -3.737615
     43          6           0        6.930619   -1.603229   -3.507651
     44          1           0        7.662985   -2.367601   -3.199078
     45          6           0        7.743062   -0.495471   -4.208074
     46          1           0        7.100216    0.202288   -4.753401
     47          1           0        8.435736   -0.933729   -4.933532
     48          1           0        8.345654    0.086396   -3.504726
     49          6           0        1.570764    2.957866   -0.949622
     50          1           0        1.297854    2.830800   -2.001384
     51          1           0        0.923410    3.738041   -0.542222
     52          1           0        2.596659    3.336450   -0.905641
     53          8           0        3.789690   -0.540173    1.965264
     54          8           0        3.958968   -0.584920    3.409836
     55          1           0        3.065374   -0.841203    3.692310
     56          8           0       -2.046197    2.716681    2.291369
     57          1           0       -2.108226    3.590904    1.881427
     58          6           0        5.975031   -2.303890   -4.500468
     59          1           0        5.337360   -3.004555   -3.942877
     60          1           0        5.299127   -1.559104   -4.939206
     61          6           0        6.680908   -3.082848   -5.623219
     62          1           0        7.221081   -2.392259   -6.281826
     63          1           0        7.447982   -3.728524   -5.172261
     64          6           0        5.745371   -3.972692   -6.462092
     65          1           0        5.272365   -4.707606   -5.794667
     66          1           0        6.354553   -4.554245   -7.169972
     67          6           0        4.635265   -3.255540   -7.259615
     68          1           0        4.014427   -2.688473   -6.551139
     69          6           0        5.199439   -2.264879   -8.290411
     70          1           0        5.848336   -2.779959   -9.010752
     71          1           0        4.391770   -1.785775   -8.855547
     72          1           0        5.788680   -1.470532   -7.820861
     73          6           0        3.724658   -4.286597   -7.945554
     74          1           0        4.289419   -4.884886   -8.672154
     75          1           0        2.904430   -3.798168   -8.484049
     76          1           0        3.283841   -4.977288   -7.217508
 ---------------------------------------------------------------------
 Rotational constants (GHZ):      0.2435407      0.0683607      0.0586219
 Leave Link  202 at Fri Apr 28 12:20:11 2017, MaxMem=    33554432 cpu:         0.0
 (Enter /home/michal/g09/l301.exe)
 Standard basis: 6-31G(d) (6D, 7F)
 Ernie: Thresh=  0.10000D-02 Tol=  0.10000D-05 Strict=F.
 AO basis set in the form of general basis input (Overlap normalization):
      1 0
 S   6 1.00       0.000000000000
      0.3047524880D+04  0.1834737132D-02
      0.4573695180D+03  0.1403732281D-01
      0.1039486850D+03  0.6884262226D-01
      0.2921015530D+02  0.2321844432D+00
      0.9286662960D+01  0.4679413484D+00
      0.3163926960D+01  0.3623119853D+00
 SP   3 1.00       0.000000000000
      0.7868272350D+01 -0.1193324198D+00  0.6899906659D-01
      0.1881288540D+01 -0.1608541517D+00  0.3164239610D+00
      0.5442492580D+00  0.1143456438D+01  0.7443082909D+00
 SP   1 1.00       0.000000000000
      0.1687144782D+00  0.1000000000D+01  0.1000000000D+01
 D   1 1.00       0.000000000000
      0.8000000000D+00  0.1000000000D+01
 ****
      2 0
 S   3 1.00       0.000000000000
      0.1873113696D+02  0.3349460434D-01
      0.2825394365D+01  0.2347269535D+00
      0.6401216923D+00  0.8137573261D+00
 S   1 1.00       0.000000000000
      0.1612777588D+00  0.1000000000D+01
 ****
      3 0
 S   6 1.00       0.000000000000
      0.3047524880D+04  0.1834737132D-02
      0.4573695180D+03  0.1403732281D-01
      0.1039486850D+03  0.6884262226D-01
      0.2921015530D+02  0.2321844432D+00
      0.9286662960D+01  0.4679413484D+00
      0.3163926960D+01  0.3623119853D+00
 SP   3 1.00       0.000000000000
      0.7868272350D+01 -0.1193324198D+00  0.6899906659D-01
      0.1881288540D+01 -0.1608541517D+00  0.3164239610D+00
      0.5442492580D+00  0.1143456438D+01  0.7443082909D+00
 SP   1 1.00       0.000000000000
      0.1687144782D+00  0.1000000000D+01  0.1000000000D+01
 D   1 1.00       0.000000000000
      0.8000000000D+00  0.1000000000D+01
 ****
      4 0
 S   3 1.00       0.000000000000
      0.1873113696D+02  0.3349460434D-01
      0.2825394365D+01  0.2347269535D+00
      0.6401216923D+00  0.8137573261D+00
 S   1 1.00       0.000000000000
      0.1612777588D+00  0.1000000000D+01
 ****
      5 0
 S   3 1.00       0.000000000000
      0.1873113696D+02  0.3349460434D-01
      0.2825394365D+01  0.2347269535D+00
      0.6401216923D+00  0.8137573261D+00
 S   1 1.00       0.000000000000
      0.1612777588D+00  0.1000000000D+01
 ****
      6 0
 S   6 1.00       0.000000000000
      0.3047524880D+04  0.1834737132D-02
      0.4573695180D+03  0.1403732281D-01
      0.1039486850D+03  0.6884262226D-01
      0.2921015530D+02  0.2321844432D+00
      0.9286662960D+01  0.4679413484D+00
      0.3163926960D+01  0.3623119853D+00
 SP   3 1.00       0.000000000000
      0.7868272350D+01 -0.1193324198D+00  0.6899906659D-01
      0.1881288540D+01 -0.1608541517D+00  0.3164239610D+00
      0.5442492580D+00  0.1143456438D+01  0.7443082909D+00
 SP   1 1.00       0.000000000000
      0.1687144782D+00  0.1000000000D+01  0.1000000000D+01
 D   1 1.00       0.000000000000
      0.8000000000D+00  0.1000000000D+01
 ****
      7 0
 S   6 1.00       0.000000000000
      0.3047524880D+04  0.1834737132D-02
      0.4573695180D+03  0.1403732281D-01
      0.1039486850D+03  0.6884262226D-01
      0.2921015530D+02  0.2321844432D+00
      0.9286662960D+01  0.4679413484D+00
      0.3163926960D+01  0.3623119853D+00
 SP   3 1.00       0.000000000000
      0.7868272350D+01 -0.1193324198D+00  0.6899906659D-01
      0.1881288540D+01 -0.1608541517D+00  0.3164239610D+00
      0.5442492580D+00  0.1143456438D+01  0.7443082909D+00
 SP   1 1.00       0.000000000000
      0.1687144782D+00  0.1000000000D+01  0.1000000000D+01
 D   1 1.00       0.000000000000
      0.8000000000D+00  0.1000000000D+01
 ****
      8 0
 S   6 1.00       0.000000000000
      0.3047524880D+04  0.1834737132D-02
      0.4573695180D+03  0.1403732281D-01
      0.1039486850D+03  0.6884262226D-01
      0.2921015530D+02  0.2321844432D+00
      0.9286662960D+01  0.4679413484D+00
      0.3163926960D+01  0.3623119853D+00
 SP   3 1.00       0.000000000000
      0.7868272350D+01 -0.1193324198D+00  0.6899906659D-01
      0.1881288540D+01 -0.1608541517D+00  0.3164239610D+00
      0.5442492580D+00  0.1143456438D+01  0.7443082909D+00
 SP   1 1.00       0.000000000000
      0.1687144782D+00  0.1000000000D+01  0.1000000000D+01
 D   1 1.00       0.000000000000
      0.8000000000D+00  0.1000000000D+01
 ****
      9 0
 S   3 1.00       0.000000000000
      0.1873113696D+02  0.3349460434D-01
      0.2825394365D+01  0.2347269535D+00
      0.6401216923D+00  0.8137573261D+00
 S   1 1.00       0.000000000000
      0.1612777588D+00  0.1000000000D+01
 ****
     10 0
 S   3 1.00       0.000000000000
      0.1873113696D+02  0.3349460434D-01
      0.2825394365D+01  0.2347269535D+00
      0.6401216923D+00  0.8137573261D+00
 S   1 1.00       0.000000000000
      0.1612777588D+00  0.1000000000D+01
 ****
     11 0
 S   6 1.00       0.000000000000
      0.3047524880D+04  0.1834737132D-02
      0.4573695180D+03  0.1403732281D-01
      0.1039486850D+03  0.6884262226D-01
      0.2921015530D+02  0.2321844432D+00
      0.9286662960D+01  0.4679413484D+00
      0.3163926960D+01  0.3623119853D+00
 SP   3 1.00       0.000000000000
      0.7868272350D+01 -0.1193324198D+00  0.6899906659D-01
      0.1881288540D+01 -0.1608541517D+00  0.3164239610D+00
      0.5442492580D+00  0.1143456438D+01  0.7443082909D+00
 SP   1 1.00       0.000000000000
      0.1687144782D+00  0.1000000000D+01  0.1000000000D+01
 D   1 1.00       0.000000000000
      0.8000000000D+00  0.1000000000D+01
 ****
     12 0
 S   3 1.00       0.000000000000
      0.1873113696D+02  0.3349460434D-01
      0.2825394365D+01  0.2347269535D+00
      0.6401216923D+00  0.8137573261D+00
 S   1 1.00       0.000000000000
      0.1612777588D+00  0.1000000000D+01
 ****
     13 0
 S   3 1.00       0.000000000000
      0.1873113696D+02  0.3349460434D-01
      0.2825394365D+01  0.2347269535D+00
      0.6401216923D+00  0.8137573261D+00
 S   1 1.00       0.000000000000
      0.1612777588D+00  0.1000000000D+01
 ****
     14 0
 S   6 1.00       0.000000000000
      0.3047524880D+04  0.1834737132D-02
      0.4573695180D+03  0.1403732281D-01
      0.1039486850D+03  0.6884262226D-01
      0.2921015530D+02  0.2321844432D+00
      0.9286662960D+01  0.4679413484D+00
      0.3163926960D+01  0.3623119853D+00
 SP   3 1.00       0.000000000000
      0.7868272350D+01 -0.1193324198D+00  0.6899906659D-01
      0.1881288540D+01 -0.1608541517D+00  0.3164239610D+00
      0.5442492580D+00  0.1143456438D+01  0.7443082909D+00
 SP   1 1.00       0.000000000000
      0.1687144782D+00  0.1000000000D+01  0.1000000000D+01
 D   1 1.00       0.000000000000
      0.8000000000D+00  0.1000000000D+01
 ****
     15 0
 S   3 1.00       0.000000000000
      0.1873113696D+02  0.3349460434D-01
      0.2825394365D+01  0.2347269535D+00
      0.6401216923D+00  0.8137573261D+00
 S   1 1.00       0.000000000000
      0.1612777588D+00  0.1000000000D+01
 ****
     16 0
 S   6 1.00       0.000000000000
      0.3047524880D+04  0.1834737132D-02
      0.4573695180D+03  0.1403732281D-01
      0.1039486850D+03  0.6884262226D-01
      0.2921015530D+02  0.2321844432D+00
      0.9286662960D+01  0.4679413484D+00
      0.3163926960D+01  0.3623119853D+00
 SP   3 1.00       0.000000000000
      0.7868272350D+01 -0.1193324198D+00  0.6899906659D-01
      0.1881288540D+01 -0.1608541517D+00  0.3164239610D+00
      0.5442492580D+00  0.1143456438D+01  0.7443082909D+00
 SP   1 1.00       0.000000000000
      0.1687144782D+00  0.1000000000D+01  0.1000000000D+01
 D   1 1.00       0.000000000000
      0.8000000000D+00  0.1000000000D+01
 ****
     17 0
 S   3 1.00       0.000000000000
      0.1873113696D+02  0.3349460434D-01
      0.2825394365D+01  0.2347269535D+00
      0.6401216923D+00  0.8137573261D+00
 S   1 1.00       0.000000000000
      0.1612777588D+00  0.1000000000D+01
 ****
     18 0
 S   6 1.00       0.000000000000
      0.3047524880D+04  0.1834737132D-02
      0.4573695180D+03  0.1403732281D-01
      0.1039486850D+03  0.6884262226D-01
      0.2921015530D+02  0.2321844432D+00
      0.9286662960D+01  0.4679413484D+00
      0.3163926960D+01  0.3623119853D+00
 SP   3 1.00       0.000000000000
      0.7868272350D+01 -0.1193324198D+00  0.6899906659D-01
      0.1881288540D+01 -0.1608541517D+00  0.3164239610D+00
      0.5442492580D+00  0.1143456438D+01  0.7443082909D+00
 SP   1 1.00       0.000000000000
      0.1687144782D+00  0.1000000000D+01  0.1000000000D+01
 D   1 1.00       0.000000000000
      0.8000000000D+00  0.1000000000D+01
 ****
     19 0
 S   3 1.00       0.000000000000
      0.1873113696D+02  0.3349460434D-01
      0.2825394365D+01  0.2347269535D+00
      0.6401216923D+00  0.8137573261D+00
 S   1 1.00       0.000000000000
      0.1612777588D+00  0.1000000000D+01
 ****
     20 0
 S   6 1.00       0.000000000000
      0.3047524880D+04  0.1834737132D-02
      0.4573695180D+03  0.1403732281D-01
      0.1039486850D+03  0.6884262226D-01
      0.2921015530D+02  0.2321844432D+00
      0.9286662960D+01  0.4679413484D+00
      0.3163926960D+01  0.3623119853D+00
 SP   3 1.00       0.000000000000
      0.7868272350D+01 -0.1193324198D+00  0.6899906659D-01
      0.1881288540D+01 -0.1608541517D+00  0.3164239610D+00
      0.5442492580D+00  0.1143456438D+01  0.7443082909D+00
 SP   1 1.00       0.000000000000
      0.1687144782D+00  0.1000000000D+01  0.1000000000D+01
 D   1 1.00       0.000000000000
      0.8000000000D+00  0.1000000000D+01
 ****
     21 0
 S   3 1.00       0.000000000000
      0.1873113696D+02  0.3349460434D-01
      0.2825394365D+01  0.2347269535D+00
      0.6401216923D+00  0.8137573261D+00
 S   1 1.00       0.000000000000
      0.1612777588D+00  0.1000000000D+01
 ****
     22 0
 S   6 1.00       0.000000000000
      0.3047524880D+04  0.1834737132D-02
      0.4573695180D+03  0.1403732281D-01
      0.1039486850D+03  0.6884262226D-01
      0.2921015530D+02  0.2321844432D+00
      0.9286662960D+01  0.4679413484D+00
      0.3163926960D+01  0.3623119853D+00
 SP   3 1.00       0.000000000000
      0.7868272350D+01 -0.1193324198D+00  0.6899906659D-01
      0.1881288540D+01 -0.1608541517D+00  0.3164239610D+00
      0.5442492580D+00  0.1143456438D+01  0.7443082909D+00
 SP   1 1.00       0.000000000000
      0.1687144782D+00  0.1000000000D+01  0.1000000000D+01
 D   1 1.00       0.000000000000
      0.8000000000D+00  0.1000000000D+01
 ****
     23 0
 S   3 1.00       0.000000000000
      0.1873113696D+02  0.3349460434D-01
      0.2825394365D+01  0.2347269535D+00
      0.6401216923D+00  0.8137573261D+00
 S   1 1.00       0.000000000000
      0.1612777588D+00  0.1000000000D+01
 ****
     24 0
 S   3 1.00       0.000000000000
      0.1873113696D+02  0.3349460434D-01
      0.2825394365D+01  0.2347269535D+00
      0.6401216923D+00  0.8137573261D+00
 S   1 1.00       0.000000000000
      0.1612777588D+00  0.1000000000D+01
 ****
     25 0
 S   6 1.00       0.000000000000
      0.3047524880D+04  0.1834737132D-02
      0.4573695180D+03  0.1403732281D-01
      0.1039486850D+03  0.6884262226D-01
      0.2921015530D+02  0.2321844432D+00
      0.9286662960D+01  0.4679413484D+00
      0.3163926960D+01  0.3623119853D+00
 SP   3 1.00       0.000000000000
      0.7868272350D+01 -0.1193324198D+00  0.6899906659D-01
      0.1881288540D+01 -0.1608541517D+00  0.3164239610D+00
      0.5442492580D+00  0.1143456438D+01  0.7443082909D+00
 SP   1 1.00       0.000000000000
      0.1687144782D+00  0.1000000000D+01  0.1000000000D+01
 D   1 1.00       0.000000000000
      0.8000000000D+00  0.1000000000D+01
 ****
     26 0
 S   3 1.00       0.000000000000
      0.1873113696D+02  0.3349460434D-01
      0.2825394365D+01  0.2347269535D+00
      0.6401216923D+00  0.8137573261D+00
 S   1 1.00       0.000000000000
      0.1612777588D+00  0.1000000000D+01
 ****
     27 0
 S   3 1.00       0.000000000000
      0.1873113696D+02  0.3349460434D-01
      0.2825394365D+01  0.2347269535D+00
      0.6401216923D+00  0.8137573261D+00
 S   1 1.00       0.000000000000
      0.1612777588D+00  0.1000000000D+01
 ****
     28 0
 S   6 1.00       0.000000000000
      0.3047524880D+04  0.1834737132D-02
      0.4573695180D+03  0.1403732281D-01
      0.1039486850D+03  0.6884262226D-01
      0.2921015530D+02  0.2321844432D+00
      0.9286662960D+01  0.4679413484D+00
      0.3163926960D+01  0.3623119853D+00
 SP   3 1.00       0.000000000000
      0.7868272350D+01 -0.1193324198D+00  0.6899906659D-01
      0.1881288540D+01 -0.1608541517D+00  0.3164239610D+00
      0.5442492580D+00  0.1143456438D+01  0.7443082909D+00
 SP   1 1.00       0.000000000000
      0.1687144782D+00  0.1000000000D+01  0.1000000000D+01
 D   1 1.00       0.000000000000
      0.8000000000D+00  0.1000000000D+01
 ****
     29 0
 S   6 1.00       0.000000000000
      0.3047524880D+04  0.1834737132D-02
      0.4573695180D+03  0.1403732281D-01
      0.1039486850D+03  0.6884262226D-01
      0.2921015530D+02  0.2321844432D+00
      0.9286662960D+01  0.4679413484D+00
      0.3163926960D+01  0.3623119853D+00
 SP   3 1.00       0.000000000000
      0.7868272350D+01 -0.1193324198D+00  0.6899906659D-01
      0.1881288540D+01 -0.1608541517D+00  0.3164239610D+00
      0.5442492580D+00  0.1143456438D+01  0.7443082909D+00
 SP   1 1.00       0.000000000000
      0.1687144782D+00  0.1000000000D+01  0.1000000000D+01
 D   1 1.00       0.000000000000
      0.8000000000D+00  0.1000000000D+01
 ****
     30 0
 S   3 1.00       0.000000000000
      0.1873113696D+02  0.3349460434D-01
      0.2825394365D+01  0.2347269535D+00
      0.6401216923D+00  0.8137573261D+00
 S   1 1.00       0.000000000000
      0.1612777588D+00  0.1000000000D+01
 ****
     31 0
 S   6 1.00       0.000000000000
      0.3047524880D+04  0.1834737132D-02
      0.4573695180D+03  0.1403732281D-01
      0.1039486850D+03  0.6884262226D-01
      0.2921015530D+02  0.2321844432D+00
      0.9286662960D+01  0.4679413484D+00
      0.3163926960D+01  0.3623119853D+00
 SP   3 1.00       0.000000000000
      0.7868272350D+01 -0.1193324198D+00  0.6899906659D-01
      0.1881288540D+01 -0.1608541517D+00  0.3164239610D+00
      0.5442492580D+00  0.1143456438D+01  0.7443082909D+00
 SP   1 1.00       0.000000000000
      0.1687144782D+00  0.1000000000D+01  0.1000000000D+01
 D   1 1.00       0.000000000000
      0.8000000000D+00  0.1000000000D+01
 ****
     32 0
 S   3 1.00       0.000000000000
      0.1873113696D+02  0.3349460434D-01
      0.2825394365D+01  0.2347269535D+00
      0.6401216923D+00  0.8137573261D+00
 S   1 1.00       0.000000000000
      0.1612777588D+00  0.1000000000D+01
 ****
     33 0
 S   3 1.00       0.000000000000
      0.1873113696D+02  0.3349460434D-01
      0.2825394365D+01  0.2347269535D+00
      0.6401216923D+00  0.8137573261D+00
 S   1 1.00       0.000000000000
      0.1612777588D+00  0.1000000000D+01
 ****
     34 0
 S   6 1.00       0.000000000000
      0.3047524880D+04  0.1834737132D-02
      0.4573695180D+03  0.1403732281D-01
      0.1039486850D+03  0.6884262226D-01
      0.2921015530D+02  0.2321844432D+00
      0.9286662960D+01  0.4679413484D+00
      0.3163926960D+01  0.3623119853D+00
 SP   3 1.00       0.000000000000
      0.7868272350D+01 -0.1193324198D+00  0.6899906659D-01
      0.1881288540D+01 -0.1608541517D+00  0.3164239610D+00
      0.5442492580D+00  0.1143456438D+01  0.7443082909D+00
 SP   1 1.00       0.000000000000
      0.1687144782D+00  0.1000000000D+01  0.1000000000D+01
 D   1 1.00       0.000000000000
      0.8000000000D+00  0.1000000000D+01
 ****
     35 0
 S   3 1.00       0.000000000000
      0.1873113696D+02  0.3349460434D-01
      0.2825394365D+01  0.2347269535D+00
      0.6401216923D+00  0.8137573261D+00
 S   1 1.00       0.000000000000
      0.1612777588D+00  0.1000000000D+01
 ****
     36 0
 S   3 1.00       0.000000000000
      0.1873113696D+02  0.3349460434D-01
      0.2825394365D+01  0.2347269535D+00
      0.6401216923D+00  0.8137573261D+00
 S   1 1.00       0.000000000000
      0.1612777588D+00  0.1000000000D+01
 ****
     37 0
 S   6 1.00       0.000000000000
      0.3047524880D+04  0.1834737132D-02
      0.4573695180D+03  0.1403732281D-01
      0.1039486850D+03  0.6884262226D-01
      0.2921015530D+02  0.2321844432D+00
      0.9286662960D+01  0.4679413484D+00
      0.3163926960D+01  0.3623119853D+00
 SP   3 1.00       0.000000000000
      0.7868272350D+01 -0.1193324198D+00  0.6899906659D-01
      0.1881288540D+01 -0.1608541517D+00  0.3164239610D+00
      0.5442492580D+00  0.1143456438D+01  0.7443082909D+00
 SP   1 1.00       0.000000000000
      0.1687144782D+00  0.1000000000D+01  0.1000000000D+01
 D   1 1.00       0.000000000000
      0.8000000000D+00  0.1000000000D+01
 ****
     38 0
 S   3 1.00       0.000000000000
      0.1873113696D+02  0.3349460434D-01
      0.2825394365D+01  0.2347269535D+00
      0.6401216923D+00  0.8137573261D+00
 S   1 1.00       0.000000000000
      0.1612777588D+00  0.1000000000D+01
 ****
     39 0
 S   6 1.00       0.000000000000
      0.3047524880D+04  0.1834737132D-02
      0.4573695180D+03  0.1403732281D-01
      0.1039486850D+03  0.6884262226D-01
      0.2921015530D+02  0.2321844432D+00
      0.9286662960D+01  0.4679413484D+00
      0.3163926960D+01  0.3623119853D+00
 SP   3 1.00       0.000000000000
      0.7868272350D+01 -0.1193324198D+00  0.6899906659D-01
      0.1881288540D+01 -0.1608541517D+00  0.3164239610D+00
      0.5442492580D+00  0.1143456438D+01  0.7443082909D+00
 SP   1 1.00       0.000000000000
      0.1687144782D+00  0.1000000000D+01  0.1000000000D+01
 D   1 1.00       0.000000000000
      0.8000000000D+00  0.1000000000D+01
 ****
     40 0
 S   3 1.00       0.000000000000
      0.1873113696D+02  0.3349460434D-01
      0.2825394365D+01  0.2347269535D+00
      0.6401216923D+00  0.8137573261D+00
 S   1 1.00       0.000000000000
      0.1612777588D+00  0.1000000000D+01
 ****
     41 0
 S   3 1.00       0.000000000000
      0.1873113696D+02  0.3349460434D-01
      0.2825394365D+01  0.2347269535D+00
      0.6401216923D+00  0.8137573261D+00
 S   1 1.00       0.000000000000
      0.1612777588D+00  0.1000000000D+01
 ****
     42 0
 S   3 1.00       0.000000000000
      0.1873113696D+02  0.3349460434D-01
      0.2825394365D+01  0.2347269535D+00
      0.6401216923D+00  0.8137573261D+00
 S   1 1.00       0.000000000000
      0.1612777588D+00  0.1000000000D+01
 ****
     43 0
 S   6 1.00       0.000000000000
      0.3047524880D+04  0.1834737132D-02
      0.4573695180D+03  0.1403732281D-01
      0.1039486850D+03  0.6884262226D-01
      0.2921015530D+02  0.2321844432D+00
      0.9286662960D+01  0.4679413484D+00
      0.3163926960D+01  0.3623119853D+00
 SP   3 1.00       0.000000000000
      0.7868272350D+01 -0.1193324198D+00  0.6899906659D-01
      0.1881288540D+01 -0.1608541517D+00  0.3164239610D+00
      0.5442492580D+00  0.1143456438D+01  0.7443082909D+00
 SP   1 1.00       0.000000000000
      0.1687144782D+00  0.1000000000D+01  0.1000000000D+01
 D   1 1.00       0.000000000000
      0.8000000000D+00  0.1000000000D+01
 ****
     44 0
 S   3 1.00       0.000000000000
      0.1873113696D+02  0.3349460434D-01
      0.2825394365D+01  0.2347269535D+00
      0.6401216923D+00  0.8137573261D+00
 S   1 1.00       0.000000000000
      0.1612777588D+00  0.1000000000D+01
 ****
     45 0
 S   6 1.00       0.000000000000
      0.3047524880D+04  0.1834737132D-02
      0.4573695180D+03  0.1403732281D-01
      0.1039486850D+03  0.6884262226D-01
      0.2921015530D+02  0.2321844432D+00
      0.9286662960D+01  0.4679413484D+00
      0.3163926960D+01  0.3623119853D+00
 SP   3 1.00       0.000000000000
      0.7868272350D+01 -0.1193324198D+00  0.6899906659D-01
      0.1881288540D+01 -0.1608541517D+00  0.3164239610D+00
      0.5442492580D+00  0.1143456438D+01  0.7443082909D+00
 SP   1 1.00       0.000000000000
      0.1687144782D+00  0.1000000000D+01  0.1000000000D+01
 D   1 1.00       0.000000000000
      0.8000000000D+00  0.1000000000D+01
 ****
     46 0
 S   3 1.00       0.000000000000
      0.1873113696D+02  0.3349460434D-01
      0.2825394365D+01  0.2347269535D+00
      0.6401216923D+00  0.8137573261D+00
 S   1 1.00       0.000000000000
      0.1612777588D+00  0.1000000000D+01
 ****
     47 0
 S   3 1.00       0.000000000000
      0.1873113696D+02  0.3349460434D-01
      0.2825394365D+01  0.2347269535D+00
      0.6401216923D+00  0.8137573261D+00
 S   1 1.00       0.000000000000
      0.1612777588D+00  0.1000000000D+01
 ****
     48 0
 S   3 1.00       0.000000000000
      0.1873113696D+02  0.3349460434D-01
      0.2825394365D+01  0.2347269535D+00
      0.6401216923D+00  0.8137573261D+00
 S   1 1.00       0.000000000000
      0.1612777588D+00  0.1000000000D+01
 ****
     49 0
 S   6 1.00       0.000000000000
      0.3047524880D+04  0.1834737132D-02
      0.4573695180D+03  0.1403732281D-01
      0.1039486850D+03  0.6884262226D-01
      0.2921015530D+02  0.2321844432D+00
      0.9286662960D+01  0.4679413484D+00
      0.3163926960D+01  0.3623119853D+00
 SP   3 1.00       0.000000000000
      0.7868272350D+01 -0.1193324198D+00  0.6899906659D-01
      0.1881288540D+01 -0.1608541517D+00  0.3164239610D+00
      0.5442492580D+00  0.1143456438D+01  0.7443082909D+00
 SP   1 1.00       0.000000000000
      0.1687144782D+00  0.1000000000D+01  0.1000000000D+01
 D   1 1.00       0.000000000000
      0.8000000000D+00  0.1000000000D+01
 ****
     50 0
 S   3 1.00       0.000000000000
      0.1873113696D+02  0.3349460434D-01
      0.2825394365D+01  0.2347269535D+00
      0.6401216923D+00  0.8137573261D+00
 S   1 1.00       0.000000000000
      0.1612777588D+00  0.1000000000D+01
 ****
     51 0
 S   3 1.00       0.000000000000
      0.1873113696D+02  0.3349460434D-01
      0.2825394365D+01  0.2347269535D+00
      0.6401216923D+00  0.8137573261D+00
 S   1 1.00       0.000000000000
      0.1612777588D+00  0.1000000000D+01
 ****
     52 0
 S   3 1.00       0.000000000000
      0.1873113696D+02  0.3349460434D-01
      0.2825394365D+01  0.2347269535D+00
      0.6401216923D+00  0.8137573261D+00
 S   1 1.00       0.000000000000
      0.1612777588D+00  0.1000000000D+01
 ****
     53 0
 S   6 1.00       0.000000000000
      0.5484671660D+04  0.1831074430D-02
      0.8252349460D+03  0.1395017220D-01
      0.1880469580D+03  0.6844507810D-01
      0.5296450000D+02  0.2327143360D+00
      0.1689757040D+02  0.4701928980D+00
      0.5799635340D+01  0.3585208530D+00
 SP   3 1.00       0.000000000000
      0.1553961625D+02 -0.1107775495D+00  0.7087426823D-01
      0.3599933586D+01 -0.1480262627D+00  0.3397528391D+00
      0.1013761750D+01  0.1130767015D+01  0.7271585773D+00
 SP   1 1.00       0.000000000000
      0.2700058226D+00  0.1000000000D+01  0.1000000000D+01
 D   1 1.00       0.000000000000
      0.8000000000D+00  0.1000000000D+01
 ****
     54 0
 S   6 1.00       0.000000000000
      0.5484671660D+04  0.1831074430D-02
      0.8252349460D+03  0.1395017220D-01
      0.1880469580D+03  0.6844507810D-01
      0.5296450000D+02  0.2327143360D+00
      0.1689757040D+02  0.4701928980D+00
      0.5799635340D+01  0.3585208530D+00
 SP   3 1.00       0.000000000000
      0.1553961625D+02 -0.1107775495D+00  0.7087426823D-01
      0.3599933586D+01 -0.1480262627D+00  0.3397528391D+00
      0.1013761750D+01  0.1130767015D+01  0.7271585773D+00
 SP   1 1.00       0.000000000000
      0.2700058226D+00  0.1000000000D+01  0.1000000000D+01
 D   1 1.00       0.000000000000
      0.8000000000D+00  0.1000000000D+01
 ****
     55 0
 S   3 1.00       0.000000000000
      0.1873113696D+02  0.3349460434D-01
      0.2825394365D+01  0.2347269535D+00
      0.6401216923D+00  0.8137573261D+00
 S   1 1.00       0.000000000000
      0.1612777588D+00  0.1000000000D+01
 ****
     56 0
 S   6 1.00       0.000000000000
      0.5484671660D+04  0.1831074430D-02
      0.8252349460D+03  0.1395017220D-01
      0.1880469580D+03  0.6844507810D-01
      0.5296450000D+02  0.2327143360D+00
      0.1689757040D+02  0.4701928980D+00
      0.5799635340D+01  0.3585208530D+00
 SP   3 1.00       0.000000000000
      0.1553961625D+02 -0.1107775495D+00  0.7087426823D-01
      0.3599933586D+01 -0.1480262627D+00  0.3397528391D+00
      0.1013761750D+01  0.1130767015D+01  0.7271585773D+00
 SP   1 1.00       0.000000000000
      0.2700058226D+00  0.1000000000D+01  0.1000000000D+01
 D   1 1.00       0.000000000000
      0.8000000000D+00  0.1000000000D+01
 ****
     57 0
 S   3 1.00       0.000000000000
      0.1873113696D+02  0.3349460434D-01
      0.2825394365D+01  0.2347269535D+00
      0.6401216923D+00  0.8137573261D+00
 S   1 1.00       0.000000000000
      0.1612777588D+00  0.1000000000D+01
 ****
     58 0
 S   6 1.00       0.000000000000
      0.3047524880D+04  0.1834737132D-02
      0.4573695180D+03  0.1403732281D-01
      0.1039486850D+03  0.6884262226D-01
      0.2921015530D+02  0.2321844432D+00
      0.9286662960D+01  0.4679413484D+00
      0.3163926960D+01  0.3623119853D+00
 SP   3 1.00       0.000000000000
      0.7868272350D+01 -0.1193324198D+00  0.6899906659D-01
      0.1881288540D+01 -0.1608541517D+00  0.3164239610D+00
      0.5442492580D+00  0.1143456438D+01  0.7443082909D+00
 SP   1 1.00       0.000000000000
      0.1687144782D+00  0.1000000000D+01  0.1000000000D+01
 D   1 1.00       0.000000000000
      0.8000000000D+00  0.1000000000D+01
 ****
     59 0
 S   3 1.00       0.000000000000
      0.1873113696D+02  0.3349460434D-01
      0.2825394365D+01  0.2347269535D+00
      0.6401216923D+00  0.8137573261D+00
 S   1 1.00       0.000000000000
      0.1612777588D+00  0.1000000000D+01
 ****
     60 0
 S   3 1.00       0.000000000000
      0.1873113696D+02  0.3349460434D-01
      0.2825394365D+01  0.2347269535D+00
      0.6401216923D+00  0.8137573261D+00
 S   1 1.00       0.000000000000
      0.1612777588D+00  0.1000000000D+01
 ****
     61 0
 S   6 1.00       0.000000000000
      0.3047524880D+04  0.1834737132D-02
      0.4573695180D+03  0.1403732281D-01
      0.1039486850D+03  0.6884262226D-01
      0.2921015530D+02  0.2321844432D+00
      0.9286662960D+01  0.4679413484D+00
      0.3163926960D+01  0.3623119853D+00
 SP   3 1.00       0.000000000000
      0.7868272350D+01 -0.1193324198D+00  0.6899906659D-01
      0.1881288540D+01 -0.1608541517D+00  0.3164239610D+00
      0.5442492580D+00  0.1143456438D+01  0.7443082909D+00
 SP   1 1.00       0.000000000000
      0.1687144782D+00  0.1000000000D+01  0.1000000000D+01
 D   1 1.00       0.000000000000
      0.8000000000D+00  0.1000000000D+01
 ****
     62 0
 S   3 1.00       0.000000000000
      0.1873113696D+02  0.3349460434D-01
      0.2825394365D+01  0.2347269535D+00
      0.6401216923D+00  0.8137573261D+00
 S   1 1.00       0.000000000000
      0.1612777588D+00  0.1000000000D+01
 ****
     63 0
 S   3 1.00       0.000000000000
      0.1873113696D+02  0.3349460434D-01
      0.2825394365D+01  0.2347269535D+00
      0.6401216923D+00  0.8137573261D+00
 S   1 1.00       0.000000000000
      0.1612777588D+00  0.1000000000D+01
 ****
     64 0
 S   6 1.00       0.000000000000
      0.3047524880D+04  0.1834737132D-02
      0.4573695180D+03  0.1403732281D-01
      0.1039486850D+03  0.6884262226D-01
      0.2921015530D+02  0.2321844432D+00
      0.9286662960D+01  0.4679413484D+00
      0.3163926960D+01  0.3623119853D+00
 SP   3 1.00       0.000000000000
      0.7868272350D+01 -0.1193324198D+00  0.6899906659D-01
      0.1881288540D+01 -0.1608541517D+00  0.3164239610D+00
      0.5442492580D+00  0.1143456438D+01  0.7443082909D+00
 SP   1 1.00       0.000000000000
      0.1687144782D+00  0.1000000000D+01  0.1000000000D+01
 D   1 1.00       0.000000000000
      0.8000000000D+00  0.1000000000D+01
 ****
     65 0
 S   3 1.00       0.000000000000
      0.1873113696D+02  0.3349460434D-01
      0.2825394365D+01  0.2347269535D+00
      0.6401216923D+00  0.8137573261D+00
 S   1 1.00       0.000000000000
      0.1612777588D+00  0.1000000000D+01
 ****
     66 0
 S   3 1.00       0.000000000000
      0.1873113696D+02  0.3349460434D-01
      0.2825394365D+01  0.2347269535D+00
      0.6401216923D+00  0.8137573261D+00
 S   1 1.00       0.000000000000
      0.1612777588D+00  0.1000000000D+01
 ****
     67 0
 S   6 1.00       0.000000000000
      0.3047524880D+04  0.1834737132D-02
      0.4573695180D+03  0.1403732281D-01
      0.1039486850D+03  0.6884262226D-01
      0.2921015530D+02  0.2321844432D+00
      0.9286662960D+01  0.4679413484D+00
      0.3163926960D+01  0.3623119853D+00
 SP   3 1.00       0.000000000000
      0.7868272350D+01 -0.1193324198D+00  0.6899906659D-01
      0.1881288540D+01 -0.1608541517D+00  0.3164239610D+00
      0.5442492580D+00  0.1143456438D+01  0.7443082909D+00
 SP   1 1.00       0.000000000000
      0.1687144782D+00  0.1000000000D+01  0.1000000000D+01
 D   1 1.00       0.000000000000
      0.8000000000D+00  0.1000000000D+01
 ****
     68 0
 S   3 1.00       0.000000000000
      0.1873113696D+02  0.3349460434D-01
      0.2825394365D+01  0.2347269535D+00
      0.6401216923D+00  0.8137573261D+00
 S   1 1.00       0.000000000000
      0.1612777588D+00  0.1000000000D+01
 ****
     69 0
 S   6 1.00       0.000000000000
      0.3047524880D+04  0.1834737132D-02
      0.4573695180D+03  0.1403732281D-01
      0.1039486850D+03  0.6884262226D-01
      0.2921015530D+02  0.2321844432D+00
      0.9286662960D+01  0.4679413484D+00
      0.3163926960D+01  0.3623119853D+00
 SP   3 1.00       0.000000000000
      0.7868272350D+01 -0.1193324198D+00  0.6899906659D-01
      0.1881288540D+01 -0.1608541517D+00  0.3164239610D+00
      0.5442492580D+00  0.1143456438D+01  0.7443082909D+00
 SP   1 1.00       0.000000000000
      0.1687144782D+00  0.1000000000D+01  0.1000000000D+01
 D   1 1.00       0.000000000000
      0.8000000000D+00  0.1000000000D+01
 ****
     70 0
 S   3 1.00       0.000000000000
      0.1873113696D+02  0.3349460434D-01
      0.2825394365D+01  0.2347269535D+00
      0.6401216923D+00  0.8137573261D+00
 S   1 1.00       0.000000000000
      0.1612777588D+00  0.1000000000D+01
 ****
     71 0
 S   3 1.00       0.000000000000
      0.1873113696D+02  0.3349460434D-01
      0.2825394365D+01  0.2347269535D+00
      0.6401216923D+00  0.8137573261D+00
 S   1 1.00       0.000000000000
      0.1612777588D+00  0.1000000000D+01
 ****
     72 0
 S   3 1.00       0.000000000000
      0.1873113696D+02  0.3349460434D-01
      0.2825394365D+01  0.2347269535D+00
      0.6401216923D+00  0.8137573261D+00
 S   1 1.00       0.000000000000
      0.1612777588D+00  0.1000000000D+01
 ****
     73 0
 S   6 1.00       0.000000000000
      0.3047524880D+04  0.1834737132D-02
      0.4573695180D+03  0.1403732281D-01
      0.1039486850D+03  0.6884262226D-01
      0.2921015530D+02  0.2321844432D+00
      0.9286662960D+01  0.4679413484D+00
      0.3163926960D+01  0.3623119853D+00
 SP   3 1.00       0.000000000000
      0.7868272350D+01 -0.1193324198D+00  0.6899906659D-01
      0.1881288540D+01 -0.1608541517D+00  0.3164239610D+00
      0.5442492580D+00  0.1143456438D+01  0.7443082909D+00
 SP   1 1.00       0.000000000000
      0.1687144782D+00  0.1000000000D+01  0.1000000000D+01
 D   1 1.00       0.000000000000
      0.8000000000D+00  0.1000000000D+01
 ****
     74 0
 S   3 1.00       0.000000000000
      0.1873113696D+02  0.3349460434D-01
      0.2825394365D+01  0.2347269535D+00
      0.6401216923D+00  0.8137573261D+00
 S   1 1.00       0.000000000000
      0.1612777588D+00  0.1000000000D+01
 ****
     75 0
 S   3 1.00       0.000000000000
      0.1873113696D+02  0.3349460434D-01
      0.2825394365D+01  0.2347269535D+00
      0.6401216923D+00  0.8137573261D+00
 S   1 1.00       0.000000000000
      0.1612777588D+00  0.1000000000D+01
 ****
     76 0
 S   3 1.00       0.000000000000
      0.1873113696D+02  0.3349460434D-01
      0.2825394365D+01  0.2347269535D+00
      0.6401216923D+00  0.8137573261D+00
 S   1 1.00       0.000000000000
      0.1612777588D+00  0.1000000000D+01
 ****

 AO basis set (Overlap normalization):
 Atom C1       Shell     1 S   6     bf    1 -     1         -1.819703445970          3.786378735658          3.191990929656
      0.3047524880D+04  0.1834737132D-02
      0.4573695180D+03  0.1403732281D-01
      0.1039486850D+03  0.6884262226D-01
      0.2921015530D+02  0.2321844432D+00
      0.9286662960D+01  0.4679413484D+00
      0.3163926960D+01  0.3623119853D+00
 Atom C1       Shell     2 SP   3    bf    2 -     5         -1.819703445970          3.786378735658          3.191990929656
      0.7868272350D+01 -0.1193324198D+00  0.6899906659D-01
      0.1881288540D+01 -0.1608541517D+00  0.3164239610D+00
      0.5442492580D+00  0.1143456438D+01  0.7443082909D+00
 Atom C1       Shell     3 SP   1    bf    6 -     9         -1.819703445970          3.786378735658          3.191990929656
      0.1687144782D+00  0.1000000000D+01  0.1000000000D+01
 Atom C1       Shell     4 D   1     bf   10 -    15         -1.819703445970          3.786378735658          3.191990929656
      0.8000000000D+00  0.1000000000D+01
 Atom H2       Shell     5 S   3     bf   16 -    16         -1.852414114001          1.935276847483          4.124291436918
      0.1873113696D+02  0.3349460434D-01
      0.2825394365D+01  0.2347269535D+00
      0.6401216923D+00  0.8137573261D+00
 Atom H2       Shell     6 S   1     bf   17 -    17         -1.852414114001          1.935276847483          4.124291436918
      0.1612777588D+00  0.1000000000D+01
 Atom C3       Shell     7 S   6     bf   18 -    18          0.735572722486          5.060581949732          3.723277567546
      0.3047524880D+04  0.1834737132D-02
      0.4573695180D+03  0.1403732281D-01
      0.1039486850D+03  0.6884262226D-01
      0.2921015530D+02  0.2321844432D+00
      0.9286662960D+01  0.4679413484D+00
      0.3163926960D+01  0.3623119853D+00
 Atom C3       Shell     8 SP   3    bf   19 -    22          0.735572722486          5.060581949732          3.723277567546
      0.7868272350D+01 -0.1193324198D+00  0.6899906659D-01
      0.1881288540D+01 -0.1608541517D+00  0.3164239610D+00
      0.5442492580D+00  0.1143456438D+01  0.7443082909D+00
 Atom C3       Shell     9 SP   1    bf   23 -    26          0.735572722486          5.060581949732          3.723277567546
      0.1687144782D+00  0.1000000000D+01  0.1000000000D+01
 Atom C3       Shell    10 D   1     bf   27 -    32          0.735572722486          5.060581949732          3.723277567546
      0.8000000000D+00  0.1000000000D+01
 Atom H4       Shell    11 S   3     bf   33 -    33          1.023142873902          5.219928362675          5.765165336823
      0.1873113696D+02  0.3349460434D-01
      0.2825394365D+01  0.2347269535D+00
      0.6401216923D+00  0.8137573261D+00
 Atom H4       Shell    12 S   1     bf   34 -    34          1.023142873902          5.219928362675          5.765165336823
      0.1612777588D+00  0.1000000000D+01
 Atom H5       Shell    13 S   3     bf   35 -    35          0.639539467132          7.003024393046          2.981976933974
      0.1873113696D+02  0.3349460434D-01
      0.2825394365D+01  0.2347269535D+00
      0.6401216923D+00  0.8137573261D+00
 Atom H5       Shell    14 S   1     bf   36 -    36          0.639539467132          7.003024393046          2.981976933974
      0.1612777588D+00  0.1000000000D+01
 Atom C6       Shell    15 S   6     bf   37 -    37          2.928148179565          3.658110494135          2.518707530038
      0.3047524880D+04  0.1834737132D-02
      0.4573695180D+03  0.1403732281D-01
      0.1039486850D+03  0.6884262226D-01
      0.2921015530D+02  0.2321844432D+00
      0.9286662960D+01  0.4679413484D+00
      0.3163926960D+01  0.3623119853D+00
 Atom C6       Shell    16 SP   3    bf   38 -    41          2.928148179565          3.658110494135          2.518707530038
      0.7868272350D+01 -0.1193324198D+00  0.6899906659D-01
      0.1881288540D+01 -0.1608541517D+00  0.3164239610D+00
      0.5442492580D+00  0.1143456438D+01  0.7443082909D+00
 Atom C6       Shell    17 SP   1    bf   42 -    45          2.928148179565          3.658110494135          2.518707530038
      0.1687144782D+00  0.1000000000D+01  0.1000000000D+01
 Atom C6       Shell    18 D   1     bf   46 -    51          2.928148179565          3.658110494135          2.518707530038
      0.8000000000D+00  0.1000000000D+01
 Atom C7       Shell    19 S   6     bf   52 -    52          2.700389107474          3.070650443033         -0.310699945748
      0.3047524880D+04  0.1834737132D-02
      0.4573695180D+03  0.1403732281D-01
      0.1039486850D+03  0.6884262226D-01
      0.2921015530D+02  0.2321844432D+00
      0.9286662960D+01  0.4679413484D+00
      0.3163926960D+01  0.3623119853D+00
 Atom C7       Shell    20 SP   3    bf   53 -    56          2.700389107474          3.070650443033         -0.310699945748
      0.7868272350D+01 -0.1193324198D+00  0.6899906659D-01
      0.1881288540D+01 -0.1608541517D+00  0.3164239610D+00
      0.5442492580D+00  0.1143456438D+01  0.7443082909D+00
 Atom C7       Shell    21 SP   1    bf   57 -    60          2.700389107474          3.070650443033         -0.310699945748
      0.1687144782D+00  0.1000000000D+01  0.1000000000D+01
 Atom C7       Shell    22 D   1     bf   61 -    66          2.700389107474          3.070650443033         -0.310699945748
      0.8000000000D+00  0.1000000000D+01
 Atom C8       Shell    23 S   6     bf   67 -    67          0.030559668363          1.917283668931         -0.795302203436
      0.3047524880D+04  0.1834737132D-02
      0.4573695180D+03  0.1403732281D-01
      0.1039486850D+03  0.6884262226D-01
      0.2921015530D+02  0.2321844432D+00
      0.9286662960D+01  0.4679413484D+00
      0.3163926960D+01  0.3623119853D+00
 Atom C8       Shell    24 SP   3    bf   68 -    71          0.030559668363          1.917283668931         -0.795302203436
      0.7868272350D+01 -0.1193324198D+00  0.6899906659D-01
      0.1881288540D+01 -0.1608541517D+00  0.3164239610D+00
      0.5442492580D+00  0.1143456438D+01  0.7443082909D+00
 Atom C8       Shell    25 SP   1    bf   72 -    75          0.030559668363          1.917283668931         -0.795302203436
      0.1687144782D+00  0.1000000000D+01  0.1000000000D+01
 Atom C8       Shell    26 D   1     bf   76 -    81          0.030559668363          1.917283668931         -0.795302203436
      0.8000000000D+00  0.1000000000D+01
 Atom H9       Shell    27 S   3     bf   82 -    82          0.000000000000          0.000000000000          0.000000000000
      0.1873113696D+02  0.3349460434D-01
      0.2825394365D+01  0.2347269535D+00
      0.6401216923D+00  0.8137573261D+00
 Atom H9       Shell    28 S   1     bf   83 -    83          0.000000000000          0.000000000000          0.000000000000
      0.1612777588D+00  0.1000000000D+01
 Atom H10      Shell    29 S   3     bf   84 -    84         -0.267208125567          1.712119693163         -2.833361406465
      0.1873113696D+02  0.3349460434D-01
      0.2825394365D+01  0.2347269535D+00
      0.6401216923D+00  0.8137573261D+00
 Atom H10      Shell    30 S   1     bf   85 -    85         -0.267208125567          1.712119693163         -2.833361406465
      0.1612777588D+00  0.1000000000D+01
 Atom C11      Shell    31 S   6     bf   86 -    86         -2.176236601475          3.417593937613          0.349225263296
      0.3047524880D+04  0.1834737132D-02
      0.4573695180D+03  0.1403732281D-01
      0.1039486850D+03  0.6884262226D-01
      0.2921015530D+02  0.2321844432D+00
      0.9286662960D+01  0.4679413484D+00
      0.3163926960D+01  0.3623119853D+00
 Atom C11      Shell    32 SP   3    bf   87 -    90         -2.176236601475          3.417593937613          0.349225263296
      0.7868272350D+01 -0.1193324198D+00  0.6899906659D-01
      0.1881288540D+01 -0.1608541517D+00  0.3164239610D+00
      0.5442492580D+00  0.1143456438D+01  0.7443082909D+00
 Atom C11      Shell    33 SP   1    bf   91 -    94         -2.176236601475          3.417593937613          0.349225263296
      0.1687144782D+00  0.1000000000D+01  0.1000000000D+01
 Atom C11      Shell    34 D   1     bf   95 -   100         -2.176236601475          3.417593937613          0.349225263296
      0.8000000000D+00  0.1000000000D+01
 Atom H12      Shell    35 S   3     bf  101 -   101         -2.340185310134          5.279456814559         -0.560798377524
      0.1873113696D+02  0.3349460434D-01
      0.2825394365D+01  0.2347269535D+00
      0.6401216923D+00  0.8137573261D+00
 Atom H12      Shell    36 S   1     bf  102 -   102         -2.340185310134          5.279456814559         -0.560798377524
      0.1612777588D+00  0.1000000000D+01
 Atom H13      Shell    37 S   3     bf  103 -   103         -3.961862767269          2.428515569339          0.000000000000
      0.1873113696D+02  0.3349460434D-01
      0.2825394365D+01  0.2347269535D+00
      0.6401216923D+00  0.8137573261D+00
 Atom H13      Shell    38 S   1     bf  104 -   104         -3.961862767269          2.428515569339          0.000000000000
      0.1612777588D+00  0.1000000000D+01
 Atom C14      Shell    39 S   6     bf  105 -   105          4.933732382308          3.003173803034          3.926053496400
      0.3047524880D+04  0.1834737132D-02
      0.4573695180D+03  0.1403732281D-01
      0.1039486850D+03  0.6884262226D-01
      0.2921015530D+02  0.2321844432D+00
      0.9286662960D+01  0.4679413484D+00
      0.3163926960D+01  0.3623119853D+00
 Atom C14      Shell    40 SP   3    bf  106 -   109          4.933732382308          3.003173803034          3.926053496400
      0.7868272350D+01 -0.1193324198D+00  0.6899906659D-01
      0.1881288540D+01 -0.1608541517D+00  0.3164239610D+00
      0.5442492580D+00  0.1143456438D+01  0.7443082909D+00
 Atom C14      Shell    41 SP   1    bf  110 -   113          4.933732382308          3.003173803034          3.926053496400
      0.1687144782D+00  0.1000000000D+01  0.1000000000D+01
 Atom C14      Shell    42 D   1     bf  114 -   119          4.933732382308          3.003173803034          3.926053496400
      0.8000000000D+00  0.1000000000D+01
 Atom H15      Shell    43 S   3     bf  120 -   120          4.951363886176          3.484882606554          5.925617334040
      0.1873113696D+02  0.3349460434D-01
      0.2825394365D+01  0.2347269535D+00
      0.6401216923D+00  0.8137573261D+00
 Atom H15      Shell    44 S   1     bf  121 -   121          4.951363886176          3.484882606554          5.925617334040
      0.1612777588D+00  0.1000000000D+01
 Atom C16      Shell    45 S   6     bf  122 -   122          7.210546369083          1.619167522885          2.950546971137
      0.3047524880D+04  0.1834737132D-02
      0.4573695180D+03  0.1403732281D-01
      0.1039486850D+03  0.6884262226D-01
      0.2921015530D+02  0.2321844432D+00
      0.9286662960D+01  0.4679413484D+00
      0.3163926960D+01  0.3623119853D+00
 Atom C16      Shell    46 SP   3    bf  123 -   126          7.210546369083          1.619167522885          2.950546971137
      0.7868272350D+01 -0.1193324198D+00  0.6899906659D-01
      0.1881288540D+01 -0.1608541517D+00  0.3164239610D+00
      0.5442492580D+00  0.1143456438D+01  0.7443082909D+00
 Atom C16      Shell    47 SP   1    bf  127 -   130          7.210546369083          1.619167522885          2.950546971137
      0.1687144782D+00  0.1000000000D+01  0.1000000000D+01
 Atom C16      Shell    48 D   1     bf  131 -   136          7.210546369083          1.619167522885          2.950546971137
      0.8000000000D+00  0.1000000000D+01
 Atom H17      Shell    49 S   3     bf  137 -   137          8.939677112332          2.430414479541          3.758321367051
      0.1873113696D+02  0.3349460434D-01
      0.2825394365D+01  0.2347269535D+00
      0.6401216923D+00  0.8137573261D+00
 Atom H17      Shell    50 S   1     bf  138 -   138          8.939677112332          2.430414479541          3.758321367051
      0.1612777588D+00  0.1000000000D+01
 Atom C18      Shell    51 S   6     bf  139 -   139          7.377342006853          1.646028770439          0.046385047582
      0.3047524880D+04  0.1834737132D-02
      0.4573695180D+03  0.1403732281D-01
      0.1039486850D+03  0.6884262226D-01
      0.2921015530D+02  0.2321844432D+00
      0.9286662960D+01  0.4679413484D+00
      0.3163926960D+01  0.3623119853D+00
 Atom C18      Shell    52 SP   3    bf  140 -   143          7.377342006853          1.646028770439          0.046385047582
      0.7868272350D+01 -0.1193324198D+00  0.6899906659D-01
      0.1881288540D+01 -0.1608541517D+00  0.3164239610D+00
      0.5442492580D+00  0.1143456438D+01  0.7443082909D+00
 Atom C18      Shell    53 SP   1    bf  144 -   147          7.377342006853          1.646028770439          0.046385047582
      0.1687144782D+00  0.1000000000D+01  0.1000000000D+01
 Atom C18      Shell    54 D   1     bf  148 -   153          7.377342006853          1.646028770439          0.046385047582
      0.8000000000D+00  0.1000000000D+01
 Atom H19      Shell    55 S   3     bf  154 -   154          7.956822443694          3.580658367825         -0.437326582180
      0.1873113696D+02  0.3349460434D-01
      0.2825394365D+01  0.2347269535D+00
      0.6401216923D+00  0.8137573261D+00
 Atom H19      Shell    56 S   1     bf  155 -   155          7.956822443694          3.580658367825         -0.437326582180
      0.1612777588D+00  0.1000000000D+01
 Atom C20      Shell    57 S   6     bf  156 -   156          4.750633434683          1.093240337280         -1.138355961333
      0.3047524880D+04  0.1834737132D-02
      0.4573695180D+03  0.1403732281D-01
      0.1039486850D+03  0.6884262226D-01
      0.2921015530D+02  0.2321844432D+00
      0.9286662960D+01  0.4679413484D+00
      0.3163926960D+01  0.3623119853D+00
 Atom C20      Shell    58 SP   3    bf  157 -   160          4.750633434683          1.093240337280         -1.138355961333
      0.7868272350D+01 -0.1193324198D+00  0.6899906659D-01
      0.1881288540D+01 -0.1608541517D+00  0.3164239610D+00
      0.5442492580D+00  0.1143456438D+01  0.7443082909D+00
 Atom C20      Shell    59 SP   1    bf  161 -   164          4.750633434683          1.093240337280         -1.138355961333
      0.1687144782D+00  0.1000000000D+01  0.1000000000D+01
 Atom C20      Shell    60 D   1     bf  165 -   170          4.750633434683          1.093240337280         -1.138355961333
      0.8000000000D+00  0.1000000000D+01
 Atom H21      Shell    61 S   3     bf  171 -   171          4.146780557400         -0.727965516554         -0.339157671734
      0.1873113696D+02  0.3349460434D-01
      0.2825394365D+01  0.2347269535D+00
      0.6401216923D+00  0.8137573261D+00
 Atom H21      Shell    62 S   1     bf  172 -   172          4.146780557400         -0.727965516554         -0.339157671734
      0.1612777588D+00  0.1000000000D+01
 Atom C22      Shell    63 S   6     bf  173 -   173          4.904538532405          0.737085731714         -4.038716001573
      0.3047524880D+04  0.1834737132D-02
      0.4573695180D+03  0.1403732281D-01
      0.1039486850D+03  0.6884262226D-01
      0.2921015530D+02  0.2321844432D+00
      0.9286662960D+01  0.4679413484D+00
      0.3163926960D+01  0.3623119853D+00
 Atom C22      Shell    64 SP   3    bf  174 -   177          4.904538532405          0.737085731714         -4.038716001573
      0.7868272350D+01 -0.1193324198D+00  0.6899906659D-01
      0.1881288540D+01 -0.1608541517D+00  0.3164239610D+00
      0.5442492580D+00  0.1143456438D+01  0.7443082909D+00
 Atom C22      Shell    65 SP   1    bf  178 -   181          4.904538532405          0.737085731714         -4.038716001573
      0.1687144782D+00  0.1000000000D+01  0.1000000000D+01
 Atom C22      Shell    66 D   1     bf  182 -   187          4.904538532405          0.737085731714         -4.038716001573
      0.8000000000D+00  0.1000000000D+01
 Atom H23      Shell    67 S   3     bf  188 -   188          5.204483460915          2.564481685853         -4.960442357286
      0.1873113696D+02  0.3349460434D-01
      0.2825394365D+01  0.2347269535D+00
      0.6401216923D+00  0.8137573261D+00
 Atom H23      Shell    68 S   1     bf  189 -   189          5.204483460915          2.564481685853         -4.960442357286
      0.1612777588D+00  0.1000000000D+01
 Atom H24      Shell    69 S   3     bf  190 -   190          3.086335642368          0.037553488089         -4.742358342845
      0.1873113696D+02  0.3349460434D-01
      0.2825394365D+01  0.2347269535D+00
      0.6401216923D+00  0.8137573261D+00
 Atom H24      Shell    70 S   1     bf  191 -   191          3.086335642368          0.037553488089         -4.742358342845
      0.1612777588D+00  0.1000000000D+01
 Atom C25      Shell    71 S   6     bf  192 -   192          7.003279373794         -1.084724626613         -4.917370642121
      0.3047524880D+04  0.1834737132D-02
      0.4573695180D+03  0.1403732281D-01
      0.1039486850D+03  0.6884262226D-01
      0.2921015530D+02  0.2321844432D+00
      0.9286662960D+01  0.4679413484D+00
      0.3163926960D+01  0.3623119853D+00
 Atom C25      Shell    72 SP   3    bf  193 -   196          7.003279373794         -1.084724626613         -4.917370642121
      0.7868272350D+01 -0.1193324198D+00  0.6899906659D-01
      0.1881288540D+01 -0.1608541517D+00  0.3164239610D+00
      0.5442492580D+00  0.1143456438D+01  0.7443082909D+00
 Atom C25      Shell    73 SP   1    bf  197 -   200          7.003279373794         -1.084724626613         -4.917370642121
      0.1687144782D+00  0.1000000000D+01  0.1000000000D+01
 Atom C25      Shell    74 D   1     bf  201 -   206          7.003279373794         -1.084724626613         -4.917370642121
      0.8000000000D+00  0.1000000000D+01
 Atom H26      Shell    75 S   3     bf  207 -   207          6.575265588764         -3.009060640088         -4.263218470824
      0.1873113696D+02  0.3349460434D-01
      0.2825394365D+01  0.2347269535D+00
      0.6401216923D+00  0.8137573261D+00
 Atom H26      Shell    76 S   1     bf  208 -   208          6.575265588764         -3.009060640088         -4.263218470824
      0.1612777588D+00  0.1000000000D+01
 Atom H27      Shell    77 S   3     bf  209 -   209          6.998084252093         -1.147212975437         -6.987842824624
      0.1873113696D+02  0.3349460434D-01
      0.2825394365D+01  0.2347269535D+00
      0.6401216923D+00  0.8137573261D+00
 Atom H27      Shell    78 S   1     bf  210 -   210          6.998084252093         -1.147212975437         -6.987842824624
      0.1612777588D+00  0.1000000000D+01
 Atom C28      Shell    79 S   6     bf  211 -   211          9.609025062793         -0.296196940185         -3.884377967594
      0.3047524880D+04  0.1834737132D-02
      0.4573695180D+03  0.1403732281D-01
      0.1039486850D+03  0.6884262226D-01
      0.2921015530D+02  0.2321844432D+00
      0.9286662960D+01  0.4679413484D+00
      0.3163926960D+01  0.3623119853D+00
 Atom C28      Shell    80 SP   3    bf  212 -   215          9.609025062793         -0.296196940185         -3.884377967594
      0.7868272350D+01 -0.1193324198D+00  0.6899906659D-01
      0.1881288540D+01 -0.1608541517D+00  0.3164239610D+00
      0.5442492580D+00  0.1143456438D+01  0.7443082909D+00
 Atom C28      Shell    81 SP   1    bf  216 -   219          9.609025062793         -0.296196940185         -3.884377967594
      0.1687144782D+00  0.1000000000D+01  0.1000000000D+01
 Atom C28      Shell    82 D   1     bf  220 -   225          9.609025062793         -0.296196940185         -3.884377967594
      0.8000000000D+00  0.1000000000D+01
 Atom C29      Shell    83 S   6     bf  226 -   226          9.364252918608         -0.217602531120         -0.955133501208
      0.3047524880D+04  0.1834737132D-02
      0.4573695180D+03  0.1403732281D-01
      0.1039486850D+03  0.6884262226D-01
      0.2921015530D+02  0.2321844432D+00
      0.9286662960D+01  0.4679413484D+00
      0.3163926960D+01  0.3623119853D+00
 Atom C29      Shell    84 SP   3    bf  227 -   230          9.364252918608         -0.217602531120         -0.955133501208
      0.7868272350D+01 -0.1193324198D+00  0.6899906659D-01
      0.1881288540D+01 -0.1608541517D+00  0.3164239610D+00
      0.5442492580D+00  0.1143456438D+01  0.7443082909D+00
 Atom C29      Shell    85 SP   1    bf  231 -   234          9.364252918608         -0.217602531120         -0.955133501208
      0.1687144782D+00  0.1000000000D+01  0.1000000000D+01
 Atom C29      Shell    86 D   1     bf  235 -   240          9.364252918608         -0.217602531120         -0.955133501208
      0.8000000000D+00  0.1000000000D+01
 Atom H30      Shell    87 S   3     bf  241 -   241          8.704264989554         -2.107925855258         -0.409569132007
      0.1873113696D+02  0.3349460434D-01
      0.2825394365D+01  0.2347269535D+00
      0.6401216923D+00  0.8137573261D+00
 Atom H30      Shell    88 S   1     bf  242 -   242          8.704264989554         -2.107925855258         -0.409569132007
      0.1612777588D+00  0.1000000000D+01
 Atom C31      Shell    89 S   6     bf  243 -   243         12.100514697263          0.000000000000          0.000000000000
      0.3047524880D+04  0.1834737132D-02
      0.4573695180D+03  0.1403732281D-01
      0.1039486850D+03  0.6884262226D-01
      0.2921015530D+02  0.2321844432D+00
      0.9286662960D+01  0.4679413484D+00
      0.3163926960D+01  0.3623119853D+00
 Atom C31      Shell    90 SP   3    bf  244 -   247         12.100514697263          0.000000000000          0.000000000000
      0.7868272350D+01 -0.1193324198D+00  0.6899906659D-01
      0.1881288540D+01 -0.1608541517D+00  0.3164239610D+00
      0.5442492580D+00  0.1143456438D+01  0.7443082909D+00
 Atom C31      Shell    91 SP   1    bf  248 -   251         12.100514697263          0.000000000000          0.000000000000
      0.1687144782D+00  0.1000000000D+01  0.1000000000D+01
 Atom C31      Shell    92 D   1     bf  252 -   257         12.100514697263          0.000000000000          0.000000000000
      0.8000000000D+00  0.1000000000D+01
 Atom H32      Shell    93 S   3     bf  258 -   258         12.303976313244         -0.729028374121          1.922958251946
      0.1873113696D+02  0.3349460434D-01
      0.2825394365D+01  0.2347269535D+00
      0.6401216923D+00  0.8137573261D+00
 Atom H32      Shell    94 S   1     bf  259 -   259         12.303976313244         -0.729028374121          1.922958251946
      0.1612777588D+00  0.1000000000D+01
 Atom H33      Shell    95 S   3     bf  260 -   260         12.718650559296          1.979575108292          0.030415709027
      0.1873113696D+02  0.3349460434D-01
      0.2825394365D+01  0.2347269535D+00
      0.6401216923D+00  0.8137573261D+00
 Atom H33      Shell    96 S   1     bf  261 -   261         12.718650559296          1.979575108292          0.030415709027
      0.1612777588D+00  0.1000000000D+01
 Atom C34      Shell    97 S   6     bf  262 -   262         13.645485959685         -1.553089129046         -1.961093246561
      0.3047524880D+04  0.1834737132D-02
      0.4573695180D+03  0.1403732281D-01
      0.1039486850D+03  0.6884262226D-01
      0.2921015530D+02  0.2321844432D+00
      0.9286662960D+01  0.4679413484D+00
      0.3163926960D+01  0.3623119853D+00
 Atom C34      Shell    98 SP   3    bf  263 -   266         13.645485959685         -1.553089129046         -1.961093246561
      0.7868272350D+01 -0.1193324198D+00  0.6899906659D-01
      0.1881288540D+01 -0.1608541517D+00  0.3164239610D+00
      0.5442492580D+00  0.1143456438D+01  0.7443082909D+00
 Atom C34      Shell    99 SP   1    bf  267 -   270         13.645485959685         -1.553089129046         -1.961093246561
      0.1687144782D+00  0.1000000000D+01  0.1000000000D+01
 Atom C34      Shell   100 D   1     bf  271 -   276         13.645485959685         -1.553089129046         -1.961093246561
      0.8000000000D+00  0.1000000000D+01
 Atom H35      Shell   101 S   3     bf  277 -   277         15.220214890699         -0.435924972307         -2.703898820232
      0.1873113696D+02  0.3349460434D-01
      0.2825394365D+01  0.2347269535D+00
      0.6401216923D+00  0.8137573261D+00
 Atom H35      Shell   102 S   1     bf  278 -   278         15.220214890699         -0.435924972307         -2.703898820232
      0.1612777588D+00  0.1000000000D+01
 Atom H36      Shell   103 S   3     bf  279 -   279         14.484959245361         -3.244555003748         -1.113302803743
      0.1873113696D+02  0.3349460434D-01
      0.2825394365D+01  0.2347269535D+00
      0.6401216923D+00  0.8137573261D+00
 Atom H36      Shell   104 S   1     bf  280 -   280         14.484959245361         -3.244555003748         -1.113302803743
      0.1612777588D+00  0.1000000000D+01
 Atom C37      Shell   105 S   6     bf  281 -   281         11.765805648716         -2.313661397592         -4.104858438231
      0.3047524880D+04  0.1834737132D-02
      0.4573695180D+03  0.1403732281D-01
      0.1039486850D+03  0.6884262226D-01
      0.2921015530D+02  0.2321844432D+00
      0.9286662960D+01  0.4679413484D+00
      0.3163926960D+01  0.3623119853D+00
 Atom C37      Shell   106 SP   3    bf  282 -   285         11.765805648716         -2.313661397592         -4.104858438231
      0.7868272350D+01 -0.1193324198D+00  0.6899906659D-01
      0.1881288540D+01 -0.1608541517D+00  0.3164239610D+00
      0.5442492580D+00  0.1143456438D+01  0.7443082909D+00
[...]
 **** Fit      -0.000159
 **** Fit      -0.000932
 **** Fit      -0.001594
 **** Fit      -0.002123
 **** Fit      -0.002530
 **** Fit      -0.000753
 **** Fit      -0.001084
 **** Fit      -0.001445
 **** Fit      -0.001791
 **** Fit      -0.002046
 **** Fit      -0.002099
 **** Fit      -0.001827
 **** Fit      -0.001159
 **** Fit      -0.000157
 **** Fit       0.000958
 **** Fit       0.001908
 **** Fit       0.002519
 **** Fit       0.002779
 **** Fit       0.002760
 **** Fit       0.002532
 **** Fit       0.002130
 **** Fit       0.001575
 **** Fit       0.000902
 **** Fit       0.000178
 **** Fit      -0.000526
 **** Fit      -0.001152
 **** Fit      -0.001677
 **** Fit      -0.001263
 **** Fit      -0.001503
 **** Fit      -0.001643
 **** Fit      -0.001604
 **** Fit      -0.001309
 **** Fit      -0.000726
 **** Fit       0.000091
 **** Fit       0.000984
 **** Fit       0.001765
 **** Fit       0.002302
 **** Fit       0.002564
 **** Fit       0.002583
 **** Fit       0.002408
 **** Fit       0.002070
 **** Fit       0.001598
 **** Fit       0.001026
 **** Fit       0.000404
 **** Fit      -0.000212
 **** Fit      -0.000780
 **** Fit      -0.001244
 **** Fit      -0.001161
 **** Fit      -0.000885
 **** Fit      -0.000406
 **** Fit       0.000233
 **** Fit       0.000927
 **** Fit       0.001550
 **** Fit       0.002007
 **** Fit       0.002259
 **** Fit       0.002313
 **** Fit       0.002195
 **** Fit       0.001930
 **** Fit       0.001546
 **** Fit       0.001075
 **** Fit       0.000555
 **** Fit       0.000029
 **** Fit      -0.000786
 **** Fit      -0.000547
 **** Fit      -0.000165
 **** Fit       0.000326
 **** Fit       0.000857
 **** Fit       0.001346
 **** Fit       0.001724
 **** Fit       0.001954
 **** Fit       0.002029
 **** Fit      -0.000278
 **** Fit       0.000022
 **** Fit       0.000397
 **** Fit       0.000801
 **** Fit       0.001181
 **** Fit       0.001488
 **** Fit       0.001689
 **** Fit      -0.000719
 **** Fit      -0.000833
 **** Fit       0.000096
 **** Fit       0.000028
 **** Fit      -0.000084
 **** Fit      -0.000233
 **** Fit      -0.000401
 **** Fit      -0.000562
 **** Fit      -0.000815
 **** Fit      -0.000919
 **** Fit      -0.001028
 **** Fit      -0.001157
 **** Fit       0.000385
 **** Fit       0.000385
 **** Fit       0.000343
 **** Fit       0.000233
 **** Fit       0.000044
 **** Fit      -0.000207
 **** Fit      -0.000480
 **** Fit      -0.000728
 **** Fit      -0.000920
 **** Fit      -0.001056
 **** Fit      -0.001157
 **** Fit      -0.001252
 **** Fit      -0.001366
 **** Fit      -0.002491
 **** Fit       0.000585
 **** Fit       0.000641
 **** Fit       0.000666
 **** Fit       0.000622
 **** Fit       0.000471
 **** Fit       0.000193
 **** Fit      -0.000184
 **** Fit      -0.000590
 **** Fit      -0.000942
 **** Fit      -0.001192
 **** Fit      -0.001339
 **** Fit      -0.001420
 **** Fit      -0.001481
 **** Fit      -0.001562
 **** Fit      -0.002438
 **** Fit      -0.002599
 **** Fit      -0.002733
 **** Fit      -0.002853
 **** Fit       0.000768
 **** Fit       0.000860
 **** Fit       0.000914
 **** Fit       0.000876
 **** Fit       0.000686
 **** Fit       0.000312
 **** Fit      -0.000207
 **** Fit      -0.000760
 **** Fit      -0.001221
 **** Fit      -0.001516
 **** Fit      -0.001649
 **** Fit      -0.001678
 **** Fit      -0.001676
 **** Fit      -0.002612
 **** Fit      -0.002802
 **** Fit      -0.002954
 **** Fit      -0.003075
 **** Fit      -0.003182
 **** Fit       0.000755
 **** Fit       0.000874
 **** Fit       0.000989
 **** Fit       0.001061
 **** Fit       0.001023
 **** Fit       0.000793
 **** Fit       0.000324
 **** Fit      -0.000332
 **** Fit      -0.001023
 **** Fit      -0.001570
 **** Fit      -0.001876
 **** Fit      -0.001953
 **** Fit      -0.001889
 **** Fit      -0.001789
 **** Fit      -0.001736
 **** Fit      -0.001914
 **** Fit      -0.002137
 **** Fit      -0.002406
 **** Fit      -0.002677
 **** Fit      -0.002914
 **** Fit      -0.003101
 **** Fit      -0.003240
 **** Fit      -0.003349
 **** Fit       0.000757
 **** Fit       0.000871
 **** Fit       0.000979
 **** Fit       0.001040
 **** Fit       0.000977
 **** Fit       0.000698
 **** Fit       0.000147
 **** Fit      -0.000612
 **** Fit      -0.001389
 **** Fit      -0.001963
 **** Fit      -0.002219
 **** Fit      -0.002187
 **** Fit      -0.001989
 **** Fit      -0.001762
 **** Fit      -0.001608
 **** Fit      -0.001584
 **** Fit      -0.001701
 **** Fit      -0.001937
 **** Fit      -0.002247
 **** Fit      -0.002577
 **** Fit      -0.002879
 **** Fit      -0.003121
 **** Fit      -0.003300
 **** Fit       0.000672
 **** Fit       0.000751
 **** Fit       0.000816
 **** Fit       0.000823
 **** Fit       0.000700
 **** Fit       0.000356
 **** Fit      -0.000253
 **** Fit      -0.001049
 **** Fit      -0.001818
 **** Fit      -0.002325
 **** Fit      -0.002457
 **** Fit      -0.002265
 **** Fit      -0.001903
 **** Fit      -0.001537
 **** Fit      -0.001283
 **** Fit      -0.001199
 **** Fit      -0.001293
 **** Fit      -0.001540
 **** Fit      -0.001892
 **** Fit      -0.002289
 **** Fit      -0.002667
 **** Fit      -0.002984
 **** Fit      -0.003223
 **** Fit       0.000518
 **** Fit       0.000538
 **** Fit       0.000528
 **** Fit       0.000449
 **** Fit       0.000238
 **** Fit      -0.000172
 **** Fit      -0.000799
 **** Fit      -0.001547
 **** Fit      -0.002202
 **** Fit      -0.002545
 **** Fit      -0.002486
 **** Fit      -0.002102
 **** Fit      -0.001577
 **** Fit      -0.001090
 **** Fit      -0.000761
 **** Fit      -0.000637
 **** Fit      -0.000719
 **** Fit      -0.000979
 **** Fit      -0.001371
 **** Fit      -0.001832
 **** Fit      -0.002291
 **** Fit      -0.002691
 **** Fit      -0.003005
 **** Fit      -0.003235
 **** Fit       0.000329
 **** Fit       0.000279
 **** Fit       0.000185
 **** Fit       0.000013
 **** Fit      -0.000281
 **** Fit      -0.000731
 **** Fit      -0.001323
 **** Fit      -0.001946
 **** Fit      -0.002407
 **** Fit      -0.002527
 **** Fit      -0.002249
 **** Fit      -0.001682
 **** Fit      -0.001025
 **** Fit      -0.000464
 **** Fit      -0.000104
 **** Fit       0.000026
 **** Fit      -0.000061
 **** Fit      -0.000338
 **** Fit      -0.000763
 **** Fit      -0.001278
 **** Fit      -0.001806
 **** Fit      -0.002285
 **** Fit      -0.002675
 **** Fit      -0.002972
 **** Fit       0.000028
 **** Fit      -0.000137
 **** Fit      -0.000379
 **** Fit      -0.000719
 **** Fit      -0.001163
 **** Fit      -0.001668
 **** Fit      -0.002122
 **** Fit      -0.002364
 **** Fit      -0.002260
 **** Fit      -0.001792
 **** Fit      -0.001089
 **** Fit      -0.000359
 **** Fit       0.000222
 **** Fit       0.000570
 **** Fit       0.000679
 **** Fit       0.000571
 **** Fit       0.000276
 **** Fit      -0.000171
 **** Fit      -0.000717
 **** Fit      -0.001291
 **** Fit      -0.001826
 **** Fit      -0.002278
 **** Fit      -0.002635
 **** Fit      -0.000173
 **** Fit      -0.000381
 **** Fit      -0.000654
 **** Fit      -0.000995
 **** Fit      -0.001388
 **** Fit      -0.001776
 **** Fit      -0.002057
 **** Fit      -0.002105
 **** Fit      -0.001829
 **** Fit      -0.001242
 **** Fit      -0.000480
 **** Fit       0.000259
 **** Fit       0.000817
 **** Fit       0.001130
 **** Fit       0.001207
 **** Fit       0.001078
 **** Fit       0.000772
 **** Fit       0.000321
 **** Fit      -0.000229
 **** Fit      -0.000816
 **** Fit      -0.001375
 **** Fit      -0.001864
 **** Fit      -0.002264
 **** Fit      -0.000524
 **** Fit      -0.000792
 **** Fit      -0.001099
 **** Fit      -0.001415
 **** Fit      -0.001683
 **** Fit      -0.001818
 **** Fit      -0.001728
 **** Fit      -0.001356
 **** Fit      -0.000734
 **** Fit       0.000010
 **** Fit       0.000705
 **** Fit       0.001215
 **** Fit       0.001492
 **** Fit       0.001545
 **** Fit       0.001407
 **** Fit       0.001107
 **** Fit       0.000673
 **** Fit       0.000146
 **** Fit      -0.000421
 **** Fit      -0.000973
 **** Fit      -0.001469
 **** Fit      -0.001065
 **** Fit      -0.001301
 **** Fit      -0.001466
 **** Fit      -0.001496
 **** Fit      -0.001327
 **** Fit      -0.000929
 **** Fit      -0.000341
 **** Fit       0.000330
 **** Fit       0.000946
 **** Fit       0.001399
 **** Fit       0.001646
 **** Fit       0.001691
 **** Fit       0.001562
 **** Fit       0.001285
 **** Fit       0.000888
 **** Fit       0.000406
 **** Fit      -0.000117
 **** Fit      -0.000636
 **** Fit      -0.001195
 **** Fit      -0.001159
 **** Fit      -0.000960
 **** Fit      -0.000584
 **** Fit      -0.000068
 **** Fit       0.000504
 **** Fit       0.001027
 **** Fit       0.001419
 **** Fit       0.001640
 **** Fit       0.001688
 **** Fit       0.001581
 **** Fit       0.001342
 **** Fit       0.000995
 **** Fit       0.000572
 **** Fit       0.000107
 **** Fit      -0.000846
 **** Fit      -0.000648
 **** Fit      -0.000318
 **** Fit       0.000113
 **** Fit       0.000582
 **** Fit       0.001014
 **** Fit       0.001346
 **** Fit       0.001542
 **** Fit       0.001596
 **** Fit      -0.000115
 **** Fit       0.000234
 **** Fit       0.000610
 **** Fit       0.000959
 **** Fit       0.001235
 **** Fit       0.001407
 **** Fit       0.000162
 **** Fit       0.000054
 **** Fit      -0.000104
 **** Fit      -0.000298
 **** Fit      -0.000506
 **** Fit      -0.000699
 **** Fit       0.000380
 **** Fit       0.000305
 **** Fit       0.000162
 **** Fit      -0.000054
 **** Fit      -0.000322
 **** Fit      -0.000601
 **** Fit      -0.000851
 **** Fit      -0.001042
 **** Fit       0.000523
 **** Fit       0.000504
 **** Fit       0.000416
 **** Fit       0.000236
 **** Fit      -0.000041
 **** Fit      -0.000385
 **** Fit      -0.000738
 **** Fit      -0.001038
 **** Fit      -0.001248
 **** Fit      -0.001366
 **** Fit       0.000583
 **** Fit       0.000559
 **** Fit       0.000453
 **** Fit       0.000235
 **** Fit      -0.000100
 **** Fit      -0.000512
 **** Fit      -0.000925
 **** Fit      -0.001257
 **** Fit      -0.001461
 **** Fit      -0.001541
 **** Fit       0.000547
 **** Fit       0.000558
 **** Fit       0.000516
 **** Fit       0.000383
 **** Fit       0.000127
 **** Fit      -0.000255
 **** Fit      -0.000714
 **** Fit      -0.001156
 **** Fit      -0.001485
 **** Fit      -0.001650
 **** Fit      -0.001661
 **** Fit      -0.001578
 **** Fit      -0.001472
 **** Fit      -0.001406
 **** Fit      -0.001919
 **** Fit       0.000463
 **** Fit       0.000445
 **** Fit       0.000369
 **** Fit       0.000199
 **** Fit      -0.000093
 **** Fit      -0.000503
 **** Fit      -0.000972
 **** Fit      -0.001397
 **** Fit      -0.001678
 **** Fit      -0.001765
 **** Fit      -0.001682
 **** Fit      -0.001501
 **** Fit      -0.001310
 **** Fit      -0.001179
 **** Fit      -0.001148
 **** Fit      -0.001230
 **** Fit      -0.001412
 **** Fit      -0.001666
 **** Fit      -0.001956
 **** Fit      -0.002246
 **** Fit       0.000323
 **** Fit       0.000263
 **** Fit       0.000142
 **** Fit      -0.000068
 **** Fit      -0.000385
 **** Fit      -0.000794
 **** Fit      -0.001231
 **** Fit      -0.001591
 **** Fit      -0.001780
 **** Fit      -0.001760
 **** Fit      -0.001566
 **** Fit      -0.001286
 **** Fit      -0.001017
 **** Fit      -0.000832
 **** Fit      -0.000771
 **** Fit      -0.000842
 **** Fit      -0.001032
 **** Fit      -0.001310
 **** Fit      -0.001638
 **** Fit      -0.001974
 **** Fit      -0.002286
 **** Fit       0.000049
 **** Fit      -0.000114
 **** Fit      -0.000355
 **** Fit      -0.000678
 **** Fit      -0.001056
 **** Fit      -0.001421
 **** Fit      -0.001679
 **** Fit      -0.001750
 **** Fit      -0.001610
 **** Fit      -0.001310
 **** Fit      -0.000947
 **** Fit      -0.000620
 **** Fit      -0.000402
 **** Fit      -0.000326
 **** Fit      -0.000396
 **** Fit      -0.000595
 **** Fit      -0.000894
 **** Fit      -0.001254
 **** Fit      -0.001631
 **** Fit      -0.001989
 **** Fit      -0.000152
 **** Fit      -0.000345
 **** Fit      -0.000598
 **** Fit      -0.000902
 **** Fit      -0.001222
 **** Fit      -0.001493
 **** Fit      -0.001633
 **** Fit      -0.001582
 **** Fit      -0.001336
 **** Fit      -0.000954
 **** Fit      -0.000536
 **** Fit      -0.000181
 **** Fit       0.000047
 **** Fit       0.000123
 **** Fit       0.000048
 **** Fit      -0.000160
 **** Fit      -0.000474
 **** Fit      -0.000854
 **** Fit      -0.001260
 **** Fit      -0.001652
 **** Fit      -0.000511
 **** Fit      -0.000754
 **** Fit      -0.001018
 **** Fit      -0.001265
 **** Fit      -0.001436
 **** Fit      -0.001467
 **** Fit      -0.001317
 **** Fit      -0.000995
 **** Fit      -0.000567
 **** Fit      -0.000130
 **** Fit       0.000227
 **** Fit       0.000447
 **** Fit       0.000512
 **** Fit       0.000430
 **** Fit       0.000217
 **** Fit      -0.000099
 **** Fit      -0.000486
 **** Fit      -0.000902
 **** Fit      -0.001311
 **** Fit      -0.000812
 **** Fit      -0.001025
 **** Fit      -0.001198
 **** Fit      -0.001281
 **** Fit      -0.001227
 **** Fit      -0.001012
 **** Fit      -0.000655
 **** Fit      -0.000220
 **** Fit       0.000206
 **** Fit       0.000543
 **** Fit       0.000746
 **** Fit       0.000800
 **** Fit       0.000714
 **** Fit       0.000505
 **** Fit       0.000198
 **** Fit      -0.000178
 **** Fit      -0.000587
 **** Fit      -0.001070
 **** Fit      -0.000962
 **** Fit      -0.000719
 **** Fit      -0.000363
 **** Fit       0.000048
 **** Fit       0.000440
 **** Fit       0.000746
 **** Fit       0.000928
 **** Fit       0.000974
 **** Fit      -0.000707
 **** Fit      -0.000464
 **** Fit      -0.000135
 **** Fit       0.000232
 **** Fit       0.000576
 **** Fit       0.000845
 **** Fit       0.001007
 **** Fit      -0.000256
 **** Fit       0.000033
 **** Fit       0.000347
 **** Fit       0.000640
 **** Fit       0.000872
 **** Fit      -0.000194
 **** Fit      -0.000389
 **** Fit       0.000144
 **** Fit      -0.000008
 **** Fit      -0.000212
 **** Fit      -0.000449
 **** Fit      -0.000687
 **** Fit      -0.000895
 **** Fit       0.000258
 **** Fit       0.000144
 **** Fit      -0.000034
 **** Fit      -0.000272
 **** Fit      -0.000543
 **** Fit      -0.000808
 **** Fit      -0.001026
 **** Fit       0.000217
 **** Fit       0.000083
 **** Fit      -0.000118
 **** Fit      -0.000380
 **** Fit      -0.000672
 **** Fit      -0.000944
 **** Fit      -0.001153
 **** Fit      -0.001273
 **** Fit       0.000120
 **** Fit      -0.000035
 **** Fit      -0.000255
 **** Fit      -0.000528
 **** Fit      -0.000819
 **** Fit      -0.001076
 **** Fit      -0.001250
 **** Fit      -0.001321
 **** Fit      -0.000019
 **** Fit      -0.000192
 **** Fit      -0.000421
 **** Fit      -0.000689
 **** Fit      -0.000956
 **** Fit      -0.001172
 **** Fit      -0.001291
 **** Fit      -0.001297
 **** Fit      -0.001208
 **** Fit      -0.001069
 **** Fit      -0.000933
 **** Fit      -0.000172
 **** Fit      -0.000356
 **** Fit      -0.000581
 **** Fit      -0.000825
 **** Fit      -0.001049
 **** Fit      -0.001205
 **** Fit      -0.001255
 **** Fit      -0.001191
 **** Fit      -0.001037
 **** Fit      -0.000843
 **** Fit      -0.000666
 **** Fit      -0.000549
 **** Fit      -0.000493
 **** Fit      -0.000701
 **** Fit      -0.000907
 **** Fit      -0.001075
 **** Fit      -0.001163
 **** Fit      -0.001142
 **** Fit      -0.001012
 **** Fit      -0.000805
 **** Fit      -0.000572
 **** Fit      -0.000368
 **** Fit      -0.000237
 **** Fit      -0.001052
 **** Fit      -0.000970
 **** Fit      -0.000790
 **** Fit      -0.000548
 **** Fit      -0.000294
 **** Fit      -0.000081
 **** Fit       0.000054
 **** Fit      -0.000768
 **** Fit      -0.000559
 **** Fit      -0.000302
 **** Fit      -0.000046
 **** Fit       0.000163
 **** Fit       0.000293
 **** Fit      -0.000346
 **** Fit      -0.000094
 **** Fit       0.000150
 **** Fit       0.000346
 -----------------------------------------------------------------
 Leave Link  602 at Fri Apr 28 12:21:13 2017, MaxMem=    33554432 cpu:        38.6
 (Enter /home/michal/g09/l9999.exe)

 Test job not archived.
 1\1\GINC-LINUX\SP\RHF\6-31G(d)\C27H46O3\MICHAL\28-Apr-2017\0\\#P HF/6-
 31G* SCF(Conver=6) NoSymm Test Pop=chelpg IOp(6/33=2) GFInput GFPrint\
 \MEP - Input generated by R.E.D.-III.x MOLECULE\\0,1\C,0,-0.96294559,2
 .00366533,1.68912885\H,0,-0.98025533,1.0241044,2.18248103\C,0,0.389248
 32,2.67794463,1.97027363\H,0,0.54142389,2.76226712,3.0507941\H,0,0.338
 42971,3.7058409,1.57799423\C,0,1.54950928,1.9357887,1.33284262\C,0,1.4
 2898437,1.62491823,-0.16441533\C,0,0.01617148,1.01458282,-0.4208558\H,
 0,0.,0.,0.\H,0,-0.14140045,0.90601472,-1.49935028\C,0,-1.15161481,1.80
 851282,0.18480205\H,0,-1.23837273,2.79376822,-0.29676172\H,0,-2.096527
 48,1.28511509,0.\C,0,2.61081873,1.58921113,2.07757803\H,0,2.62014892,1
 .84412045,3.13570164\C,0,3.8156568,0.85682655,1.56136221\H,0,4.7306733
 8,1.28611995,1.98881801\C,0,3.90392125,0.87104091,0.02454591\H,0,4.210
 56909,1.8948028,-0.23142326\C,0,2.51392694,0.57851787,-0.60239203\H,0,
 2.19438176,-0.38522276,-0.17947451\C,0,2.59537001,0.39004897,-2.137196
 46\H,0,2.75409403,1.35706526,-2.62495304\H,0,1.63321848,0.01987245,-2.
 50954795\C,0,3.70597583,-0.57401155,-2.60216047\H,0,3.47948069,-1.5923
 2631,-2.25599805\H,0,3.70322669,-0.60707896,-3.69780716\C,0,5.08487706
 ,-0.15674067,-2.05552429\C,0,4.95534922,-0.1151503,-0.50543488\H,0,4.6
 0609865,-1.11546632,-0.21673465\C,0,6.40331659,0.,0.\H,0,6.51098384,-0
 .3857852,1.01758568\H,0,6.73042,1.04754603,0.0160953\C,0,7.22088017,-0
 .82185937,-1.03776585\H,0,8.05419083,-0.23068156,-1.43084163\H,0,7.665
 1103,-1.71694456,-0.58913447\C,0,6.22619619,-1.22433688,-2.17219753\H,
 0,5.75256459,-2.16283515,-1.84674762\C,0,5.50437684,1.20945232,-2.6453
 2764\H,0,4.85810847,2.02242965,-2.30397751\H,0,6.52886002,1.47892623,-
 2.37575996\H,0,5.44518693,1.19307865,-3.73761526\C,0,6.93061913,-1.603
 22898,-3.50765097\H,0,7.66298521,-2.36760121,-3.19907822\C,0,7.7430618
 1,-0.49547071,-4.20807388\H,0,7.10021603,0.20228778,-4.75340056\H,0,8.
 43573591,-0.93372891,-4.93353193\H,0,8.34565422,0.08639618,-3.50472604
 \C,0,1.57076383,2.95786558,-0.94962233\H,0,1.29785375,2.8308003,-2.001
 38413\H,0,0.92341012,3.73804142,-0.54222182\H,0,2.59665937,3.33645031,
 -0.90564096\O,0,3.78969037,-0.54017284,1.96526413\O,0,3.95896793,-0.58
 491998,3.4098357\H,0,3.06537389,-0.84120344,3.69231031\O,0,-2.04619696
 ,2.71668066,2.2913689\H,0,-2.10822551,3.59090404,1.88142693\C,0,5.9750
 3138,-2.30389019,-4.50046804\H,0,5.33736031,-3.00455521,-3.94287703\H,
 0,5.29912681,-1.55910396,-4.93920624\C,0,6.68090766,-3.08284777,-5.623
 21889\H,0,7.22108099,-2.3922586,-6.28182561\H,0,7.44798234,-3.72852377
 ,-5.17226134\C,0,5.74537056,-3.97269219,-6.46209209\H,0,5.27236539,-4.
 70760561,-5.79466708\H,0,6.3545531,-4.55424456,-7.16997156\C,0,4.63526
 455,-3.25554042,-7.25961531\H,0,4.01442663,-2.68847302,-6.55113894\C,0
 ,5.19943869,-2.26487885,-8.2904107\H,0,5.8483361,-2.77995899,-9.010751
 68\H,0,4.39176989,-1.78577539,-8.85554749\H,0,5.78868014,-1.47053157,-
 7.82086062\C,0,3.72465781,-4.28659652,-7.94555351\H,0,4.2894194,-4.884
 88558,-8.67215425\H,0,2.90443007,-3.79816785,-8.48404888\H,0,3.2838412
 8,-4.97728844,-7.21750815\\Version=EM64L-G09RevD.01\HF=-1273.6783439\R
 MSD=5.697e-07\Dipole=-0.2864823,0.6212875,-0.6836055\Quadrupole=-7.273
 8905,8.0675292,-0.7936387,3.2556901,-1.2770256,-1.6692525\PG=C01 [X(C2
 7H46O3)]\\@


 THE WORLD IS MADE UP OF THE WILLS, THE WON'TS, AND THE CANT'S:
 THE WILLS DO EVERYTHING,
 THE WON'TS DO NOTHING,
 THE CAN'TS CAN'T DO ANYTHING.

                               -- FROM WALT DISNEY'S "BLACK HOLE"
 Job cpu time:       0 days  0 hours 12 minutes 16.9 seconds.
 File lengths (MBytes):  RWF=    159 Int=      0 D2E=      0 Chk=     11 Scr=      1
 Normal termination of Gaussian 09 at Fri Apr 28 12:21:13 2017.
