 Entering Gaussian System, Link 0=/home/michal/g09/g09
 Input=JOB2-gau_m1-12-1.com
 Output=JOB2-gau_m1-12-1.log
 Initial command:
 /home/michal/g09/l1.exe "/home/michal/gauss_scratch/Gau-17124.inp" -scrdir="/home/michal/gauss_scratch/"
 Entering Link 1 = /home/michal/g09/l1.exe PID=     17125.
  
 Copyright (c) 1988,1990,1992,1993,1995,1998,2003,2009,2013,
            Gaussian, Inc.  All Rights Reserved.
  
 This is part of the Gaussian(R) 09 program.  It is based on
 the Gaussian(R) 03 system (copyright 2003, Gaussian, Inc.),
 the Gaussian(R) 98 system (copyright 1998, Gaussian, Inc.),
 the Gaussian(R) 94 system (copyright 1995, Gaussian, Inc.),
 the Gaussian 92(TM) system (copyright 1992, Gaussian, Inc.),
 the Gaussian 90(TM) system (copyright 1990, Gaussian, Inc.),
 the Gaussian 88(TM) system (copyright 1988, Gaussian, Inc.),
 the Gaussian 86(TM) system (copyright 1986, Carnegie Mellon
 University), and the Gaussian 82(TM) system (copyright 1983,
 Carnegie Mellon University). Gaussian is a federally registered
 trademark of Gaussian, Inc.
  
 This software contains proprietary and confidential information,
 including trade secrets, belonging to Gaussian, Inc.
  
 This software is provided under written license and may be
 used, copied, transmitted, or stored only in accord with that
 written license.
  
 The following legend is applicable only to US Government
 contracts under FAR:
  
                    RESTRICTED RIGHTS LEGEND
  
 Use, reproduction and disclosure by the US Government is
 subject to restrictions as set forth in subparagraphs (a)
 and (c) of the Commercial Computer Software - Restricted
 Rights clause in FAR 52.227-19.
  
 Gaussian, Inc.
 340 Quinnipiac St., Bldg. 40, Wallingford CT 06492
  
  
 ---------------------------------------------------------------
 Warning -- This program may not be used in any manner that
 competes with the business of Gaussian, Inc. or will provide
 assistance to any competitor of Gaussian, Inc.  The licensee
 of this program is prohibited from giving any competitor of
 Gaussian, Inc. access to this program.  By using this program,
 the user acknowledges that Gaussian, Inc. is engaged in the
 business of creating and licensing software in the field of
 computational chemistry and represents and warrants to the
 licensee that it is not a competitor of Gaussian, Inc. and that
 it will not use this program in any manner prohibited above.
 ---------------------------------------------------------------
  

 Cite this work as:
 Gaussian 09, Revision D.01,
 M. J. Frisch, G. W. Trucks, H. B. Schlegel, G. E. Scuseria, 
 M. A. Robb, J. R. Cheeseman, G. Scalmani, V. Barone, B. Mennucci, 
 G. A. Petersson, H. Nakatsuji, M. Caricato, X. Li, H. P. Hratchian, 
 A. F. Izmaylov, J. Bloino, G. Zheng, J. L. Sonnenberg, M. Hada, 
 M. Ehara, K. Toyota, R. Fukuda, J. Hasegawa, M. Ishida, T. Nakajima, 
 Y. Honda, O. Kitao, H. Nakai, T. Vreven, J. A. Montgomery, Jr., 
 J. E. Peralta, F. Ogliaro, M. Bearpark, J. J. Heyd, E. Brothers, 
 K. N. Kudin, V. N. Staroverov, T. Keith, R. Kobayashi, J. Normand, 
 K. Raghavachari, A. Rendell, J. C. Burant, S. S. Iyengar, J. Tomasi, 
 M. Cossi, N. Rega, J. M. Millam, M. Klene, J. E. Knox, J. B. Cross, 
 V. Bakken, C. Adamo, J. Jaramillo, R. Gomperts, R. E. Stratmann, 
 O. Yazyev, A. J. Austin, R. Cammi, C. Pomelli, J. W. Ochterski, 
 R. L. Martin, K. Morokuma, V. G. Zakrzewski, G. A. Voth, 
 P. Salvador, J. J. Dannenberg, S. Dapprich, A. D. Daniels, 
 O. Farkas, J. B. Foresman, J. V. Ortiz, J. Cioslowski, 
 and D. J. Fox, Gaussian, Inc., Wallingford CT, 2013.
 
 ******************************************
 Gaussian 09:  EM64L-G09RevD.01 24-Apr-2013
                28-Apr-2017 
 ******************************************
 %Mem=256MB
 %NProc=12
 Will use up to   12 processors via shared memory.
 ----------------------------------------------------------------------
 #P HF/6-31G* SCF(Conver=6) NoSymm Test Pop=chelpg IOp(6/33=2) GFInput 
 GFPrint
 ----------------------------------------------------------------------
 1/38=1/1;
 2/12=2,15=1,17=6,18=5,40=1/2;
 3/5=1,6=6,7=1,11=9,16=1,24=110,25=1,30=1/1,2,3;
 4//1;
 5/5=2,6=6,38=5/2;
 6/7=2,8=2,9=2,10=2,15=8,20=3,28=1,33=2/1,2;
 99/5=1,9=1/99;
 Leave Link    1 at Fri Apr 28 12:34:29 2017, MaxMem=    33554432 cpu:         0.6
 (Enter /home/michal/g09/l101.exe)
 ----------------------------------------------
 MEP - Input generated by R.E.D.-III.x MOLECULE
 ----------------------------------------------
 Symbolic Z-matrix:
 Charge =  0 Multiplicity = 1
 C                     1.75836  -1.24903   0.05203 
 H                     1.88341  -1.20628  -1.03691 
 C                     3.14657  -1.26282   0.71158 
 H                     3.72588  -2.11086   0.33341 
 H                     3.00274  -1.43506   1.78988 
 C                     3.9055    0.03256   0.4897 
 C                     3.1737    1.33046   0.85357 
 C                     1.74415   1.27223   0.23148 
 H                     1.83927   1.3897   -0.85658 
 H                     1.15942   2.12784   0.58622 
 C                     0.96837  -0.02396   0.51247 
 H                     0.75328  -0.11883   1.58713 
 H                     0.        0.        0. 
 C                     5.1546    0.        0. 
 H                     5.60507  -0.96229  -0.23619 
 C                     6.00341   1.21091  -0.26053 
 H                     7.03653   1.02382   0.05864 
 C                     5.46459   2.47381   0.43571 
 H                     5.70348   2.33603   1.49967 
 C                     3.92607   2.57487   0.26308 
 H                     3.74651   2.55174  -0.82182 
 C                     3.37539   3.9247    0.78148 
 H                     3.38157   3.93497   1.87619 
 H                     2.32476   4.02754   0.48632 
 C                     4.1472    5.16362   0.28321 
 H                     4.02383   5.26248  -0.80468 
 H                     3.69275   6.05332   0.73006 
 C                     5.65405   5.06508   0.60002 
 C                     6.15213   3.75244  -0.06726 
 H                     5.88433   3.84881  -1.12849 
 C                     7.68224   3.84101   0. 
 H                     8.16211   3.2264   -0.76667 
 H                     8.05307   3.49176   0.97218 
 C                     7.96588   5.35592  -0.19273 
 H                     8.64391   5.72928   0.58424 
 H                     8.46036   5.54423  -1.15009 
 C                     6.58869   6.10123  -0.11808 
 H                     6.20069   6.19937  -1.14433 
 C                     5.90121   5.09083   2.12583 
 H                     5.43258   4.24799   2.64054 
 H                     6.96827   5.06182   2.36633 
 H                     5.493     6.0049    2.56953 
 C                     6.72105   7.53892   0.44869 
 H                     7.17349   7.46512   1.44965 
 C                     5.37157   8.26497   0.59082 
 H                     4.84111   8.29784  -0.36932 
 H                     5.51063   9.29636   0.92816 
 H                     4.71573   7.77946   1.31677 
 C                     3.0654    1.4091    2.40129 
 H                     2.38428   2.20669   2.71232 
 H                     2.68502   0.47792   2.82786 
 H                     4.04237   1.59584   2.85778 
 O                     6.0606    1.51148  -1.6824 
 O                     6.79738   0.43719  -2.33098 
 H                     6.08174  -0.01595  -2.80685 
 O                     1.05382  -2.47323   0.27439 
 H                     0.88414  -2.56574   1.22244 
 C                     7.68963   8.37215  -0.42783 
 H                     8.6039    7.79429  -0.60673 
 H                     7.22503   8.51875  -1.41368 
 C                     8.10516   9.72891   0.16621 
 H                     7.24282   10.40212   0.2319 
 H                     8.44018   9.5694    1.20107 
 C                     9.24426   10.42839  -0.59854 
 H                     10.12511   9.77014  -0.59236 
 H                     9.53729   11.33204  -0.04354 
 C                     8.9512    10.83498  -2.05863 
 H                     8.67313   9.93056  -2.61844 
 C                     7.78783   11.83347  -2.1675 
 H                     8.00658   12.74915  -1.60266 
 H                     7.6154    12.12084  -3.21098 
 H                     6.85049   11.41994  -1.78143 
 C                     10.2176   11.40996  -2.71317 
 H                     10.54429   12.32252  -2.19795 
 H                     10.04131   11.66711  -3.76391 
 H                     11.04627   10.6934  -2.67767 
 
 NAtoms=     76 NQM=       76 NQMF=       0 NMMI=      0 NMMIF=      0
                NMic=       0 NMicF=      0.
                    Isotopes and Nuclear Properties:
 (Nuclear quadrupole moments (NQMom) in fm**2, nuclear magnetic moments (NMagM)
  in nuclear magnetons)

  Atom         1           2           3           4           5           6           7           8           9          10
 IAtWgt=          12           1          12           1           1          12          12          12           1           1
 AtmWgt=  12.0000000   1.0078250  12.0000000   1.0078250   1.0078250  12.0000000  12.0000000  12.0000000   1.0078250   1.0078250
 NucSpn=           0           1           0           1           1           0           0           0           1           1
 AtZEff=   0.0000000   0.0000000   0.0000000   0.0000000   0.0000000   0.0000000   0.0000000   0.0000000   0.0000000   0.0000000
 NQMom=    0.0000000   0.0000000   0.0000000   0.0000000   0.0000000   0.0000000   0.0000000   0.0000000   0.0000000   0.0000000
 NMagM=    0.0000000   2.7928460   0.0000000   2.7928460   2.7928460   0.0000000   0.0000000   0.0000000   2.7928460   2.7928460
 AtZNuc=   6.0000000   1.0000000   6.0000000   1.0000000   1.0000000   6.0000000   6.0000000   6.0000000   1.0000000   1.0000000

  Atom        11          12          13          14          15          16          17          18          19          20
 IAtWgt=          12           1           1          12           1          12           1          12           1          12
 AtmWgt=  12.0000000   1.0078250   1.0078250  12.0000000   1.0078250  12.0000000   1.0078250  12.0000000   1.0078250  12.0000000
 NucSpn=           0           1           1           0           1           0           1           0           1           0
 AtZEff=   0.0000000   0.0000000   0.0000000   0.0000000   0.0000000   0.0000000   0.0000000   0.0000000   0.0000000   0.0000000
 NQMom=    0.0000000   0.0000000   0.0000000   0.0000000   0.0000000   0.0000000   0.0000000   0.0000000   0.0000000   0.0000000
 NMagM=    0.0000000   2.7928460   2.7928460   0.0000000   2.7928460   0.0000000   2.7928460   0.0000000   2.7928460   0.0000000
 AtZNuc=   6.0000000   1.0000000   1.0000000   6.0000000   1.0000000   6.0000000   1.0000000   6.0000000   1.0000000   6.0000000

  Atom        21          22          23          24          25          26          27          28          29          30
 IAtWgt=           1          12           1           1          12           1           1          12          12           1
 AtmWgt=   1.0078250  12.0000000   1.0078250   1.0078250  12.0000000   1.0078250   1.0078250  12.0000000  12.0000000   1.0078250
 NucSpn=           1           0           1           1           0           1           1           0           0           1
 AtZEff=   0.0000000   0.0000000   0.0000000   0.0000000   0.0000000   0.0000000   0.0000000   0.0000000   0.0000000   0.0000000
 NQMom=    0.0000000   0.0000000   0.0000000   0.0000000   0.0000000   0.0000000   0.0000000   0.0000000   0.0000000   0.0000000
 NMagM=    2.7928460   0.0000000   2.7928460   2.7928460   0.0000000   2.7928460   2.7928460   0.0000000   0.0000000   2.7928460
 AtZNuc=   1.0000000   6.0000000   1.0000000   1.0000000   6.0000000   1.0000000   1.0000000   6.0000000   6.0000000   1.0000000

  Atom        31          32          33          34          35          36          37          38          39          40
 IAtWgt=          12           1           1          12           1           1          12           1          12           1
 AtmWgt=  12.0000000   1.0078250   1.0078250  12.0000000   1.0078250   1.0078250  12.0000000   1.0078250  12.0000000   1.0078250
 NucSpn=           0           1           1           0           1           1           0           1           0           1
 AtZEff=   0.0000000   0.0000000   0.0000000   0.0000000   0.0000000   0.0000000   0.0000000   0.0000000   0.0000000   0.0000000
 NQMom=    0.0000000   0.0000000   0.0000000   0.0000000   0.0000000   0.0000000   0.0000000   0.0000000   0.0000000   0.0000000
 NMagM=    0.0000000   2.7928460   2.7928460   0.0000000   2.7928460   2.7928460   0.0000000   2.7928460   0.0000000   2.7928460
 AtZNuc=   6.0000000   1.0000000   1.0000000   6.0000000   1.0000000   1.0000000   6.0000000   1.0000000   6.0000000   1.0000000

  Atom        41          42          43          44          45          46          47          48          49          50
 IAtWgt=           1           1          12           1          12           1           1           1          12           1
 AtmWgt=   1.0078250   1.0078250  12.0000000   1.0078250  12.0000000   1.0078250   1.0078250   1.0078250  12.0000000   1.0078250
 NucSpn=           1           1           0           1           0           1           1           1           0           1
 AtZEff=   0.0000000   0.0000000   0.0000000   0.0000000   0.0000000   0.0000000   0.0000000   0.0000000   0.0000000   0.0000000
 NQMom=    0.0000000   0.0000000   0.0000000   0.0000000   0.0000000   0.0000000   0.0000000   0.0000000   0.0000000   0.0000000
 NMagM=    2.7928460   2.7928460   0.0000000   2.7928460   0.0000000   2.7928460   2.7928460   2.7928460   0.0000000   2.7928460
 AtZNuc=   1.0000000   1.0000000   6.0000000   1.0000000   6.0000000   1.0000000   1.0000000   1.0000000   6.0000000   1.0000000

  Atom        51          52          53          54          55          56          57          58          59          60
 IAtWgt=           1           1          16          16           1          16           1          12           1           1
 AtmWgt=   1.0078250   1.0078250  15.9949146  15.9949146   1.0078250  15.9949146   1.0078250  12.0000000   1.0078250   1.0078250
 NucSpn=           1           1           0           0           1           0           1           0           1           1
 AtZEff=   0.0000000   0.0000000   0.0000000   0.0000000   0.0000000   0.0000000   0.0000000   0.0000000   0.0000000   0.0000000
 NQMom=    0.0000000   0.0000000   0.0000000   0.0000000   0.0000000   0.0000000   0.0000000   0.0000000   0.0000000   0.0000000
 NMagM=    2.7928460   2.7928460   0.0000000   0.0000000   2.7928460   0.0000000   2.7928460   0.0000000   2.7928460   2.7928460
 AtZNuc=   1.0000000   1.0000000   8.0000000   8.0000000   1.0000000   8.0000000   1.0000000   6.0000000   1.0000000   1.0000000

  Atom        61          62          63          64          65          66          67          68          69          70
 IAtWgt=          12           1           1          12           1           1          12           1          12           1
 AtmWgt=  12.0000000   1.0078250   1.0078250  12.0000000   1.0078250   1.0078250  12.0000000   1.0078250  12.0000000   1.0078250
 NucSpn=           0           1           1           0           1           1           0           1           0           1
 AtZEff=   0.0000000   0.0000000   0.0000000   0.0000000   0.0000000   0.0000000   0.0000000   0.0000000   0.0000000   0.0000000
 NQMom=    0.0000000   0.0000000   0.0000000   0.0000000   0.0000000   0.0000000   0.0000000   0.0000000   0.0000000   0.0000000
 NMagM=    0.0000000   2.7928460   2.7928460   0.0000000   2.7928460   2.7928460   0.0000000   2.7928460   0.0000000   2.7928460
 AtZNuc=   6.0000000   1.0000000   1.0000000   6.0000000   1.0000000   1.0000000   6.0000000   1.0000000   6.0000000   1.0000000

  Atom        71          72          73          74          75          76
 IAtWgt=           1           1          12           1           1           1
 AtmWgt=   1.0078250   1.0078250  12.0000000   1.0078250   1.0078250   1.0078250
 NucSpn=           1           1           0           1           1           1
 AtZEff=   0.0000000   0.0000000   0.0000000   0.0000000   0.0000000   0.0000000
 NQMom=    0.0000000   0.0000000   0.0000000   0.0000000   0.0000000   0.0000000
 NMagM=    2.7928460   2.7928460   0.0000000   2.7928460   2.7928460   2.7928460
 AtZNuc=   1.0000000   1.0000000   6.0000000   1.0000000   1.0000000   1.0000000
 Leave Link  101 at Fri Apr 28 12:34:29 2017, MaxMem=    33554432 cpu:         1.0
 (Enter /home/michal/g09/l202.exe)
 Symmetry turned off by external request.
 Stoichiometry    C27H46O3
 Framework group  C1[X(C27H46O3)]
 Deg. of freedom   222
 Full point group                 C1      NOp   1
                          Input orientation:                          
 ---------------------------------------------------------------------
 Center     Atomic      Atomic             Coordinates (Angstroms)
 Number     Number       Type             X           Y           Z
 ---------------------------------------------------------------------
      1          6           0        1.758359   -1.249030    0.052028
      2          1           0        1.883413   -1.206279   -1.036911
      3          6           0        3.146565   -1.262816    0.711578
      4          1           0        3.725876   -2.110860    0.333406
      5          1           0        3.002743   -1.435055    1.789885
      6          6           0        3.905499    0.032556    0.489700
      7          6           0        3.173704    1.330462    0.853571
      8          6           0        1.744150    1.272233    0.231476
      9          1           0        1.839272    1.389696   -0.856579
     10          1           0        1.159423    2.127838    0.586218
     11          6           0        0.968372   -0.023963    0.512468
     12          1           0        0.753284   -0.118829    1.587132
     13          1           0        0.000000    0.000000    0.000000
     14          6           0        5.154602    0.000000    0.000000
     15          1           0        5.605074   -0.962287   -0.236194
     16          6           0        6.003406    1.210909   -0.260527
     17          1           0        7.036531    1.023820    0.058643
     18          6           0        5.464595    2.473809    0.435713
     19          1           0        5.703481    2.336031    1.499666
     20          6           0        3.926075    2.574873    0.263080
     21          1           0        3.746512    2.551737   -0.821821
     22          6           0        3.375394    3.924702    0.781483
     23          1           0        3.381574    3.934966    1.876192
     24          1           0        2.324757    4.027544    0.486322
     25          6           0        4.147202    5.163616    0.283214
     26          1           0        4.023834    5.262484   -0.804682
     27          1           0        3.692751    6.053320    0.730060
     28          6           0        5.654049    5.065083    0.600016
     29          6           0        6.152134    3.752435   -0.067265
     30          1           0        5.884333    3.848812   -1.128486
     31          6           0        7.682243    3.841013    0.000000
     32          1           0        8.162105    3.226402   -0.766668
     33          1           0        8.053075    3.491761    0.972177
     34          6           0        7.965876    5.355915   -0.192735
     35          1           0        8.643908    5.729278    0.584239
     36          1           0        8.460361    5.544230   -1.150087
     37          6           0        6.588692    6.101230   -0.118076
     38          1           0        6.200693    6.199369   -1.144328
     39          6           0        5.901208    5.090826    2.125832
     40          1           0        5.432585    4.247988    2.640537
     41          1           0        6.968270    5.061818    2.366333
     42          1           0        5.493003    6.004895    2.569533
     43          6           0        6.721049    7.538921    0.448688
     44          1           0        7.173485    7.465117    1.449645
     45          6           0        5.371571    8.264967    0.590818
     46          1           0        4.841110    8.297841   -0.369317
     47          1           0        5.510635    9.296360    0.928159
     48          1           0        4.715729    7.779461    1.316774
     49          6           0        3.065404    1.409095    2.401293
     50          1           0        2.384277    2.206694    2.712325
     51          1           0        2.685022    0.477921    2.827863
     52          1           0        4.042373    1.595838    2.857782
     53          8           0        6.060595    1.511476   -1.682396
     54          8           0        6.797383    0.437193   -2.330980
     55          1           0        6.081736   -0.015950   -2.806852
     56          8           0        1.053821   -2.473226    0.274387
     57          1           0        0.884142   -2.565743    1.222445
     58          6           0        7.689628    8.372154   -0.427825
     59          1           0        8.603898    7.794287   -0.606725
     60          1           0        7.225026    8.518754   -1.413683
     61          6           0        8.105163    9.728905    0.166212
     62          1           0        7.242817   10.402119    0.231898
     63          1           0        8.440179    9.569404    1.201068
     64          6           0        9.244264   10.428392   -0.598542
     65          1           0       10.125109    9.770138   -0.592359
     66          1           0        9.537295   11.332037   -0.043539
     67          6           0        8.951205   10.834984   -2.058630
     68          1           0        8.673129    9.930563   -2.618435
     69          6           0        7.787825   11.833470   -2.167503
     70          1           0        8.006584   12.749148   -1.602656
     71          1           0        7.615397   12.120845   -3.210976
     72          1           0        6.850491   11.419942   -1.781429
     73          6           0       10.217596   11.409955   -2.713174
     74          1           0       10.544285   12.322520   -2.197951
     75          1           0       10.041308   11.667107   -3.763906
     76          1           0       11.046266   10.693404   -2.677673
 ---------------------------------------------------------------------
 Rotational constants (GHZ):      0.3864282      0.0536688      0.0505183
 Leave Link  202 at Fri Apr 28 12:34:29 2017, MaxMem=    33554432 cpu:         0.0
 (Enter /home/michal/g09/l301.exe)
 Standard basis: 6-31G(d) (6D, 7F)
 Ernie: Thresh=  0.10000D-02 Tol=  0.10000D-05 Strict=F.
 AO basis set in the form of general basis input (Overlap normalization):
      1 0
 S   6 1.00       0.000000000000
      0.3047524880D+04  0.1834737132D-02
      0.4573695180D+03  0.1403732281D-01
      0.1039486850D+03  0.6884262226D-01
      0.2921015530D+02  0.2321844432D+00
      0.9286662960D+01  0.4679413484D+00
      0.3163926960D+01  0.3623119853D+00
 SP   3 1.00       0.000000000000
      0.7868272350D+01 -0.1193324198D+00  0.6899906659D-01
      0.1881288540D+01 -0.1608541517D+00  0.3164239610D+00
      0.5442492580D+00  0.1143456438D+01  0.7443082909D+00
 SP   1 1.00       0.000000000000
      0.1687144782D+00  0.1000000000D+01  0.1000000000D+01
 D   1 1.00       0.000000000000
      0.8000000000D+00  0.1000000000D+01
 ****
      2 0
 S   3 1.00       0.000000000000
      0.1873113696D+02  0.3349460434D-01
      0.2825394365D+01  0.2347269535D+00
      0.6401216923D+00  0.8137573261D+00
 S   1 1.00       0.000000000000
      0.1612777588D+00  0.1000000000D+01
 ****
      3 0
 S   6 1.00       0.000000000000
      0.3047524880D+04  0.1834737132D-02
      0.4573695180D+03  0.1403732281D-01
      0.1039486850D+03  0.6884262226D-01
      0.2921015530D+02  0.2321844432D+00
      0.9286662960D+01  0.4679413484D+00
      0.3163926960D+01  0.3623119853D+00
 SP   3 1.00       0.000000000000
      0.7868272350D+01 -0.1193324198D+00  0.6899906659D-01
      0.1881288540D+01 -0.1608541517D+00  0.3164239610D+00
      0.5442492580D+00  0.1143456438D+01  0.7443082909D+00
 SP   1 1.00       0.000000000000
      0.1687144782D+00  0.1000000000D+01  0.1000000000D+01
 D   1 1.00       0.000000000000
      0.8000000000D+00  0.1000000000D+01
 ****
      4 0
 S   3 1.00       0.000000000000
      0.1873113696D+02  0.3349460434D-01
      0.2825394365D+01  0.2347269535D+00
      0.6401216923D+00  0.8137573261D+00
 S   1 1.00       0.000000000000
      0.1612777588D+00  0.1000000000D+01
 ****
      5 0
 S   3 1.00       0.000000000000
      0.1873113696D+02  0.3349460434D-01
      0.2825394365D+01  0.2347269535D+00
      0.6401216923D+00  0.8137573261D+00
 S   1 1.00       0.000000000000
      0.1612777588D+00  0.1000000000D+01
 ****
      6 0
 S   6 1.00       0.000000000000
      0.3047524880D+04  0.1834737132D-02
      0.4573695180D+03  0.1403732281D-01
      0.1039486850D+03  0.6884262226D-01
      0.2921015530D+02  0.2321844432D+00
      0.9286662960D+01  0.4679413484D+00
      0.3163926960D+01  0.3623119853D+00
 SP   3 1.00       0.000000000000
      0.7868272350D+01 -0.1193324198D+00  0.6899906659D-01
      0.1881288540D+01 -0.1608541517D+00  0.3164239610D+00
      0.5442492580D+00  0.1143456438D+01  0.7443082909D+00
 SP   1 1.00       0.000000000000
      0.1687144782D+00  0.1000000000D+01  0.1000000000D+01
 D   1 1.00       0.000000000000
      0.8000000000D+00  0.1000000000D+01
 ****
      7 0
 S   6 1.00       0.000000000000
      0.3047524880D+04  0.1834737132D-02
      0.4573695180D+03  0.1403732281D-01
      0.1039486850D+03  0.6884262226D-01
      0.2921015530D+02  0.2321844432D+00
      0.9286662960D+01  0.4679413484D+00
      0.3163926960D+01  0.3623119853D+00
 SP   3 1.00       0.000000000000
      0.7868272350D+01 -0.1193324198D+00  0.6899906659D-01
      0.1881288540D+01 -0.1608541517D+00  0.3164239610D+00
      0.5442492580D+00  0.1143456438D+01  0.7443082909D+00
 SP   1 1.00       0.000000000000
      0.1687144782D+00  0.1000000000D+01  0.1000000000D+01
 D   1 1.00       0.000000000000
      0.8000000000D+00  0.1000000000D+01
 ****
      8 0
 S   6 1.00       0.000000000000
      0.3047524880D+04  0.1834737132D-02
      0.4573695180D+03  0.1403732281D-01
      0.1039486850D+03  0.6884262226D-01
      0.2921015530D+02  0.2321844432D+00
      0.9286662960D+01  0.4679413484D+00
      0.3163926960D+01  0.3623119853D+00
 SP   3 1.00       0.000000000000
      0.7868272350D+01 -0.1193324198D+00  0.6899906659D-01
      0.1881288540D+01 -0.1608541517D+00  0.3164239610D+00
      0.5442492580D+00  0.1143456438D+01  0.7443082909D+00
 SP   1 1.00       0.000000000000
      0.1687144782D+00  0.1000000000D+01  0.1000000000D+01
 D   1 1.00       0.000000000000
      0.8000000000D+00  0.1000000000D+01
 ****
      9 0
 S   3 1.00       0.000000000000
      0.1873113696D+02  0.3349460434D-01
      0.2825394365D+01  0.2347269535D+00
      0.6401216923D+00  0.8137573261D+00
 S   1 1.00       0.000000000000
      0.1612777588D+00  0.1000000000D+01
 ****
     10 0
 S   3 1.00       0.000000000000
      0.1873113696D+02  0.3349460434D-01
      0.2825394365D+01  0.2347269535D+00
      0.6401216923D+00  0.8137573261D+00
 S   1 1.00       0.000000000000
      0.1612777588D+00  0.1000000000D+01
 ****
     11 0
 S   6 1.00       0.000000000000
      0.3047524880D+04  0.1834737132D-02
      0.4573695180D+03  0.1403732281D-01
      0.1039486850D+03  0.6884262226D-01
      0.2921015530D+02  0.2321844432D+00
      0.9286662960D+01  0.4679413484D+00
      0.3163926960D+01  0.3623119853D+00
 SP   3 1.00       0.000000000000
      0.7868272350D+01 -0.1193324198D+00  0.6899906659D-01
      0.1881288540D+01 -0.1608541517D+00  0.3164239610D+00
      0.5442492580D+00  0.1143456438D+01  0.7443082909D+00
 SP   1 1.00       0.000000000000
      0.1687144782D+00  0.1000000000D+01  0.1000000000D+01
 D   1 1.00       0.000000000000
      0.8000000000D+00  0.1000000000D+01
 ****
     12 0
 S   3 1.00       0.000000000000
      0.1873113696D+02  0.3349460434D-01
      0.2825394365D+01  0.2347269535D+00
      0.6401216923D+00  0.8137573261D+00
 S   1 1.00       0.000000000000
      0.1612777588D+00  0.1000000000D+01
 ****
     13 0
 S   3 1.00       0.000000000000
      0.1873113696D+02  0.3349460434D-01
      0.2825394365D+01  0.2347269535D+00
      0.6401216923D+00  0.8137573261D+00
 S   1 1.00       0.000000000000
      0.1612777588D+00  0.1000000000D+01
 ****
     14 0
 S   6 1.00       0.000000000000
      0.3047524880D+04  0.1834737132D-02
      0.4573695180D+03  0.1403732281D-01
      0.1039486850D+03  0.6884262226D-01
      0.2921015530D+02  0.2321844432D+00
      0.9286662960D+01  0.4679413484D+00
      0.3163926960D+01  0.3623119853D+00
 SP   3 1.00       0.000000000000
      0.7868272350D+01 -0.1193324198D+00  0.6899906659D-01
      0.1881288540D+01 -0.1608541517D+00  0.3164239610D+00
      0.5442492580D+00  0.1143456438D+01  0.7443082909D+00
 SP   1 1.00       0.000000000000
      0.1687144782D+00  0.1000000000D+01  0.1000000000D+01
 D   1 1.00       0.000000000000
      0.8000000000D+00  0.1000000000D+01
 ****
     15 0
 S   3 1.00       0.000000000000
      0.1873113696D+02  0.3349460434D-01
      0.2825394365D+01  0.2347269535D+00
      0.6401216923D+00  0.8137573261D+00
 S   1 1.00       0.000000000000
      0.1612777588D+00  0.1000000000D+01
 ****
     16 0
 S   6 1.00       0.000000000000
      0.3047524880D+04  0.1834737132D-02
      0.4573695180D+03  0.1403732281D-01
      0.1039486850D+03  0.6884262226D-01
      0.2921015530D+02  0.2321844432D+00
      0.9286662960D+01  0.4679413484D+00
      0.3163926960D+01  0.3623119853D+00
 SP   3 1.00       0.000000000000
      0.7868272350D+01 -0.1193324198D+00  0.6899906659D-01
      0.1881288540D+01 -0.1608541517D+00  0.3164239610D+00
      0.5442492580D+00  0.1143456438D+01  0.7443082909D+00
 SP   1 1.00       0.000000000000
      0.1687144782D+00  0.1000000000D+01  0.1000000000D+01
 D   1 1.00       0.000000000000
      0.8000000000D+00  0.1000000000D+01
 ****
     17 0
 S   3 1.00       0.000000000000
      0.1873113696D+02  0.3349460434D-01
      0.2825394365D+01  0.2347269535D+00
      0.6401216923D+00  0.8137573261D+00
 S   1 1.00       0.000000000000
      0.1612777588D+00  0.1000000000D+01
 ****
     18 0
 S   6 1.00       0.000000000000
      0.3047524880D+04  0.1834737132D-02
      0.4573695180D+03  0.1403732281D-01
      0.1039486850D+03  0.6884262226D-01
      0.2921015530D+02  0.2321844432D+00
      0.9286662960D+01  0.4679413484D+00
      0.3163926960D+01  0.3623119853D+00
 SP   3 1.00       0.000000000000
      0.7868272350D+01 -0.1193324198D+00  0.6899906659D-01
      0.1881288540D+01 -0.1608541517D+00  0.3164239610D+00
      0.5442492580D+00  0.1143456438D+01  0.7443082909D+00
 SP   1 1.00       0.000000000000
      0.1687144782D+00  0.1000000000D+01  0.1000000000D+01
 D   1 1.00       0.000000000000
      0.8000000000D+00  0.1000000000D+01
 ****
     19 0
 S   3 1.00       0.000000000000
      0.1873113696D+02  0.3349460434D-01
      0.2825394365D+01  0.2347269535D+00
      0.6401216923D+00  0.8137573261D+00
 S   1 1.00       0.000000000000
      0.1612777588D+00  0.1000000000D+01
 ****
     20 0
 S   6 1.00       0.000000000000
      0.3047524880D+04  0.1834737132D-02
      0.4573695180D+03  0.1403732281D-01
      0.1039486850D+03  0.6884262226D-01
      0.2921015530D+02  0.2321844432D+00
      0.9286662960D+01  0.4679413484D+00
      0.3163926960D+01  0.3623119853D+00
 SP   3 1.00       0.000000000000
      0.7868272350D+01 -0.1193324198D+00  0.6899906659D-01
      0.1881288540D+01 -0.1608541517D+00  0.3164239610D+00
      0.5442492580D+00  0.1143456438D+01  0.7443082909D+00
 SP   1 1.00       0.000000000000
      0.1687144782D+00  0.1000000000D+01  0.1000000000D+01
 D   1 1.00       0.000000000000
      0.8000000000D+00  0.1000000000D+01
 ****
     21 0
 S   3 1.00       0.000000000000
      0.1873113696D+02  0.3349460434D-01
      0.2825394365D+01  0.2347269535D+00
      0.6401216923D+00  0.8137573261D+00
 S   1 1.00       0.000000000000
      0.1612777588D+00  0.1000000000D+01
 ****
     22 0
 S   6 1.00       0.000000000000
      0.3047524880D+04  0.1834737132D-02
      0.4573695180D+03  0.1403732281D-01
      0.1039486850D+03  0.6884262226D-01
      0.2921015530D+02  0.2321844432D+00
      0.9286662960D+01  0.4679413484D+00
      0.3163926960D+01  0.3623119853D+00
 SP   3 1.00       0.000000000000
      0.7868272350D+01 -0.1193324198D+00  0.6899906659D-01
      0.1881288540D+01 -0.1608541517D+00  0.3164239610D+00
      0.5442492580D+00  0.1143456438D+01  0.7443082909D+00
 SP   1 1.00       0.000000000000
      0.1687144782D+00  0.1000000000D+01  0.1000000000D+01
 D   1 1.00       0.000000000000
      0.8000000000D+00  0.1000000000D+01
 ****
     23 0
 S   3 1.00       0.000000000000
      0.1873113696D+02  0.3349460434D-01
      0.2825394365D+01  0.2347269535D+00
      0.6401216923D+00  0.8137573261D+00
 S   1 1.00       0.000000000000
      0.1612777588D+00  0.1000000000D+01
 ****
     24 0
 S   3 1.00       0.000000000000
      0.1873113696D+02  0.3349460434D-01
      0.2825394365D+01  0.2347269535D+00
      0.6401216923D+00  0.8137573261D+00
 S   1 1.00       0.000000000000
      0.1612777588D+00  0.1000000000D+01
 ****
     25 0
 S   6 1.00       0.000000000000
      0.3047524880D+04  0.1834737132D-02
      0.4573695180D+03  0.1403732281D-01
      0.1039486850D+03  0.6884262226D-01
      0.2921015530D+02  0.2321844432D+00
      0.9286662960D+01  0.4679413484D+00
      0.3163926960D+01  0.3623119853D+00
 SP   3 1.00       0.000000000000
      0.7868272350D+01 -0.1193324198D+00  0.6899906659D-01
      0.1881288540D+01 -0.1608541517D+00  0.3164239610D+00
      0.5442492580D+00  0.1143456438D+01  0.7443082909D+00
 SP   1 1.00       0.000000000000
      0.1687144782D+00  0.1000000000D+01  0.1000000000D+01
 D   1 1.00       0.000000000000
      0.8000000000D+00  0.1000000000D+01
 ****
     26 0
 S   3 1.00       0.000000000000
      0.1873113696D+02  0.3349460434D-01
      0.2825394365D+01  0.2347269535D+00
      0.6401216923D+00  0.8137573261D+00
 S   1 1.00       0.000000000000
      0.1612777588D+00  0.1000000000D+01
 ****
     27 0
 S   3 1.00       0.000000000000
      0.1873113696D+02  0.3349460434D-01
      0.2825394365D+01  0.2347269535D+00
      0.6401216923D+00  0.8137573261D+00
 S   1 1.00       0.000000000000
      0.1612777588D+00  0.1000000000D+01
 ****
     28 0
 S   6 1.00       0.000000000000
      0.3047524880D+04  0.1834737132D-02
      0.4573695180D+03  0.1403732281D-01
      0.1039486850D+03  0.6884262226D-01
      0.2921015530D+02  0.2321844432D+00
      0.9286662960D+01  0.4679413484D+00
      0.3163926960D+01  0.3623119853D+00
 SP   3 1.00       0.000000000000
      0.7868272350D+01 -0.1193324198D+00  0.6899906659D-01
      0.1881288540D+01 -0.1608541517D+00  0.3164239610D+00
      0.5442492580D+00  0.1143456438D+01  0.7443082909D+00
 SP   1 1.00       0.000000000000
      0.1687144782D+00  0.1000000000D+01  0.1000000000D+01
 D   1 1.00       0.000000000000
      0.8000000000D+00  0.1000000000D+01
 ****
     29 0
 S   6 1.00       0.000000000000
      0.3047524880D+04  0.1834737132D-02
      0.4573695180D+03  0.1403732281D-01
      0.1039486850D+03  0.6884262226D-01
      0.2921015530D+02  0.2321844432D+00
      0.9286662960D+01  0.4679413484D+00
      0.3163926960D+01  0.3623119853D+00
 SP   3 1.00       0.000000000000
      0.7868272350D+01 -0.1193324198D+00  0.6899906659D-01
      0.1881288540D+01 -0.1608541517D+00  0.3164239610D+00
      0.5442492580D+00  0.1143456438D+01  0.7443082909D+00
 SP   1 1.00       0.000000000000
      0.1687144782D+00  0.1000000000D+01  0.1000000000D+01
 D   1 1.00       0.000000000000
      0.8000000000D+00  0.1000000000D+01
 ****
     30 0
 S   3 1.00       0.000000000000
      0.1873113696D+02  0.3349460434D-01
      0.2825394365D+01  0.2347269535D+00
      0.6401216923D+00  0.8137573261D+00
 S   1 1.00       0.000000000000
      0.1612777588D+00  0.1000000000D+01
 ****
     31 0
 S   6 1.00       0.000000000000
      0.3047524880D+04  0.1834737132D-02
      0.4573695180D+03  0.1403732281D-01
      0.1039486850D+03  0.6884262226D-01
      0.2921015530D+02  0.2321844432D+00
      0.9286662960D+01  0.4679413484D+00
      0.3163926960D+01  0.3623119853D+00
 SP   3 1.00       0.000000000000
      0.7868272350D+01 -0.1193324198D+00  0.6899906659D-01
      0.1881288540D+01 -0.1608541517D+00  0.3164239610D+00
      0.5442492580D+00  0.1143456438D+01  0.7443082909D+00
 SP   1 1.00       0.000000000000
      0.1687144782D+00  0.1000000000D+01  0.1000000000D+01
 D   1 1.00       0.000000000000
      0.8000000000D+00  0.1000000000D+01
 ****
     32 0
 S   3 1.00       0.000000000000
      0.1873113696D+02  0.3349460434D-01
      0.2825394365D+01  0.2347269535D+00
      0.6401216923D+00  0.8137573261D+00
 S   1 1.00       0.000000000000
      0.1612777588D+00  0.1000000000D+01
 ****
     33 0
 S   3 1.00       0.000000000000
      0.1873113696D+02  0.3349460434D-01
      0.2825394365D+01  0.2347269535D+00
      0.6401216923D+00  0.8137573261D+00
 S   1 1.00       0.000000000000
      0.1612777588D+00  0.1000000000D+01
 ****
     34 0
 S   6 1.00       0.000000000000
      0.3047524880D+04  0.1834737132D-02
      0.4573695180D+03  0.1403732281D-01
      0.1039486850D+03  0.6884262226D-01
      0.2921015530D+02  0.2321844432D+00
      0.9286662960D+01  0.4679413484D+00
      0.3163926960D+01  0.3623119853D+00
 SP   3 1.00       0.000000000000
      0.7868272350D+01 -0.1193324198D+00  0.6899906659D-01
      0.1881288540D+01 -0.1608541517D+00  0.3164239610D+00
      0.5442492580D+00  0.1143456438D+01  0.7443082909D+00
 SP   1 1.00       0.000000000000
      0.1687144782D+00  0.1000000000D+01  0.1000000000D+01
 D   1 1.00       0.000000000000
      0.8000000000D+00  0.1000000000D+01
 ****
     35 0
 S   3 1.00       0.000000000000
      0.1873113696D+02  0.3349460434D-01
      0.2825394365D+01  0.2347269535D+00
      0.6401216923D+00  0.8137573261D+00
 S   1 1.00       0.000000000000
      0.1612777588D+00  0.1000000000D+01
 ****
     36 0
 S   3 1.00       0.000000000000
      0.1873113696D+02  0.3349460434D-01
      0.2825394365D+01  0.2347269535D+00
      0.6401216923D+00  0.8137573261D+00
 S   1 1.00       0.000000000000
      0.1612777588D+00  0.1000000000D+01
 ****
     37 0
 S   6 1.00       0.000000000000
      0.3047524880D+04  0.1834737132D-02
      0.4573695180D+03  0.1403732281D-01
      0.1039486850D+03  0.6884262226D-01
      0.2921015530D+02  0.2321844432D+00
      0.9286662960D+01  0.4679413484D+00
      0.3163926960D+01  0.3623119853D+00
 SP   3 1.00       0.000000000000
      0.7868272350D+01 -0.1193324198D+00  0.6899906659D-01
      0.1881288540D+01 -0.1608541517D+00  0.3164239610D+00
      0.5442492580D+00  0.1143456438D+01  0.7443082909D+00
 SP   1 1.00       0.000000000000
      0.1687144782D+00  0.1000000000D+01  0.1000000000D+01
 D   1 1.00       0.000000000000
      0.8000000000D+00  0.1000000000D+01
 ****
     38 0
 S   3 1.00       0.000000000000
      0.1873113696D+02  0.3349460434D-01
      0.2825394365D+01  0.2347269535D+00
      0.6401216923D+00  0.8137573261D+00
 S   1 1.00       0.000000000000
      0.1612777588D+00  0.1000000000D+01
 ****
     39 0
 S   6 1.00       0.000000000000
      0.3047524880D+04  0.1834737132D-02
      0.4573695180D+03  0.1403732281D-01
      0.1039486850D+03  0.6884262226D-01
      0.2921015530D+02  0.2321844432D+00
      0.9286662960D+01  0.4679413484D+00
      0.3163926960D+01  0.3623119853D+00
 SP   3 1.00       0.000000000000
      0.7868272350D+01 -0.1193324198D+00  0.6899906659D-01
      0.1881288540D+01 -0.1608541517D+00  0.3164239610D+00
      0.5442492580D+00  0.1143456438D+01  0.7443082909D+00
 SP   1 1.00       0.000000000000
      0.1687144782D+00  0.1000000000D+01  0.1000000000D+01
 D   1 1.00       0.000000000000
      0.8000000000D+00  0.1000000000D+01
 ****
     40 0
 S   3 1.00       0.000000000000
      0.1873113696D+02  0.3349460434D-01
      0.2825394365D+01  0.2347269535D+00
      0.6401216923D+00  0.8137573261D+00
 S   1 1.00       0.000000000000
      0.1612777588D+00  0.1000000000D+01
 ****
     41 0
 S   3 1.00       0.000000000000
      0.1873113696D+02  0.3349460434D-01
      0.2825394365D+01  0.2347269535D+00
      0.6401216923D+00  0.8137573261D+00
 S   1 1.00       0.000000000000
      0.1612777588D+00  0.1000000000D+01
 ****
     42 0
 S   3 1.00       0.000000000000
      0.1873113696D+02  0.3349460434D-01
      0.2825394365D+01  0.2347269535D+00
      0.6401216923D+00  0.8137573261D+00
 S   1 1.00       0.000000000000
      0.1612777588D+00  0.1000000000D+01
 ****
     43 0
 S   6 1.00       0.000000000000
      0.3047524880D+04  0.1834737132D-02
      0.4573695180D+03  0.1403732281D-01
      0.1039486850D+03  0.6884262226D-01
      0.2921015530D+02  0.2321844432D+00
      0.9286662960D+01  0.4679413484D+00
      0.3163926960D+01  0.3623119853D+00
 SP   3 1.00       0.000000000000
      0.7868272350D+01 -0.1193324198D+00  0.6899906659D-01
      0.1881288540D+01 -0.1608541517D+00  0.3164239610D+00
      0.5442492580D+00  0.1143456438D+01  0.7443082909D+00
 SP   1 1.00       0.000000000000
      0.1687144782D+00  0.1000000000D+01  0.1000000000D+01
 D   1 1.00       0.000000000000
      0.8000000000D+00  0.1000000000D+01
 ****
     44 0
 S   3 1.00       0.000000000000
      0.1873113696D+02  0.3349460434D-01
      0.2825394365D+01  0.2347269535D+00
      0.6401216923D+00  0.8137573261D+00
 S   1 1.00       0.000000000000
      0.1612777588D+00  0.1000000000D+01
 ****
     45 0
 S   6 1.00       0.000000000000
      0.3047524880D+04  0.1834737132D-02
      0.4573695180D+03  0.1403732281D-01
      0.1039486850D+03  0.6884262226D-01
      0.2921015530D+02  0.2321844432D+00
      0.9286662960D+01  0.4679413484D+00
      0.3163926960D+01  0.3623119853D+00
 SP   3 1.00       0.000000000000
      0.7868272350D+01 -0.1193324198D+00  0.6899906659D-01
      0.1881288540D+01 -0.1608541517D+00  0.3164239610D+00
      0.5442492580D+00  0.1143456438D+01  0.7443082909D+00
 SP   1 1.00       0.000000000000
      0.1687144782D+00  0.1000000000D+01  0.1000000000D+01
 D   1 1.00       0.000000000000
      0.8000000000D+00  0.1000000000D+01
 ****
     46 0
 S   3 1.00       0.000000000000
      0.1873113696D+02  0.3349460434D-01
      0.2825394365D+01  0.2347269535D+00
      0.6401216923D+00  0.8137573261D+00
 S   1 1.00       0.000000000000
      0.1612777588D+00  0.1000000000D+01
 ****
     47 0
 S   3 1.00       0.000000000000
      0.1873113696D+02  0.3349460434D-01
      0.2825394365D+01  0.2347269535D+00
      0.6401216923D+00  0.8137573261D+00
 S   1 1.00       0.000000000000
      0.1612777588D+00  0.1000000000D+01
 ****
     48 0
 S   3 1.00       0.000000000000
      0.1873113696D+02  0.3349460434D-01
      0.2825394365D+01  0.2347269535D+00
      0.6401216923D+00  0.8137573261D+00
 S   1 1.00       0.000000000000
      0.1612777588D+00  0.1000000000D+01
 ****
     49 0
 S   6 1.00       0.000000000000
      0.3047524880D+04  0.1834737132D-02
      0.4573695180D+03  0.1403732281D-01
      0.1039486850D+03  0.6884262226D-01
      0.2921015530D+02  0.2321844432D+00
      0.9286662960D+01  0.4679413484D+00
      0.3163926960D+01  0.3623119853D+00
 SP   3 1.00       0.000000000000
      0.7868272350D+01 -0.1193324198D+00  0.6899906659D-01
      0.1881288540D+01 -0.1608541517D+00  0.3164239610D+00
      0.5442492580D+00  0.1143456438D+01  0.7443082909D+00
 SP   1 1.00       0.000000000000
      0.1687144782D+00  0.1000000000D+01  0.1000000000D+01
 D   1 1.00       0.000000000000
      0.8000000000D+00  0.1000000000D+01
 ****
     50 0
 S   3 1.00       0.000000000000
      0.1873113696D+02  0.3349460434D-01
      0.2825394365D+01  0.2347269535D+00
      0.6401216923D+00  0.8137573261D+00
 S   1 1.00       0.000000000000
      0.1612777588D+00  0.1000000000D+01
 ****
     51 0
 S   3 1.00       0.000000000000
      0.1873113696D+02  0.3349460434D-01
      0.2825394365D+01  0.2347269535D+00
      0.6401216923D+00  0.8137573261D+00
 S   1 1.00       0.000000000000
      0.1612777588D+00  0.1000000000D+01
 ****
     52 0
 S   3 1.00       0.000000000000
      0.1873113696D+02  0.3349460434D-01
      0.2825394365D+01  0.2347269535D+00
      0.6401216923D+00  0.8137573261D+00
 S   1 1.00       0.000000000000
      0.1612777588D+00  0.1000000000D+01
 ****
     53 0
 S   6 1.00       0.000000000000
      0.5484671660D+04  0.1831074430D-02
      0.8252349460D+03  0.1395017220D-01
      0.1880469580D+03  0.6844507810D-01
      0.5296450000D+02  0.2327143360D+00
      0.1689757040D+02  0.4701928980D+00
      0.5799635340D+01  0.3585208530D+00
 SP   3 1.00       0.000000000000
      0.1553961625D+02 -0.1107775495D+00  0.7087426823D-01
      0.3599933586D+01 -0.1480262627D+00  0.3397528391D+00
      0.1013761750D+01  0.1130767015D+01  0.7271585773D+00
 SP   1 1.00       0.000000000000
      0.2700058226D+00  0.1000000000D+01  0.1000000000D+01
 D   1 1.00       0.000000000000
      0.8000000000D+00  0.1000000000D+01
 ****
     54 0
 S   6 1.00       0.000000000000
      0.5484671660D+04  0.1831074430D-02
      0.8252349460D+03  0.1395017220D-01
      0.1880469580D+03  0.6844507810D-01
      0.5296450000D+02  0.2327143360D+00
      0.1689757040D+02  0.4701928980D+00
      0.5799635340D+01  0.3585208530D+00
 SP   3 1.00       0.000000000000
      0.1553961625D+02 -0.1107775495D+00  0.7087426823D-01
      0.3599933586D+01 -0.1480262627D+00  0.3397528391D+00
      0.1013761750D+01  0.1130767015D+01  0.7271585773D+00
 SP   1 1.00       0.000000000000
      0.2700058226D+00  0.1000000000D+01  0.1000000000D+01
 D   1 1.00       0.000000000000
      0.8000000000D+00  0.1000000000D+01
 ****
     55 0
 S   3 1.00       0.000000000000
      0.1873113696D+02  0.3349460434D-01
      0.2825394365D+01  0.2347269535D+00
      0.6401216923D+00  0.8137573261D+00
 S   1 1.00       0.000000000000
      0.1612777588D+00  0.1000000000D+01
 ****
     56 0
 S   6 1.00       0.000000000000
      0.5484671660D+04  0.1831074430D-02
      0.8252349460D+03  0.1395017220D-01
      0.1880469580D+03  0.6844507810D-01
      0.5296450000D+02  0.2327143360D+00
      0.1689757040D+02  0.4701928980D+00
      0.5799635340D+01  0.3585208530D+00
 SP   3 1.00       0.000000000000
      0.1553961625D+02 -0.1107775495D+00  0.7087426823D-01
      0.3599933586D+01 -0.1480262627D+00  0.3397528391D+00
      0.1013761750D+01  0.1130767015D+01  0.7271585773D+00
 SP   1 1.00       0.000000000000
      0.2700058226D+00  0.1000000000D+01  0.1000000000D+01
 D   1 1.00       0.000000000000
      0.8000000000D+00  0.1000000000D+01
 ****
     57 0
 S   3 1.00       0.000000000000
      0.1873113696D+02  0.3349460434D-01
      0.2825394365D+01  0.2347269535D+00
      0.6401216923D+00  0.8137573261D+00
 S   1 1.00       0.000000000000
      0.1612777588D+00  0.1000000000D+01
 ****
     58 0
 S   6 1.00       0.000000000000
      0.3047524880D+04  0.1834737132D-02
      0.4573695180D+03  0.1403732281D-01
      0.1039486850D+03  0.6884262226D-01
      0.2921015530D+02  0.2321844432D+00
      0.9286662960D+01  0.4679413484D+00
      0.3163926960D+01  0.3623119853D+00
 SP   3 1.00       0.000000000000
      0.7868272350D+01 -0.1193324198D+00  0.6899906659D-01
      0.1881288540D+01 -0.1608541517D+00  0.3164239610D+00
      0.5442492580D+00  0.1143456438D+01  0.7443082909D+00
 SP   1 1.00       0.000000000000
      0.1687144782D+00  0.1000000000D+01  0.1000000000D+01
 D   1 1.00       0.000000000000
      0.8000000000D+00  0.1000000000D+01
 ****
     59 0
 S   3 1.00       0.000000000000
      0.1873113696D+02  0.3349460434D-01
      0.2825394365D+01  0.2347269535D+00
      0.6401216923D+00  0.8137573261D+00
 S   1 1.00       0.000000000000
      0.1612777588D+00  0.1000000000D+01
 ****
     60 0
 S   3 1.00       0.000000000000
      0.1873113696D+02  0.3349460434D-01
      0.2825394365D+01  0.2347269535D+00
      0.6401216923D+00  0.8137573261D+00
 S   1 1.00       0.000000000000
      0.1612777588D+00  0.1000000000D+01
 ****
     61 0
 S   6 1.00       0.000000000000
      0.3047524880D+04  0.1834737132D-02
      0.4573695180D+03  0.1403732281D-01
      0.1039486850D+03  0.6884262226D-01
      0.2921015530D+02  0.2321844432D+00
      0.9286662960D+01  0.4679413484D+00
      0.3163926960D+01  0.3623119853D+00
 SP   3 1.00       0.000000000000
      0.7868272350D+01 -0.1193324198D+00  0.6899906659D-01
      0.1881288540D+01 -0.1608541517D+00  0.3164239610D+00
      0.5442492580D+00  0.1143456438D+01  0.7443082909D+00
 SP   1 1.00       0.000000000000
      0.1687144782D+00  0.1000000000D+01  0.1000000000D+01
 D   1 1.00       0.000000000000
      0.8000000000D+00  0.1000000000D+01
 ****
     62 0
 S   3 1.00       0.000000000000
      0.1873113696D+02  0.3349460434D-01
      0.2825394365D+01  0.2347269535D+00
      0.6401216923D+00  0.8137573261D+00
 S   1 1.00       0.000000000000
      0.1612777588D+00  0.1000000000D+01
 ****
     63 0
 S   3 1.00       0.000000000000
      0.1873113696D+02  0.3349460434D-01
      0.2825394365D+01  0.2347269535D+00
      0.6401216923D+00  0.8137573261D+00
 S   1 1.00       0.000000000000
      0.1612777588D+00  0.1000000000D+01
 ****
     64 0
 S   6 1.00       0.000000000000
      0.3047524880D+04  0.1834737132D-02
      0.4573695180D+03  0.1403732281D-01
      0.1039486850D+03  0.6884262226D-01
      0.2921015530D+02  0.2321844432D+00
      0.9286662960D+01  0.4679413484D+00
      0.3163926960D+01  0.3623119853D+00
 SP   3 1.00       0.000000000000
      0.7868272350D+01 -0.1193324198D+00  0.6899906659D-01
      0.1881288540D+01 -0.1608541517D+00  0.3164239610D+00
      0.5442492580D+00  0.1143456438D+01  0.7443082909D+00
 SP   1 1.00       0.000000000000
      0.1687144782D+00  0.1000000000D+01  0.1000000000D+01
 D   1 1.00       0.000000000000
      0.8000000000D+00  0.1000000000D+01
 ****
     65 0
 S   3 1.00       0.000000000000
      0.1873113696D+02  0.3349460434D-01
      0.2825394365D+01  0.2347269535D+00
      0.6401216923D+00  0.8137573261D+00
 S   1 1.00       0.000000000000
      0.1612777588D+00  0.1000000000D+01
 ****
     66 0
 S   3 1.00       0.000000000000
      0.1873113696D+02  0.3349460434D-01
      0.2825394365D+01  0.2347269535D+00
      0.6401216923D+00  0.8137573261D+00
 S   1 1.00       0.000000000000
      0.1612777588D+00  0.1000000000D+01
 ****
     67 0
 S   6 1.00       0.000000000000
      0.3047524880D+04  0.1834737132D-02
      0.4573695180D+03  0.1403732281D-01
      0.1039486850D+03  0.6884262226D-01
      0.2921015530D+02  0.2321844432D+00
      0.9286662960D+01  0.4679413484D+00
      0.3163926960D+01  0.3623119853D+00
 SP   3 1.00       0.000000000000
      0.7868272350D+01 -0.1193324198D+00  0.6899906659D-01
      0.1881288540D+01 -0.1608541517D+00  0.3164239610D+00
      0.5442492580D+00  0.1143456438D+01  0.7443082909D+00
 SP   1 1.00       0.000000000000
      0.1687144782D+00  0.1000000000D+01  0.1000000000D+01
 D   1 1.00       0.000000000000
      0.8000000000D+00  0.1000000000D+01
 ****
     68 0
 S   3 1.00       0.000000000000
      0.1873113696D+02  0.3349460434D-01
      0.2825394365D+01  0.2347269535D+00
      0.6401216923D+00  0.8137573261D+00
 S   1 1.00       0.000000000000
      0.1612777588D+00  0.1000000000D+01
 ****
     69 0
 S   6 1.00       0.000000000000
      0.3047524880D+04  0.1834737132D-02
      0.4573695180D+03  0.1403732281D-01
      0.1039486850D+03  0.6884262226D-01
      0.2921015530D+02  0.2321844432D+00
      0.9286662960D+01  0.4679413484D+00
      0.3163926960D+01  0.3623119853D+00
 SP   3 1.00       0.000000000000
      0.7868272350D+01 -0.1193324198D+00  0.6899906659D-01
      0.1881288540D+01 -0.1608541517D+00  0.3164239610D+00
      0.5442492580D+00  0.1143456438D+01  0.7443082909D+00
 SP   1 1.00       0.000000000000
      0.1687144782D+00  0.1000000000D+01  0.1000000000D+01
 D   1 1.00       0.000000000000
      0.8000000000D+00  0.1000000000D+01
 ****
     70 0
 S   3 1.00       0.000000000000
      0.1873113696D+02  0.3349460434D-01
      0.2825394365D+01  0.2347269535D+00
      0.6401216923D+00  0.8137573261D+00
 S   1 1.00       0.000000000000
      0.1612777588D+00  0.1000000000D+01
 ****
     71 0
 S   3 1.00       0.000000000000
      0.1873113696D+02  0.3349460434D-01
      0.2825394365D+01  0.2347269535D+00
      0.6401216923D+00  0.8137573261D+00
 S   1 1.00       0.000000000000
      0.1612777588D+00  0.1000000000D+01
 ****
     72 0
 S   3 1.00       0.000000000000
      0.1873113696D+02  0.3349460434D-01
      0.2825394365D+01  0.2347269535D+00
      0.6401216923D+00  0.8137573261D+00
 S   1 1.00       0.000000000000
      0.1612777588D+00  0.1000000000D+01
 ****
     73 0
 S   6 1.00       0.000000000000
      0.3047524880D+04  0.1834737132D-02
      0.4573695180D+03  0.1403732281D-01
      0.1039486850D+03  0.6884262226D-01
      0.2921015530D+02  0.2321844432D+00
      0.9286662960D+01  0.4679413484D+00
      0.3163926960D+01  0.3623119853D+00
 SP   3 1.00       0.000000000000
      0.7868272350D+01 -0.1193324198D+00  0.6899906659D-01
      0.1881288540D+01 -0.1608541517D+00  0.3164239610D+00
      0.5442492580D+00  0.1143456438D+01  0.7443082909D+00
 SP   1 1.00       0.000000000000
      0.1687144782D+00  0.1000000000D+01  0.1000000000D+01
 D   1 1.00       0.000000000000
      0.8000000000D+00  0.1000000000D+01
 ****
     74 0
 S   3 1.00       0.000000000000
      0.1873113696D+02  0.3349460434D-01
      0.2825394365D+01  0.2347269535D+00
      0.6401216923D+00  0.8137573261D+00
 S   1 1.00       0.000000000000
      0.1612777588D+00  0.1000000000D+01
 ****
     75 0
 S   3 1.00       0.000000000000
      0.1873113696D+02  0.3349460434D-01
      0.2825394365D+01  0.2347269535D+00
      0.6401216923D+00  0.8137573261D+00
 S   1 1.00       0.000000000000
      0.1612777588D+00  0.1000000000D+01
 ****
     76 0
 S   3 1.00       0.000000000000
      0.1873113696D+02  0.3349460434D-01
      0.2825394365D+01  0.2347269535D+00
      0.6401216923D+00  0.8137573261D+00
 S   1 1.00       0.000000000000
      0.1612777588D+00  0.1000000000D+01
 ****

 AO basis set (Overlap normalization):
 Atom C1       Shell     1 S   6     bf    1 -     1          3.322816159610         -2.360325085292          0.098318274399
      0.3047524880D+04  0.1834737132D-02
      0.4573695180D+03  0.1403732281D-01
      0.1039486850D+03  0.6884262226D-01
      0.2921015530D+02  0.2321844432D+00
      0.9286662960D+01  0.4679413484D+00
      0.3163926960D+01  0.3623119853D+00
 Atom C1       Shell     2 SP   3    bf    2 -     5          3.322816159610         -2.360325085292          0.098318274399
      0.7868272350D+01 -0.1193324198D+00  0.6899906659D-01
      0.1881288540D+01 -0.1608541517D+00  0.3164239610D+00
      0.5442492580D+00  0.1143456438D+01  0.7443082909D+00
 Atom C1       Shell     3 SP   1    bf    6 -     9          3.322816159610         -2.360325085292          0.098318274399
      0.1687144782D+00  0.1000000000D+01  0.1000000000D+01
 Atom C1       Shell     4 D   1     bf   10 -    15          3.322816159610         -2.360325085292          0.098318274399
      0.8000000000D+00  0.1000000000D+01
 Atom H2       Shell     5 S   3     bf   16 -    16          3.559134576144         -2.279536420728         -1.959478551170
      0.1873113696D+02  0.3349460434D-01
      0.2825394365D+01  0.2347269535D+00
      0.6401216923D+00  0.8137573261D+00
 Atom H2       Shell     6 S   1     bf   17 -    17          3.559134576144         -2.279536420728         -1.959478551170
      0.1612777588D+00  0.1000000000D+01
 Atom C3       Shell     7 S   6     bf   18 -    18          5.946146581755         -2.386377284397          1.344688203591
      0.3047524880D+04  0.1834737132D-02
      0.4573695180D+03  0.1403732281D-01
      0.1039486850D+03  0.6884262226D-01
      0.2921015530D+02  0.2321844432D+00
      0.9286662960D+01  0.4679413484D+00
      0.3163926960D+01  0.3623119853D+00
 Atom C3       Shell     8 SP   3    bf   19 -    22          5.946146581755         -2.386377284397          1.344688203591
      0.7868272350D+01 -0.1193324198D+00  0.6899906659D-01
      0.1881288540D+01 -0.1608541517D+00  0.3164239610D+00
      0.5442492580D+00  0.1143456438D+01  0.7443082909D+00
 Atom C3       Shell     9 SP   1    bf   23 -    26          5.946146581755         -2.386377284397          1.344688203591
      0.1687144782D+00  0.1000000000D+01  0.1000000000D+01
 Atom C3       Shell    10 D   1     bf   27 -    32          5.946146581755         -2.386377284397          1.344688203591
      0.8000000000D+00  0.1000000000D+01
 Atom H4       Shell    11 S   3     bf   33 -    33          7.040885075016         -3.988948079651          0.630045615321
      0.1873113696D+02  0.3349460434D-01
      0.2825394365D+01  0.2347269535D+00
      0.6401216923D+00  0.8137573261D+00
 Atom H4       Shell    12 S   1     bf   34 -    34          7.040885075016         -3.988948079651          0.630045615321
      0.1612777588D+00  0.1000000000D+01
 Atom H5       Shell    13 S   3     bf   35 -    35          5.674362087515         -2.711861464752          3.382392251490
      0.1873113696D+02  0.3349460434D-01
      0.2825394365D+01  0.2347269535D+00
      0.6401216923D+00  0.8137573261D+00
 Atom H5       Shell    14 S   1     bf   36 -    36          5.674362087515         -2.711861464752          3.382392251490
      0.1612777588D+00  0.1000000000D+01
 Atom C6       Shell    15 S   6     bf   37 -    37          7.380323012033          0.061521791701          0.925398471534
      0.3047524880D+04  0.1834737132D-02
      0.4573695180D+03  0.1403732281D-01
      0.1039486850D+03  0.6884262226D-01
      0.2921015530D+02  0.2321844432D+00
      0.9286662960D+01  0.4679413484D+00
      0.3163926960D+01  0.3623119853D+00
 Atom C6       Shell    16 SP   3    bf   38 -    41          7.380323012033          0.061521791701          0.925398471534
      0.7868272350D+01 -0.1193324198D+00  0.6899906659D-01
      0.1881288540D+01 -0.1608541517D+00  0.3164239610D+00
      0.5442492580D+00  0.1143456438D+01  0.7443082909D+00
 Atom C6       Shell    17 SP   1    bf   42 -    45          7.380323012033          0.061521791701          0.925398471534
      0.1687144782D+00  0.1000000000D+01  0.1000000000D+01
 Atom C6       Shell    18 D   1     bf   46 -    51          7.380323012033          0.061521791701          0.925398471534
      0.8000000000D+00  0.1000000000D+01
 Atom C7       Shell    19 S   6     bf   52 -    52          5.997431481330          2.514208961389          1.613014820261
      0.3047524880D+04  0.1834737132D-02
      0.4573695180D+03  0.1403732281D-01
      0.1039486850D+03  0.6884262226D-01
      0.2921015530D+02  0.2321844432D+00
      0.9286662960D+01  0.4679413484D+00
      0.3163926960D+01  0.3623119853D+00
 Atom C7       Shell    20 SP   3    bf   53 -    56          5.997431481330          2.514208961389          1.613014820261
      0.7868272350D+01 -0.1193324198D+00  0.6899906659D-01
      0.1881288540D+01 -0.1608541517D+00  0.3164239610D+00
      0.5442492580D+00  0.1143456438D+01  0.7443082909D+00
 Atom C7       Shell    21 SP   1    bf   57 -    60          5.997431481330          2.514208961389          1.613014820261
      0.1687144782D+00  0.1000000000D+01  0.1000000000D+01
 Atom C7       Shell    22 D   1     bf   61 -    66          5.997431481330          2.514208961389          1.613014820261
      0.8000000000D+00  0.1000000000D+01
 Atom C8       Shell    23 S   6     bf   67 -    67          3.295966514974          2.404171625966          0.437426643178
      0.3047524880D+04  0.1834737132D-02
      0.4573695180D+03  0.1403732281D-01
      0.1039486850D+03  0.6884262226D-01
      0.2921015530D+02  0.2321844432D+00
      0.9286662960D+01  0.4679413484D+00
      0.3163926960D+01  0.3623119853D+00
 Atom C8       Shell    24 SP   3    bf   68 -    71          3.295966514974          2.404171625966          0.437426643178
      0.7868272350D+01 -0.1193324198D+00  0.6899906659D-01
      0.1881288540D+01 -0.1608541517D+00  0.3164239610D+00
      0.5442492580D+00  0.1143456438D+01  0.7443082909D+00
 Atom C8       Shell    25 SP   1    bf   72 -    75          3.295966514974          2.404171625966          0.437426643178
      0.1687144782D+00  0.1000000000D+01  0.1000000000D+01
 Atom C8       Shell    26 D   1     bf   76 -    81          3.295966514974          2.404171625966          0.437426643178
      0.8000000000D+00  0.1000000000D+01
 Atom H9       Shell    27 S   3     bf   82 -    82          3.475719891453          2.626144035384         -1.618698946393
      0.1873113696D+02  0.3349460434D-01
      0.2825394365D+01  0.2347269535D+00
      0.6401216923D+00  0.8137573261D+00
 Atom H9       Shell    28 S   1     bf   83 -    83          3.475719891453          2.626144035384         -1.618698946393
      0.1612777588D+00  0.1000000000D+01
 Atom H10      Shell    29 S   3     bf   84 -    84          2.190992811443          4.021030772791          1.107791190709
      0.1873113696D+02  0.3349460434D-01
      0.2825394365D+01  0.2347269535D+00
      0.6401216923D+00  0.8137573261D+00
 Atom H10      Shell    30 S   1     bf   85 -    85          2.190992811443          4.021030772791          1.107791190709
      0.1612777588D+00  0.1000000000D+01
 Atom C11      Shell    31 S   6     bf   86 -    86          1.829958479467         -0.045283601809          0.968423623847
      0.3047524880D+04  0.1834737132D-02
      0.4573695180D+03  0.1403732281D-01
      0.1039486850D+03  0.6884262226D-01
      0.2921015530D+02  0.2321844432D+00
      0.9286662960D+01  0.4679413484D+00
      0.3163926960D+01  0.3623119853D+00
 Atom C11      Shell    32 SP   3    bf   87 -    90          1.829958479467         -0.045283601809          0.968423623847
      0.7868272350D+01 -0.1193324198D+00  0.6899906659D-01
      0.1881288540D+01 -0.1608541517D+00  0.3164239610D+00
      0.5442492580D+00  0.1143456438D+01  0.7443082909D+00
 Atom C11      Shell    33 SP   1    bf   91 -    94          1.829958479467         -0.045283601809          0.968423623847
      0.1687144782D+00  0.1000000000D+01  0.1000000000D+01
 Atom C11      Shell    34 D   1     bf   95 -   100          1.829958479467         -0.045283601809          0.968423623847
      0.8000000000D+00  0.1000000000D+01
 Atom H12      Shell    35 S   3     bf  101 -   101          1.423500063442         -0.224555022535          2.999244646664
      0.1873113696D+02  0.3349460434D-01
      0.2825394365D+01  0.2347269535D+00
      0.6401216923D+00  0.8137573261D+00
 Atom H12      Shell    36 S   1     bf  102 -   102          1.423500063442         -0.224555022535          2.999244646664
      0.1612777588D+00  0.1000000000D+01
 Atom H13      Shell    37 S   3     bf  103 -   103          0.000000000000          0.000000000000          0.000000000000
      0.1873113696D+02  0.3349460434D-01
      0.2825394365D+01  0.2347269535D+00
      0.6401216923D+00  0.8137573261D+00
 Atom H13      Shell    38 S   1     bf  104 -   104          0.000000000000          0.000000000000          0.000000000000
      0.1612777588D+00  0.1000000000D+01
 Atom C14      Shell    39 S   6     bf  105 -   105          9.740786538662          0.000000000000          0.000000000000
      0.3047524880D+04  0.1834737132D-02
      0.4573695180D+03  0.1403732281D-01
      0.1039486850D+03  0.6884262226D-01
      0.2921015530D+02  0.2321844432D+00
      0.9286662960D+01  0.4679413484D+00
      0.3163926960D+01  0.3623119853D+00
 Atom C14      Shell    40 SP   3    bf  106 -   109          9.740786538662          0.000000000000          0.000000000000
      0.7868272350D+01 -0.1193324198D+00  0.6899906659D-01
      0.1881288540D+01 -0.1608541517D+00  0.3164239610D+00
      0.5442492580D+00  0.1143456438D+01  0.7443082909D+00
 Atom C14      Shell    41 SP   1    bf  110 -   113          9.740786538662          0.000000000000          0.000000000000
      0.1687144782D+00  0.1000000000D+01  0.1000000000D+01
 Atom C14      Shell    42 D   1     bf  114 -   119          9.740786538662          0.000000000000          0.000000000000
      0.8000000000D+00  0.1000000000D+01
 Atom H15      Shell    43 S   3     bf  120 -   120         10.592055173606         -1.818459571538         -0.446341388416
      0.1873113696D+02  0.3349460434D-01
      0.2825394365D+01  0.2347269535D+00
      0.6401216923D+00  0.8137573261D+00
 Atom H15      Shell    44 S   1     bf  121 -   121         10.592055173606         -1.818459571538         -0.446341388416
      0.1612777588D+00  0.1000000000D+01
 Atom C16      Shell    45 S   6     bf  122 -   122         11.344793450187          2.288286778689         -0.492325020373
      0.3047524880D+04  0.1834737132D-02
      0.4573695180D+03  0.1403732281D-01
      0.1039486850D+03  0.6884262226D-01
      0.2921015530D+02  0.2321844432D+00
      0.9286662960D+01  0.4679413484D+00
      0.3163926960D+01  0.3623119853D+00
 Atom C16      Shell    46 SP   3    bf  123 -   126         11.344793450187          2.288286778689         -0.492325020373
      0.7868272350D+01 -0.1193324198D+00  0.6899906659D-01
      0.1881288540D+01 -0.1608541517D+00  0.3164239610D+00
      0.5442492580D+00  0.1143456438D+01  0.7443082909D+00
 Atom C16      Shell    47 SP   1    bf  127 -   130         11.344793450187          2.288286778689         -0.492325020373
      0.1687144782D+00  0.1000000000D+01  0.1000000000D+01
 Atom C16      Shell    48 D   1     bf  131 -   136         11.344793450187          2.288286778689         -0.492325020373
      0.8000000000D+00  0.1000000000D+01
 Atom H17      Shell    49 S   3     bf  137 -   137         13.297116288793          1.934740032981          0.110819587556
      0.1873113696D+02  0.3349460434D-01
      0.2825394365D+01  0.2347269535D+00
      0.6401216923D+00  0.8137573261D+00
 Atom H17      Shell    50 S   1     bf  138 -   138         13.297116288793          1.934740032981          0.110819587556
      0.1612777588D+00  0.1000000000D+01
 Atom C18      Shell    51 S   6     bf  139 -   139         10.326587070068          4.674820740280          0.823378034668
      0.3047524880D+04  0.1834737132D-02
      0.4573695180D+03  0.1403732281D-01
      0.1039486850D+03  0.6884262226D-01
      0.2921015530D+02  0.2321844432D+00
      0.9286662960D+01  0.4679413484D+00
      0.3163926960D+01  0.3623119853D+00
 Atom C18      Shell    52 SP   3    bf  140 -   143         10.326587070068          4.674820740280          0.823378034668
      0.7868272350D+01 -0.1193324198D+00  0.6899906659D-01
      0.1881288540D+01 -0.1608541517D+00  0.3164239610D+00
      0.5442492580D+00  0.1143456438D+01  0.7443082909D+00
 Atom C18      Shell    53 SP   1    bf  144 -   147         10.326587070068          4.674820740280          0.823378034668
      0.1687144782D+00  0.1000000000D+01  0.1000000000D+01
 Atom C18      Shell    54 D   1     bf  148 -   153         10.326587070068          4.674820740280          0.823378034668
      0.8000000000D+00  0.1000000000D+01
 Atom H19      Shell    55 S   3     bf  154 -   154         10.778016848452          4.414457958657          2.833958635512
      0.1873113696D+02  0.3349460434D-01
      0.2825394365D+01  0.2347269535D+00
      0.6401216923D+00  0.8137573261D+00
 Atom H19      Shell    56 S   1     bf  155 -   155         10.778016848452          4.414457958657          2.833958635512
      0.1612777588D+00  0.1000000000D+01
 Atom C20      Shell    57 S   6     bf  156 -   156          7.419205733484          4.865805004832          0.497149888033
      0.3047524880D+04  0.1834737132D-02
      0.4573695180D+03  0.1403732281D-01
      0.1039486850D+03  0.6884262226D-01
      0.2921015530D+02  0.2321844432D+00
      0.9286662960D+01  0.4679413484D+00
      0.3163926960D+01  0.3623119853D+00
 Atom C20      Shell    58 SP   3    bf  157 -   160          7.419205733484          4.865805004832          0.497149888033
      0.7868272350D+01 -0.1193324198D+00  0.6899906659D-01
      0.1881288540D+01 -0.1608541517D+00  0.3164239610D+00
      0.5442492580D+00  0.1143456438D+01  0.7443082909D+00
 Atom C20      Shell    59 SP   1    bf  161 -   164          7.419205733484          4.865805004832          0.497149888033
      0.1687144782D+00  0.1000000000D+01  0.1000000000D+01
 Atom C20      Shell    60 D   1     bf  165 -   170          7.419205733484          4.865805004832          0.497149888033
      0.8000000000D+00  0.1000000000D+01
 Atom H21      Shell    61 S   3     bf  171 -   171          7.079881255624          4.822085019117         -1.553016374590
      0.1873113696D+02  0.3349460434D-01
      0.2825394365D+01  0.2347269535D+00
      0.6401216923D+00  0.8137573261D+00
 Atom H21      Shell    62 S   1     bf  172 -   172          7.079881255624          4.822085019117         -1.553016374590
      0.1612777588D+00  0.1000000000D+01
 Atom C22      Shell    63 S   6     bf  173 -   173          6.378570458455          7.416612178853          1.476789395526
      0.3047524880D+04  0.1834737132D-02
      0.4573695180D+03  0.1403732281D-01
      0.1039486850D+03  0.6884262226D-01
      0.2921015530D+02  0.2321844432D+00
      0.9286662960D+01  0.4679413484D+00
      0.3163926960D+01  0.3623119853D+00
 Atom C22      Shell    64 SP   3    bf  174 -   177          6.378570458455          7.416612178853          1.476789395526
      0.7868272350D+01 -0.1193324198D+00  0.6899906659D-01
      0.1881288540D+01 -0.1608541517D+00  0.3164239610D+00
      0.5442492580D+00  0.1143456438D+01  0.7443082909D+00
 Atom C22      Shell    65 SP   1    bf  178 -   181          6.378570458455          7.416612178853          1.476789395526
      0.1687144782D+00  0.1000000000D+01  0.1000000000D+01
 Atom C22      Shell    66 D   1     bf  182 -   187          6.378570458455          7.416612178853          1.476789395526
      0.8000000000D+00  0.1000000000D+01
 Atom H23      Shell    67 S   3     bf  188 -   188          6.390249438388          7.436008970388          3.545489619629
      0.1873113696D+02  0.3349460434D-01
      0.2825394365D+01  0.2347269535D+00
      0.6401216923D+00  0.8137573261D+00
 Atom H23      Shell    68 S   1     bf  189 -   189          6.390249438388          7.436008970388          3.545489619629
      0.1612777588D+00  0.1000000000D+01
 Atom H24      Shell    69 S   3     bf  190 -   190          4.393154962577          7.610954902482          0.919015808137
      0.1873113696D+02  0.3349460434D-01
      0.2825394365D+01  0.2347269535D+00
      0.6401216923D+00  0.8137573261D+00
 Atom H24      Shell    70 S   1     bf  191 -   191          4.393154962577          7.610954902482          0.919015808137
      0.1612777588D+00  0.1000000000D+01
 Atom C25      Shell    71 S   6     bf  192 -   192          7.837075827680          9.757819906414          0.535197407225
      0.3047524880D+04  0.1834737132D-02
      0.4573695180D+03  0.1403732281D-01
      0.1039486850D+03  0.6884262226D-01
      0.2921015530D+02  0.2321844432D+00
      0.9286662960D+01  0.4679413484D+00
      0.3163926960D+01  0.3623119853D+00
 Atom C25      Shell    72 SP   3    bf  193 -   196          7.837075827680          9.757819906414          0.535197407225
      0.7868272350D+01 -0.1193324198D+00  0.6899906659D-01
      0.1881288540D+01 -0.1608541517D+00  0.3164239610D+00
      0.5442492580D+00  0.1143456438D+01  0.7443082909D+00
 Atom C25      Shell    73 SP   1    bf  197 -   200          7.837075827680          9.757819906414          0.535197407225
      0.1687144782D+00  0.1000000000D+01  0.1000000000D+01
 Atom C25      Shell    74 D   1     bf  201 -   206          7.837075827680          9.757819906414          0.535197407225
      0.8000000000D+00  0.1000000000D+01
 Atom H26      Shell    75 S   3     bf  207 -   207          7.603943867351          9.944653255234         -1.520627696994
      0.1873113696D+02  0.3349460434D-01
      0.2825394365D+01  0.2347269535D+00
      0.6401216923D+00  0.8137573261D+00
 Atom H26      Shell    76 S   1     bf  208 -   208          7.603943867351          9.944653255234         -1.520627696994
      0.1612777588D+00  0.1000000000D+01
 Atom H27      Shell    77 S   3     bf  209 -   209          6.978287896864         11.439116881336          1.379612950348
      0.1873113696D+02  0.3349460434D-01
      0.2825394365D+01  0.2347269535D+00
      0.6401216923D+00  0.8137573261D+00
 Atom H27      Shell    78 S   1     bf  210 -   210          6.978287896864         11.439116881336          1.379612950348
      0.1612777588D+00  0.1000000000D+01
 Atom C28      Shell    79 S   6     bf  211 -   211         10.684604586553          9.571619351287          1.133866293295
      0.3047524880D+04  0.1834737132D-02
      0.4573695180D+03  0.1403732281D-01
      0.1039486850D+03  0.6884262226D-01
      0.2921015530D+02  0.2321844432D+00
      0.9286662960D+01  0.4679413484D+00
      0.3163926960D+01  0.3623119853D+00
 Atom C28      Shell    80 SP   3    bf  212 -   215         10.684604586553          9.571619351287          1.133866293295
      0.7868272350D+01 -0.1193324198D+00  0.6899906659D-01
      0.1881288540D+01 -0.1608541517D+00  0.3164239610D+00
      0.5442492580D+00  0.1143456438D+01  0.7443082909D+00
 Atom C28      Shell    81 SP   1    bf  216 -   219         10.684604586553          9.571619351287          1.133866293295
      0.1687144782D+00  0.1000000000D+01  0.1000000000D+01
 Atom C28      Shell    82 D   1     bf  220 -   225         10.684604586553          9.571619351287          1.133866293295
      0.8000000000D+00  0.1000000000D+01
 Atom C29      Shell    83 S   6     bf  226 -   226         11.625848884143          7.091074764914         -0.127111918102
      0.3047524880D+04  0.1834737132D-02
      0.4573695180D+03  0.1403732281D-01
      0.1039486850D+03  0.6884262226D-01
      0.2921015530D+02  0.2321844432D+00
      0.9286662960D+01  0.4679413484D+00
      0.3163926960D+01  0.3623119853D+00
 Atom C29      Shell    84 SP   3    bf  227 -   230         11.625848884143          7.091074764914         -0.127111918102
      0.7868272350D+01 -0.1193324198D+00  0.6899906659D-01
      0.1881288540D+01 -0.1608541517D+00  0.3164239610D+00
      0.5442492580D+00  0.1143456438D+01  0.7443082909D+00
 Atom C29      Shell    85 SP   1    bf  231 -   234         11.625848884143          7.091074764914         -0.127111918102
      0.1687144782D+00  0.1000000000D+01  0.1000000000D+01
 Atom C29      Shell    86 D   1     bf  235 -   240         11.625848884143          7.091074764914         -0.127111918102
      0.8000000000D+00  0.1000000000D+01
 Atom H30      Shell    87 S   3     bf  241 -   241         11.119778241544          7.273200994909         -2.132530259583
      0.1873113696D+02  0.3349460434D-01
      0.2825394365D+01  0.2347269535D+00
      0.6401216923D+00  0.8137573261D+00
 Atom H30      Shell    88 S   1     bf  242 -   242         11.119778241544          7.273200994909         -2.132530259583
      0.1612777588D+00  0.1000000000D+01
 Atom C31      Shell    89 S   6     bf  243 -   243         14.517334638182          7.258462416086          0.000000000000
      0.3047524880D+04  0.1834737132D-02
      0.4573695180D+03  0.1403732281D-01
      0.1039486850D+03  0.6884262226D-01
      0.2921015530D+02  0.2321844432D+00
      0.9286662960D+01  0.4679413484D+00
      0.3163926960D+01  0.3623119853D+00
 Atom C31      Shell    90 SP   3    bf  244 -   247         14.517334638182          7.258462416086          0.000000000000
      0.7868272350D+01 -0.1193324198D+00  0.6899906659D-01
      0.1881288540D+01 -0.1608541517D+00  0.3164239610D+00
      0.5442492580D+00  0.1143456438D+01  0.7443082909D+00
 Atom C31      Shell    91 SP   1    bf  248 -   251         14.517334638182          7.258462416086          0.000000000000
      0.1687144782D+00  0.1000000000D+01  0.1000000000D+01
 Atom C31      Shell    92 D   1     bf  252 -   257         14.517334638182          7.258462416086          0.000000000000
      0.8000000000D+00  0.1000000000D+01
 Atom H32      Shell    93 S   3     bf  258 -   258         15.424143911542          6.097016779307         -1.448793367429
      0.1873113696D+02  0.3349460434D-01
      0.2825394365D+01  0.2347269535D+00
      0.6401216923D+00  0.8137573261D+00
 Atom H32      Shell    94 S   1     bf  259 -   259         15.424143911542          6.097016779307         -1.448793367429
      0.1612777588D+00  0.1000000000D+01
 Atom H33      Shell    95 S   3     bf  260 -   260         15.218105370520          6.598472200464          1.837148244896
      0.1873113696D+02  0.3349460434D-01
      0.2825394365D+01  0.2347269535D+00
      0.6401216923D+00  0.8137573261D+00
 Atom H33      Shell    96 S   1     bf  261 -   261         15.218105370520          6.598472200464          1.837148244896
      0.1612777588D+00  0.1000000000D+01
 Atom C34      Shell    97 S   6     bf  262 -   262         15.053324445369         10.121213334699         -0.364216063866
      0.3047524880D+04  0.1834737132D-02
      0.4573695180D+03  0.1403732281D-01
      0.1039486850D+03  0.6884262226D-01
      0.2921015530D+02  0.2321844432D+00
      0.9286662960D+01  0.4679413484D+00
      0.3163926960D+01  0.3623119853D+00
 Atom C34      Shell    98 SP   3    bf  263 -   266         15.053324445369         10.121213334699         -0.364216063866
      0.7868272350D+01 -0.1193324198D+00  0.6899906659D-01
      0.1881288540D+01 -0.1608541517D+00  0.3164239610D+00
      0.5442492580D+00  0.1143456438D+01  0.7443082909D+00
 Atom C34      Shell    99 SP   1    bf  267 -   270         15.053324445369         10.121213334699         -0.364216063866
      0.1687144782D+00  0.1000000000D+01  0.1000000000D+01
 Atom C34      Shell   100 D   1     bf  271 -   276         15.053324445369         10.121213334699         -0.364216063866
      0.8000000000D+00  0.1000000000D+01
 Atom H35      Shell   101 S   3     bf  277 -   277         16.334617892996         10.826765867838          1.104050969158
      0.1873113696D+02  0.3349460434D-01
      0.2825394365D+01  0.2347269535D+00
      0.6401216923D+00  0.8137573261D+00
 Atom H35      Shell   102 S   1     bf  278 -   278         16.334617892996         10.826765867838          1.104050969158
      0.1612777588D+00  0.1000000000D+01
 Atom H36      Shell   103 S   3     bf  279 -   279         15.987765955648         10.477075410660         -2.173348778691
      0.1873113696D+02  0.3349460434D-01
      0.2825394365D+01  0.2347269535D+00
      0.6401216923D+00  0.8137573261D+00
 Atom H36      Shell   104 S   1     bf  280 -   280         15.987765955648         10.477075410660         -2.173348778691
      0.1612777588D+00  0.1000000000D+01
 Atom C37      Shell   105 S   6     bf  281 -   281         12.450822584661         11.529653528081         -0.223131302867
      0.3047524880D+04  0.1834737132D-02
      0.4573695180D+03  0.1403732281D-01
      0.1039486850D+03  0.6884262226D-01
      0.2921015530D+02  0.2321844432D+00
      0.9286662960D+01  0.4679413484D+00
      0.3163926960D+01  0.3623119853D+00
 Atom C37      Shell   106 SP   3    bf  282 -   285         12.450822584661         11.529653528081         -0.223131302867
      0.7868272350D+01 -0.1193324198D+00  0.6899906659D-01
      0.1881288540D+01 -0.1608541517D+00  0.3164239610D+00
      0.5442492580D+00  0.1143456438D+01  0.7443082909D+00
[...]
 **** Fit      -0.002808
 **** Fit      -0.002454
 **** Fit      -0.002530
 **** Fit      -0.003000
 **** Fit      -0.003542
 **** Fit      -0.004112
 **** Fit      -0.004642
 **** Fit      -0.005066
 **** Fit      -0.005351
 **** Fit      -0.005501
 **** Fit      -0.005522
 **** Fit      -0.005388
 **** Fit      -0.005065
 **** Fit      -0.004575
 **** Fit      -0.003996
 **** Fit      -0.003420
 **** Fit      -0.002912
 **** Fit      -0.002495
 **** Fit      -0.002159
 **** Fit      -0.002870
 **** Fit      -0.003379
 **** Fit      -0.003920
 **** Fit      -0.004435
 **** Fit      -0.004863
 **** Fit      -0.005152
 **** Fit      -0.005263
 **** Fit      -0.005166
 **** Fit      -0.004854
 **** Fit      -0.004378
 **** Fit      -0.003827
 **** Fit      -0.003285
 **** Fit      -0.002800
 **** Fit      -0.002391
 **** Fit      -0.002056
 **** Fit      -0.001783
 **** Fit      -0.002698
 **** Fit      -0.003150
 **** Fit      -0.003626
 **** Fit      -0.004074
 **** Fit      -0.004432
 **** Fit      -0.004637
 **** Fit      -0.004636
 **** Fit      -0.004400
 **** Fit      -0.003962
 **** Fit      -0.003422
 **** Fit      -0.002896
 **** Fit      -0.002451
 **** Fit      -0.002095
 **** Fit      -0.001812
 **** Fit      -0.001581
 **** Fit      -0.001389
 **** Fit      -0.002882
 **** Fit      -0.003274
 **** Fit      -0.003630
 **** Fit      -0.003889
 **** Fit      -0.003991
 **** Fit      -0.003885
 **** Fit      -0.003560
 **** Fit      -0.003073
 **** Fit      -0.002539
 **** Fit      -0.002071
 **** Fit      -0.001718
 **** Fit      -0.001470
 **** Fit      -0.001290
 **** Fit      -0.001150
 **** Fit      -0.001031
 **** Fit      -0.003163
 **** Fit      -0.003326
 **** Fit      -0.003340
 **** Fit      -0.003171
 **** Fit      -0.002822
 **** Fit      -0.002355
 **** Fit      -0.001874
 **** Fit      -0.001472
 **** Fit      -0.001187
 **** Fit      -0.001005
 **** Fit      -0.000890
 **** Fit      -0.000809
 **** Fit      -0.002718
 **** Fit      -0.002804
 **** Fit      -0.002761
 **** Fit      -0.002570
 **** Fit      -0.002243
 **** Fit      -0.001835
 **** Fit      -0.001427
 **** Fit      -0.001089
 **** Fit      -0.000852
 **** Fit      -0.000706
 **** Fit      -0.000621
 **** Fit      -0.000569
 **** Fit      -0.002354
 **** Fit      -0.002282
 **** Fit      -0.002097
 **** Fit      -0.001815
 **** Fit      -0.001478
 **** Fit      -0.001144
 **** Fit      -0.000864
 **** Fit      -0.000662
 **** Fit      -0.000534
 **** Fit      -0.000460
 **** Fit      -0.001738
 **** Fit      -0.001504
 **** Fit      -0.001234
 **** Fit      -0.000966
 **** Fit      -0.000736
 **** Fit      -0.000563
 **** Fit      -0.000446
 **** Fit      -0.000851
 **** Fit      -0.000735
 **** Fit      -0.000466
 **** Fit      -0.000219
 **** Fit      -0.000027
 **** Fit       0.000092
 **** Fit       0.000140
 **** Fit       0.000135
 **** Fit      -0.000904
 **** Fit      -0.000571
 **** Fit      -0.000219
 **** Fit       0.000098
 **** Fit       0.000325
 **** Fit       0.000432
 **** Fit       0.000426
 **** Fit       0.000345
 **** Fit       0.000231
 **** Fit       0.000113
 **** Fit       0.000002
 **** Fit      -0.000104
 **** Fit      -0.000209
 **** Fit      -0.000309
 **** Fit      -0.001191
 **** Fit      -0.000852
 **** Fit      -0.000424
 **** Fit       0.000042
 **** Fit       0.000458
 **** Fit       0.000732
 **** Fit       0.000811
 **** Fit       0.000717
 **** Fit       0.000519
 **** Fit       0.000293
 **** Fit       0.000088
 **** Fit      -0.000084
 **** Fit      -0.000229
 **** Fit      -0.000357
 **** Fit      -0.000468
 **** Fit      -0.000556
 **** Fit      -0.001528
 **** Fit      -0.001271
 **** Fit      -0.000870
 **** Fit      -0.000330
 **** Fit       0.000280
 **** Fit       0.000829
 **** Fit       0.001163
 **** Fit       0.001197
 **** Fit       0.000971
 **** Fit       0.000613
 **** Fit       0.000248
 **** Fit      -0.000057
 **** Fit      -0.000289
 **** Fit      -0.000464
 **** Fit      -0.000600
 **** Fit      -0.000705
 **** Fit      -0.000777
 **** Fit      -0.001696
 **** Fit      -0.001443
 **** Fit      -0.000999
 **** Fit      -0.000357
 **** Fit       0.000410
 **** Fit       0.001112
 **** Fit       0.001515
 **** Fit       0.001486
 **** Fit       0.001097
 **** Fit       0.000555
 **** Fit       0.000045
 **** Fit      -0.000346
 **** Fit      -0.000616
 **** Fit      -0.000798
 **** Fit      -0.000921
 **** Fit      -0.001000
 **** Fit      -0.001037
 **** Fit      -0.001988
 **** Fit      -0.001933
 **** Fit      -0.001723
 **** Fit      -0.001287
 **** Fit      -0.000594
 **** Fit       0.000284
 **** Fit       0.001114
 **** Fit       0.001572
 **** Fit       0.001475
 **** Fit       0.000934
 **** Fit       0.000242
 **** Fit      -0.000361
 **** Fit      -0.000785
 **** Fit      -0.001049
 **** Fit      -0.001202
 **** Fit      -0.001283
 **** Fit      -0.001315
 **** Fit      -0.001302
 **** Fit      -0.002194
 **** Fit      -0.002223
 **** Fit      -0.002103
 **** Fit      -0.001751
 **** Fit      -0.001113
 **** Fit      -0.000247
 **** Fit       0.000599
 **** Fit       0.001057
 **** Fit       0.000915
 **** Fit       0.000313
 **** Fit      -0.000407
 **** Fit      -0.000986
 **** Fit      -0.001350
 **** Fit      -0.001541
 **** Fit      -0.001621
 **** Fit      -0.001635
 **** Fit      -0.001603
 **** Fit      -0.002396
 **** Fit      -0.002527
 **** Fit      -0.002537
 **** Fit      -0.002345
 **** Fit      -0.001888
 **** Fit      -0.001203
 **** Fit      -0.000508
 **** Fit      -0.000136
 **** Fit      -0.000275
 **** Fit      -0.000788
 **** Fit      -0.001358
 **** Fit      -0.001765
 **** Fit      -0.001967
 **** Fit      -0.002022
 **** Fit      -0.001995
 **** Fit      -0.002566
 **** Fit      -0.002796
 **** Fit      -0.002949
 **** Fit      -0.002954
 **** Fit      -0.002754
 **** Fit      -0.002369
 **** Fit      -0.001950
 **** Fit      -0.001727
 **** Fit      -0.001820
 **** Fit      -0.002120
 **** Fit      -0.002406
 **** Fit      -0.002541
 **** Fit      -0.002523
 **** Fit      -0.002412
 **** Fit      -0.002264
 **** Fit      -0.002676
 **** Fit      -0.002987
 **** Fit      -0.003261
 **** Fit      -0.003442
 **** Fit      -0.003488
 **** Fit      -0.003401
 **** Fit      -0.003260
 **** Fit      -0.003179
 **** Fit      -0.003205
 **** Fit      -0.003267
 **** Fit      -0.003254
 **** Fit      -0.003119
 **** Fit      -0.002894
 **** Fit      -0.002637
 **** Fit      -0.002387
 **** Fit      -0.003075
 **** Fit      -0.003425
 **** Fit      -0.003724
 **** Fit      -0.003936
 **** Fit      -0.004050
 **** Fit      -0.004090
 **** Fit      -0.004087
 **** Fit      -0.004040
 **** Fit      -0.003915
 **** Fit      -0.003684
 **** Fit      -0.003362
 **** Fit      -0.003003
 **** Fit      -0.002657
 **** Fit      -0.002350
 **** Fit      -0.003060
 **** Fit      -0.003439
 **** Fit      -0.003788
 **** Fit      -0.004072
 **** Fit      -0.004270
 **** Fit      -0.004371
 **** Fit      -0.004368
 **** Fit      -0.004246
 **** Fit      -0.004001
 **** Fit      -0.003653
 **** Fit      -0.003250
 **** Fit      -0.002847
 **** Fit      -0.002481
 **** Fit      -0.002167
 **** Fit      -0.003327
 **** Fit      -0.003671
 **** Fit      -0.003954
 **** Fit      -0.004147
 **** Fit      -0.004225
 **** Fit      -0.004169
 **** Fit      -0.003974
 **** Fit      -0.003660
 **** Fit      -0.003274
 **** Fit      -0.002871
 **** Fit      -0.002492
 **** Fit      -0.002162
 **** Fit      -0.001884
 **** Fit      -0.003427
 **** Fit      -0.003666
 **** Fit      -0.003808
 **** Fit      -0.003824
 **** Fit      -0.003699
 **** Fit      -0.003446
 **** Fit      -0.003102
 **** Fit      -0.002726
 **** Fit      -0.002364
 **** Fit      -0.002046
 **** Fit      -0.001778
 **** Fit      -0.001557
 **** Fit      -0.003287
 **** Fit      -0.003363
 **** Fit      -0.003315
 **** Fit      -0.003138
 **** Fit      -0.002854
 **** Fit      -0.002512
 **** Fit      -0.002168
 **** Fit      -0.001861
 **** Fit      -0.001607
 **** Fit      -0.001403
 **** Fit      -0.001238
 **** Fit      -0.002880
 **** Fit      -0.002898
 **** Fit      -0.002804
 **** Fit      -0.002600
 **** Fit      -0.002316
 **** Fit      -0.001998
 **** Fit      -0.001695
 **** Fit      -0.001440
 **** Fit      -0.001239
 **** Fit      -0.001085
 **** Fit      -0.002466
 **** Fit      -0.002349
 **** Fit      -0.002144
 **** Fit      -0.001880
 **** Fit      -0.001599
 **** Fit      -0.001340
 **** Fit      -0.001126
 **** Fit      -0.000963
 **** Fit      -0.000842
 **** Fit      -0.001970
 **** Fit      -0.001781
 **** Fit      -0.001550
 **** Fit      -0.001310
 **** Fit      -0.001090
 **** Fit      -0.000909
 **** Fit      -0.000727
 **** Fit      -0.000473
 **** Fit      -0.000245
 **** Fit      -0.000078
 **** Fit       0.000012
 **** Fit       0.000027
 **** Fit      -0.000015
 **** Fit      -0.000946
 **** Fit      -0.000648
 **** Fit      -0.000336
 **** Fit      -0.000061
 **** Fit       0.000128
 **** Fit       0.000204
 **** Fit       0.000172
 **** Fit       0.000069
 **** Fit      -0.000065
 **** Fit      -0.001257
 **** Fit      -0.000979
 **** Fit      -0.000631
 **** Fit      -0.000257
 **** Fit       0.000072
 **** Fit       0.000284
 **** Fit       0.000338
 **** Fit       0.000248
 **** Fit       0.000071
 **** Fit      -0.000132
 **** Fit      -0.000319
 **** Fit      -0.001390
 **** Fit      -0.001100
 **** Fit      -0.000716
 **** Fit      -0.000290
 **** Fit       0.000088
 **** Fit       0.000318
 **** Fit       0.000346
 **** Fit       0.000196
 **** Fit      -0.000052
 **** Fit      -0.000314
 **** Fit      -0.000538
 **** Fit      -0.000706
 **** Fit      -0.001750
 **** Fit      -0.001598
 **** Fit      -0.001329
 **** Fit      -0.000945
 **** Fit      -0.000499
 **** Fit      -0.000098
 **** Fit       0.000137
 **** Fit       0.000141
 **** Fit      -0.000054
 **** Fit      -0.000344
 **** Fit      -0.000631
 **** Fit      -0.000857
 **** Fit      -0.001012
 **** Fit      -0.001963
 **** Fit      -0.001874
 **** Fit      -0.001666
 **** Fit      -0.001335
 **** Fit      -0.000928
 **** Fit      -0.000552
 **** Fit      -0.000335
 **** Fit      -0.000345
 **** Fit      -0.000544
 **** Fit      -0.000821
 **** Fit      -0.001074
 **** Fit      -0.001255
 **** Fit      -0.001359
 **** Fit      -0.002190
 **** Fit      -0.002186
 **** Fit      -0.002076
 **** Fit      -0.001851
 **** Fit      -0.001546
 **** Fit      -0.001253
 **** Fit      -0.001081
 **** Fit      -0.001090
 **** Fit      -0.001241
 **** Fit      -0.001437
 **** Fit      -0.001595
 **** Fit      -0.001681
 **** Fit      -0.001700
 **** Fit      -0.002397
 **** Fit      -0.002484
 **** Fit      -0.002490
 **** Fit      -0.002400
 **** Fit      -0.002238
 **** Fit      -0.002063
 **** Fit      -0.001953
 **** Fit      -0.001944
 **** Fit      -0.002008
 **** Fit      -0.002077
 **** Fit      -0.002099
 **** Fit      -0.002064
 **** Fit      -0.001983
 **** Fit      -0.002553
 **** Fit      -0.002721
 **** Fit      -0.002831
 **** Fit      -0.002870
 **** Fit      -0.002844
 **** Fit      -0.002784
 **** Fit      -0.002729
 **** Fit      -0.002694
 **** Fit      -0.002660
 **** Fit      -0.002595
 **** Fit      -0.002483
 **** Fit      -0.002331
 **** Fit      -0.002160
 **** Fit      -0.002861
 **** Fit      -0.003045
 **** Fit      -0.003175
 **** Fit      -0.003245
 **** Fit      -0.003262
 **** Fit      -0.003236
 **** Fit      -0.003169
 **** Fit      -0.003053
 **** Fit      -0.002883
 **** Fit      -0.002670
 **** Fit      -0.002436
 **** Fit      -0.003116
 **** Fit      -0.003289
 **** Fit      -0.003402
 **** Fit      -0.003448
 **** Fit      -0.003421
 **** Fit      -0.003319
 **** Fit      -0.003144
 **** Fit      -0.002910
 **** Fit      -0.002643
 **** Fit      -0.002371
 **** Fit      -0.003233
 **** Fit      -0.003346
 **** Fit      -0.003382
 **** Fit      -0.003330
 **** Fit      -0.003193
 **** Fit      -0.002982
 **** Fit      -0.002721
 **** Fit      -0.002442
 **** Fit      -0.002169
 **** Fit      -0.001921
 **** Fit      -0.003138
 **** Fit      -0.003142
 **** Fit      -0.003058
 **** Fit      -0.002892
 **** Fit      -0.002663
 **** Fit      -0.002402
 **** Fit      -0.002136
 **** Fit      -0.001889
 **** Fit      -0.002844
 **** Fit      -0.002813
 **** Fit      -0.002699
 **** Fit      -0.002516
 **** Fit      -0.002286
 **** Fit      -0.002039
 **** Fit      -0.001802
 **** Fit      -0.001588
 **** Fit      -0.002459
 **** Fit      -0.002328
 **** Fit      -0.002141
 **** Fit      -0.001922
 **** Fit      -0.001699
 **** Fit      -0.001491
 **** Fit      -0.001988
 **** Fit      -0.001809
 **** Fit      -0.001609
 **** Fit      -0.001412
 **** Fit      -0.000608
 **** Fit      -0.000421
 **** Fit      -0.000285
 **** Fit      -0.000217
 **** Fit      -0.000215
 **** Fit      -0.000837
 **** Fit      -0.000598
 **** Fit      -0.000389
 **** Fit      -0.000246
 **** Fit      -0.000190
 **** Fit      -0.000215
 **** Fit      -0.000296
 **** Fit      -0.000403
 **** Fit      -0.001168
 **** Fit      -0.000929
 **** Fit      -0.000675
 **** Fit      -0.000452
 **** Fit      -0.000306
 **** Fit      -0.000262
 **** Fit      -0.000312
 **** Fit      -0.000422
 **** Fit      -0.000553
 **** Fit      -0.001514
 **** Fit      -0.001342
 **** Fit      -0.001116
 **** Fit      -0.000866
 **** Fit      -0.000645
 **** Fit      -0.000504
 **** Fit      -0.000470
 **** Fit      -0.000534
 **** Fit      -0.000655
 **** Fit      -0.000790
 **** Fit      -0.000906
 **** Fit      -0.001713
 **** Fit      -0.001583
 **** Fit      -0.001395
 **** Fit      -0.001178
 **** Fit      -0.000980
 **** Fit      -0.000854
 **** Fit      -0.000827
 **** Fit      -0.000886
 **** Fit      -0.000992
 **** Fit      -0.001101
 **** Fit      -0.001185
 **** Fit      -0.001935
 **** Fit      -0.001866
 **** Fit      -0.001741
 **** Fit      -0.001582
 **** Fit      -0.001430
 **** Fit      -0.001329
 **** Fit      -0.001300
 **** Fit      -0.001334
 **** Fit      -0.001396
 **** Fit      -0.001451
 **** Fit      -0.001480
 **** Fit      -0.002148
 **** Fit      -0.002149
 **** Fit      -0.002100
 **** Fit      -0.002014
 **** Fit      -0.001919
 **** Fit      -0.001846
 **** Fit      -0.001810
 **** Fit      -0.001803
 **** Fit      -0.001802
 **** Fit      -0.001786
 **** Fit      -0.001745
 **** Fit      -0.002387
 **** Fit      -0.002409
 **** Fit      -0.002392
 **** Fit      -0.002351
 **** Fit      -0.002302
 **** Fit      -0.002253
 **** Fit      -0.002201
 **** Fit      -0.002133
 **** Fit      -0.002045
 **** Fit      -0.002545
 **** Fit      -0.002619
 **** Fit      -0.002653
 **** Fit      -0.002649
 **** Fit      -0.002613
 **** Fit      -0.002548
 **** Fit      -0.002454
 **** Fit      -0.002331
 **** Fit      -0.002185
 **** Fit      -0.002710
 **** Fit      -0.002769
 **** Fit      -0.002781
 **** Fit      -0.002745
 **** Fit      -0.002661
 **** Fit      -0.002535
 **** Fit      -0.002374
 **** Fit      -0.002710
 **** Fit      -0.002608
 **** Fit      -0.002460
 **** Fit      -0.002435
 **** Fit      -0.002276
 **** Fit      -0.000892
 **** Fit      -0.000750
 **** Fit      -0.000649
 **** Fit      -0.000603
 **** Fit      -0.000607
 **** Fit      -0.001195
 **** Fit      -0.001044
 **** Fit      -0.000908
 **** Fit      -0.000813
 **** Fit      -0.000772
 **** Fit      -0.000782
 **** Fit      -0.000825
 **** Fit      -0.001394
 **** Fit      -0.001265
 **** Fit      -0.001146
 **** Fit      -0.001061
 **** Fit      -0.001023
 **** Fit      -0.001029
 **** Fit      -0.001061
 **** Fit      -0.001628
 **** Fit      -0.001533
 **** Fit      -0.001441
 **** Fit      -0.001370
 **** Fit      -0.001332
 **** Fit      -0.001323
 **** Fit      -0.001331
 **** Fit      -0.001866
 **** Fit      -0.001812
 **** Fit      -0.001750
 **** Fit      -0.001694
 **** Fit      -0.001652
 **** Fit      -0.001622
 **** Fit      -0.001596
 **** Fit      -0.002056
 **** Fit      -0.002022
 **** Fit      -0.001978
 **** Fit      -0.001929
 **** Fit      -0.001875
 **** Fit      -0.002215
 **** Fit      -0.002177
 **** Fit      -0.002120
 -----------------------------------------------------------------
 Leave Link  602 at Fri Apr 28 12:35:29 2017, MaxMem=    33554432 cpu:        38.9
 (Enter /home/michal/g09/l9999.exe)

 Test job not archived.
 1\1\GINC-LINUX\SP\RHF\6-31G(d)\C27H46O3\MICHAL\28-Apr-2017\0\\#P HF/6-
 31G* SCF(Conver=6) NoSymm Test Pop=chelpg IOp(6/33=2) GFInput GFPrint\
 \MEP - Input generated by R.E.D.-III.x MOLECULE\\0,1\C,0,1.75835858,-1
 .24903024,0.05202779\H,0,1.8834129,-1.20627872,-1.03691139\C,0,3.14656
 525,-1.26281647,0.71157835\H,0,3.72587591,-2.11086041,0.33340578\H,0,3
 .00274309,-1.43505528,1.78988489\C,0,3.90549873,0.03255593,0.48969978\
 C,0,3.17370405,1.33046208,0.85357068\C,0,1.74415036,1.27223283,0.23147
 621\H,0,1.83927175,1.38969557,-0.85657859\H,0,1.15942346,2.12783784,0.
 58621785\C,0,0.96837232,-0.02396305,0.51246771\H,0,0.75328379,-0.11882
 94,1.58713191\H,0,0.,0.,0.\C,0,5.15460223,0.,0.\H,0,5.60507419,-0.9622
 8736,-0.23619369\C,0,6.00340613,1.21090921,-0.26052718\H,0,7.03653088,
 1.02382033,0.0586432\C,0,5.46459452,2.47380859,0.43571289\H,0,5.703480
 87,2.33603054,1.49966632\C,0,3.92607458,2.57487311,0.26308039\H,0,3.74
 65118,2.55173749,-0.82182087\C,0,3.37539411,3.92470213,0.78148329\H,0,
 3.38157436,3.93496647,1.8761923\H,0,2.32475748,4.02754387,0.48632222\C
 ,0,4.14720191,5.1636159,0.28321427\H,0,4.02383379,5.26248385,-0.804681
 52\H,0,3.69275091,6.05331994,0.73005973\C,0,5.65404923,5.06508281,0.60
 00162\C,0,6.15213426,3.75243515,-0.06726473\H,0,5.88433321,3.8488122,-
 1.12848641\C,0,7.68224262,3.84101288,0.\H,0,8.16210542,3.22640232,-0.7
 6666843\H,0,8.05307452,3.4917611,0.97217698\C,0,7.96587621,5.35591542,
 -0.19273484\H,0,8.6439075,5.72927774,0.58423861\H,0,8.46036136,5.54422
 952,-1.15008664\C,0,6.58869154,6.10122987,-0.118076\H,0,6.20069327,6.1
 993692,-1.14432786\C,0,5.90120772,5.09082579,2.12583207\H,0,5.43258484
 ,4.2479882,2.64053702\H,0,6.96827,5.0618182,2.36633316\H,0,5.49300301,
 6.00489528,2.56953262\C,0,6.72104892,7.53892084,0.44868761\H,0,7.17348
 516,7.46511664,1.44964549\C,0,5.37157145,8.26496656,0.5908178\H,0,4.84
 111008,8.29784095,-0.36931721\H,0,5.51063489,9.29635977,0.92815857\H,0
 ,4.71572864,7.77946084,1.31677441\C,0,3.0654036,1.409095,2.40129303\H,
 0,2.38427746,2.20669387,2.71232465\H,0,2.68502193,0.47792081,2.8278627
 7\H,0,4.04237339,1.59583796,2.85778175\O,0,6.06059539,1.51147556,-1.68
 23963\O,0,6.79738295,0.4371927,-2.33098049\H,0,6.08173583,-0.01594991,
 -2.80685163\O,0,1.05382116,-2.47322629,0.27438722\H,0,0.88414232,-2.56
 574296,1.22244498\C,0,7.68962834,8.37215366,-0.42782507\H,0,8.603898,7
 .79428735,-0.60672518\H,0,7.2250257,8.518754,-1.41368328\C,0,8.1051633
 ,9.72890549,0.16621166\H,0,7.24281728,10.40211853,0.2318979\H,0,8.4401
 792,9.56940438,1.20106774\C,0,9.2442642,10.42839225,-0.59854218\H,0,10
 .12510864,9.77013801,-0.59235854\H,0,9.53729469,11.33203695,-0.0435386
 2\C,0,8.95120468,10.83498366,-2.05863009\H,0,8.6731293,9.9305631,-2.61
 843536\C,0,7.78782518,11.83346987,-2.16750327\H,0,8.00658416,12.749147
 94,-1.60265594\H,0,7.61539711,12.12084479,-3.21097561\H,0,6.85049117,1
 1.41994162,-1.78142895\C,0,10.21759578,11.40995501,-2.71317401\H,0,10.
 54428526,12.32251977,-2.19795061\H,0,10.04130779,11.66710669,-3.763906
 04\H,0,11.04626627,10.69340368,-2.67767257\\Version=EM64L-G09RevD.01\H
 F=-1273.6834603\RMSD=5.499e-07\Dipole=-0.5156731,0.1330817,0.8530386\Q
 uadrupole=-8.6367466,0.5110783,8.1256682,-4.8800874,6.8703346,1.038458
 6\PG=C01 [X(C27H46O3)]\\@


 EXPERIENCE IS A WONDERFUL THING.  IT ENABLES
 YOU TO RECOGNIZE A MISTAKE WHEN YOU MAKE IT AGAIN.
           - BACK OF A SUGAR PACKET
 Job cpu time:       0 days  0 hours 11 minutes 52.5 seconds.
 File lengths (MBytes):  RWF=    159 Int=      0 D2E=      0 Chk=     11 Scr=      1
 Normal termination of Gaussian 09 at Fri Apr 28 12:35:29 2017.
