 Entering Gaussian System, Link 0=/home/michal/g09/g09
 Input=JOB2-gau_m1-23-4.com
 Output=JOB2-gau_m1-23-4.log
 Initial command:
 /home/michal/g09/l1.exe "/home/michal/gauss_scratch/Gau-23242.inp" -scrdir="/home/michal/gauss_scratch/"
 Entering Link 1 = /home/michal/g09/l1.exe PID=     23243.
  
 Copyright (c) 1988,1990,1992,1993,1995,1998,2003,2009,2013,
            Gaussian, Inc.  All Rights Reserved.
  
 This is part of the Gaussian(R) 09 program.  It is based on
 the Gaussian(R) 03 system (copyright 2003, Gaussian, Inc.),
 the Gaussian(R) 98 system (copyright 1998, Gaussian, Inc.),
 the Gaussian(R) 94 system (copyright 1995, Gaussian, Inc.),
 the Gaussian 92(TM) system (copyright 1992, Gaussian, Inc.),
 the Gaussian 90(TM) system (copyright 1990, Gaussian, Inc.),
 the Gaussian 88(TM) system (copyright 1988, Gaussian, Inc.),
 the Gaussian 86(TM) system (copyright 1986, Carnegie Mellon
 University), and the Gaussian 82(TM) system (copyright 1983,
 Carnegie Mellon University). Gaussian is a federally registered
 trademark of Gaussian, Inc.
  
 This software contains proprietary and confidential information,
 including trade secrets, belonging to Gaussian, Inc.
  
 This software is provided under written license and may be
 used, copied, transmitted, or stored only in accord with that
 written license.
  
 The following legend is applicable only to US Government
 contracts under FAR:
  
                    RESTRICTED RIGHTS LEGEND
  
 Use, reproduction and disclosure by the US Government is
 subject to restrictions as set forth in subparagraphs (a)
 and (c) of the Commercial Computer Software - Restricted
 Rights clause in FAR 52.227-19.
  
 Gaussian, Inc.
 340 Quinnipiac St., Bldg. 40, Wallingford CT 06492
  
  
 ---------------------------------------------------------------
 Warning -- This program may not be used in any manner that
 competes with the business of Gaussian, Inc. or will provide
 assistance to any competitor of Gaussian, Inc.  The licensee
 of this program is prohibited from giving any competitor of
 Gaussian, Inc. access to this program.  By using this program,
 the user acknowledges that Gaussian, Inc. is engaged in the
 business of creating and licensing software in the field of
 computational chemistry and represents and warrants to the
 licensee that it is not a competitor of Gaussian, Inc. and that
 it will not use this program in any manner prohibited above.
 ---------------------------------------------------------------
  

 Cite this work as:
 Gaussian 09, Revision D.01,
 M. J. Frisch, G. W. Trucks, H. B. Schlegel, G. E. Scuseria, 
 M. A. Robb, J. R. Cheeseman, G. Scalmani, V. Barone, B. Mennucci, 
 G. A. Petersson, H. Nakatsuji, M. Caricato, X. Li, H. P. Hratchian, 
 A. F. Izmaylov, J. Bloino, G. Zheng, J. L. Sonnenberg, M. Hada, 
 M. Ehara, K. Toyota, R. Fukuda, J. Hasegawa, M. Ishida, T. Nakajima, 
 Y. Honda, O. Kitao, H. Nakai, T. Vreven, J. A. Montgomery, Jr., 
 J. E. Peralta, F. Ogliaro, M. Bearpark, J. J. Heyd, E. Brothers, 
 K. N. Kudin, V. N. Staroverov, T. Keith, R. Kobayashi, J. Normand, 
 K. Raghavachari, A. Rendell, J. C. Burant, S. S. Iyengar, J. Tomasi, 
 M. Cossi, N. Rega, J. M. Millam, M. Klene, J. E. Knox, J. B. Cross, 
 V. Bakken, C. Adamo, J. Jaramillo, R. Gomperts, R. E. Stratmann, 
 O. Yazyev, A. J. Austin, R. Cammi, C. Pomelli, J. W. Ochterski, 
 R. L. Martin, K. Morokuma, V. G. Zakrzewski, G. A. Voth, 
 P. Salvador, J. J. Dannenberg, S. Dapprich, A. D. Daniels, 
 O. Farkas, J. B. Foresman, J. V. Ortiz, J. Cioslowski, 
 and D. J. Fox, Gaussian, Inc., Wallingford CT, 2013.
 
 ******************************************
 Gaussian 09:  EM64L-G09RevD.01 24-Apr-2013
                28-Apr-2017 
 ******************************************
 %Mem=256MB
 %NProc=12
 Will use up to   12 processors via shared memory.
 ----------------------------------------------------------------------
 #P HF/6-31G* SCF(Conver=6) NoSymm Test Pop=chelpg IOp(6/33=2) GFInput 
 GFPrint
 ----------------------------------------------------------------------
 1/38=1/1;
 2/12=2,15=1,17=6,18=5,40=1/2;
 3/5=1,6=6,7=1,11=9,16=1,24=110,25=1,30=1/1,2,3;
 4//1;
 5/5=2,6=6,38=5/2;
 6/7=2,8=2,9=2,10=2,15=8,20=3,28=1,33=2/1,2;
 99/5=1,9=1/99;
 Leave Link    1 at Fri Apr 28 13:22:44 2017, MaxMem=    33554432 cpu:         0.6
 (Enter /home/michal/g09/l101.exe)
 ----------------------------------------------
 MEP - Input generated by R.E.D.-III.x MOLECULE
 ----------------------------------------------
 Symbolic Z-matrix:
 Charge =  0 Multiplicity = 1
 C                     1.01492  -0.8852   -1.68549 
 H                     1.14641   0.08456  -2.18101 
 C                     2.25025  -1.7565   -1.96279 
 H                     2.38951  -1.86543  -3.04285 
 H                     2.04426  -2.76405  -1.56841 
 C                     3.50837  -1.19664  -1.32488 
 C                     3.43398  -0.86571   0.17099 
 C                     2.12889  -0.04909   0.42357 
 H                     2.26599   0.95517   0. 
 H                     1.98839   0.08517   1.50157 
 C                     0.8557   -0.66002  -0.18192 
 H                     0.62116  -1.61975   0.3019 
 H                     0.        0.        0. 
 C                     4.61156  -1.01807  -2.06796 
 H                     4.58433  -1.27529  -3.12523 
 C                     5.9126   -0.47491  -1.55159 
 H                     6.75252  -1.04114  -1.97366 
 C                     5.99432  -0.49178  -0.01437 
 H                     6.14596  -1.54758   0.25097 
 C                     4.66313   0.00796   0.60622 
 H                     4.49211   1.00682   0.17866 
 C                     4.77389   0.18762   2.13896 
 H                     4.78375  -0.79086   2.62985 
 H                     3.88018   0.70134   2.5116 
 C                     6.01831   0.97256   2.60229 
 H                     5.95242   2.01124   2.24835 
 H                     6.00887   1.01529   3.69586 
 C                     7.32232   0.35051   2.0607 
 C                     7.18105   0.32928   0.51261 
 H                     6.98509   1.37189   0.22689 
 C                     8.58901   0.        0. 
 H                     8.74397   0.34975  -1.02442 
 H                     8.76324  -1.08365   0.00072 
 C                     9.52083   0.71435   1.0168 
 H                     10.2901   0.02785   1.39035 
 H                     10.05217   1.54692   0.54673 
 C                     8.62211   1.21928   2.1977 
 H                     8.31985   2.25467   1.97399 
 C                     7.55414  -1.05551   2.65945 
 H                     6.75908  -1.75864   2.39793 
 H                     8.49668  -1.49379   2.31766 
 H                     7.59468  -1.00921   3.75278 
 C                     9.38324   1.25908   3.54931 
 H                     9.74302   0.24087   3.75585 
 C                     8.50254   1.69847   4.73156 
 H                     8.05653   2.68365   4.54487 
 H                     9.08436   1.76953   5.65544 
 H                     7.68917   0.99522   4.92285 
 C                     3.37331  -2.20201   0.96082 
 H                     3.1223   -2.0319    2.01199 
 H                     2.61594  -2.87715   0.55542 
 H                     4.33045  -2.73099   0.91869 
 O                     6.10054   0.90723  -1.96359 
 O                     6.28218   0.91603  -3.40742 
 H                     5.4415    1.30792  -3.69658 
 O                    -0.16261  -1.42807  -2.28816 
 H                    -0.35592  -2.28238  -1.87713 
 C                     10.62186   2.18326   3.42493 
 H                     11.20861   1.88114   2.55117 
 H                     10.2677   3.20211   3.20789 
 C                     11.56439   2.2533    4.64344 
 H                     12.366    2.96428   4.40588 
 H                     11.03662   2.6923    5.49895 
 C                     12.18477   0.91803   5.09686 
 H                     11.38586   0.24357   5.43391 
 H                     12.80525   1.11052   5.98476 
 C                     13.04832   0.16886   4.05986 
 H                     12.42695  -0.03331   3.17552 
 C                     14.26297   0.99193   3.60195 
 H                     14.90695   1.2425    4.45507 
 H                     14.8689   0.42843   2.88333 
 H                     13.96902   1.92977   3.11978 
 C                     13.49913  -1.18771   4.62511 
 H                     14.13112  -1.051     5.51208 
 H                     14.08003  -1.75363   3.88785 
 H                     12.64126  -1.80297   4.9203 
 
 NAtoms=     76 NQM=       76 NQMF=       0 NMMI=      0 NMMIF=      0
                NMic=       0 NMicF=      0.
                    Isotopes and Nuclear Properties:
 (Nuclear quadrupole moments (NQMom) in fm**2, nuclear magnetic moments (NMagM)
  in nuclear magnetons)

  Atom         1           2           3           4           5           6           7           8           9          10
 IAtWgt=          12           1          12           1           1          12          12          12           1           1
 AtmWgt=  12.0000000   1.0078250  12.0000000   1.0078250   1.0078250  12.0000000  12.0000000  12.0000000   1.0078250   1.0078250
 NucSpn=           0           1           0           1           1           0           0           0           1           1
 AtZEff=   0.0000000   0.0000000   0.0000000   0.0000000   0.0000000   0.0000000   0.0000000   0.0000000   0.0000000   0.0000000
 NQMom=    0.0000000   0.0000000   0.0000000   0.0000000   0.0000000   0.0000000   0.0000000   0.0000000   0.0000000   0.0000000
 NMagM=    0.0000000   2.7928460   0.0000000   2.7928460   2.7928460   0.0000000   0.0000000   0.0000000   2.7928460   2.7928460
 AtZNuc=   6.0000000   1.0000000   6.0000000   1.0000000   1.0000000   6.0000000   6.0000000   6.0000000   1.0000000   1.0000000

  Atom        11          12          13          14          15          16          17          18          19          20
 IAtWgt=          12           1           1          12           1          12           1          12           1          12
 AtmWgt=  12.0000000   1.0078250   1.0078250  12.0000000   1.0078250  12.0000000   1.0078250  12.0000000   1.0078250  12.0000000
 NucSpn=           0           1           1           0           1           0           1           0           1           0
 AtZEff=   0.0000000   0.0000000   0.0000000   0.0000000   0.0000000   0.0000000   0.0000000   0.0000000   0.0000000   0.0000000
 NQMom=    0.0000000   0.0000000   0.0000000   0.0000000   0.0000000   0.0000000   0.0000000   0.0000000   0.0000000   0.0000000
 NMagM=    0.0000000   2.7928460   2.7928460   0.0000000   2.7928460   0.0000000   2.7928460   0.0000000   2.7928460   0.0000000
 AtZNuc=   6.0000000   1.0000000   1.0000000   6.0000000   1.0000000   6.0000000   1.0000000   6.0000000   1.0000000   6.0000000

  Atom        21          22          23          24          25          26          27          28          29          30
 IAtWgt=           1          12           1           1          12           1           1          12          12           1
 AtmWgt=   1.0078250  12.0000000   1.0078250   1.0078250  12.0000000   1.0078250   1.0078250  12.0000000  12.0000000   1.0078250
 NucSpn=           1           0           1           1           0           1           1           0           0           1
 AtZEff=   0.0000000   0.0000000   0.0000000   0.0000000   0.0000000   0.0000000   0.0000000   0.0000000   0.0000000   0.0000000
 NQMom=    0.0000000   0.0000000   0.0000000   0.0000000   0.0000000   0.0000000   0.0000000   0.0000000   0.0000000   0.0000000
 NMagM=    2.7928460   0.0000000   2.7928460   2.7928460   0.0000000   2.7928460   2.7928460   0.0000000   0.0000000   2.7928460
 AtZNuc=   1.0000000   6.0000000   1.0000000   1.0000000   6.0000000   1.0000000   1.0000000   6.0000000   6.0000000   1.0000000

  Atom        31          32          33          34          35          36          37          38          39          40
 IAtWgt=          12           1           1          12           1           1          12           1          12           1
 AtmWgt=  12.0000000   1.0078250   1.0078250  12.0000000   1.0078250   1.0078250  12.0000000   1.0078250  12.0000000   1.0078250
 NucSpn=           0           1           1           0           1           1           0           1           0           1
 AtZEff=   0.0000000   0.0000000   0.0000000   0.0000000   0.0000000   0.0000000   0.0000000   0.0000000   0.0000000   0.0000000
 NQMom=    0.0000000   0.0000000   0.0000000   0.0000000   0.0000000   0.0000000   0.0000000   0.0000000   0.0000000   0.0000000
 NMagM=    0.0000000   2.7928460   2.7928460   0.0000000   2.7928460   2.7928460   0.0000000   2.7928460   0.0000000   2.7928460
 AtZNuc=   6.0000000   1.0000000   1.0000000   6.0000000   1.0000000   1.0000000   6.0000000   1.0000000   6.0000000   1.0000000

  Atom        41          42          43          44          45          46          47          48          49          50
 IAtWgt=           1           1          12           1          12           1           1           1          12           1
 AtmWgt=   1.0078250   1.0078250  12.0000000   1.0078250  12.0000000   1.0078250   1.0078250   1.0078250  12.0000000   1.0078250
 NucSpn=           1           1           0           1           0           1           1           1           0           1
 AtZEff=   0.0000000   0.0000000   0.0000000   0.0000000   0.0000000   0.0000000   0.0000000   0.0000000   0.0000000   0.0000000
 NQMom=    0.0000000   0.0000000   0.0000000   0.0000000   0.0000000   0.0000000   0.0000000   0.0000000   0.0000000   0.0000000
 NMagM=    2.7928460   2.7928460   0.0000000   2.7928460   0.0000000   2.7928460   2.7928460   2.7928460   0.0000000   2.7928460
 AtZNuc=   1.0000000   1.0000000   6.0000000   1.0000000   6.0000000   1.0000000   1.0000000   1.0000000   6.0000000   1.0000000

  Atom        51          52          53          54          55          56          57          58          59          60
 IAtWgt=           1           1          16          16           1          16           1          12           1           1
 AtmWgt=   1.0078250   1.0078250  15.9949146  15.9949146   1.0078250  15.9949146   1.0078250  12.0000000   1.0078250   1.0078250
 NucSpn=           1           1           0           0           1           0           1           0           1           1
 AtZEff=   0.0000000   0.0000000   0.0000000   0.0000000   0.0000000   0.0000000   0.0000000   0.0000000   0.0000000   0.0000000
 NQMom=    0.0000000   0.0000000   0.0000000   0.0000000   0.0000000   0.0000000   0.0000000   0.0000000   0.0000000   0.0000000
 NMagM=    2.7928460   2.7928460   0.0000000   0.0000000   2.7928460   0.0000000   2.7928460   0.0000000   2.7928460   2.7928460
 AtZNuc=   1.0000000   1.0000000   8.0000000   8.0000000   1.0000000   8.0000000   1.0000000   6.0000000   1.0000000   1.0000000

  Atom        61          62          63          64          65          66          67          68          69          70
 IAtWgt=          12           1           1          12           1           1          12           1          12           1
 AtmWgt=  12.0000000   1.0078250   1.0078250  12.0000000   1.0078250   1.0078250  12.0000000   1.0078250  12.0000000   1.0078250
 NucSpn=           0           1           1           0           1           1           0           1           0           1
 AtZEff=   0.0000000   0.0000000   0.0000000   0.0000000   0.0000000   0.0000000   0.0000000   0.0000000   0.0000000   0.0000000
 NQMom=    0.0000000   0.0000000   0.0000000   0.0000000   0.0000000   0.0000000   0.0000000   0.0000000   0.0000000   0.0000000
 NMagM=    0.0000000   2.7928460   2.7928460   0.0000000   2.7928460   2.7928460   0.0000000   2.7928460   0.0000000   2.7928460
 AtZNuc=   6.0000000   1.0000000   1.0000000   6.0000000   1.0000000   1.0000000   6.0000000   1.0000000   6.0000000   1.0000000

  Atom        71          72          73          74          75          76
 IAtWgt=           1           1          12           1           1           1
 AtmWgt=   1.0078250   1.0078250  12.0000000   1.0078250   1.0078250   1.0078250
 NucSpn=           1           1           0           1           1           1
 AtZEff=   0.0000000   0.0000000   0.0000000   0.0000000   0.0000000   0.0000000
 NQMom=    0.0000000   0.0000000   0.0000000   0.0000000   0.0000000   0.0000000
 NMagM=    2.7928460   2.7928460   0.0000000   2.7928460   2.7928460   2.7928460
 AtZNuc=   1.0000000   1.0000000   6.0000000   1.0000000   1.0000000   1.0000000
 Leave Link  101 at Fri Apr 28 13:22:44 2017, MaxMem=    33554432 cpu:         1.0
 (Enter /home/michal/g09/l202.exe)
 Symmetry turned off by external request.
 Stoichiometry    C27H46O3
 Framework group  C1[X(C27H46O3)]
 Deg. of freedom   222
 Full point group                 C1      NOp   1
                          Input orientation:                          
 ---------------------------------------------------------------------
 Center     Atomic      Atomic             Coordinates (Angstroms)
 Number     Number       Type             X           Y           Z
 ---------------------------------------------------------------------
      1          6           0        1.014918   -0.885204   -1.685489
      2          1           0        1.146406    0.084557   -2.181006
      3          6           0        2.250246   -1.756502   -1.962791
      4          1           0        2.389505   -1.865435   -3.042850
      5          1           0        2.044255   -2.764052   -1.568407
      6          6           0        3.508368   -1.196635   -1.324882
      7          6           0        3.433982   -0.865705    0.170995
      8          6           0        2.128892   -0.049091    0.423574
      9          1           0        2.265989    0.955172    0.000000
     10          1           0        1.988391    0.085174    1.501566
     11          6           0        0.855703   -0.660024   -0.181920
     12          1           0        0.621164   -1.619748    0.301899
     13          1           0        0.000000    0.000000    0.000000
     14          6           0        4.611557   -1.018071   -2.067956
     15          1           0        4.584326   -1.275287   -3.125228
     16          6           0        5.912605   -0.474906   -1.551593
     17          1           0        6.752515   -1.041137   -1.973658
     18          6           0        5.994316   -0.491776   -0.014369
     19          1           0        6.145957   -1.547580    0.250973
     20          6           0        4.663131    0.007956    0.606222
     21          1           0        4.492110    1.006824    0.178664
     22          6           0        4.773890    0.187617    2.138961
     23          1           0        4.783747   -0.790859    2.629854
     24          1           0        3.880177    0.701340    2.511603
     25          6           0        6.018313    0.972563    2.602292
     26          1           0        5.952421    2.011239    2.248352
     27          1           0        6.008867    1.015287    3.695857
     28          6           0        7.322323    0.350508    2.060697
     29          6           0        7.181046    0.329276    0.512608
     30          1           0        6.985090    1.371894    0.226885
     31          6           0        8.589010    0.000000    0.000000
     32          1           0        8.743971    0.349754   -1.024424
     33          1           0        8.763237   -1.083655    0.000716
     34          6           0        9.520827    0.714345    1.016798
     35          1           0       10.290095    0.027846    1.390346
     36          1           0       10.052173    1.546915    0.546731
     37          6           0        8.622107    1.219278    2.197697
     38          1           0        8.319855    2.254671    1.973989
     39          6           0        7.554138   -1.055514    2.659449
     40          1           0        6.759080   -1.758639    2.397928
     41          1           0        8.496680   -1.493794    2.317657
     42          1           0        7.594685   -1.009215    3.752775
     43          6           0        9.383244    1.259080    3.549309
     44          1           0        9.743022    0.240868    3.755851
     45          6           0        8.502542    1.698465    4.731563
     46          1           0        8.056528    2.683652    4.544871
     47          1           0        9.084358    1.769528    5.655445
     48          1           0        7.689165    0.995223    4.922851
     49          6           0        3.373308   -2.202012    0.960818
     50          1           0        3.122299   -2.031904    2.011994
     51          1           0        2.615943   -2.877146    0.555417
     52          1           0        4.330447   -2.730989    0.918690
     53          8           0        6.100535    0.907232   -1.963592
     54          8           0        6.282185    0.916030   -3.407423
     55          1           0        5.441502    1.307921   -3.696582
     56          8           0       -0.162613   -1.428066   -2.288164
     57          1           0       -0.355924   -2.282376   -1.877129
     58          6           0       10.621863    2.183259    3.424927
     59          1           0       11.208611    1.881144    2.551171
     60          1           0       10.267699    3.202113    3.207885
     61          6           0       11.564385    2.253296    4.643444
     62          1           0       12.366001    2.964275    4.405876
     63          1           0       11.036620    2.692301    5.498955
     64          6           0       12.184768    0.918033    5.096856
     65          1           0       11.385859    0.243573    5.433911
     66          1           0       12.805249    1.110521    5.984756
     67          6           0       13.048316    0.168858    4.059863
     68          1           0       12.426947   -0.033315    3.175524
     69          6           0       14.262968    0.991929    3.601947
     70          1           0       14.906947    1.242505    4.455070
     71          1           0       14.868899    0.428435    2.883326
     72          1           0       13.969021    1.929772    3.119785
     73          6           0       13.499135   -1.187713    4.625109
     74          1           0       14.131119   -1.050999    5.512084
     75          1           0       14.080034   -1.753629    3.887850
     76          1           0       12.641258   -1.802968    4.920296
 ---------------------------------------------------------------------
 Rotational constants (GHZ):      0.3757819      0.0586828      0.0552125
 Leave Link  202 at Fri Apr 28 13:22:44 2017, MaxMem=    33554432 cpu:         0.0
 (Enter /home/michal/g09/l301.exe)
 Standard basis: 6-31G(d) (6D, 7F)
 Ernie: Thresh=  0.10000D-02 Tol=  0.10000D-05 Strict=F.
 AO basis set in the form of general basis input (Overlap normalization):
      1 0
 S   6 1.00       0.000000000000
      0.3047524880D+04  0.1834737132D-02
      0.4573695180D+03  0.1403732281D-01
      0.1039486850D+03  0.6884262226D-01
      0.2921015530D+02  0.2321844432D+00
      0.9286662960D+01  0.4679413484D+00
      0.3163926960D+01  0.3623119853D+00
 SP   3 1.00       0.000000000000
      0.7868272350D+01 -0.1193324198D+00  0.6899906659D-01
      0.1881288540D+01 -0.1608541517D+00  0.3164239610D+00
      0.5442492580D+00  0.1143456438D+01  0.7443082909D+00
 SP   1 1.00       0.000000000000
      0.1687144782D+00  0.1000000000D+01  0.1000000000D+01
 D   1 1.00       0.000000000000
      0.8000000000D+00  0.1000000000D+01
 ****
      2 0
 S   3 1.00       0.000000000000
      0.1873113696D+02  0.3349460434D-01
      0.2825394365D+01  0.2347269535D+00
      0.6401216923D+00  0.8137573261D+00
 S   1 1.00       0.000000000000
      0.1612777588D+00  0.1000000000D+01
 ****
      3 0
 S   6 1.00       0.000000000000
      0.3047524880D+04  0.1834737132D-02
      0.4573695180D+03  0.1403732281D-01
      0.1039486850D+03  0.6884262226D-01
      0.2921015530D+02  0.2321844432D+00
      0.9286662960D+01  0.4679413484D+00
      0.3163926960D+01  0.3623119853D+00
 SP   3 1.00       0.000000000000
      0.7868272350D+01 -0.1193324198D+00  0.6899906659D-01
      0.1881288540D+01 -0.1608541517D+00  0.3164239610D+00
      0.5442492580D+00  0.1143456438D+01  0.7443082909D+00
 SP   1 1.00       0.000000000000
      0.1687144782D+00  0.1000000000D+01  0.1000000000D+01
 D   1 1.00       0.000000000000
      0.8000000000D+00  0.1000000000D+01
 ****
      4 0
 S   3 1.00       0.000000000000
      0.1873113696D+02  0.3349460434D-01
      0.2825394365D+01  0.2347269535D+00
      0.6401216923D+00  0.8137573261D+00
 S   1 1.00       0.000000000000
      0.1612777588D+00  0.1000000000D+01
 ****
      5 0
 S   3 1.00       0.000000000000
      0.1873113696D+02  0.3349460434D-01
      0.2825394365D+01  0.2347269535D+00
      0.6401216923D+00  0.8137573261D+00
 S   1 1.00       0.000000000000
      0.1612777588D+00  0.1000000000D+01
 ****
      6 0
 S   6 1.00       0.000000000000
      0.3047524880D+04  0.1834737132D-02
      0.4573695180D+03  0.1403732281D-01
      0.1039486850D+03  0.6884262226D-01
      0.2921015530D+02  0.2321844432D+00
      0.9286662960D+01  0.4679413484D+00
      0.3163926960D+01  0.3623119853D+00
 SP   3 1.00       0.000000000000
      0.7868272350D+01 -0.1193324198D+00  0.6899906659D-01
      0.1881288540D+01 -0.1608541517D+00  0.3164239610D+00
      0.5442492580D+00  0.1143456438D+01  0.7443082909D+00
 SP   1 1.00       0.000000000000
      0.1687144782D+00  0.1000000000D+01  0.1000000000D+01
 D   1 1.00       0.000000000000
      0.8000000000D+00  0.1000000000D+01
 ****
      7 0
 S   6 1.00       0.000000000000
      0.3047524880D+04  0.1834737132D-02
      0.4573695180D+03  0.1403732281D-01
      0.1039486850D+03  0.6884262226D-01
      0.2921015530D+02  0.2321844432D+00
      0.9286662960D+01  0.4679413484D+00
      0.3163926960D+01  0.3623119853D+00
 SP   3 1.00       0.000000000000
      0.7868272350D+01 -0.1193324198D+00  0.6899906659D-01
      0.1881288540D+01 -0.1608541517D+00  0.3164239610D+00
      0.5442492580D+00  0.1143456438D+01  0.7443082909D+00
 SP   1 1.00       0.000000000000
      0.1687144782D+00  0.1000000000D+01  0.1000000000D+01
 D   1 1.00       0.000000000000
      0.8000000000D+00  0.1000000000D+01
 ****
      8 0
 S   6 1.00       0.000000000000
      0.3047524880D+04  0.1834737132D-02
      0.4573695180D+03  0.1403732281D-01
      0.1039486850D+03  0.6884262226D-01
      0.2921015530D+02  0.2321844432D+00
      0.9286662960D+01  0.4679413484D+00
      0.3163926960D+01  0.3623119853D+00
 SP   3 1.00       0.000000000000
      0.7868272350D+01 -0.1193324198D+00  0.6899906659D-01
      0.1881288540D+01 -0.1608541517D+00  0.3164239610D+00
      0.5442492580D+00  0.1143456438D+01  0.7443082909D+00
 SP   1 1.00       0.000000000000
      0.1687144782D+00  0.1000000000D+01  0.1000000000D+01
 D   1 1.00       0.000000000000
      0.8000000000D+00  0.1000000000D+01
 ****
      9 0
 S   3 1.00       0.000000000000
      0.1873113696D+02  0.3349460434D-01
      0.2825394365D+01  0.2347269535D+00
      0.6401216923D+00  0.8137573261D+00
 S   1 1.00       0.000000000000
      0.1612777588D+00  0.1000000000D+01
 ****
     10 0
 S   3 1.00       0.000000000000
      0.1873113696D+02  0.3349460434D-01
      0.2825394365D+01  0.2347269535D+00
      0.6401216923D+00  0.8137573261D+00
 S   1 1.00       0.000000000000
      0.1612777588D+00  0.1000000000D+01
 ****
     11 0
 S   6 1.00       0.000000000000
      0.3047524880D+04  0.1834737132D-02
      0.4573695180D+03  0.1403732281D-01
      0.1039486850D+03  0.6884262226D-01
      0.2921015530D+02  0.2321844432D+00
      0.9286662960D+01  0.4679413484D+00
      0.3163926960D+01  0.3623119853D+00
 SP   3 1.00       0.000000000000
      0.7868272350D+01 -0.1193324198D+00  0.6899906659D-01
      0.1881288540D+01 -0.1608541517D+00  0.3164239610D+00
      0.5442492580D+00  0.1143456438D+01  0.7443082909D+00
 SP   1 1.00       0.000000000000
      0.1687144782D+00  0.1000000000D+01  0.1000000000D+01
 D   1 1.00       0.000000000000
      0.8000000000D+00  0.1000000000D+01
 ****
     12 0
 S   3 1.00       0.000000000000
      0.1873113696D+02  0.3349460434D-01
      0.2825394365D+01  0.2347269535D+00
      0.6401216923D+00  0.8137573261D+00
 S   1 1.00       0.000000000000
      0.1612777588D+00  0.1000000000D+01
 ****
     13 0
 S   3 1.00       0.000000000000
      0.1873113696D+02  0.3349460434D-01
      0.2825394365D+01  0.2347269535D+00
      0.6401216923D+00  0.8137573261D+00
 S   1 1.00       0.000000000000
      0.1612777588D+00  0.1000000000D+01
 ****
     14 0
 S   6 1.00       0.000000000000
      0.3047524880D+04  0.1834737132D-02
      0.4573695180D+03  0.1403732281D-01
      0.1039486850D+03  0.6884262226D-01
      0.2921015530D+02  0.2321844432D+00
      0.9286662960D+01  0.4679413484D+00
      0.3163926960D+01  0.3623119853D+00
 SP   3 1.00       0.000000000000
      0.7868272350D+01 -0.1193324198D+00  0.6899906659D-01
      0.1881288540D+01 -0.1608541517D+00  0.3164239610D+00
      0.5442492580D+00  0.1143456438D+01  0.7443082909D+00
 SP   1 1.00       0.000000000000
      0.1687144782D+00  0.1000000000D+01  0.1000000000D+01
 D   1 1.00       0.000000000000
      0.8000000000D+00  0.1000000000D+01
 ****
     15 0
 S   3 1.00       0.000000000000
      0.1873113696D+02  0.3349460434D-01
      0.2825394365D+01  0.2347269535D+00
      0.6401216923D+00  0.8137573261D+00
 S   1 1.00       0.000000000000
      0.1612777588D+00  0.1000000000D+01
 ****
     16 0
 S   6 1.00       0.000000000000
      0.3047524880D+04  0.1834737132D-02
      0.4573695180D+03  0.1403732281D-01
      0.1039486850D+03  0.6884262226D-01
      0.2921015530D+02  0.2321844432D+00
      0.9286662960D+01  0.4679413484D+00
      0.3163926960D+01  0.3623119853D+00
 SP   3 1.00       0.000000000000
      0.7868272350D+01 -0.1193324198D+00  0.6899906659D-01
      0.1881288540D+01 -0.1608541517D+00  0.3164239610D+00
      0.5442492580D+00  0.1143456438D+01  0.7443082909D+00
 SP   1 1.00       0.000000000000
      0.1687144782D+00  0.1000000000D+01  0.1000000000D+01
 D   1 1.00       0.000000000000
      0.8000000000D+00  0.1000000000D+01
 ****
     17 0
 S   3 1.00       0.000000000000
      0.1873113696D+02  0.3349460434D-01
      0.2825394365D+01  0.2347269535D+00
      0.6401216923D+00  0.8137573261D+00
 S   1 1.00       0.000000000000
      0.1612777588D+00  0.1000000000D+01
 ****
     18 0
 S   6 1.00       0.000000000000
      0.3047524880D+04  0.1834737132D-02
      0.4573695180D+03  0.1403732281D-01
      0.1039486850D+03  0.6884262226D-01
      0.2921015530D+02  0.2321844432D+00
      0.9286662960D+01  0.4679413484D+00
      0.3163926960D+01  0.3623119853D+00
 SP   3 1.00       0.000000000000
      0.7868272350D+01 -0.1193324198D+00  0.6899906659D-01
      0.1881288540D+01 -0.1608541517D+00  0.3164239610D+00
      0.5442492580D+00  0.1143456438D+01  0.7443082909D+00
 SP   1 1.00       0.000000000000
      0.1687144782D+00  0.1000000000D+01  0.1000000000D+01
 D   1 1.00       0.000000000000
      0.8000000000D+00  0.1000000000D+01
 ****
     19 0
 S   3 1.00       0.000000000000
      0.1873113696D+02  0.3349460434D-01
      0.2825394365D+01  0.2347269535D+00
      0.6401216923D+00  0.8137573261D+00
 S   1 1.00       0.000000000000
      0.1612777588D+00  0.1000000000D+01
 ****
     20 0
 S   6 1.00       0.000000000000
      0.3047524880D+04  0.1834737132D-02
      0.4573695180D+03  0.1403732281D-01
      0.1039486850D+03  0.6884262226D-01
      0.2921015530D+02  0.2321844432D+00
      0.9286662960D+01  0.4679413484D+00
      0.3163926960D+01  0.3623119853D+00
 SP   3 1.00       0.000000000000
      0.7868272350D+01 -0.1193324198D+00  0.6899906659D-01
      0.1881288540D+01 -0.1608541517D+00  0.3164239610D+00
      0.5442492580D+00  0.1143456438D+01  0.7443082909D+00
 SP   1 1.00       0.000000000000
      0.1687144782D+00  0.1000000000D+01  0.1000000000D+01
 D   1 1.00       0.000000000000
      0.8000000000D+00  0.1000000000D+01
 ****
     21 0
 S   3 1.00       0.000000000000
      0.1873113696D+02  0.3349460434D-01
      0.2825394365D+01  0.2347269535D+00
      0.6401216923D+00  0.8137573261D+00
 S   1 1.00       0.000000000000
      0.1612777588D+00  0.1000000000D+01
 ****
     22 0
 S   6 1.00       0.000000000000
      0.3047524880D+04  0.1834737132D-02
      0.4573695180D+03  0.1403732281D-01
      0.1039486850D+03  0.6884262226D-01
      0.2921015530D+02  0.2321844432D+00
      0.9286662960D+01  0.4679413484D+00
      0.3163926960D+01  0.3623119853D+00
 SP   3 1.00       0.000000000000
      0.7868272350D+01 -0.1193324198D+00  0.6899906659D-01
      0.1881288540D+01 -0.1608541517D+00  0.3164239610D+00
      0.5442492580D+00  0.1143456438D+01  0.7443082909D+00
 SP   1 1.00       0.000000000000
      0.1687144782D+00  0.1000000000D+01  0.1000000000D+01
 D   1 1.00       0.000000000000
      0.8000000000D+00  0.1000000000D+01
 ****
     23 0
 S   3 1.00       0.000000000000
      0.1873113696D+02  0.3349460434D-01
      0.2825394365D+01  0.2347269535D+00
      0.6401216923D+00  0.8137573261D+00
 S   1 1.00       0.000000000000
      0.1612777588D+00  0.1000000000D+01
 ****
     24 0
 S   3 1.00       0.000000000000
      0.1873113696D+02  0.3349460434D-01
      0.2825394365D+01  0.2347269535D+00
      0.6401216923D+00  0.8137573261D+00
 S   1 1.00       0.000000000000
      0.1612777588D+00  0.1000000000D+01
 ****
     25 0
 S   6 1.00       0.000000000000
      0.3047524880D+04  0.1834737132D-02
      0.4573695180D+03  0.1403732281D-01
      0.1039486850D+03  0.6884262226D-01
      0.2921015530D+02  0.2321844432D+00
      0.9286662960D+01  0.4679413484D+00
      0.3163926960D+01  0.3623119853D+00
 SP   3 1.00       0.000000000000
      0.7868272350D+01 -0.1193324198D+00  0.6899906659D-01
      0.1881288540D+01 -0.1608541517D+00  0.3164239610D+00
      0.5442492580D+00  0.1143456438D+01  0.7443082909D+00
 SP   1 1.00       0.000000000000
      0.1687144782D+00  0.1000000000D+01  0.1000000000D+01
 D   1 1.00       0.000000000000
      0.8000000000D+00  0.1000000000D+01
 ****
     26 0
 S   3 1.00       0.000000000000
      0.1873113696D+02  0.3349460434D-01
      0.2825394365D+01  0.2347269535D+00
      0.6401216923D+00  0.8137573261D+00
 S   1 1.00       0.000000000000
      0.1612777588D+00  0.1000000000D+01
 ****
     27 0
 S   3 1.00       0.000000000000
      0.1873113696D+02  0.3349460434D-01
      0.2825394365D+01  0.2347269535D+00
      0.6401216923D+00  0.8137573261D+00
 S   1 1.00       0.000000000000
      0.1612777588D+00  0.1000000000D+01
 ****
     28 0
 S   6 1.00       0.000000000000
      0.3047524880D+04  0.1834737132D-02
      0.4573695180D+03  0.1403732281D-01
      0.1039486850D+03  0.6884262226D-01
      0.2921015530D+02  0.2321844432D+00
      0.9286662960D+01  0.4679413484D+00
      0.3163926960D+01  0.3623119853D+00
 SP   3 1.00       0.000000000000
      0.7868272350D+01 -0.1193324198D+00  0.6899906659D-01
      0.1881288540D+01 -0.1608541517D+00  0.3164239610D+00
      0.5442492580D+00  0.1143456438D+01  0.7443082909D+00
 SP   1 1.00       0.000000000000
      0.1687144782D+00  0.1000000000D+01  0.1000000000D+01
 D   1 1.00       0.000000000000
      0.8000000000D+00  0.1000000000D+01
 ****
     29 0
 S   6 1.00       0.000000000000
      0.3047524880D+04  0.1834737132D-02
      0.4573695180D+03  0.1403732281D-01
      0.1039486850D+03  0.6884262226D-01
      0.2921015530D+02  0.2321844432D+00
      0.9286662960D+01  0.4679413484D+00
      0.3163926960D+01  0.3623119853D+00
 SP   3 1.00       0.000000000000
      0.7868272350D+01 -0.1193324198D+00  0.6899906659D-01
      0.1881288540D+01 -0.1608541517D+00  0.3164239610D+00
      0.5442492580D+00  0.1143456438D+01  0.7443082909D+00
 SP   1 1.00       0.000000000000
      0.1687144782D+00  0.1000000000D+01  0.1000000000D+01
 D   1 1.00       0.000000000000
      0.8000000000D+00  0.1000000000D+01
 ****
     30 0
 S   3 1.00       0.000000000000
      0.1873113696D+02  0.3349460434D-01
      0.2825394365D+01  0.2347269535D+00
      0.6401216923D+00  0.8137573261D+00
 S   1 1.00       0.000000000000
      0.1612777588D+00  0.1000000000D+01
 ****
     31 0
 S   6 1.00       0.000000000000
      0.3047524880D+04  0.1834737132D-02
      0.4573695180D+03  0.1403732281D-01
      0.1039486850D+03  0.6884262226D-01
      0.2921015530D+02  0.2321844432D+00
      0.9286662960D+01  0.4679413484D+00
      0.3163926960D+01  0.3623119853D+00
 SP   3 1.00       0.000000000000
      0.7868272350D+01 -0.1193324198D+00  0.6899906659D-01
      0.1881288540D+01 -0.1608541517D+00  0.3164239610D+00
      0.5442492580D+00  0.1143456438D+01  0.7443082909D+00
 SP   1 1.00       0.000000000000
      0.1687144782D+00  0.1000000000D+01  0.1000000000D+01
 D   1 1.00       0.000000000000
      0.8000000000D+00  0.1000000000D+01
 ****
     32 0
 S   3 1.00       0.000000000000
      0.1873113696D+02  0.3349460434D-01
      0.2825394365D+01  0.2347269535D+00
      0.6401216923D+00  0.8137573261D+00
 S   1 1.00       0.000000000000
      0.1612777588D+00  0.1000000000D+01
 ****
     33 0
 S   3 1.00       0.000000000000
      0.1873113696D+02  0.3349460434D-01
      0.2825394365D+01  0.2347269535D+00
      0.6401216923D+00  0.8137573261D+00
 S   1 1.00       0.000000000000
      0.1612777588D+00  0.1000000000D+01
 ****
     34 0
 S   6 1.00       0.000000000000
      0.3047524880D+04  0.1834737132D-02
      0.4573695180D+03  0.1403732281D-01
      0.1039486850D+03  0.6884262226D-01
      0.2921015530D+02  0.2321844432D+00
      0.9286662960D+01  0.4679413484D+00
      0.3163926960D+01  0.3623119853D+00
 SP   3 1.00       0.000000000000
      0.7868272350D+01 -0.1193324198D+00  0.6899906659D-01
      0.1881288540D+01 -0.1608541517D+00  0.3164239610D+00
      0.5442492580D+00  0.1143456438D+01  0.7443082909D+00
 SP   1 1.00       0.000000000000
      0.1687144782D+00  0.1000000000D+01  0.1000000000D+01
 D   1 1.00       0.000000000000
      0.8000000000D+00  0.1000000000D+01
 ****
     35 0
 S   3 1.00       0.000000000000
      0.1873113696D+02  0.3349460434D-01
      0.2825394365D+01  0.2347269535D+00
      0.6401216923D+00  0.8137573261D+00
 S   1 1.00       0.000000000000
      0.1612777588D+00  0.1000000000D+01
 ****
     36 0
 S   3 1.00       0.000000000000
      0.1873113696D+02  0.3349460434D-01
      0.2825394365D+01  0.2347269535D+00
      0.6401216923D+00  0.8137573261D+00
 S   1 1.00       0.000000000000
      0.1612777588D+00  0.1000000000D+01
 ****
     37 0
 S   6 1.00       0.000000000000
      0.3047524880D+04  0.1834737132D-02
      0.4573695180D+03  0.1403732281D-01
      0.1039486850D+03  0.6884262226D-01
      0.2921015530D+02  0.2321844432D+00
      0.9286662960D+01  0.4679413484D+00
      0.3163926960D+01  0.3623119853D+00
 SP   3 1.00       0.000000000000
      0.7868272350D+01 -0.1193324198D+00  0.6899906659D-01
      0.1881288540D+01 -0.1608541517D+00  0.3164239610D+00
      0.5442492580D+00  0.1143456438D+01  0.7443082909D+00
 SP   1 1.00       0.000000000000
      0.1687144782D+00  0.1000000000D+01  0.1000000000D+01
 D   1 1.00       0.000000000000
      0.8000000000D+00  0.1000000000D+01
 ****
     38 0
 S   3 1.00       0.000000000000
      0.1873113696D+02  0.3349460434D-01
      0.2825394365D+01  0.2347269535D+00
      0.6401216923D+00  0.8137573261D+00
 S   1 1.00       0.000000000000
      0.1612777588D+00  0.1000000000D+01
 ****
     39 0
 S   6 1.00       0.000000000000
      0.3047524880D+04  0.1834737132D-02
      0.4573695180D+03  0.1403732281D-01
      0.1039486850D+03  0.6884262226D-01
      0.2921015530D+02  0.2321844432D+00
      0.9286662960D+01  0.4679413484D+00
      0.3163926960D+01  0.3623119853D+00
 SP   3 1.00       0.000000000000
      0.7868272350D+01 -0.1193324198D+00  0.6899906659D-01
      0.1881288540D+01 -0.1608541517D+00  0.3164239610D+00
      0.5442492580D+00  0.1143456438D+01  0.7443082909D+00
 SP   1 1.00       0.000000000000
      0.1687144782D+00  0.1000000000D+01  0.1000000000D+01
 D   1 1.00       0.000000000000
      0.8000000000D+00  0.1000000000D+01
 ****
     40 0
 S   3 1.00       0.000000000000
      0.1873113696D+02  0.3349460434D-01
      0.2825394365D+01  0.2347269535D+00
      0.6401216923D+00  0.8137573261D+00
 S   1 1.00       0.000000000000
      0.1612777588D+00  0.1000000000D+01
 ****
     41 0
 S   3 1.00       0.000000000000
      0.1873113696D+02  0.3349460434D-01
      0.2825394365D+01  0.2347269535D+00
      0.6401216923D+00  0.8137573261D+00
 S   1 1.00       0.000000000000
      0.1612777588D+00  0.1000000000D+01
 ****
     42 0
 S   3 1.00       0.000000000000
      0.1873113696D+02  0.3349460434D-01
      0.2825394365D+01  0.2347269535D+00
      0.6401216923D+00  0.8137573261D+00
 S   1 1.00       0.000000000000
      0.1612777588D+00  0.1000000000D+01
 ****
     43 0
 S   6 1.00       0.000000000000
      0.3047524880D+04  0.1834737132D-02
      0.4573695180D+03  0.1403732281D-01
      0.1039486850D+03  0.6884262226D-01
      0.2921015530D+02  0.2321844432D+00
      0.9286662960D+01  0.4679413484D+00
      0.3163926960D+01  0.3623119853D+00
 SP   3 1.00       0.000000000000
      0.7868272350D+01 -0.1193324198D+00  0.6899906659D-01
      0.1881288540D+01 -0.1608541517D+00  0.3164239610D+00
      0.5442492580D+00  0.1143456438D+01  0.7443082909D+00
 SP   1 1.00       0.000000000000
      0.1687144782D+00  0.1000000000D+01  0.1000000000D+01
 D   1 1.00       0.000000000000
      0.8000000000D+00  0.1000000000D+01
 ****
     44 0
 S   3 1.00       0.000000000000
      0.1873113696D+02  0.3349460434D-01
      0.2825394365D+01  0.2347269535D+00
      0.6401216923D+00  0.8137573261D+00
 S   1 1.00       0.000000000000
      0.1612777588D+00  0.1000000000D+01
 ****
     45 0
 S   6 1.00       0.000000000000
      0.3047524880D+04  0.1834737132D-02
      0.4573695180D+03  0.1403732281D-01
      0.1039486850D+03  0.6884262226D-01
      0.2921015530D+02  0.2321844432D+00
      0.9286662960D+01  0.4679413484D+00
      0.3163926960D+01  0.3623119853D+00
 SP   3 1.00       0.000000000000
      0.7868272350D+01 -0.1193324198D+00  0.6899906659D-01
      0.1881288540D+01 -0.1608541517D+00  0.3164239610D+00
      0.5442492580D+00  0.1143456438D+01  0.7443082909D+00
 SP   1 1.00       0.000000000000
      0.1687144782D+00  0.1000000000D+01  0.1000000000D+01
 D   1 1.00       0.000000000000
      0.8000000000D+00  0.1000000000D+01
 ****
     46 0
 S   3 1.00       0.000000000000
      0.1873113696D+02  0.3349460434D-01
      0.2825394365D+01  0.2347269535D+00
      0.6401216923D+00  0.8137573261D+00
 S   1 1.00       0.000000000000
      0.1612777588D+00  0.1000000000D+01
 ****
     47 0
 S   3 1.00       0.000000000000
      0.1873113696D+02  0.3349460434D-01
      0.2825394365D+01  0.2347269535D+00
      0.6401216923D+00  0.8137573261D+00
 S   1 1.00       0.000000000000
      0.1612777588D+00  0.1000000000D+01
 ****
     48 0
 S   3 1.00       0.000000000000
      0.1873113696D+02  0.3349460434D-01
      0.2825394365D+01  0.2347269535D+00
      0.6401216923D+00  0.8137573261D+00
 S   1 1.00       0.000000000000
      0.1612777588D+00  0.1000000000D+01
 ****
     49 0
 S   6 1.00       0.000000000000
      0.3047524880D+04  0.1834737132D-02
      0.4573695180D+03  0.1403732281D-01
      0.1039486850D+03  0.6884262226D-01
      0.2921015530D+02  0.2321844432D+00
      0.9286662960D+01  0.4679413484D+00
      0.3163926960D+01  0.3623119853D+00
 SP   3 1.00       0.000000000000
      0.7868272350D+01 -0.1193324198D+00  0.6899906659D-01
      0.1881288540D+01 -0.1608541517D+00  0.3164239610D+00
      0.5442492580D+00  0.1143456438D+01  0.7443082909D+00
 SP   1 1.00       0.000000000000
      0.1687144782D+00  0.1000000000D+01  0.1000000000D+01
 D   1 1.00       0.000000000000
      0.8000000000D+00  0.1000000000D+01
 ****
     50 0
 S   3 1.00       0.000000000000
      0.1873113696D+02  0.3349460434D-01
      0.2825394365D+01  0.2347269535D+00
      0.6401216923D+00  0.8137573261D+00
 S   1 1.00       0.000000000000
      0.1612777588D+00  0.1000000000D+01
 ****
     51 0
 S   3 1.00       0.000000000000
      0.1873113696D+02  0.3349460434D-01
      0.2825394365D+01  0.2347269535D+00
      0.6401216923D+00  0.8137573261D+00
 S   1 1.00       0.000000000000
      0.1612777588D+00  0.1000000000D+01
 ****
     52 0
 S   3 1.00       0.000000000000
      0.1873113696D+02  0.3349460434D-01
      0.2825394365D+01  0.2347269535D+00
      0.6401216923D+00  0.8137573261D+00
 S   1 1.00       0.000000000000
      0.1612777588D+00  0.1000000000D+01
 ****
     53 0
 S   6 1.00       0.000000000000
      0.5484671660D+04  0.1831074430D-02
      0.8252349460D+03  0.1395017220D-01
      0.1880469580D+03  0.6844507810D-01
      0.5296450000D+02  0.2327143360D+00
      0.1689757040D+02  0.4701928980D+00
      0.5799635340D+01  0.3585208530D+00
 SP   3 1.00       0.000000000000
      0.1553961625D+02 -0.1107775495D+00  0.7087426823D-01
      0.3599933586D+01 -0.1480262627D+00  0.3397528391D+00
      0.1013761750D+01  0.1130767015D+01  0.7271585773D+00
 SP   1 1.00       0.000000000000
      0.2700058226D+00  0.1000000000D+01  0.1000000000D+01
 D   1 1.00       0.000000000000
      0.8000000000D+00  0.1000000000D+01
 ****
     54 0
 S   6 1.00       0.000000000000
      0.5484671660D+04  0.1831074430D-02
      0.8252349460D+03  0.1395017220D-01
      0.1880469580D+03  0.6844507810D-01
      0.5296450000D+02  0.2327143360D+00
      0.1689757040D+02  0.4701928980D+00
      0.5799635340D+01  0.3585208530D+00
 SP   3 1.00       0.000000000000
      0.1553961625D+02 -0.1107775495D+00  0.7087426823D-01
      0.3599933586D+01 -0.1480262627D+00  0.3397528391D+00
      0.1013761750D+01  0.1130767015D+01  0.7271585773D+00
 SP   1 1.00       0.000000000000
      0.2700058226D+00  0.1000000000D+01  0.1000000000D+01
 D   1 1.00       0.000000000000
      0.8000000000D+00  0.1000000000D+01
 ****
     55 0
 S   3 1.00       0.000000000000
      0.1873113696D+02  0.3349460434D-01
      0.2825394365D+01  0.2347269535D+00
      0.6401216923D+00  0.8137573261D+00
 S   1 1.00       0.000000000000
      0.1612777588D+00  0.1000000000D+01
 ****
     56 0
 S   6 1.00       0.000000000000
      0.5484671660D+04  0.1831074430D-02
      0.8252349460D+03  0.1395017220D-01
      0.1880469580D+03  0.6844507810D-01
      0.5296450000D+02  0.2327143360D+00
      0.1689757040D+02  0.4701928980D+00
      0.5799635340D+01  0.3585208530D+00
 SP   3 1.00       0.000000000000
      0.1553961625D+02 -0.1107775495D+00  0.7087426823D-01
      0.3599933586D+01 -0.1480262627D+00  0.3397528391D+00
      0.1013761750D+01  0.1130767015D+01  0.7271585773D+00
 SP   1 1.00       0.000000000000
      0.2700058226D+00  0.1000000000D+01  0.1000000000D+01
 D   1 1.00       0.000000000000
      0.8000000000D+00  0.1000000000D+01
 ****
     57 0
 S   3 1.00       0.000000000000
      0.1873113696D+02  0.3349460434D-01
      0.2825394365D+01  0.2347269535D+00
      0.6401216923D+00  0.8137573261D+00
 S   1 1.00       0.000000000000
      0.1612777588D+00  0.1000000000D+01
 ****
     58 0
 S   6 1.00       0.000000000000
      0.3047524880D+04  0.1834737132D-02
      0.4573695180D+03  0.1403732281D-01
      0.1039486850D+03  0.6884262226D-01
      0.2921015530D+02  0.2321844432D+00
      0.9286662960D+01  0.4679413484D+00
      0.3163926960D+01  0.3623119853D+00
 SP   3 1.00       0.000000000000
      0.7868272350D+01 -0.1193324198D+00  0.6899906659D-01
      0.1881288540D+01 -0.1608541517D+00  0.3164239610D+00
      0.5442492580D+00  0.1143456438D+01  0.7443082909D+00
 SP   1 1.00       0.000000000000
      0.1687144782D+00  0.1000000000D+01  0.1000000000D+01
 D   1 1.00       0.000000000000
      0.8000000000D+00  0.1000000000D+01
 ****
     59 0
 S   3 1.00       0.000000000000
      0.1873113696D+02  0.3349460434D-01
      0.2825394365D+01  0.2347269535D+00
      0.6401216923D+00  0.8137573261D+00
 S   1 1.00       0.000000000000
      0.1612777588D+00  0.1000000000D+01
 ****
     60 0
 S   3 1.00       0.000000000000
      0.1873113696D+02  0.3349460434D-01
      0.2825394365D+01  0.2347269535D+00
      0.6401216923D+00  0.8137573261D+00
 S   1 1.00       0.000000000000
      0.1612777588D+00  0.1000000000D+01
 ****
     61 0
 S   6 1.00       0.000000000000
      0.3047524880D+04  0.1834737132D-02
      0.4573695180D+03  0.1403732281D-01
      0.1039486850D+03  0.6884262226D-01
      0.2921015530D+02  0.2321844432D+00
      0.9286662960D+01  0.4679413484D+00
      0.3163926960D+01  0.3623119853D+00
 SP   3 1.00       0.000000000000
      0.7868272350D+01 -0.1193324198D+00  0.6899906659D-01
      0.1881288540D+01 -0.1608541517D+00  0.3164239610D+00
      0.5442492580D+00  0.1143456438D+01  0.7443082909D+00
 SP   1 1.00       0.000000000000
      0.1687144782D+00  0.1000000000D+01  0.1000000000D+01
 D   1 1.00       0.000000000000
      0.8000000000D+00  0.1000000000D+01
 ****
     62 0
 S   3 1.00       0.000000000000
      0.1873113696D+02  0.3349460434D-01
      0.2825394365D+01  0.2347269535D+00
      0.6401216923D+00  0.8137573261D+00
 S   1 1.00       0.000000000000
      0.1612777588D+00  0.1000000000D+01
 ****
     63 0
 S   3 1.00       0.000000000000
      0.1873113696D+02  0.3349460434D-01
      0.2825394365D+01  0.2347269535D+00
      0.6401216923D+00  0.8137573261D+00
 S   1 1.00       0.000000000000
      0.1612777588D+00  0.1000000000D+01
 ****
     64 0
 S   6 1.00       0.000000000000
      0.3047524880D+04  0.1834737132D-02
      0.4573695180D+03  0.1403732281D-01
      0.1039486850D+03  0.6884262226D-01
      0.2921015530D+02  0.2321844432D+00
      0.9286662960D+01  0.4679413484D+00
      0.3163926960D+01  0.3623119853D+00
 SP   3 1.00       0.000000000000
      0.7868272350D+01 -0.1193324198D+00  0.6899906659D-01
      0.1881288540D+01 -0.1608541517D+00  0.3164239610D+00
      0.5442492580D+00  0.1143456438D+01  0.7443082909D+00
 SP   1 1.00       0.000000000000
      0.1687144782D+00  0.1000000000D+01  0.1000000000D+01
 D   1 1.00       0.000000000000
      0.8000000000D+00  0.1000000000D+01
 ****
     65 0
 S   3 1.00       0.000000000000
      0.1873113696D+02  0.3349460434D-01
      0.2825394365D+01  0.2347269535D+00
      0.6401216923D+00  0.8137573261D+00
 S   1 1.00       0.000000000000
      0.1612777588D+00  0.1000000000D+01
 ****
     66 0
 S   3 1.00       0.000000000000
      0.1873113696D+02  0.3349460434D-01
      0.2825394365D+01  0.2347269535D+00
      0.6401216923D+00  0.8137573261D+00
 S   1 1.00       0.000000000000
      0.1612777588D+00  0.1000000000D+01
 ****
     67 0
 S   6 1.00       0.000000000000
      0.3047524880D+04  0.1834737132D-02
      0.4573695180D+03  0.1403732281D-01
      0.1039486850D+03  0.6884262226D-01
      0.2921015530D+02  0.2321844432D+00
      0.9286662960D+01  0.4679413484D+00
      0.3163926960D+01  0.3623119853D+00
 SP   3 1.00       0.000000000000
      0.7868272350D+01 -0.1193324198D+00  0.6899906659D-01
      0.1881288540D+01 -0.1608541517D+00  0.3164239610D+00
      0.5442492580D+00  0.1143456438D+01  0.7443082909D+00
 SP   1 1.00       0.000000000000
      0.1687144782D+00  0.1000000000D+01  0.1000000000D+01
 D   1 1.00       0.000000000000
      0.8000000000D+00  0.1000000000D+01
 ****
     68 0
 S   3 1.00       0.000000000000
      0.1873113696D+02  0.3349460434D-01
      0.2825394365D+01  0.2347269535D+00
      0.6401216923D+00  0.8137573261D+00
 S   1 1.00       0.000000000000
      0.1612777588D+00  0.1000000000D+01
 ****
     69 0
 S   6 1.00       0.000000000000
      0.3047524880D+04  0.1834737132D-02
      0.4573695180D+03  0.1403732281D-01
      0.1039486850D+03  0.6884262226D-01
      0.2921015530D+02  0.2321844432D+00
      0.9286662960D+01  0.4679413484D+00
      0.3163926960D+01  0.3623119853D+00
 SP   3 1.00       0.000000000000
      0.7868272350D+01 -0.1193324198D+00  0.6899906659D-01
      0.1881288540D+01 -0.1608541517D+00  0.3164239610D+00
      0.5442492580D+00  0.1143456438D+01  0.7443082909D+00
 SP   1 1.00       0.000000000000
      0.1687144782D+00  0.1000000000D+01  0.1000000000D+01
 D   1 1.00       0.000000000000
      0.8000000000D+00  0.1000000000D+01
 ****
     70 0
 S   3 1.00       0.000000000000
      0.1873113696D+02  0.3349460434D-01
      0.2825394365D+01  0.2347269535D+00
      0.6401216923D+00  0.8137573261D+00
 S   1 1.00       0.000000000000
      0.1612777588D+00  0.1000000000D+01
 ****
     71 0
 S   3 1.00       0.000000000000
      0.1873113696D+02  0.3349460434D-01
      0.2825394365D+01  0.2347269535D+00
      0.6401216923D+00  0.8137573261D+00
 S   1 1.00       0.000000000000
      0.1612777588D+00  0.1000000000D+01
 ****
     72 0
 S   3 1.00       0.000000000000
      0.1873113696D+02  0.3349460434D-01
      0.2825394365D+01  0.2347269535D+00
      0.6401216923D+00  0.8137573261D+00
 S   1 1.00       0.000000000000
      0.1612777588D+00  0.1000000000D+01
 ****
     73 0
 S   6 1.00       0.000000000000
      0.3047524880D+04  0.1834737132D-02
      0.4573695180D+03  0.1403732281D-01
      0.1039486850D+03  0.6884262226D-01
      0.2921015530D+02  0.2321844432D+00
      0.9286662960D+01  0.4679413484D+00
      0.3163926960D+01  0.3623119853D+00
 SP   3 1.00       0.000000000000
      0.7868272350D+01 -0.1193324198D+00  0.6899906659D-01
      0.1881288540D+01 -0.1608541517D+00  0.3164239610D+00
      0.5442492580D+00  0.1143456438D+01  0.7443082909D+00
 SP   1 1.00       0.000000000000
      0.1687144782D+00  0.1000000000D+01  0.1000000000D+01
 D   1 1.00       0.000000000000
      0.8000000000D+00  0.1000000000D+01
 ****
     74 0
 S   3 1.00       0.000000000000
      0.1873113696D+02  0.3349460434D-01
      0.2825394365D+01  0.2347269535D+00
      0.6401216923D+00  0.8137573261D+00
 S   1 1.00       0.000000000000
      0.1612777588D+00  0.1000000000D+01
 ****
     75 0
 S   3 1.00       0.000000000000
      0.1873113696D+02  0.3349460434D-01
      0.2825394365D+01  0.2347269535D+00
      0.6401216923D+00  0.8137573261D+00
 S   1 1.00       0.000000000000
      0.1612777588D+00  0.1000000000D+01
 ****
     76 0
 S   3 1.00       0.000000000000
      0.1873113696D+02  0.3349460434D-01
      0.2825394365D+01  0.2347269535D+00
      0.6401216923D+00  0.8137573261D+00
 S   1 1.00       0.000000000000
      0.1612777588D+00  0.1000000000D+01
 ****

 AO basis set (Overlap normalization):
 Atom C1       Shell     1 S   6     bf    1 -     1          1.917916387035         -1.672792375844         -3.185113082423
      0.3047524880D+04  0.1834737132D-02
      0.4573695180D+03  0.1403732281D-01
      0.1039486850D+03  0.6884262226D-01
      0.2921015530D+02  0.2321844432D+00
      0.9286662960D+01  0.4679413484D+00
      0.3163926960D+01  0.3623119853D+00
 Atom C1       Shell     2 SP   3    bf    2 -     5          1.917916387035         -1.672792375844         -3.185113082423
      0.7868272350D+01 -0.1193324198D+00  0.6899906659D-01
      0.1881288540D+01 -0.1608541517D+00  0.3164239610D+00
      0.5442492580D+00  0.1143456438D+01  0.7443082909D+00
 Atom C1       Shell     3 SP   1    bf    6 -     9          1.917916387035         -1.672792375844         -3.185113082423
      0.1687144782D+00  0.1000000000D+01  0.1000000000D+01
 Atom C1       Shell     4 D   1     bf   10 -    15          1.917916387035         -1.672792375844         -3.185113082423
      0.8000000000D+00  0.1000000000D+01
 Atom H2       Shell     5 S   3     bf   16 -    16          2.166393244816          0.159789478132         -4.121504053078
      0.1873113696D+02  0.3349460434D-01
      0.2825394365D+01  0.2347269535D+00
      0.6401216923D+00  0.8137573261D+00
 Atom H2       Shell     6 S   1     bf   17 -    17          2.166393244816          0.159789478132         -4.121504053078
      0.1612777588D+00  0.1000000000D+01
 Atom C3       Shell     7 S   6     bf   18 -    18          4.252348652724         -3.319307712969         -3.709137370504
      0.3047524880D+04  0.1834737132D-02
      0.4573695180D+03  0.1403732281D-01
      0.1039486850D+03  0.6884262226D-01
      0.2921015530D+02  0.2321844432D+00
      0.9286662960D+01  0.4679413484D+00
      0.3163926960D+01  0.3623119853D+00
 Atom C3       Shell     8 SP   3    bf   19 -    22          4.252348652724         -3.319307712969         -3.709137370504
      0.7868272350D+01 -0.1193324198D+00  0.6899906659D-01
      0.1881288540D+01 -0.1608541517D+00  0.3164239610D+00
      0.5442492580D+00  0.1143456438D+01  0.7443082909D+00
 Atom C3       Shell     9 SP   1    bf   23 -    26          4.252348652724         -3.319307712969         -3.709137370504
      0.1687144782D+00  0.1000000000D+01  0.1000000000D+01
 Atom C3       Shell    10 D   1     bf   27 -    32          4.252348652724         -3.319307712969         -3.709137370504
      0.8000000000D+00  0.1000000000D+01
 Atom H4       Shell    11 S   3     bf   33 -    33          4.515510383312         -3.525160928549         -5.750152691020
      0.1873113696D+02  0.3349460434D-01
      0.2825394365D+01  0.2347269535D+00
      0.6401216923D+00  0.8137573261D+00
 Atom H4       Shell    12 S   1     bf   34 -    34          4.515510383312         -3.525160928549         -5.750152691020
      0.1612777588D+00  0.1000000000D+01
 Atom H5       Shell    13 S   3     bf   35 -    35          3.863082209166         -5.223301750589         -2.963859789387
      0.1873113696D+02  0.3349460434D-01
      0.2825394365D+01  0.2347269535D+00
      0.6401216923D+00  0.8137573261D+00
 Atom H5       Shell    14 S   1     bf   36 -    36          3.863082209166         -5.223301750589         -2.963859789387
      0.1612777588D+00  0.1000000000D+01
 Atom C6       Shell    15 S   6     bf   37 -    37          6.629854787866         -2.261312941252         -2.503663722650
      0.3047524880D+04  0.1834737132D-02
      0.4573695180D+03  0.1403732281D-01
      0.1039486850D+03  0.6884262226D-01
      0.2921015530D+02  0.2321844432D+00
      0.9286662960D+01  0.4679413484D+00
      0.3163926960D+01  0.3623119853D+00
 Atom C6       Shell    16 SP   3    bf   38 -    41          6.629854787866         -2.261312941252         -2.503663722650
      0.7868272350D+01 -0.1193324198D+00  0.6899906659D-01
      0.1881288540D+01 -0.1608541517D+00  0.3164239610D+00
      0.5442492580D+00  0.1143456438D+01  0.7443082909D+00
 Atom C6       Shell    17 SP   1    bf   42 -    45          6.629854787866         -2.261312941252         -2.503663722650
      0.1687144782D+00  0.1000000000D+01  0.1000000000D+01
 Atom C6       Shell    18 D   1     bf   46 -    51          6.629854787866         -2.261312941252         -2.503663722650
      0.8000000000D+00  0.1000000000D+01
 Atom C7       Shell    19 S   6     bf   52 -    52          6.489285676437         -1.635946061068          0.323133323250
      0.3047524880D+04  0.1834737132D-02
      0.4573695180D+03  0.1403732281D-01
      0.1039486850D+03  0.6884262226D-01
      0.2921015530D+02  0.2321844432D+00
      0.9286662960D+01  0.4679413484D+00
      0.3163926960D+01  0.3623119853D+00
 Atom C7       Shell    20 SP   3    bf   53 -    56          6.489285676437         -1.635946061068          0.323133323250
      0.7868272350D+01 -0.1193324198D+00  0.6899906659D-01
      0.1881288540D+01 -0.1608541517D+00  0.3164239610D+00
      0.5442492580D+00  0.1143456438D+01  0.7443082909D+00
 Atom C7       Shell    21 SP   1    bf   57 -    60          6.489285676437         -1.635946061068          0.323133323250
      0.1687144782D+00  0.1000000000D+01  0.1000000000D+01
 Atom C7       Shell    22 D   1     bf   61 -    66          6.489285676437         -1.635946061068          0.323133323250
      0.8000000000D+00  0.1000000000D+01
 Atom C8       Shell    23 S   6     bf   67 -    67          4.023023262231         -0.092768791254          0.800438630244
      0.3047524880D+04  0.1834737132D-02
      0.4573695180D+03  0.1403732281D-01
      0.1039486850D+03  0.6884262226D-01
      0.2921015530D+02  0.2321844432D+00
      0.9286662960D+01  0.4679413484D+00
      0.3163926960D+01  0.3623119853D+00
 Atom C8       Shell    24 SP   3    bf   68 -    71          4.023023262231         -0.092768791254          0.800438630244
      0.7868272350D+01 -0.1193324198D+00  0.6899906659D-01
      0.1881288540D+01 -0.1608541517D+00  0.3164239610D+00
      0.5442492580D+00  0.1143456438D+01  0.7443082909D+00
 Atom C8       Shell    25 SP   1    bf   72 -    75          4.023023262231         -0.092768791254          0.800438630244
      0.1687144782D+00  0.1000000000D+01  0.1000000000D+01
 Atom C8       Shell    26 D   1     bf   76 -    81          4.023023262231         -0.092768791254          0.800438630244
      0.8000000000D+00  0.1000000000D+01
 Atom H9       Shell    27 S   3     bf   82 -    82          4.282098044316          1.805013773260          0.000000000000
      0.1873113696D+02  0.3349460434D-01
      0.2825394365D+01  0.2347269535D+00
      0.6401216923D+00  0.8137573261D+00
 Atom H9       Shell    28 S   1     bf   83 -    83          4.282098044316          1.805013773260          0.000000000000
      0.1612777588D+00  0.1000000000D+01
 Atom H10      Shell    29 S   3     bf   84 -    84          3.757513584718          0.160954645471          2.837548170302
      0.1873113696D+02  0.3349460434D-01
      0.2825394365D+01  0.2347269535D+00
      0.6401216923D+00  0.8137573261D+00
 Atom H10      Shell    30 S   1     bf   85 -    85          3.757513584718          0.160954645471          2.837548170302
      0.1612777588D+00  0.1000000000D+01
 Atom C11      Shell    31 S   6     bf   86 -    86          1.617044566753         -1.247265451508         -0.343779469423
      0.3047524880D+04  0.1834737132D-02
      0.4573695180D+03  0.1403732281D-01
      0.1039486850D+03  0.6884262226D-01
      0.2921015530D+02  0.2321844432D+00
      0.9286662960D+01  0.4679413484D+00
      0.3163926960D+01  0.3623119853D+00
 Atom C11      Shell    32 SP   3    bf   87 -    90          1.617044566753         -1.247265451508         -0.343779469423
      0.7868272350D+01 -0.1193324198D+00  0.6899906659D-01
      0.1881288540D+01 -0.1608541517D+00  0.3164239610D+00
      0.5442492580D+00  0.1143456438D+01  0.7443082909D+00
 Atom C11      Shell    33 SP   1    bf   91 -    94          1.617044566753         -1.247265451508         -0.343779469423
      0.1687144782D+00  0.1000000000D+01  0.1000000000D+01
 Atom C11      Shell    34 D   1     bf   95 -   100          1.617044566753         -1.247265451508         -0.343779469423
      0.8000000000D+00  0.1000000000D+01
 Atom H12      Shell    35 S   3     bf  101 -   101          1.173829560149         -3.060880162084          0.570505919566
      0.1873113696D+02  0.3349460434D-01
      0.2825394365D+01  0.2347269535D+00
      0.6401216923D+00  0.8137573261D+00
 Atom H12      Shell    36 S   1     bf  102 -   102          1.173829560149         -3.060880162084          0.570505919566
      0.1612777588D+00  0.1000000000D+01
 Atom H13      Shell    37 S   3     bf  103 -   103          0.000000000000          0.000000000000          0.000000000000
      0.1873113696D+02  0.3349460434D-01
      0.2825394365D+01  0.2347269535D+00
      0.6401216923D+00  0.8137573261D+00
 Atom H13      Shell    38 S   1     bf  104 -   104          0.000000000000          0.000000000000          0.000000000000
      0.1612777588D+00  0.1000000000D+01
 Atom C14      Shell    39 S   6     bf  105 -   105          8.714579284863         -1.923876129723         -3.907869795659
      0.3047524880D+04  0.1834737132D-02
      0.4573695180D+03  0.1403732281D-01
      0.1039486850D+03  0.6884262226D-01
      0.2921015530D+02  0.2321844432D+00
      0.9286662960D+01  0.4679413484D+00
      0.3163926960D+01  0.3623119853D+00
 Atom C14      Shell    40 SP   3    bf  106 -   109          8.714579284863         -1.923876129723         -3.907869795659
      0.7868272350D+01 -0.1193324198D+00  0.6899906659D-01
      0.1881288540D+01 -0.1608541517D+00  0.3164239610D+00
      0.5442492580D+00  0.1143456438D+01  0.7443082909D+00
 Atom C14      Shell    41 SP   1    bf  110 -   113          8.714579284863         -1.923876129723         -3.907869795659
      0.1687144782D+00  0.1000000000D+01  0.1000000000D+01
 Atom C14      Shell    42 D   1     bf  114 -   119          8.714579284863         -1.923876129723         -3.907869795659
      0.8000000000D+00  0.1000000000D+01
 Atom H15      Shell    43 S   3     bf  120 -   120          8.663119793490         -2.409942660603         -5.905825268490
      0.1873113696D+02  0.3349460434D-01
      0.2825394365D+01  0.2347269535D+00
      0.6401216923D+00  0.8137573261D+00
 Atom H15      Shell    44 S   1     bf  121 -   121          8.663119793490         -2.409942660603         -5.905825268490
      0.1612777588D+00  0.1000000000D+01
 Atom C16      Shell    45 S   6     bf  122 -   122         11.173203879574         -0.897443129241         -2.932085858600
      0.3047524880D+04  0.1834737132D-02
      0.4573695180D+03  0.1403732281D-01
      0.1039486850D+03  0.6884262226D-01
      0.2921015530D+02  0.2321844432D+00
      0.9286662960D+01  0.4679413484D+00
      0.3163926960D+01  0.3623119853D+00
 Atom C16      Shell    46 SP   3    bf  123 -   126         11.173203879574         -0.897443129241         -2.932085858600
      0.7868272350D+01 -0.1193324198D+00  0.6899906659D-01
      0.1881288540D+01 -0.1608541517D+00  0.3164239610D+00
      0.5442492580D+00  0.1143456438D+01  0.7443082909D+00
 Atom C16      Shell    47 SP   1    bf  127 -   130         11.173203879574         -0.897443129241         -2.932085858600
      0.1687144782D+00  0.1000000000D+01  0.1000000000D+01
 Atom C16      Shell    48 D   1     bf  131 -   136         11.173203879574         -0.897443129241         -2.932085858600
      0.8000000000D+00  0.1000000000D+01
 Atom H17      Shell    49 S   3     bf  137 -   137         12.760404625120         -1.967464099170         -3.729673553513
      0.1873113696D+02  0.3349460434D-01
      0.2825394365D+01  0.2347269535D+00
      0.6401216923D+00  0.8137573261D+00
 Atom H17      Shell    50 S   1     bf  138 -   138         12.760404625120         -1.967464099170         -3.729673553513
      0.1612777588D+00  0.1000000000D+01
 Atom C18      Shell    51 S   6     bf  139 -   139         11.327615083748         -0.929322884692         -0.027154041721
      0.3047524880D+04  0.1834737132D-02
      0.4573695180D+03  0.1403732281D-01
      0.1039486850D+03  0.6884262226D-01
      0.2921015530D+02  0.2321844432D+00
      0.9286662960D+01  0.4679413484D+00
      0.3163926960D+01  0.3623119853D+00
 Atom C18      Shell    52 SP   3    bf  140 -   143         11.327615083748         -0.929322884692         -0.027154041721
      0.7868272350D+01 -0.1193324198D+00  0.6899906659D-01
      0.1881288540D+01 -0.1608541517D+00  0.3164239610D+00
      0.5442492580D+00  0.1143456438D+01  0.7443082909D+00
 Atom C18      Shell    53 SP   1    bf  144 -   147         11.327615083748         -0.929322884692         -0.027154041721
      0.1687144782D+00  0.1000000000D+01  0.1000000000D+01
 Atom C18      Shell    54 D   1     bf  148 -   153         11.327615083748         -0.929322884692         -0.027154041721
      0.8000000000D+00  0.1000000000D+01
 Atom H19      Shell    55 S   3     bf  154 -   154         11.614176423765         -2.924503067930          0.474271068228
      0.1873113696D+02  0.3349460434D-01
      0.2825394365D+01  0.2347269535D+00
      0.6401216923D+00  0.8137573261D+00
 Atom H19      Shell    56 S   1     bf  155 -   155         11.614176423765         -2.924503067930          0.474271068228
      0.1612777588D+00  0.1000000000D+01
 Atom C20      Shell    57 S   6     bf  156 -   156          8.812041418838          0.015035190237          1.145593404552
      0.3047524880D+04  0.1834737132D-02
      0.4573695180D+03  0.1403732281D-01
      0.1039486850D+03  0.6884262226D-01
      0.2921015530D+02  0.2321844432D+00
      0.9286662960D+01  0.4679413484D+00
      0.3163926960D+01  0.3623119853D+00
 Atom C20      Shell    58 SP   3    bf  157 -   160          8.812041418838          0.015035190237          1.145593404552
      0.7868272350D+01 -0.1193324198D+00  0.6899906659D-01
      0.1881288540D+01 -0.1608541517D+00  0.3164239610D+00
      0.5442492580D+00  0.1143456438D+01  0.7443082909D+00
 Atom C20      Shell    59 SP   1    bf  161 -   164          8.812041418838          0.015035190237          1.145593404552
      0.1687144782D+00  0.1000000000D+01  0.1000000000D+01
 Atom C20      Shell    60 D   1     bf  165 -   170          8.812041418838          0.015035190237          1.145593404552
      0.8000000000D+00  0.1000000000D+01
 Atom H21      Shell    61 S   3     bf  171 -   171          8.488858055639          1.902620811434          0.337626199881
      0.1873113696D+02  0.3349460434D-01
      0.2825394365D+01  0.2347269535D+00
      0.6401216923D+00  0.8137573261D+00
 Atom H21      Shell    62 S   1     bf  172 -   172          8.488858055639          1.902620811434          0.337626199881
      0.1612777588D+00  0.1000000000D+01
 Atom C22      Shell    63 S   6     bf  173 -   173          9.021343913734          0.354545182511          4.042049950903
      0.3047524880D+04  0.1834737132D-02
      0.4573695180D+03  0.1403732281D-01
      0.1039486850D+03  0.6884262226D-01
      0.2921015530D+02  0.2321844432D+00
      0.9286662960D+01  0.4679413484D+00
      0.3163926960D+01  0.3623119853D+00
 Atom C22      Shell    64 SP   3    bf  174 -   177          9.021343913734          0.354545182511          4.042049950903
      0.7868272350D+01 -0.1193324198D+00  0.6899906659D-01
      0.1881288540D+01 -0.1608541517D+00  0.3164239610D+00
      0.5442492580D+00  0.1143456438D+01  0.7443082909D+00
 Atom C22      Shell    65 SP   1    bf  178 -   181          9.021343913734          0.354545182511          4.042049950903
      0.1687144782D+00  0.1000000000D+01  0.1000000000D+01
 Atom C22      Shell    66 D   1     bf  182 -   187          9.021343913734          0.354545182511          4.042049950903
      0.8000000000D+00  0.1000000000D+01
 Atom H23      Shell    67 S   3     bf  188 -   188          9.039972153650         -1.494507751207          4.969702941303
      0.1873113696D+02  0.3349460434D-01
      0.2825394365D+01  0.2347269535D+00
      0.6401216923D+00  0.8137573261D+00
 Atom H23      Shell    68 S   1     bf  189 -   189          9.039972153650         -1.494507751207          4.969702941303
      0.1612777588D+00  0.1000000000D+01
 Atom H24      Shell    69 S   3     bf  190 -   190          7.332471914916          1.325341414209          4.746242013507
      0.1873113696D+02  0.3349460434D-01
      0.2825394365D+01  0.2347269535D+00
      0.6401216923D+00  0.8137573261D+00
 Atom H24      Shell    70 S   1     bf  191 -   191          7.332471914916          1.325341414209          4.746242013507
      0.1612777588D+00  0.1000000000D+01
 Atom C25      Shell    71 S   6     bf  192 -   192         11.372962728376          1.837878151615          4.917619745820
      0.3047524880D+04  0.1834737132D-02
      0.4573695180D+03  0.1403732281D-01
      0.1039486850D+03  0.6884262226D-01
      0.2921015530D+02  0.2321844432D+00
      0.9286662960D+01  0.4679413484D+00
      0.3163926960D+01  0.3623119853D+00
 Atom C25      Shell    72 SP   3    bf  193 -   196         11.372962728376          1.837878151615          4.917619745820
      0.7868272350D+01 -0.1193324198D+00  0.6899906659D-01
      0.1881288540D+01 -0.1608541517D+00  0.3164239610D+00
      0.5442492580D+00  0.1143456438D+01  0.7443082909D+00
 Atom C25      Shell    73 SP   1    bf  197 -   200         11.372962728376          1.837878151615          4.917619745820
      0.1687144782D+00  0.1000000000D+01  0.1000000000D+01
 Atom C25      Shell    74 D   1     bf  201 -   206         11.372962728376          1.837878151615          4.917619745820
      0.8000000000D+00  0.1000000000D+01
 Atom H26      Shell    75 S   3     bf  207 -   207         11.248445083000          3.800690179683          4.248769341353
      0.1873113696D+02  0.3349460434D-01
      0.2825394365D+01  0.2347269535D+00
      0.6401216923D+00  0.8137573261D+00
 Atom H26      Shell    76 S   1     bf  208 -   208         11.248445083000          3.800690179683          4.248769341353
      0.1612777588D+00  0.1000000000D+01
 Atom H27      Shell    77 S   3     bf  209 -   209         11.355113698133          1.918614187306          6.984156649240
      0.1873113696D+02  0.3349460434D-01
      0.2825394365D+01  0.2347269535D+00
      0.6401216923D+00  0.8137573261D+00
 Atom H27      Shell    78 S   1     bf  210 -   210         11.355113698133          1.918614187306          6.984156649240
      0.1612777588D+00  0.1000000000D+01
 Atom C28      Shell    79 S   6     bf  211 -   211         13.837184805276          0.662363541570          3.894152764989
      0.3047524880D+04  0.1834737132D-02
      0.4573695180D+03  0.1403732281D-01
      0.1039486850D+03  0.6884262226D-01
      0.2921015530D+02  0.2321844432D+00
      0.9286662960D+01  0.4679413484D+00
      0.3163926960D+01  0.3623119853D+00
 Atom C28      Shell    80 SP   3    bf  212 -   215         13.837184805276          0.662363541570          3.894152764989
      0.7868272350D+01 -0.1193324198D+00  0.6899906659D-01
      0.1881288540D+01 -0.1608541517D+00  0.3164239610D+00
      0.5442492580D+00  0.1143456438D+01  0.7443082909D+00
 Atom C28      Shell    81 SP   1    bf  216 -   219         13.837184805276          0.662363541570          3.894152764989
      0.1687144782D+00  0.1000000000D+01  0.1000000000D+01
 Atom C28      Shell    82 D   1     bf  220 -   225         13.837184805276          0.662363541570          3.894152764989
      0.8000000000D+00  0.1000000000D+01
 Atom C29      Shell    83 S   6     bf  226 -   226         13.570211024647          0.622241065290          0.968688279992
      0.3047524880D+04  0.1834737132D-02
      0.4573695180D+03  0.1403732281D-01
      0.1039486850D+03  0.6884262226D-01
      0.2921015530D+02  0.2321844432D+00
      0.9286662960D+01  0.4679413484D+00
      0.3163926960D+01  0.3623119853D+00
 Atom C29      Shell    84 SP   3    bf  227 -   230         13.570211024647          0.622241065290          0.968688279992
      0.7868272350D+01 -0.1193324198D+00  0.6899906659D-01
      0.1881288540D+01 -0.1608541517D+00  0.3164239610D+00
      0.5442492580D+00  0.1143456438D+01  0.7443082909D+00
 Atom C29      Shell    85 SP   1    bf  231 -   234         13.570211024647          0.622241065290          0.968688279992
      0.1687144782D+00  0.1000000000D+01  0.1000000000D+01
 Atom C29      Shell    86 D   1     bf  235 -   240         13.570211024647          0.622241065290          0.968688279992
      0.8000000000D+00  0.1000000000D+01
 Atom H30      Shell    87 S   3     bf  241 -   241         13.199907056866          2.592503263048          0.428751212858
      0.1873113696D+02  0.3349460434D-01
      0.2825394365D+01  0.2347269535D+00
      0.6401216923D+00  0.8137573261D+00
 Atom H30      Shell    88 S   1     bf  242 -   242         13.199907056866          2.592503263048          0.428751212858
      0.1612777588D+00  0.1000000000D+01
 Atom C31      Shell    89 S   6     bf  243 -   243         16.230876633719          0.000000000000          0.000000000000
      0.3047524880D+04  0.1834737132D-02
      0.4573695180D+03  0.1403732281D-01
      0.1039486850D+03  0.6884262226D-01
      0.2921015530D+02  0.2321844432D+00
      0.9286662960D+01  0.4679413484D+00
      0.3163926960D+01  0.3623119853D+00
 Atom C31      Shell    90 SP   3    bf  244 -   247         16.230876633719          0.000000000000          0.000000000000
      0.7868272350D+01 -0.1193324198D+00  0.6899906659D-01
      0.1881288540D+01 -0.1608541517D+00  0.3164239610D+00
      0.5442492580D+00  0.1143456438D+01  0.7443082909D+00
 Atom C31      Shell    91 SP   1    bf  248 -   251         16.230876633719          0.000000000000          0.000000000000
      0.1687144782D+00  0.1000000000D+01  0.1000000000D+01
 Atom C31      Shell    92 D   1     bf  252 -   257         16.230876633719          0.000000000000          0.000000000000
      0.8000000000D+00  0.1000000000D+01
 Atom H32      Shell    93 S   3     bf  258 -   258         16.523709804696          0.660939387265         -1.935880255935
      0.1873113696D+02  0.3349460434D-01
      0.2825394365D+01  0.2347269535D+00
      0.6401216923D+00  0.8137573261D+00
 Atom H32      Shell    94 S   1     bf  259 -   259         16.523709804696          0.660939387265         -1.935880255935
      0.1612777588D+00  0.1000000000D+01
 Atom H33      Shell    95 S   3     bf  260 -   260         16.560118628975         -2.047810624512          0.001353232884
      0.1873113696D+02  0.3349460434D-01
      0.2825394365D+01  0.2347269535D+00
      0.6401216923D+00  0.8137573261D+00
 Atom H33      Shell    96 S   1     bf  261 -   261         16.560118628975         -2.047810624512          0.001353232884
      0.1612777588D+00  0.1000000000D+01
 Atom C34      Shell    97 S   6     bf  262 -   262         17.991754681515          1.349916735650          1.921470527254
      0.3047524880D+04  0.1834737132D-02
      0.4573695180D+03  0.1403732281D-01
      0.1039486850D+03  0.6884262226D-01
      0.2921015530D+02  0.2321844432D+00
      0.9286662960D+01  0.4679413484D+00
      0.3163926960D+01  0.3623119853D+00
 Atom C34      Shell    98 SP   3    bf  263 -   266         17.991754681515          1.349916735650          1.921470527254
      0.7868272350D+01 -0.1193324198D+00  0.6899906659D-01
      0.1881288540D+01 -0.1608541517D+00  0.3164239610D+00
      0.5442492580D+00  0.1143456438D+01  0.7443082909D+00
 Atom C34      Shell    99 SP   1    bf  267 -   270         17.991754681515          1.349916735650          1.921470527254
      0.1687144782D+00  0.1000000000D+01  0.1000000000D+01
 Atom C34      Shell   100 D   1     bf  271 -   276         17.991754681515          1.349916735650          1.921470527254
      0.8000000000D+00  0.1000000000D+01
 Atom H35      Shell   101 S   3     bf  277 -   277         19.445461563657          0.052621143821          2.627373415617
      0.1873113696D+02  0.3349460434D-01
      0.2825394365D+01  0.2347269535D+00
      0.6401216923D+00  0.8137573261D+00
 Atom H35      Shell   102 S   1     bf  278 -   278         19.445461563657          0.052621143821          2.627373415617
      0.1612777588D+00  0.1000000000D+01
 Atom H36      Shell   103 S   3     bf  279 -   279         18.995854936353          2.923245870928          1.033171915050
      0.1873113696D+02  0.3349460434D-01
      0.2825394365D+01  0.2347269535D+00
      0.6401216923D+00  0.8137573261D+00
 Atom H36      Shell   104 S   1     bf  280 -   280         18.995854936353          2.923245870928          1.033171915050
      0.1612777588D+00  0.1000000000D+01
 Atom C37      Shell   105 S   6     bf  281 -   281         16.293420313724          2.304102104565          4.153045566448
      0.3047524880D+04  0.1834737132D-02
      0.4573695180D+03  0.1403732281D-01
      0.1039486850D+03  0.6884262226D-01
      0.2921015530D+02  0.2321844432D+00
      0.9286662960D+01  0.4679413484D+00
      0.3163926960D+01  0.3623119853D+00
 Atom C37      Shell   106 SP   3    bf  282 -   285         16.293420313724          2.304102104565          4.153045566448
      0.7868272350D+01 -0.1193324198D+00  0.6899906659D-01
      0.1881288540D+01 -0.1608541517D+00  0.3164239610D+00
      0.5442492580D+00  0.1143456438D+01  0.7443082909D+00
[...]
 **** Fit       0.000091
 **** Fit       0.000337
 **** Fit      -0.000086
 **** Fit       0.000189
 **** Fit       0.000486
 **** Fit       0.000746
 **** Fit       0.000840
 **** Fit       0.000581
 **** Fit      -0.000177
 **** Fit      -0.001353
 **** Fit      -0.002586
 **** Fit      -0.003444
 **** Fit      -0.003692
 **** Fit      -0.003373
 **** Fit      -0.002697
 **** Fit      -0.001899
 **** Fit      -0.001145
 **** Fit      -0.000519
 **** Fit      -0.000045
 **** Fit       0.000281
 **** Fit      -0.000534
 **** Fit      -0.000349
 **** Fit      -0.000131
 **** Fit       0.000105
 **** Fit       0.000303
 **** Fit       0.000337
 **** Fit       0.000014
 **** Fit      -0.000821
 **** Fit      -0.002074
 **** Fit      -0.003326
 **** Fit      -0.004083
 **** Fit      -0.004096
 **** Fit      -0.003462
 **** Fit      -0.002495
 **** Fit      -0.001516
 **** Fit      -0.000712
 **** Fit      -0.000129
 **** Fit       0.000260
 **** Fit       0.000498
 **** Fit       0.000624
 **** Fit      -0.000789
 **** Fit      -0.000678
 **** Fit      -0.000558
 **** Fit      -0.000445
 **** Fit      -0.000391
 **** Fit      -0.000501
 **** Fit      -0.000937
 **** Fit      -0.001809
 **** Fit      -0.002994
 **** Fit      -0.004072
 **** Fit      -0.004558
 **** Fit      -0.004223
 **** Fit      -0.003221
 **** Fit      -0.001972
 **** Fit      -0.000875
 **** Fit      -0.000107
 **** Fit       0.000357
 **** Fit       0.000608
 **** Fit       0.000728
 **** Fit       0.000766
 **** Fit      -0.001032
 **** Fit      -0.001029
 **** Fit      -0.001069
 **** Fit      -0.001195
 **** Fit      -0.001485
 **** Fit      -0.002033
 **** Fit      -0.002876
 **** Fit      -0.003863
 **** Fit      -0.004622
 **** Fit      -0.004740
 **** Fit      -0.004028
 **** Fit      -0.002690
 **** Fit      -0.001234
 **** Fit      -0.000110
 **** Fit       0.000546
 **** Fit       0.000841
 **** Fit       0.000934
 **** Fit       0.000929
 **** Fit       0.000879
 **** Fit      -0.001359
 **** Fit      -0.001463
 **** Fit      -0.001638
 **** Fit      -0.001917
 **** Fit      -0.002342
 **** Fit      -0.002942
 **** Fit      -0.003688
 **** Fit      -0.004419
 **** Fit      -0.004842
 **** Fit      -0.004635
 **** Fit      -0.003654
 **** Fit      -0.002129
 **** Fit      -0.000598
 **** Fit       0.000483
 **** Fit       0.001017
 **** Fit       0.001173
 **** Fit       0.001143
 **** Fit       0.001046
 **** Fit       0.000935
 **** Fit       0.000827
 **** Fit      -0.001617
 **** Fit      -0.001795
 **** Fit      -0.002055
 **** Fit      -0.002418
 **** Fit      -0.002894
 **** Fit      -0.003469
 **** Fit      -0.004078
 **** Fit      -0.004579
 **** Fit      -0.004753
 **** Fit      -0.004364
 **** Fit      -0.003313
 **** Fit      -0.001816
 **** Fit      -0.000358
 **** Fit       0.000650
 **** Fit       0.001126
 **** Fit       0.001236
 **** Fit       0.001168
 **** Fit       0.001042
 **** Fit       0.000910
 **** Fit      -0.001995
 **** Fit      -0.002284
 **** Fit      -0.002660
 **** Fit      -0.003115
 **** Fit      -0.003615
 **** Fit      -0.004088
 **** Fit      -0.004422
 **** Fit      -0.004459
 **** Fit      -0.004035
 **** Fit      -0.003090
 **** Fit      -0.001794
 **** Fit      -0.000520
 **** Fit       0.000400
 **** Fit       0.000881
 **** Fit       0.001034
 **** Fit       0.001010
 **** Fit       0.000916
 **** Fit       0.000805
 **** Fit      -0.002345
 **** Fit      -0.002686
 **** Fit      -0.003078
 **** Fit      -0.003484
 **** Fit      -0.003842
 **** Fit      -0.004066
 **** Fit      -0.004047
 **** Fit      -0.003677
 **** Fit      -0.002919
 **** Fit      -0.001894
 **** Fit      -0.000856
 **** Fit      -0.000044
 **** Fit       0.000450
 **** Fit       0.000676
 **** Fit       0.000732
 **** Fit       0.000702
 **** Fit       0.000639
 **** Fit      -0.002564
 **** Fit      -0.002879
 **** Fit      -0.003192
 **** Fit      -0.003458
 **** Fit      -0.003611
 **** Fit      -0.003576
 **** Fit      -0.003285
 **** Fit      -0.002717
 **** Fit      -0.001950
 **** Fit      -0.001145
 **** Fit      -0.000462
 **** Fit       0.000014
 **** Fit       0.000289
 **** Fit       0.000416
 **** Fit       0.000453
 **** Fit      -0.002832
 **** Fit      -0.003023
 **** Fit      -0.003126
 **** Fit      -0.003090
 **** Fit      -0.002871
 **** Fit      -0.002460
 **** Fit      -0.001903
 **** Fit      -0.001298
 **** Fit      -0.000751
 **** Fit      -0.000327
 **** Fit      -0.000042
 **** Fit       0.000126
 **** Fit       0.000212
 **** Fit      -0.002661
 **** Fit      -0.002627
 **** Fit      -0.002466
 **** Fit      -0.002171
 **** Fit      -0.001773
 **** Fit      -0.001328
 **** Fit      -0.000904
 **** Fit      -0.000550
 **** Fit      -0.000286
 **** Fit      -0.000106
 **** Fit      -0.002096
 **** Fit      -0.001885
 **** Fit      -0.001601
 **** Fit      -0.001278
 **** Fit      -0.000958
 **** Fit      -0.000674
 **** Fit      -0.001131
 **** Fit      -0.000070
 **** Fit      -0.000360
 **** Fit      -0.001389
 **** Fit      -0.001145
 **** Fit      -0.000871
 **** Fit       0.000319
 **** Fit       0.000277
 **** Fit       0.000125
 **** Fit      -0.000140
 **** Fit      -0.000496
 **** Fit      -0.000891
 **** Fit      -0.001264
 **** Fit      -0.001393
 **** Fit      -0.001095
 **** Fit      -0.000781
 **** Fit       0.000281
 **** Fit       0.000333
 **** Fit       0.000282
 **** Fit       0.000095
 **** Fit      -0.000233
 **** Fit      -0.000665
 **** Fit      -0.001128
 **** Fit      -0.001535
 **** Fit      -0.001814
 **** Fit      -0.001928
 **** Fit      -0.001370
 **** Fit      -0.001020
 **** Fit      -0.000675
 **** Fit       0.000117
 **** Fit       0.000247
 **** Fit       0.000309
 **** Fit       0.000250
 **** Fit       0.000026
 **** Fit      -0.000371
 **** Fit      -0.000891
 **** Fit      -0.001428
 **** Fit      -0.001864
 **** Fit      -0.002115
 **** Fit      -0.002152
 **** Fit      -0.001996
 **** Fit      -0.001698
 **** Fit      -0.001320
 **** Fit      -0.000922
 **** Fit      -0.000553
 **** Fit       0.000012
 **** Fit       0.000146
 **** Fit       0.000208
 **** Fit       0.000137
 **** Fit      -0.000126
 **** Fit      -0.000594
 **** Fit      -0.001202
 **** Fit      -0.001808
 **** Fit      -0.002259
 **** Fit      -0.002456
 **** Fit      -0.002385
 **** Fit      -0.002101
 **** Fit      -0.001688
 **** Fit      -0.001230
 **** Fit      -0.000790
 **** Fit      -0.000308
 **** Fit      -0.000166
 **** Fit      -0.000051
 **** Fit      -0.000009
 **** Fit      -0.000108
 **** Fit      -0.000416
 **** Fit      -0.000948
 **** Fit      -0.001624
 **** Fit      -0.002271
 **** Fit      -0.002699
 **** Fit      -0.002802
 **** Fit      -0.002588
 **** Fit      -0.002150
 **** Fit      -0.001613
 **** Fit      -0.001079
 **** Fit      -0.000612
 **** Fit      -0.000240
 **** Fit      -0.000524
 **** Fit      -0.000424
 **** Fit      -0.000355
 **** Fit      -0.000364
 **** Fit      -0.000516
 **** Fit      -0.000875
 **** Fit      -0.001452
 **** Fit      -0.002152
 **** Fit      -0.002778
 **** Fit      -0.003126
 **** Fit      -0.003088
 **** Fit      -0.002698
 **** Fit      -0.002094
 **** Fit      -0.001437
 **** Fit      -0.000847
 **** Fit      -0.000379
 **** Fit      -0.000038
 **** Fit       0.000191
 **** Fit      -0.000780
 **** Fit      -0.000742
 **** Fit      -0.000745
 **** Fit      -0.000831
 **** Fit      -0.001055
 **** Fit      -0.001464
 **** Fit      -0.002053
 **** Fit      -0.002714
 **** Fit      -0.003249
 **** Fit      -0.003456
 **** Fit      -0.003240
 **** Fit      -0.002663
 **** Fit      -0.001903
 **** Fit      -0.001156
 **** Fit      -0.000545
 **** Fit      -0.000106
 **** Fit       0.000180
 **** Fit       0.000351
 **** Fit      -0.001050
 **** Fit      -0.001081
 **** Fit      -0.001166
 **** Fit      -0.001336
 **** Fit      -0.001630
 **** Fit      -0.002071
 **** Fit      -0.002629
 **** Fit      -0.003194
 **** Fit      -0.003583
 **** Fit      -0.003618
 **** Fit      -0.003225
 **** Fit      -0.002487
 **** Fit      -0.001615
 **** Fit      -0.000822
 **** Fit      -0.000227
 **** Fit       0.000158
 **** Fit       0.000377
 **** Fit       0.000486
 **** Fit       0.000527
 **** Fit      -0.001394
 **** Fit      -0.001548
 **** Fit      -0.001786
 **** Fit      -0.002124
 **** Fit      -0.002562
 **** Fit      -0.003054
 **** Fit      -0.003492
 **** Fit      -0.003724
 **** Fit      -0.003603
 **** Fit      -0.003079
 **** Fit      -0.002249
 **** Fit      -0.001331
 **** Fit      -0.000540
 **** Fit       0.000017
 **** Fit       0.000345
 **** Fit       0.000507
 **** Fit       0.000567
 **** Fit       0.000570
 **** Fit      -0.001639
 **** Fit      -0.001839
 **** Fit      -0.002110
 **** Fit      -0.002456
 **** Fit      -0.002857
 **** Fit      -0.003261
 **** Fit      -0.003575
 **** Fit      -0.003675
 **** Fit      -0.003454
 **** Fit      -0.002877
 **** Fit      -0.002043
 **** Fit      -0.001152
 **** Fit      -0.000401
 **** Fit       0.000114
 **** Fit       0.000405
 **** Fit       0.000536
 **** Fit       0.000572
 **** Fit       0.000558
 **** Fit      -0.002012
 **** Fit      -0.002283
 **** Fit      -0.002604
 **** Fit      -0.002948
 **** Fit      -0.003263
 **** Fit      -0.003474
 **** Fit      -0.003488
 **** Fit      -0.003227
 **** Fit      -0.002674
 **** Fit      -0.001912
 **** Fit      -0.001107
 **** Fit      -0.000423
 **** Fit       0.000054
 **** Fit       0.000332
 **** Fit       0.000462
 **** Fit       0.000501
 **** Fit      -0.002596
 **** Fit      -0.002875
 **** Fit      -0.003112
 **** Fit      -0.003248
 **** Fit      -0.003216
 **** Fit      -0.002963
 **** Fit      -0.002481
 **** Fit      -0.001834
 **** Fit      -0.001148
 **** Fit      -0.000548
 **** Fit      -0.000109
 **** Fit       0.000166
 **** Fit       0.000311
 **** Fit       0.000371
 **** Fit      -0.002952
 **** Fit      -0.002901
 **** Fit      -0.002680
 **** Fit      -0.002285
 **** Fit      -0.001765
 **** Fit      -0.001205
 **** Fit      -0.000698
 **** Fit      -0.000303
 **** Fit      -0.000035
 **** Fit       0.000127
 **** Fit      -0.002573
 **** Fit      -0.002391
 **** Fit      -0.002081
 **** Fit      -0.001676
 **** Fit      -0.001233
 **** Fit      -0.000818
 **** Fit      -0.000476
 **** Fit      -0.000223
 **** Fit      -0.000054
 **** Fit      -0.002110
 **** Fit      -0.001872
 **** Fit      -0.001562
 **** Fit      -0.001220
 **** Fit      -0.000889
 **** Fit      -0.000601
 **** Fit      -0.000077
 **** Fit      -0.000230
 **** Fit      -0.000466
 **** Fit      -0.000757
 **** Fit      -0.001058
 **** Fit      -0.001316
 **** Fit      -0.000082
 **** Fit      -0.000165
 **** Fit      -0.000347
 **** Fit      -0.000624
 **** Fit      -0.000958
 **** Fit      -0.001290
 **** Fit      -0.001554
 **** Fit      -0.001702
 **** Fit      -0.000200
 **** Fit      -0.000211
 **** Fit      -0.000313
 **** Fit      -0.000527
 **** Fit      -0.000843
 **** Fit      -0.001216
 **** Fit      -0.001570
 **** Fit      -0.001826
 **** Fit      -0.001931
 **** Fit      -0.001874
 **** Fit      -0.001680
 **** Fit      -0.001397
 **** Fit      -0.000377
 **** Fit      -0.000411
 **** Fit      -0.000540
 **** Fit      -0.000785
 **** Fit      -0.001135
 **** Fit      -0.001533
 **** Fit      -0.001891
 **** Fit      -0.002118
 **** Fit      -0.002158
 **** Fit      -0.002013
 **** Fit      -0.001727
 **** Fit      -0.001365
 **** Fit      -0.000990
 **** Fit      -0.000646
 **** Fit      -0.000615
 **** Fit      -0.000683
 **** Fit      -0.000846
 **** Fit      -0.001121
 **** Fit      -0.001491
 **** Fit      -0.001892
 **** Fit      -0.002225
 **** Fit      -0.002394
 **** Fit      -0.002349
 **** Fit      -0.002102
 **** Fit      -0.001718
 **** Fit      -0.001282
 **** Fit      -0.000863
 **** Fit      -0.000507
 **** Fit      -0.000227
 **** Fit      -0.000897
 **** Fit      -0.001007
 **** Fit      -0.001207
 **** Fit      -0.001504
 **** Fit      -0.001874
 **** Fit      -0.002247
 **** Fit      -0.002525
 **** Fit      -0.002613
 **** Fit      -0.002468
 **** Fit      -0.002118
 **** Fit      -0.001645
 **** Fit      -0.001148
 **** Fit      -0.000704
 **** Fit      -0.000350
 **** Fit      -0.000091
 **** Fit      -0.001189
 **** Fit      -0.001342
 **** Fit      -0.001571
 **** Fit      -0.001875
 **** Fit      -0.002223
 **** Fit      -0.002543
 **** Fit      -0.002742
 **** Fit      -0.002738
 **** Fit      -0.002498
 **** Fit      -0.002061
 **** Fit      -0.001522
 **** Fit      -0.000989
 **** Fit      -0.000538
 **** Fit      -0.000200
 **** Fit       0.000030
 **** Fit      -0.001454
 **** Fit      -0.001637
 **** Fit      -0.001881
 **** Fit      -0.002175
 **** Fit      -0.002480
 **** Fit      -0.002732
 **** Fit      -0.002848
 **** Fit      -0.002760
 **** Fit      -0.002447
 **** Fit      -0.001955
 **** Fit      -0.001385
 **** Fit      -0.000844
 **** Fit      -0.000405
 **** Fit      -0.000090
 **** Fit       0.000112
 **** Fit       0.000230
 **** Fit      -0.001857
 **** Fit      -0.002097
 **** Fit      -0.002363
 **** Fit      -0.002616
 **** Fit      -0.002797
 **** Fit      -0.002840
 **** Fit      -0.002693
 **** Fit      -0.002343
 **** Fit      -0.001838
 **** Fit      -0.001275
 **** Fit      -0.000752
 **** Fit      -0.000336
 **** Fit      -0.000045
 **** Fit       0.000137
 **** Fit      -0.002204
 **** Fit      -0.002432
 **** Fit      -0.002630
 **** Fit      -0.002751
 **** Fit      -0.002741
 **** Fit      -0.002564
 **** Fit      -0.002213
 **** Fit      -0.001735
 **** Fit      -0.001210
 **** Fit      -0.000726
 **** Fit      -0.000340
 **** Fit      -0.000068
 **** Fit       0.000103
 **** Fit      -0.002620
 **** Fit      -0.002579
 **** Fit      -0.002397
 **** Fit      -0.002075
 **** Fit      -0.001648
 **** Fit      -0.001184
 **** Fit      -0.000751
 **** Fit      -0.000400
 **** Fit      -0.000145
 **** Fit       0.000022
 **** Fit      -0.002380
 **** Fit      -0.002211
 **** Fit      -0.001931
 **** Fit      -0.001568
 **** Fit      -0.001173
 **** Fit      -0.000799
 **** Fit      -0.000486
 **** Fit      -0.000248
 **** Fit      -0.001783
 **** Fit      -0.001485
 **** Fit      -0.001159
 **** Fit      -0.000844
 **** Fit      -0.000734
 **** Fit      -0.000548
 **** Fit      -0.000707
 **** Fit      -0.000917
 **** Fit      -0.001149
 **** Fit      -0.001360
 **** Fit      -0.000736
 **** Fit      -0.000913
 **** Fit      -0.001139
 **** Fit      -0.001378
 **** Fit      -0.001582
 **** Fit      -0.001704
 **** Fit      -0.000830
 **** Fit      -0.000964
 **** Fit      -0.001156
 **** Fit      -0.001389
 **** Fit      -0.001623
 **** Fit      -0.001806
 **** Fit      -0.001888
 **** Fit      -0.001844
 **** Fit      -0.001680
 **** Fit      -0.001427
 **** Fit      -0.001131
 **** Fit      -0.001061
 **** Fit      -0.001213
 **** Fit      -0.001415
 **** Fit      -0.001644
 **** Fit      -0.001858
 **** Fit      -0.002004
 **** Fit      -0.002037
 **** Fit      -0.001934
 **** Fit      -0.001709
 **** Fit      -0.001402
 **** Fit      -0.001067
 **** Fit      -0.000748
 **** Fit      -0.001457
 **** Fit      -0.001658
 **** Fit      -0.001871
 **** Fit      -0.002053
 **** Fit      -0.002153
 **** Fit      -0.002132
 **** Fit      -0.001973
 **** Fit      -0.001696
 **** Fit      -0.001349
 **** Fit      -0.000987
 **** Fit      -0.000659
 **** Fit      -0.000388
 **** Fit      -0.001855
 **** Fit      -0.002042
 **** Fit      -0.002183
 **** Fit      -0.002236
 **** Fit      -0.002165
 **** Fit      -0.001962
 **** Fit      -0.001651
 **** Fit      -0.001282
 **** Fit      -0.000911
 **** Fit      -0.000584
 **** Fit      -0.000323
 **** Fit      -0.002249
 **** Fit      -0.002142
 **** Fit      -0.001913
 **** Fit      -0.001589
 **** Fit      -0.001218
 **** Fit      -0.000854
 **** Fit      -0.000538
 **** Fit      -0.000291
 **** Fit      -0.002074
 **** Fit      -0.001839
 **** Fit      -0.001523
 **** Fit      -0.001169
 **** Fit      -0.000825
 **** Fit      -0.000528
 **** Fit      -0.001750
 **** Fit      -0.001457
 **** Fit      -0.001134
 **** Fit      -0.000821
 -----------------------------------------------------------------
 Leave Link  602 at Fri Apr 28 13:23:46 2017, MaxMem=    33554432 cpu:        38.8
 (Enter /home/michal/g09/l9999.exe)

 Test job not archived.
 1\1\GINC-LINUX\SP\RHF\6-31G(d)\C27H46O3\MICHAL\28-Apr-2017\0\\#P HF/6-
 31G* SCF(Conver=6) NoSymm Test Pop=chelpg IOp(6/33=2) GFInput GFPrint\
 \MEP - Input generated by R.E.D.-III.x MOLECULE\\0,1\C,0,1.01491764,-0
 .8852036,-1.68548925\H,0,1.14640593,0.08455695,-2.18100601\C,0,2.25024
 599,-1.75650199,-1.96279096\H,0,2.38950518,-1.86543482,-3.04284975\H,0
 ,2.04425506,-2.76405224,-1.56840705\C,0,3.50836805,-1.19663527,-1.3248
 8178\C,0,3.43398208,-0.86570537,0.17099479\C,0,2.12889222,-0.04909113,
 0.42357388\H,0,2.26598869,0.95517215,0.\H,0,1.98839055,0.08517353,1.50
 156582\C,0,0.85570313,-0.66002445,-0.18192026\H,0,0.62116385,-1.619748
 02,0.30189873\H,0,0.,0.,0.\C,0,4.61155674,-1.0180714,-2.06795563\H,0,4
 .58432555,-1.27528673,-3.12522813\C,0,5.91260484,-0.47490645,-1.551593
 01\H,0,6.7525153,-1.04113716,-1.97365824\C,0,5.99431573,-0.49177649,-0
 .0143693\H,0,6.14595746,-1.54758037,0.25097344\C,0,4.66313148,0.007956
 28,0.60622192\H,0,4.49211021,1.00682357,0.17866409\C,0,4.77388959,0.18
 761723,2.13896071\H,0,4.78374723,-0.79085944,2.62985353\H,0,3.88017702
 ,0.70134047,2.5116031\C,0,6.01831267,0.97256323,2.60229229\H,0,5.95242
 077,2.01123862,2.2483519\H,0,6.00886737,1.0152869,3.69585652\C,0,7.322
 32283,0.35050769,2.06069689\C,0,7.18104639,0.32927579,0.51260776\H,0,6
 .98508997,1.37189364,0.22688537\C,0,8.58900999,0.,0.\H,0,8.74397063,0.
 34975406,-1.02442371\H,0,8.76323735,-1.08365471,0.0007161\C,0,9.520826
 52,0.71434517,1.01679841\H,0,10.29009507,0.02784591,1.39034613\H,0,10.
 05217349,1.54691509,0.54673103\C,0,8.62210668,1.21927832,2.19769706\H,
 0,8.31985498,2.25467082,1.97398935\C,0,7.55413831,-1.05551389,2.659448
 77\H,0,6.75908014,-1.75863947,2.39792794\H,0,8.49668005,-1.49379443,2.
 31765716\H,0,7.59468498,-1.00921473,3.75277501\C,0,9.3832439,1.2590795
 3,3.54930902\H,0,9.74302234,0.2408675,3.75585094\C,0,8.50254192,1.6984
 6544,4.73156255\H,0,8.0565282,2.68365183,4.54487109\H,0,9.08435791,1.7
 6952831,5.65544472\H,0,7.68916531,0.99522308,4.92285073\C,0,3.37330807
 ,-2.20201178,0.9608183\H,0,3.1222985,-2.03190361,2.01199359\H,0,2.6159
 4289,-2.87714584,0.5554169\H,0,4.33044658,-2.73098918,0.91868954\O,0,6
 .10053532,0.90723224,-1.96359221\O,0,6.2821847,0.91603001,-3.40742275\
 H,0,5.44150217,1.30792135,-3.6965816\O,0,-0.16261258,-1.42806611,-2.28
 816399\H,0,-0.35592352,-2.2823758,-1.87712878\C,0,10.62186327,2.183259
 13,3.42492659\H,0,11.20861109,1.88114379,2.55117148\H,0,10.2676987,3.2
 0211304,3.20788531\C,0,11.56438507,2.25329647,4.64344408\H,0,12.366000
 55,2.96427525,4.40587556\H,0,11.03662037,2.69230101,5.49895458\C,0,12.
 18476795,0.91803299,5.09685625\H,0,11.38585944,0.24357342,5.4339105\H,
 0,12.8052492,1.11052134,5.9847557\C,0,13.04831629,0.16885833,4.0598633
 4\H,0,12.42694651,-0.03331486,3.17552398\C,0,14.26296847,0.99192863,3.
 60194741\H,0,14.90694668,1.24250467,4.45506969\H,0,14.86889893,0.42843
 47,2.88332554\H,0,13.96902144,1.92977209,3.11978479\C,0,13.49913482,-1
 .18771293,4.62510898\H,0,14.13111936,-1.05099881,5.51208371\H,0,14.080
 03387,-1.75362907,3.88785046\H,0,12.64125805,-1.80296813,4.92029602\\V
 ersion=EM64L-G09RevD.01\HF=-1273.6819307\RMSD=5.447e-07\Dipole=-0.4021
 35,-0.5728041,0.6933252\Quadrupole=-10.6605436,8.6854436,1.9751,-4.225
 6646,3.5724985,-0.1665337\PG=C01 [X(C27H46O3)]\\@


 HEAVEN'S NET CASTS WIDE.
 THOUGH ITS MESHES ARE COARSE, NOTHING SLIPS THROUGH.

                                          -- LAO-TSU
 Job cpu time:       0 days  0 hours 12 minutes 14.8 seconds.
 File lengths (MBytes):  RWF=    159 Int=      0 D2E=      0 Chk=     11 Scr=      1
 Normal termination of Gaussian 09 at Fri Apr 28 13:23:46 2017.
