 Entering Gaussian System, Link 0=/home/michal/g09/g09
 Input=JOB2-gau_m1-9-2.com
 Output=JOB2-gau_m1-9-2.log
 Initial command:
 /home/michal/g09/l1.exe "/home/michal/gauss_scratch/Gau-15738.inp" -scrdir="/home/michal/gauss_scratch/"
 Entering Link 1 = /home/michal/g09/l1.exe PID=     15739.
  
 Copyright (c) 1988,1990,1992,1993,1995,1998,2003,2009,2013,
            Gaussian, Inc.  All Rights Reserved.
  
 This is part of the Gaussian(R) 09 program.  It is based on
 the Gaussian(R) 03 system (copyright 2003, Gaussian, Inc.),
 the Gaussian(R) 98 system (copyright 1998, Gaussian, Inc.),
 the Gaussian(R) 94 system (copyright 1995, Gaussian, Inc.),
 the Gaussian 92(TM) system (copyright 1992, Gaussian, Inc.),
 the Gaussian 90(TM) system (copyright 1990, Gaussian, Inc.),
 the Gaussian 88(TM) system (copyright 1988, Gaussian, Inc.),
 the Gaussian 86(TM) system (copyright 1986, Carnegie Mellon
 University), and the Gaussian 82(TM) system (copyright 1983,
 Carnegie Mellon University). Gaussian is a federally registered
 trademark of Gaussian, Inc.
  
 This software contains proprietary and confidential information,
 including trade secrets, belonging to Gaussian, Inc.
  
 This software is provided under written license and may be
 used, copied, transmitted, or stored only in accord with that
 written license.
  
 The following legend is applicable only to US Government
 contracts under FAR:
  
                    RESTRICTED RIGHTS LEGEND
  
 Use, reproduction and disclosure by the US Government is
 subject to restrictions as set forth in subparagraphs (a)
 and (c) of the Commercial Computer Software - Restricted
 Rights clause in FAR 52.227-19.
  
 Gaussian, Inc.
 340 Quinnipiac St., Bldg. 40, Wallingford CT 06492
  
  
 ---------------------------------------------------------------
 Warning -- This program may not be used in any manner that
 competes with the business of Gaussian, Inc. or will provide
 assistance to any competitor of Gaussian, Inc.  The licensee
 of this program is prohibited from giving any competitor of
 Gaussian, Inc. access to this program.  By using this program,
 the user acknowledges that Gaussian, Inc. is engaged in the
 business of creating and licensing software in the field of
 computational chemistry and represents and warrants to the
 licensee that it is not a competitor of Gaussian, Inc. and that
 it will not use this program in any manner prohibited above.
 ---------------------------------------------------------------
  

 Cite this work as:
 Gaussian 09, Revision D.01,
 M. J. Frisch, G. W. Trucks, H. B. Schlegel, G. E. Scuseria, 
 M. A. Robb, J. R. Cheeseman, G. Scalmani, V. Barone, B. Mennucci, 
 G. A. Petersson, H. Nakatsuji, M. Caricato, X. Li, H. P. Hratchian, 
 A. F. Izmaylov, J. Bloino, G. Zheng, J. L. Sonnenberg, M. Hada, 
 M. Ehara, K. Toyota, R. Fukuda, J. Hasegawa, M. Ishida, T. Nakajima, 
 Y. Honda, O. Kitao, H. Nakai, T. Vreven, J. A. Montgomery, Jr., 
 J. E. Peralta, F. Ogliaro, M. Bearpark, J. J. Heyd, E. Brothers, 
 K. N. Kudin, V. N. Staroverov, T. Keith, R. Kobayashi, J. Normand, 
 K. Raghavachari, A. Rendell, J. C. Burant, S. S. Iyengar, J. Tomasi, 
 M. Cossi, N. Rega, J. M. Millam, M. Klene, J. E. Knox, J. B. Cross, 
 V. Bakken, C. Adamo, J. Jaramillo, R. Gomperts, R. E. Stratmann, 
 O. Yazyev, A. J. Austin, R. Cammi, C. Pomelli, J. W. Ochterski, 
 R. L. Martin, K. Morokuma, V. G. Zakrzewski, G. A. Voth, 
 P. Salvador, J. J. Dannenberg, S. Dapprich, A. D. Daniels, 
 O. Farkas, J. B. Foresman, J. V. Ortiz, J. Cioslowski, 
 and D. J. Fox, Gaussian, Inc., Wallingford CT, 2013.
 
 ******************************************
 Gaussian 09:  EM64L-G09RevD.01 24-Apr-2013
                28-Apr-2017 
 ******************************************
 %Mem=256MB
 %NProc=12
 Will use up to   12 processors via shared memory.
 ----------------------------------------------------------------------
 #P HF/6-31G* SCF(Conver=6) NoSymm Test Pop=chelpg IOp(6/33=2) GFInput 
 GFPrint
 ----------------------------------------------------------------------
 1/38=1/1;
 2/12=2,15=1,17=6,18=5,40=1/2;
 3/5=1,6=6,7=1,11=9,16=1,24=110,25=1,30=1/1,2,3;
 4//1;
 5/5=2,6=6,38=5/2;
 6/7=2,8=2,9=2,10=2,15=8,20=3,28=1,33=2/1,2;
 99/5=1,9=1/99;
 Leave Link    1 at Fri Apr 28 12:23:15 2017, MaxMem=    33554432 cpu:         0.6
 (Enter /home/michal/g09/l101.exe)
 ----------------------------------------------
 MEP - Input generated by R.E.D.-III.x MOLECULE
 ----------------------------------------------
 Symbolic Z-matrix:
 Charge =  0 Multiplicity = 1
 C                     7.51587   2.15117  -0.05546 
 H                     7.4141    2.06864   1.0336 
 C                     6.7627    0.98484  -0.71476 
 H                     7.15359   0.03426  -0.33874 
 H                     6.98313   1.01157  -1.79355 
 C                     5.2639    1.06239  -0.48939 
 C                     4.58097   2.38773  -0.84967 
 C                     5.41698   3.54894  -0.22776 
 H                     5.26916   3.53226   0.86064 
 H                     5.02292   4.50832  -0.58003 
 C                     6.92552   3.4851   -0.51248 
 H                     7.12031   3.61433  -1.58743 
 H                     7.43891   4.30654   0. 
 C                     4.60592   0.        0. 
 H                     5.16307  -0.90537   0.2337 
 C                     3.12828  -0.04472   0.26275 
 H                     2.71653  -1.01006  -0.05794 
 C                     2.368     1.10035  -0.43066 
 H                     2.35316   0.82629  -1.4948 
 C                     3.12893   2.44233  -0.25605 
 H                     3.24935   2.57623   0.82904 
 C                     2.30491   3.64893  -0.76836 
 H                     2.28871   3.65298  -1.86291 
 H                     2.80085   4.58032  -0.47172 
 C                     0.84795   3.6861   -0.26301 
 H                     0.83848   3.84569   0.82443 
 H                     0.3461    4.55127  -0.7113 
 C                     0.10254   2.37525  -0.58068 
 C                     0.92344   1.22733   0.07518 
 H                     0.99645   1.49412   1.13796 
 C                     0.        0.        0. 
 H                     0.23975  -0.73773   0.77083 
 H                     0.09692  -0.50412  -0.97011 
 C                    -1.42383   0.60169   0.17407 
 H                    -2.08658   0.26901  -0.63124 
 H                    -1.89134   0.27603   1.1096 
 C                    -1.25789   2.15457   0.16652 
 H                    -1.04575   2.44658   1.20609 
 C                    -0.03926   2.19588  -2.10958 
 H                     0.9265    2.04569  -2.59942 
 H                    -0.66719   1.33938  -2.36858 
 H                    -0.49113   3.08366  -2.56187 
 C                    -2.57499   2.91254  -0.17426 
 H                    -3.2946    2.4875    0.54184 
 C                    -3.17724   2.67536  -1.57321 
 H                    -2.65824   3.24869  -2.34747 
 H                    -4.2276    2.98362  -1.59211 
 H                    -3.15093   1.62121  -1.86391 
 C                     4.57143   2.52344  -2.39721 
 H                     4.27765   3.53089  -2.70634 
 H                     5.55774   2.33107  -2.8261 
 H                     3.87834   1.80973  -2.85324 
 O                     2.84803   0.06896   1.68544 
 O                     3.34135  -1.13899   2.32979 
 H                     4.11387  -0.79171   2.80575 
 O                     8.92527   2.06716  -0.28147 
 H                     9.09341   2.15964  -1.22981 
 C                    -2.47393   4.4243    0.13552 
 H                    -1.95975   4.55419   1.09825 
 H                    -1.83281   4.89841  -0.61864 
 C                    -3.80372   5.20418   0.189 
 H                    -3.55623   6.26464   0.32414 
 H                    -4.31252   5.13693  -0.78028 
 C                    -4.75272   4.75773   1.31348 
 H                    -4.19579   4.75784   2.26217 
 H                    -5.05844   3.71695   1.14268 
 C                    -6.03494   5.60295   1.50413 
 H                    -6.58732   5.12887   2.32896 
 C                    -5.73749   7.04861   1.93596 
 H                    -5.24158   7.61666   1.14051 
 H                    -6.66417   7.5783    2.18491 
 H                    -5.08986   7.07542   2.82022 
 C                    -6.95257   5.57257   0.27053 
 H                    -6.49664   6.08424  -0.58494 
 H                    -7.90492   6.07272   0.48055 
 H                    -7.1765    4.54372  -0.03517 
 
 NAtoms=     76 NQM=       76 NQMF=       0 NMMI=      0 NMMIF=      0
                NMic=       0 NMicF=      0.
                    Isotopes and Nuclear Properties:
 (Nuclear quadrupole moments (NQMom) in fm**2, nuclear magnetic moments (NMagM)
  in nuclear magnetons)

  Atom         1           2           3           4           5           6           7           8           9          10
 IAtWgt=          12           1          12           1           1          12          12          12           1           1
 AtmWgt=  12.0000000   1.0078250  12.0000000   1.0078250   1.0078250  12.0000000  12.0000000  12.0000000   1.0078250   1.0078250
 NucSpn=           0           1           0           1           1           0           0           0           1           1
 AtZEff=   0.0000000   0.0000000   0.0000000   0.0000000   0.0000000   0.0000000   0.0000000   0.0000000   0.0000000   0.0000000
 NQMom=    0.0000000   0.0000000   0.0000000   0.0000000   0.0000000   0.0000000   0.0000000   0.0000000   0.0000000   0.0000000
 NMagM=    0.0000000   2.7928460   0.0000000   2.7928460   2.7928460   0.0000000   0.0000000   0.0000000   2.7928460   2.7928460
 AtZNuc=   6.0000000   1.0000000   6.0000000   1.0000000   1.0000000   6.0000000   6.0000000   6.0000000   1.0000000   1.0000000

  Atom        11          12          13          14          15          16          17          18          19          20
 IAtWgt=          12           1           1          12           1          12           1          12           1          12
 AtmWgt=  12.0000000   1.0078250   1.0078250  12.0000000   1.0078250  12.0000000   1.0078250  12.0000000   1.0078250  12.0000000
 NucSpn=           0           1           1           0           1           0           1           0           1           0
 AtZEff=   0.0000000   0.0000000   0.0000000   0.0000000   0.0000000   0.0000000   0.0000000   0.0000000   0.0000000   0.0000000
 NQMom=    0.0000000   0.0000000   0.0000000   0.0000000   0.0000000   0.0000000   0.0000000   0.0000000   0.0000000   0.0000000
 NMagM=    0.0000000   2.7928460   2.7928460   0.0000000   2.7928460   0.0000000   2.7928460   0.0000000   2.7928460   0.0000000
 AtZNuc=   6.0000000   1.0000000   1.0000000   6.0000000   1.0000000   6.0000000   1.0000000   6.0000000   1.0000000   6.0000000

  Atom        21          22          23          24          25          26          27          28          29          30
 IAtWgt=           1          12           1           1          12           1           1          12          12           1
 AtmWgt=   1.0078250  12.0000000   1.0078250   1.0078250  12.0000000   1.0078250   1.0078250  12.0000000  12.0000000   1.0078250
 NucSpn=           1           0           1           1           0           1           1           0           0           1
 AtZEff=   0.0000000   0.0000000   0.0000000   0.0000000   0.0000000   0.0000000   0.0000000   0.0000000   0.0000000   0.0000000
 NQMom=    0.0000000   0.0000000   0.0000000   0.0000000   0.0000000   0.0000000   0.0000000   0.0000000   0.0000000   0.0000000
 NMagM=    2.7928460   0.0000000   2.7928460   2.7928460   0.0000000   2.7928460   2.7928460   0.0000000   0.0000000   2.7928460
 AtZNuc=   1.0000000   6.0000000   1.0000000   1.0000000   6.0000000   1.0000000   1.0000000   6.0000000   6.0000000   1.0000000

  Atom        31          32          33          34          35          36          37          38          39          40
 IAtWgt=          12           1           1          12           1           1          12           1          12           1
 AtmWgt=  12.0000000   1.0078250   1.0078250  12.0000000   1.0078250   1.0078250  12.0000000   1.0078250  12.0000000   1.0078250
 NucSpn=           0           1           1           0           1           1           0           1           0           1
 AtZEff=   0.0000000   0.0000000   0.0000000   0.0000000   0.0000000   0.0000000   0.0000000   0.0000000   0.0000000   0.0000000
 NQMom=    0.0000000   0.0000000   0.0000000   0.0000000   0.0000000   0.0000000   0.0000000   0.0000000   0.0000000   0.0000000
 NMagM=    0.0000000   2.7928460   2.7928460   0.0000000   2.7928460   2.7928460   0.0000000   2.7928460   0.0000000   2.7928460
 AtZNuc=   6.0000000   1.0000000   1.0000000   6.0000000   1.0000000   1.0000000   6.0000000   1.0000000   6.0000000   1.0000000

  Atom        41          42          43          44          45          46          47          48          49          50
 IAtWgt=           1           1          12           1          12           1           1           1          12           1
 AtmWgt=   1.0078250   1.0078250  12.0000000   1.0078250  12.0000000   1.0078250   1.0078250   1.0078250  12.0000000   1.0078250
 NucSpn=           1           1           0           1           0           1           1           1           0           1
 AtZEff=   0.0000000   0.0000000   0.0000000   0.0000000   0.0000000   0.0000000   0.0000000   0.0000000   0.0000000   0.0000000
 NQMom=    0.0000000   0.0000000   0.0000000   0.0000000   0.0000000   0.0000000   0.0000000   0.0000000   0.0000000   0.0000000
 NMagM=    2.7928460   2.7928460   0.0000000   2.7928460   0.0000000   2.7928460   2.7928460   2.7928460   0.0000000   2.7928460
 AtZNuc=   1.0000000   1.0000000   6.0000000   1.0000000   6.0000000   1.0000000   1.0000000   1.0000000   6.0000000   1.0000000

  Atom        51          52          53          54          55          56          57          58          59          60
 IAtWgt=           1           1          16          16           1          16           1          12           1           1
 AtmWgt=   1.0078250   1.0078250  15.9949146  15.9949146   1.0078250  15.9949146   1.0078250  12.0000000   1.0078250   1.0078250
 NucSpn=           1           1           0           0           1           0           1           0           1           1
 AtZEff=   0.0000000   0.0000000   0.0000000   0.0000000   0.0000000   0.0000000   0.0000000   0.0000000   0.0000000   0.0000000
 NQMom=    0.0000000   0.0000000   0.0000000   0.0000000   0.0000000   0.0000000   0.0000000   0.0000000   0.0000000   0.0000000
 NMagM=    2.7928460   2.7928460   0.0000000   0.0000000   2.7928460   0.0000000   2.7928460   0.0000000   2.7928460   2.7928460
 AtZNuc=   1.0000000   1.0000000   8.0000000   8.0000000   1.0000000   8.0000000   1.0000000   6.0000000   1.0000000   1.0000000

  Atom        61          62          63          64          65          66          67          68          69          70
 IAtWgt=          12           1           1          12           1           1          12           1          12           1
 AtmWgt=  12.0000000   1.0078250   1.0078250  12.0000000   1.0078250   1.0078250  12.0000000   1.0078250  12.0000000   1.0078250
 NucSpn=           0           1           1           0           1           1           0           1           0           1
 AtZEff=   0.0000000   0.0000000   0.0000000   0.0000000   0.0000000   0.0000000   0.0000000   0.0000000   0.0000000   0.0000000
 NQMom=    0.0000000   0.0000000   0.0000000   0.0000000   0.0000000   0.0000000   0.0000000   0.0000000   0.0000000   0.0000000
 NMagM=    0.0000000   2.7928460   2.7928460   0.0000000   2.7928460   2.7928460   0.0000000   2.7928460   0.0000000   2.7928460
 AtZNuc=   6.0000000   1.0000000   1.0000000   6.0000000   1.0000000   1.0000000   6.0000000   1.0000000   6.0000000   1.0000000

  Atom        71          72          73          74          75          76
 IAtWgt=           1           1          12           1           1           1
 AtmWgt=   1.0078250   1.0078250  12.0000000   1.0078250   1.0078250   1.0078250
 NucSpn=           1           1           0           1           1           1
 AtZEff=   0.0000000   0.0000000   0.0000000   0.0000000   0.0000000   0.0000000
 NQMom=    0.0000000   0.0000000   0.0000000   0.0000000   0.0000000   0.0000000
 NMagM=    2.7928460   2.7928460   0.0000000   2.7928460   2.7928460   2.7928460
 AtZNuc=   1.0000000   1.0000000   6.0000000   1.0000000   1.0000000   1.0000000
 Leave Link  101 at Fri Apr 28 12:23:15 2017, MaxMem=    33554432 cpu:         1.0
 (Enter /home/michal/g09/l202.exe)
 Symmetry turned off by external request.
 Stoichiometry    C27H46O3
 Framework group  C1[X(C27H46O3)]
 Deg. of freedom   222
 Full point group                 C1      NOp   1
                          Input orientation:                          
 ---------------------------------------------------------------------
 Center     Atomic      Atomic             Coordinates (Angstroms)
 Number     Number       Type             X           Y           Z
 ---------------------------------------------------------------------
      1          6           0        7.515866    2.151170   -0.055464
      2          1           0        7.414104    2.068635    1.033604
      3          6           0        6.762698    0.984843   -0.714758
      4          1           0        7.153591    0.034256   -0.338739
      5          1           0        6.983131    1.011572   -1.793548
      6          6           0        5.263896    1.062389   -0.489391
      7          6           0        4.580970    2.387729   -0.849673
      8          6           0        5.416976    3.548941   -0.227757
      9          1           0        5.269157    3.532257    0.860641
     10          1           0        5.022925    4.508316   -0.580031
     11          6           0        6.925518    3.485102   -0.512478
     12          1           0        7.120312    3.614327   -1.587428
     13          1           0        7.438906    4.306543    0.000000
     14          6           0        4.605920    0.000000    0.000000
     15          1           0        5.163074   -0.905367    0.233702
     16          6           0        3.128276   -0.044719    0.262745
     17          1           0        2.716525   -1.010060   -0.057937
     18          6           0        2.367996    1.100349   -0.430664
     19          1           0        2.353164    0.826286   -1.494802
     20          6           0        3.128925    2.442326   -0.256047
     21          1           0        3.249346    2.576229    0.829038
     22          6           0        2.304906    3.648929   -0.768363
     23          1           0        2.288705    3.652979   -1.862911
     24          1           0        2.800852    4.580322   -0.471723
     25          6           0        0.847954    3.686105   -0.263013
     26          1           0        0.838479    3.845692    0.824431
     27          1           0        0.346105    4.551270   -0.711301
     28          6           0        0.102543    2.375248   -0.580680
     29          6           0        0.923439    1.227328    0.075176
     30          1           0        0.996447    1.494123    1.137962
     31          6           0        0.000000    0.000000    0.000000
     32          1           0        0.239749   -0.737734    0.770830
     33          1           0        0.096923   -0.504120   -0.970113
     34          6           0       -1.423827    0.601693    0.174070
     35          1           0       -2.086578    0.269006   -0.631236
     36          1           0       -1.891342    0.276031    1.109598
     37          6           0       -1.257890    2.154566    0.166521
     38          1           0       -1.045751    2.446576    1.206093
     39          6           0       -0.039261    2.195876   -2.109576
     40          1           0        0.926505    2.045687   -2.599422
     41          1           0       -0.667186    1.339381   -2.368583
     42          1           0       -0.491133    3.083659   -2.561874
     43          6           0       -2.574991    2.912544   -0.174255
     44          1           0       -3.294599    2.487499    0.541842
     45          6           0       -3.177241    2.675362   -1.573213
     46          1           0       -2.658237    3.248694   -2.347468
     47          1           0       -4.227600    2.983625   -1.592111
     48          1           0       -3.150934    1.621206   -1.863907
     49          6           0        4.571431    2.523440   -2.397210
     50          1           0        4.277650    3.530893   -2.706341
     51          1           0        5.557741    2.331073   -2.826099
     52          1           0        3.878344    1.809729   -2.853238
     53          8           0        2.848026    0.068962    1.685444
     54          8           0        3.341348   -1.138988    2.329788
     55          1           0        4.113870   -0.791707    2.805751
     56          8           0        8.925274    2.067162   -0.281469
     57          1           0        9.093405    2.159639   -1.229806
     58          6           0       -2.473928    4.424299    0.135520
     59          1           0       -1.959754    4.554195    1.098246
     60          1           0       -1.832807    4.898414   -0.618635
     61          6           0       -3.803719    5.204175    0.188996
     62          1           0       -3.556234    6.264639    0.324142
     63          1           0       -4.312521    5.136926   -0.780284
     64          6           0       -4.752723    4.757731    1.313476
     65          1           0       -4.195787    4.757844    2.262166
     66          1           0       -5.058444    3.716953    1.142677
     67          6           0       -6.034937    5.602947    1.504125
     68          1           0       -6.587322    5.128871    2.328965
     69          6           0       -5.737492    7.048610    1.935958
     70          1           0       -5.241578    7.616663    1.140508
     71          1           0       -6.664167    7.578300    2.184912
     72          1           0       -5.089863    7.075418    2.820220
     73          6           0       -6.952567    5.572575    0.270529
     74          1           0       -6.496644    6.084235   -0.584940
     75          1           0       -7.904916    6.072718    0.480555
     76          1           0       -7.176500    4.543716   -0.035174
 ---------------------------------------------------------------------
 Rotational constants (GHZ):      0.3285034      0.0567267      0.0530935
 Leave Link  202 at Fri Apr 28 12:23:15 2017, MaxMem=    33554432 cpu:         0.0
 (Enter /home/michal/g09/l301.exe)
 Standard basis: 6-31G(d) (6D, 7F)
 Ernie: Thresh=  0.10000D-02 Tol=  0.10000D-05 Strict=F.
 AO basis set in the form of general basis input (Overlap normalization):
      1 0
 S   6 1.00       0.000000000000
      0.3047524880D+04  0.1834737132D-02
      0.4573695180D+03  0.1403732281D-01
      0.1039486850D+03  0.6884262226D-01
      0.2921015530D+02  0.2321844432D+00
      0.9286662960D+01  0.4679413484D+00
      0.3163926960D+01  0.3623119853D+00
 SP   3 1.00       0.000000000000
      0.7868272350D+01 -0.1193324198D+00  0.6899906659D-01
      0.1881288540D+01 -0.1608541517D+00  0.3164239610D+00
      0.5442492580D+00  0.1143456438D+01  0.7443082909D+00
 SP   1 1.00       0.000000000000
      0.1687144782D+00  0.1000000000D+01  0.1000000000D+01
 D   1 1.00       0.000000000000
      0.8000000000D+00  0.1000000000D+01
 ****
      2 0
 S   3 1.00       0.000000000000
      0.1873113696D+02  0.3349460434D-01
      0.2825394365D+01  0.2347269535D+00
      0.6401216923D+00  0.8137573261D+00
 S   1 1.00       0.000000000000
      0.1612777588D+00  0.1000000000D+01
 ****
      3 0
 S   6 1.00       0.000000000000
      0.3047524880D+04  0.1834737132D-02
      0.4573695180D+03  0.1403732281D-01
      0.1039486850D+03  0.6884262226D-01
      0.2921015530D+02  0.2321844432D+00
      0.9286662960D+01  0.4679413484D+00
      0.3163926960D+01  0.3623119853D+00
 SP   3 1.00       0.000000000000
      0.7868272350D+01 -0.1193324198D+00  0.6899906659D-01
      0.1881288540D+01 -0.1608541517D+00  0.3164239610D+00
      0.5442492580D+00  0.1143456438D+01  0.7443082909D+00
 SP   1 1.00       0.000000000000
      0.1687144782D+00  0.1000000000D+01  0.1000000000D+01
 D   1 1.00       0.000000000000
      0.8000000000D+00  0.1000000000D+01
 ****
      4 0
 S   3 1.00       0.000000000000
      0.1873113696D+02  0.3349460434D-01
      0.2825394365D+01  0.2347269535D+00
      0.6401216923D+00  0.8137573261D+00
 S   1 1.00       0.000000000000
      0.1612777588D+00  0.1000000000D+01
 ****
      5 0
 S   3 1.00       0.000000000000
      0.1873113696D+02  0.3349460434D-01
      0.2825394365D+01  0.2347269535D+00
      0.6401216923D+00  0.8137573261D+00
 S   1 1.00       0.000000000000
      0.1612777588D+00  0.1000000000D+01
 ****
      6 0
 S   6 1.00       0.000000000000
      0.3047524880D+04  0.1834737132D-02
      0.4573695180D+03  0.1403732281D-01
      0.1039486850D+03  0.6884262226D-01
      0.2921015530D+02  0.2321844432D+00
      0.9286662960D+01  0.4679413484D+00
      0.3163926960D+01  0.3623119853D+00
 SP   3 1.00       0.000000000000
      0.7868272350D+01 -0.1193324198D+00  0.6899906659D-01
      0.1881288540D+01 -0.1608541517D+00  0.3164239610D+00
      0.5442492580D+00  0.1143456438D+01  0.7443082909D+00
 SP   1 1.00       0.000000000000
      0.1687144782D+00  0.1000000000D+01  0.1000000000D+01
 D   1 1.00       0.000000000000
      0.8000000000D+00  0.1000000000D+01
 ****
      7 0
 S   6 1.00       0.000000000000
      0.3047524880D+04  0.1834737132D-02
      0.4573695180D+03  0.1403732281D-01
      0.1039486850D+03  0.6884262226D-01
      0.2921015530D+02  0.2321844432D+00
      0.9286662960D+01  0.4679413484D+00
      0.3163926960D+01  0.3623119853D+00
 SP   3 1.00       0.000000000000
      0.7868272350D+01 -0.1193324198D+00  0.6899906659D-01
      0.1881288540D+01 -0.1608541517D+00  0.3164239610D+00
      0.5442492580D+00  0.1143456438D+01  0.7443082909D+00
 SP   1 1.00       0.000000000000
      0.1687144782D+00  0.1000000000D+01  0.1000000000D+01
 D   1 1.00       0.000000000000
      0.8000000000D+00  0.1000000000D+01
 ****
      8 0
 S   6 1.00       0.000000000000
      0.3047524880D+04  0.1834737132D-02
      0.4573695180D+03  0.1403732281D-01
      0.1039486850D+03  0.6884262226D-01
      0.2921015530D+02  0.2321844432D+00
      0.9286662960D+01  0.4679413484D+00
      0.3163926960D+01  0.3623119853D+00
 SP   3 1.00       0.000000000000
      0.7868272350D+01 -0.1193324198D+00  0.6899906659D-01
      0.1881288540D+01 -0.1608541517D+00  0.3164239610D+00
      0.5442492580D+00  0.1143456438D+01  0.7443082909D+00
 SP   1 1.00       0.000000000000
      0.1687144782D+00  0.1000000000D+01  0.1000000000D+01
 D   1 1.00       0.000000000000
      0.8000000000D+00  0.1000000000D+01
 ****
      9 0
 S   3 1.00       0.000000000000
      0.1873113696D+02  0.3349460434D-01
      0.2825394365D+01  0.2347269535D+00
      0.6401216923D+00  0.8137573261D+00
 S   1 1.00       0.000000000000
      0.1612777588D+00  0.1000000000D+01
 ****
     10 0
 S   3 1.00       0.000000000000
      0.1873113696D+02  0.3349460434D-01
      0.2825394365D+01  0.2347269535D+00
      0.6401216923D+00  0.8137573261D+00
 S   1 1.00       0.000000000000
      0.1612777588D+00  0.1000000000D+01
 ****
     11 0
 S   6 1.00       0.000000000000
      0.3047524880D+04  0.1834737132D-02
      0.4573695180D+03  0.1403732281D-01
      0.1039486850D+03  0.6884262226D-01
      0.2921015530D+02  0.2321844432D+00
      0.9286662960D+01  0.4679413484D+00
      0.3163926960D+01  0.3623119853D+00
 SP   3 1.00       0.000000000000
      0.7868272350D+01 -0.1193324198D+00  0.6899906659D-01
      0.1881288540D+01 -0.1608541517D+00  0.3164239610D+00
      0.5442492580D+00  0.1143456438D+01  0.7443082909D+00
 SP   1 1.00       0.000000000000
      0.1687144782D+00  0.1000000000D+01  0.1000000000D+01
 D   1 1.00       0.000000000000
      0.8000000000D+00  0.1000000000D+01
 ****
     12 0
 S   3 1.00       0.000000000000
      0.1873113696D+02  0.3349460434D-01
      0.2825394365D+01  0.2347269535D+00
      0.6401216923D+00  0.8137573261D+00
 S   1 1.00       0.000000000000
      0.1612777588D+00  0.1000000000D+01
 ****
     13 0
 S   3 1.00       0.000000000000
      0.1873113696D+02  0.3349460434D-01
      0.2825394365D+01  0.2347269535D+00
      0.6401216923D+00  0.8137573261D+00
 S   1 1.00       0.000000000000
      0.1612777588D+00  0.1000000000D+01
 ****
     14 0
 S   6 1.00       0.000000000000
      0.3047524880D+04  0.1834737132D-02
      0.4573695180D+03  0.1403732281D-01
      0.1039486850D+03  0.6884262226D-01
      0.2921015530D+02  0.2321844432D+00
      0.9286662960D+01  0.4679413484D+00
      0.3163926960D+01  0.3623119853D+00
 SP   3 1.00       0.000000000000
      0.7868272350D+01 -0.1193324198D+00  0.6899906659D-01
      0.1881288540D+01 -0.1608541517D+00  0.3164239610D+00
      0.5442492580D+00  0.1143456438D+01  0.7443082909D+00
 SP   1 1.00       0.000000000000
      0.1687144782D+00  0.1000000000D+01  0.1000000000D+01
 D   1 1.00       0.000000000000
      0.8000000000D+00  0.1000000000D+01
 ****
     15 0
 S   3 1.00       0.000000000000
      0.1873113696D+02  0.3349460434D-01
      0.2825394365D+01  0.2347269535D+00
      0.6401216923D+00  0.8137573261D+00
 S   1 1.00       0.000000000000
      0.1612777588D+00  0.1000000000D+01
 ****
     16 0
 S   6 1.00       0.000000000000
      0.3047524880D+04  0.1834737132D-02
      0.4573695180D+03  0.1403732281D-01
      0.1039486850D+03  0.6884262226D-01
      0.2921015530D+02  0.2321844432D+00
      0.9286662960D+01  0.4679413484D+00
      0.3163926960D+01  0.3623119853D+00
 SP   3 1.00       0.000000000000
      0.7868272350D+01 -0.1193324198D+00  0.6899906659D-01
      0.1881288540D+01 -0.1608541517D+00  0.3164239610D+00
      0.5442492580D+00  0.1143456438D+01  0.7443082909D+00
 SP   1 1.00       0.000000000000
      0.1687144782D+00  0.1000000000D+01  0.1000000000D+01
 D   1 1.00       0.000000000000
      0.8000000000D+00  0.1000000000D+01
 ****
     17 0
 S   3 1.00       0.000000000000
      0.1873113696D+02  0.3349460434D-01
      0.2825394365D+01  0.2347269535D+00
      0.6401216923D+00  0.8137573261D+00
 S   1 1.00       0.000000000000
      0.1612777588D+00  0.1000000000D+01
 ****
     18 0
 S   6 1.00       0.000000000000
      0.3047524880D+04  0.1834737132D-02
      0.4573695180D+03  0.1403732281D-01
      0.1039486850D+03  0.6884262226D-01
      0.2921015530D+02  0.2321844432D+00
      0.9286662960D+01  0.4679413484D+00
      0.3163926960D+01  0.3623119853D+00
 SP   3 1.00       0.000000000000
      0.7868272350D+01 -0.1193324198D+00  0.6899906659D-01
      0.1881288540D+01 -0.1608541517D+00  0.3164239610D+00
      0.5442492580D+00  0.1143456438D+01  0.7443082909D+00
 SP   1 1.00       0.000000000000
      0.1687144782D+00  0.1000000000D+01  0.1000000000D+01
 D   1 1.00       0.000000000000
      0.8000000000D+00  0.1000000000D+01
 ****
     19 0
 S   3 1.00       0.000000000000
      0.1873113696D+02  0.3349460434D-01
      0.2825394365D+01  0.2347269535D+00
      0.6401216923D+00  0.8137573261D+00
 S   1 1.00       0.000000000000
      0.1612777588D+00  0.1000000000D+01
 ****
     20 0
 S   6 1.00       0.000000000000
      0.3047524880D+04  0.1834737132D-02
      0.4573695180D+03  0.1403732281D-01
      0.1039486850D+03  0.6884262226D-01
      0.2921015530D+02  0.2321844432D+00
      0.9286662960D+01  0.4679413484D+00
      0.3163926960D+01  0.3623119853D+00
 SP   3 1.00       0.000000000000
      0.7868272350D+01 -0.1193324198D+00  0.6899906659D-01
      0.1881288540D+01 -0.1608541517D+00  0.3164239610D+00
      0.5442492580D+00  0.1143456438D+01  0.7443082909D+00
 SP   1 1.00       0.000000000000
      0.1687144782D+00  0.1000000000D+01  0.1000000000D+01
 D   1 1.00       0.000000000000
      0.8000000000D+00  0.1000000000D+01
 ****
     21 0
 S   3 1.00       0.000000000000
      0.1873113696D+02  0.3349460434D-01
      0.2825394365D+01  0.2347269535D+00
      0.6401216923D+00  0.8137573261D+00
 S   1 1.00       0.000000000000
      0.1612777588D+00  0.1000000000D+01
 ****
     22 0
 S   6 1.00       0.000000000000
      0.3047524880D+04  0.1834737132D-02
      0.4573695180D+03  0.1403732281D-01
      0.1039486850D+03  0.6884262226D-01
      0.2921015530D+02  0.2321844432D+00
      0.9286662960D+01  0.4679413484D+00
      0.3163926960D+01  0.3623119853D+00
 SP   3 1.00       0.000000000000
      0.7868272350D+01 -0.1193324198D+00  0.6899906659D-01
      0.1881288540D+01 -0.1608541517D+00  0.3164239610D+00
      0.5442492580D+00  0.1143456438D+01  0.7443082909D+00
 SP   1 1.00       0.000000000000
      0.1687144782D+00  0.1000000000D+01  0.1000000000D+01
 D   1 1.00       0.000000000000
      0.8000000000D+00  0.1000000000D+01
 ****
     23 0
 S   3 1.00       0.000000000000
      0.1873113696D+02  0.3349460434D-01
      0.2825394365D+01  0.2347269535D+00
      0.6401216923D+00  0.8137573261D+00
 S   1 1.00       0.000000000000
      0.1612777588D+00  0.1000000000D+01
 ****
     24 0
 S   3 1.00       0.000000000000
      0.1873113696D+02  0.3349460434D-01
      0.2825394365D+01  0.2347269535D+00
      0.6401216923D+00  0.8137573261D+00
 S   1 1.00       0.000000000000
      0.1612777588D+00  0.1000000000D+01
 ****
     25 0
 S   6 1.00       0.000000000000
      0.3047524880D+04  0.1834737132D-02
      0.4573695180D+03  0.1403732281D-01
      0.1039486850D+03  0.6884262226D-01
      0.2921015530D+02  0.2321844432D+00
      0.9286662960D+01  0.4679413484D+00
      0.3163926960D+01  0.3623119853D+00
 SP   3 1.00       0.000000000000
      0.7868272350D+01 -0.1193324198D+00  0.6899906659D-01
      0.1881288540D+01 -0.1608541517D+00  0.3164239610D+00
      0.5442492580D+00  0.1143456438D+01  0.7443082909D+00
 SP   1 1.00       0.000000000000
      0.1687144782D+00  0.1000000000D+01  0.1000000000D+01
 D   1 1.00       0.000000000000
      0.8000000000D+00  0.1000000000D+01
 ****
     26 0
 S   3 1.00       0.000000000000
      0.1873113696D+02  0.3349460434D-01
      0.2825394365D+01  0.2347269535D+00
      0.6401216923D+00  0.8137573261D+00
 S   1 1.00       0.000000000000
      0.1612777588D+00  0.1000000000D+01
 ****
     27 0
 S   3 1.00       0.000000000000
      0.1873113696D+02  0.3349460434D-01
      0.2825394365D+01  0.2347269535D+00
      0.6401216923D+00  0.8137573261D+00
 S   1 1.00       0.000000000000
      0.1612777588D+00  0.1000000000D+01
 ****
     28 0
 S   6 1.00       0.000000000000
      0.3047524880D+04  0.1834737132D-02
      0.4573695180D+03  0.1403732281D-01
      0.1039486850D+03  0.6884262226D-01
      0.2921015530D+02  0.2321844432D+00
      0.9286662960D+01  0.4679413484D+00
      0.3163926960D+01  0.3623119853D+00
 SP   3 1.00       0.000000000000
      0.7868272350D+01 -0.1193324198D+00  0.6899906659D-01
      0.1881288540D+01 -0.1608541517D+00  0.3164239610D+00
      0.5442492580D+00  0.1143456438D+01  0.7443082909D+00
 SP   1 1.00       0.000000000000
      0.1687144782D+00  0.1000000000D+01  0.1000000000D+01
 D   1 1.00       0.000000000000
      0.8000000000D+00  0.1000000000D+01
 ****
     29 0
 S   6 1.00       0.000000000000
      0.3047524880D+04  0.1834737132D-02
      0.4573695180D+03  0.1403732281D-01
      0.1039486850D+03  0.6884262226D-01
      0.2921015530D+02  0.2321844432D+00
      0.9286662960D+01  0.4679413484D+00
      0.3163926960D+01  0.3623119853D+00
 SP   3 1.00       0.000000000000
      0.7868272350D+01 -0.1193324198D+00  0.6899906659D-01
      0.1881288540D+01 -0.1608541517D+00  0.3164239610D+00
      0.5442492580D+00  0.1143456438D+01  0.7443082909D+00
 SP   1 1.00       0.000000000000
      0.1687144782D+00  0.1000000000D+01  0.1000000000D+01
 D   1 1.00       0.000000000000
      0.8000000000D+00  0.1000000000D+01
 ****
     30 0
 S   3 1.00       0.000000000000
      0.1873113696D+02  0.3349460434D-01
      0.2825394365D+01  0.2347269535D+00
      0.6401216923D+00  0.8137573261D+00
 S   1 1.00       0.000000000000
      0.1612777588D+00  0.1000000000D+01
 ****
     31 0
 S   6 1.00       0.000000000000
      0.3047524880D+04  0.1834737132D-02
      0.4573695180D+03  0.1403732281D-01
      0.1039486850D+03  0.6884262226D-01
      0.2921015530D+02  0.2321844432D+00
      0.9286662960D+01  0.4679413484D+00
      0.3163926960D+01  0.3623119853D+00
 SP   3 1.00       0.000000000000
      0.7868272350D+01 -0.1193324198D+00  0.6899906659D-01
      0.1881288540D+01 -0.1608541517D+00  0.3164239610D+00
      0.5442492580D+00  0.1143456438D+01  0.7443082909D+00
 SP   1 1.00       0.000000000000
      0.1687144782D+00  0.1000000000D+01  0.1000000000D+01
 D   1 1.00       0.000000000000
      0.8000000000D+00  0.1000000000D+01
 ****
     32 0
 S   3 1.00       0.000000000000
      0.1873113696D+02  0.3349460434D-01
      0.2825394365D+01  0.2347269535D+00
      0.6401216923D+00  0.8137573261D+00
 S   1 1.00       0.000000000000
      0.1612777588D+00  0.1000000000D+01
 ****
     33 0
 S   3 1.00       0.000000000000
      0.1873113696D+02  0.3349460434D-01
      0.2825394365D+01  0.2347269535D+00
      0.6401216923D+00  0.8137573261D+00
 S   1 1.00       0.000000000000
      0.1612777588D+00  0.1000000000D+01
 ****
     34 0
 S   6 1.00       0.000000000000
      0.3047524880D+04  0.1834737132D-02
      0.4573695180D+03  0.1403732281D-01
      0.1039486850D+03  0.6884262226D-01
      0.2921015530D+02  0.2321844432D+00
      0.9286662960D+01  0.4679413484D+00
      0.3163926960D+01  0.3623119853D+00
 SP   3 1.00       0.000000000000
      0.7868272350D+01 -0.1193324198D+00  0.6899906659D-01
      0.1881288540D+01 -0.1608541517D+00  0.3164239610D+00
      0.5442492580D+00  0.1143456438D+01  0.7443082909D+00
 SP   1 1.00       0.000000000000
      0.1687144782D+00  0.1000000000D+01  0.1000000000D+01
 D   1 1.00       0.000000000000
      0.8000000000D+00  0.1000000000D+01
 ****
     35 0
 S   3 1.00       0.000000000000
      0.1873113696D+02  0.3349460434D-01
      0.2825394365D+01  0.2347269535D+00
      0.6401216923D+00  0.8137573261D+00
 S   1 1.00       0.000000000000
      0.1612777588D+00  0.1000000000D+01
 ****
     36 0
 S   3 1.00       0.000000000000
      0.1873113696D+02  0.3349460434D-01
      0.2825394365D+01  0.2347269535D+00
      0.6401216923D+00  0.8137573261D+00
 S   1 1.00       0.000000000000
      0.1612777588D+00  0.1000000000D+01
 ****
     37 0
 S   6 1.00       0.000000000000
      0.3047524880D+04  0.1834737132D-02
      0.4573695180D+03  0.1403732281D-01
      0.1039486850D+03  0.6884262226D-01
      0.2921015530D+02  0.2321844432D+00
      0.9286662960D+01  0.4679413484D+00
      0.3163926960D+01  0.3623119853D+00
 SP   3 1.00       0.000000000000
      0.7868272350D+01 -0.1193324198D+00  0.6899906659D-01
      0.1881288540D+01 -0.1608541517D+00  0.3164239610D+00
      0.5442492580D+00  0.1143456438D+01  0.7443082909D+00
 SP   1 1.00       0.000000000000
      0.1687144782D+00  0.1000000000D+01  0.1000000000D+01
 D   1 1.00       0.000000000000
      0.8000000000D+00  0.1000000000D+01
 ****
     38 0
 S   3 1.00       0.000000000000
      0.1873113696D+02  0.3349460434D-01
      0.2825394365D+01  0.2347269535D+00
      0.6401216923D+00  0.8137573261D+00
 S   1 1.00       0.000000000000
      0.1612777588D+00  0.1000000000D+01
 ****
     39 0
 S   6 1.00       0.000000000000
      0.3047524880D+04  0.1834737132D-02
      0.4573695180D+03  0.1403732281D-01
      0.1039486850D+03  0.6884262226D-01
      0.2921015530D+02  0.2321844432D+00
      0.9286662960D+01  0.4679413484D+00
      0.3163926960D+01  0.3623119853D+00
 SP   3 1.00       0.000000000000
      0.7868272350D+01 -0.1193324198D+00  0.6899906659D-01
      0.1881288540D+01 -0.1608541517D+00  0.3164239610D+00
      0.5442492580D+00  0.1143456438D+01  0.7443082909D+00
 SP   1 1.00       0.000000000000
      0.1687144782D+00  0.1000000000D+01  0.1000000000D+01
 D   1 1.00       0.000000000000
      0.8000000000D+00  0.1000000000D+01
 ****
     40 0
 S   3 1.00       0.000000000000
      0.1873113696D+02  0.3349460434D-01
      0.2825394365D+01  0.2347269535D+00
      0.6401216923D+00  0.8137573261D+00
 S   1 1.00       0.000000000000
      0.1612777588D+00  0.1000000000D+01
 ****
     41 0
 S   3 1.00       0.000000000000
      0.1873113696D+02  0.3349460434D-01
      0.2825394365D+01  0.2347269535D+00
      0.6401216923D+00  0.8137573261D+00
 S   1 1.00       0.000000000000
      0.1612777588D+00  0.1000000000D+01
 ****
     42 0
 S   3 1.00       0.000000000000
      0.1873113696D+02  0.3349460434D-01
      0.2825394365D+01  0.2347269535D+00
      0.6401216923D+00  0.8137573261D+00
 S   1 1.00       0.000000000000
      0.1612777588D+00  0.1000000000D+01
 ****
     43 0
 S   6 1.00       0.000000000000
      0.3047524880D+04  0.1834737132D-02
      0.4573695180D+03  0.1403732281D-01
      0.1039486850D+03  0.6884262226D-01
      0.2921015530D+02  0.2321844432D+00
      0.9286662960D+01  0.4679413484D+00
      0.3163926960D+01  0.3623119853D+00
 SP   3 1.00       0.000000000000
      0.7868272350D+01 -0.1193324198D+00  0.6899906659D-01
      0.1881288540D+01 -0.1608541517D+00  0.3164239610D+00
      0.5442492580D+00  0.1143456438D+01  0.7443082909D+00
 SP   1 1.00       0.000000000000
      0.1687144782D+00  0.1000000000D+01  0.1000000000D+01
 D   1 1.00       0.000000000000
      0.8000000000D+00  0.1000000000D+01
 ****
     44 0
 S   3 1.00       0.000000000000
      0.1873113696D+02  0.3349460434D-01
      0.2825394365D+01  0.2347269535D+00
      0.6401216923D+00  0.8137573261D+00
 S   1 1.00       0.000000000000
      0.1612777588D+00  0.1000000000D+01
 ****
     45 0
 S   6 1.00       0.000000000000
      0.3047524880D+04  0.1834737132D-02
      0.4573695180D+03  0.1403732281D-01
      0.1039486850D+03  0.6884262226D-01
      0.2921015530D+02  0.2321844432D+00
      0.9286662960D+01  0.4679413484D+00
      0.3163926960D+01  0.3623119853D+00
 SP   3 1.00       0.000000000000
      0.7868272350D+01 -0.1193324198D+00  0.6899906659D-01
      0.1881288540D+01 -0.1608541517D+00  0.3164239610D+00
      0.5442492580D+00  0.1143456438D+01  0.7443082909D+00
 SP   1 1.00       0.000000000000
      0.1687144782D+00  0.1000000000D+01  0.1000000000D+01
 D   1 1.00       0.000000000000
      0.8000000000D+00  0.1000000000D+01
 ****
     46 0
 S   3 1.00       0.000000000000
      0.1873113696D+02  0.3349460434D-01
      0.2825394365D+01  0.2347269535D+00
      0.6401216923D+00  0.8137573261D+00
 S   1 1.00       0.000000000000
      0.1612777588D+00  0.1000000000D+01
 ****
     47 0
 S   3 1.00       0.000000000000
      0.1873113696D+02  0.3349460434D-01
      0.2825394365D+01  0.2347269535D+00
      0.6401216923D+00  0.8137573261D+00
 S   1 1.00       0.000000000000
      0.1612777588D+00  0.1000000000D+01
 ****
     48 0
 S   3 1.00       0.000000000000
      0.1873113696D+02  0.3349460434D-01
      0.2825394365D+01  0.2347269535D+00
      0.6401216923D+00  0.8137573261D+00
 S   1 1.00       0.000000000000
      0.1612777588D+00  0.1000000000D+01
 ****
     49 0
 S   6 1.00       0.000000000000
      0.3047524880D+04  0.1834737132D-02
      0.4573695180D+03  0.1403732281D-01
      0.1039486850D+03  0.6884262226D-01
      0.2921015530D+02  0.2321844432D+00
      0.9286662960D+01  0.4679413484D+00
      0.3163926960D+01  0.3623119853D+00
 SP   3 1.00       0.000000000000
      0.7868272350D+01 -0.1193324198D+00  0.6899906659D-01
      0.1881288540D+01 -0.1608541517D+00  0.3164239610D+00
      0.5442492580D+00  0.1143456438D+01  0.7443082909D+00
 SP   1 1.00       0.000000000000
      0.1687144782D+00  0.1000000000D+01  0.1000000000D+01
 D   1 1.00       0.000000000000
      0.8000000000D+00  0.1000000000D+01
 ****
     50 0
 S   3 1.00       0.000000000000
      0.1873113696D+02  0.3349460434D-01
      0.2825394365D+01  0.2347269535D+00
      0.6401216923D+00  0.8137573261D+00
 S   1 1.00       0.000000000000
      0.1612777588D+00  0.1000000000D+01
 ****
     51 0
 S   3 1.00       0.000000000000
      0.1873113696D+02  0.3349460434D-01
      0.2825394365D+01  0.2347269535D+00
      0.6401216923D+00  0.8137573261D+00
 S   1 1.00       0.000000000000
      0.1612777588D+00  0.1000000000D+01
 ****
     52 0
 S   3 1.00       0.000000000000
      0.1873113696D+02  0.3349460434D-01
      0.2825394365D+01  0.2347269535D+00
      0.6401216923D+00  0.8137573261D+00
 S   1 1.00       0.000000000000
      0.1612777588D+00  0.1000000000D+01
 ****
     53 0
 S   6 1.00       0.000000000000
      0.5484671660D+04  0.1831074430D-02
      0.8252349460D+03  0.1395017220D-01
      0.1880469580D+03  0.6844507810D-01
      0.5296450000D+02  0.2327143360D+00
      0.1689757040D+02  0.4701928980D+00
      0.5799635340D+01  0.3585208530D+00
 SP   3 1.00       0.000000000000
      0.1553961625D+02 -0.1107775495D+00  0.7087426823D-01
      0.3599933586D+01 -0.1480262627D+00  0.3397528391D+00
      0.1013761750D+01  0.1130767015D+01  0.7271585773D+00
 SP   1 1.00       0.000000000000
      0.2700058226D+00  0.1000000000D+01  0.1000000000D+01
 D   1 1.00       0.000000000000
      0.8000000000D+00  0.1000000000D+01
 ****
     54 0
 S   6 1.00       0.000000000000
      0.5484671660D+04  0.1831074430D-02
      0.8252349460D+03  0.1395017220D-01
      0.1880469580D+03  0.6844507810D-01
      0.5296450000D+02  0.2327143360D+00
      0.1689757040D+02  0.4701928980D+00
      0.5799635340D+01  0.3585208530D+00
 SP   3 1.00       0.000000000000
      0.1553961625D+02 -0.1107775495D+00  0.7087426823D-01
      0.3599933586D+01 -0.1480262627D+00  0.3397528391D+00
      0.1013761750D+01  0.1130767015D+01  0.7271585773D+00
 SP   1 1.00       0.000000000000
      0.2700058226D+00  0.1000000000D+01  0.1000000000D+01
 D   1 1.00       0.000000000000
      0.8000000000D+00  0.1000000000D+01
 ****
     55 0
 S   3 1.00       0.000000000000
      0.1873113696D+02  0.3349460434D-01
      0.2825394365D+01  0.2347269535D+00
      0.6401216923D+00  0.8137573261D+00
 S   1 1.00       0.000000000000
      0.1612777588D+00  0.1000000000D+01
 ****
     56 0
 S   6 1.00       0.000000000000
      0.5484671660D+04  0.1831074430D-02
      0.8252349460D+03  0.1395017220D-01
      0.1880469580D+03  0.6844507810D-01
      0.5296450000D+02  0.2327143360D+00
      0.1689757040D+02  0.4701928980D+00
      0.5799635340D+01  0.3585208530D+00
 SP   3 1.00       0.000000000000
      0.1553961625D+02 -0.1107775495D+00  0.7087426823D-01
      0.3599933586D+01 -0.1480262627D+00  0.3397528391D+00
      0.1013761750D+01  0.1130767015D+01  0.7271585773D+00
 SP   1 1.00       0.000000000000
      0.2700058226D+00  0.1000000000D+01  0.1000000000D+01
 D   1 1.00       0.000000000000
      0.8000000000D+00  0.1000000000D+01
 ****
     57 0
 S   3 1.00       0.000000000000
      0.1873113696D+02  0.3349460434D-01
      0.2825394365D+01  0.2347269535D+00
      0.6401216923D+00  0.8137573261D+00
 S   1 1.00       0.000000000000
      0.1612777588D+00  0.1000000000D+01
 ****
     58 0
 S   6 1.00       0.000000000000
      0.3047524880D+04  0.1834737132D-02
      0.4573695180D+03  0.1403732281D-01
      0.1039486850D+03  0.6884262226D-01
      0.2921015530D+02  0.2321844432D+00
      0.9286662960D+01  0.4679413484D+00
      0.3163926960D+01  0.3623119853D+00
 SP   3 1.00       0.000000000000
      0.7868272350D+01 -0.1193324198D+00  0.6899906659D-01
      0.1881288540D+01 -0.1608541517D+00  0.3164239610D+00
      0.5442492580D+00  0.1143456438D+01  0.7443082909D+00
 SP   1 1.00       0.000000000000
      0.1687144782D+00  0.1000000000D+01  0.1000000000D+01
 D   1 1.00       0.000000000000
      0.8000000000D+00  0.1000000000D+01
 ****
     59 0
 S   3 1.00       0.000000000000
      0.1873113696D+02  0.3349460434D-01
      0.2825394365D+01  0.2347269535D+00
      0.6401216923D+00  0.8137573261D+00
 S   1 1.00       0.000000000000
      0.1612777588D+00  0.1000000000D+01
 ****
     60 0
 S   3 1.00       0.000000000000
      0.1873113696D+02  0.3349460434D-01
      0.2825394365D+01  0.2347269535D+00
      0.6401216923D+00  0.8137573261D+00
 S   1 1.00       0.000000000000
      0.1612777588D+00  0.1000000000D+01
 ****
     61 0
 S   6 1.00       0.000000000000
      0.3047524880D+04  0.1834737132D-02
      0.4573695180D+03  0.1403732281D-01
      0.1039486850D+03  0.6884262226D-01
      0.2921015530D+02  0.2321844432D+00
      0.9286662960D+01  0.4679413484D+00
      0.3163926960D+01  0.3623119853D+00
 SP   3 1.00       0.000000000000
      0.7868272350D+01 -0.1193324198D+00  0.6899906659D-01
      0.1881288540D+01 -0.1608541517D+00  0.3164239610D+00
      0.5442492580D+00  0.1143456438D+01  0.7443082909D+00
 SP   1 1.00       0.000000000000
      0.1687144782D+00  0.1000000000D+01  0.1000000000D+01
 D   1 1.00       0.000000000000
      0.8000000000D+00  0.1000000000D+01
 ****
     62 0
 S   3 1.00       0.000000000000
      0.1873113696D+02  0.3349460434D-01
      0.2825394365D+01  0.2347269535D+00
      0.6401216923D+00  0.8137573261D+00
 S   1 1.00       0.000000000000
      0.1612777588D+00  0.1000000000D+01
 ****
     63 0
 S   3 1.00       0.000000000000
      0.1873113696D+02  0.3349460434D-01
      0.2825394365D+01  0.2347269535D+00
      0.6401216923D+00  0.8137573261D+00
 S   1 1.00       0.000000000000
      0.1612777588D+00  0.1000000000D+01
 ****
     64 0
 S   6 1.00       0.000000000000
      0.3047524880D+04  0.1834737132D-02
      0.4573695180D+03  0.1403732281D-01
      0.1039486850D+03  0.6884262226D-01
      0.2921015530D+02  0.2321844432D+00
      0.9286662960D+01  0.4679413484D+00
      0.3163926960D+01  0.3623119853D+00
 SP   3 1.00       0.000000000000
      0.7868272350D+01 -0.1193324198D+00  0.6899906659D-01
      0.1881288540D+01 -0.1608541517D+00  0.3164239610D+00
      0.5442492580D+00  0.1143456438D+01  0.7443082909D+00
 SP   1 1.00       0.000000000000
      0.1687144782D+00  0.1000000000D+01  0.1000000000D+01
 D   1 1.00       0.000000000000
      0.8000000000D+00  0.1000000000D+01
 ****
     65 0
 S   3 1.00       0.000000000000
      0.1873113696D+02  0.3349460434D-01
      0.2825394365D+01  0.2347269535D+00
      0.6401216923D+00  0.8137573261D+00
 S   1 1.00       0.000000000000
      0.1612777588D+00  0.1000000000D+01
 ****
     66 0
 S   3 1.00       0.000000000000
      0.1873113696D+02  0.3349460434D-01
      0.2825394365D+01  0.2347269535D+00
      0.6401216923D+00  0.8137573261D+00
 S   1 1.00       0.000000000000
      0.1612777588D+00  0.1000000000D+01
 ****
     67 0
 S   6 1.00       0.000000000000
      0.3047524880D+04  0.1834737132D-02
      0.4573695180D+03  0.1403732281D-01
      0.1039486850D+03  0.6884262226D-01
      0.2921015530D+02  0.2321844432D+00
      0.9286662960D+01  0.4679413484D+00
      0.3163926960D+01  0.3623119853D+00
 SP   3 1.00       0.000000000000
      0.7868272350D+01 -0.1193324198D+00  0.6899906659D-01
      0.1881288540D+01 -0.1608541517D+00  0.3164239610D+00
      0.5442492580D+00  0.1143456438D+01  0.7443082909D+00
 SP   1 1.00       0.000000000000
      0.1687144782D+00  0.1000000000D+01  0.1000000000D+01
 D   1 1.00       0.000000000000
      0.8000000000D+00  0.1000000000D+01
 ****
     68 0
 S   3 1.00       0.000000000000
      0.1873113696D+02  0.3349460434D-01
      0.2825394365D+01  0.2347269535D+00
      0.6401216923D+00  0.8137573261D+00
 S   1 1.00       0.000000000000
      0.1612777588D+00  0.1000000000D+01
 ****
     69 0
 S   6 1.00       0.000000000000
      0.3047524880D+04  0.1834737132D-02
      0.4573695180D+03  0.1403732281D-01
      0.1039486850D+03  0.6884262226D-01
      0.2921015530D+02  0.2321844432D+00
      0.9286662960D+01  0.4679413484D+00
      0.3163926960D+01  0.3623119853D+00
 SP   3 1.00       0.000000000000
      0.7868272350D+01 -0.1193324198D+00  0.6899906659D-01
      0.1881288540D+01 -0.1608541517D+00  0.3164239610D+00
      0.5442492580D+00  0.1143456438D+01  0.7443082909D+00
 SP   1 1.00       0.000000000000
      0.1687144782D+00  0.1000000000D+01  0.1000000000D+01
 D   1 1.00       0.000000000000
      0.8000000000D+00  0.1000000000D+01
 ****
     70 0
 S   3 1.00       0.000000000000
      0.1873113696D+02  0.3349460434D-01
      0.2825394365D+01  0.2347269535D+00
      0.6401216923D+00  0.8137573261D+00
 S   1 1.00       0.000000000000
      0.1612777588D+00  0.1000000000D+01
 ****
     71 0
 S   3 1.00       0.000000000000
      0.1873113696D+02  0.3349460434D-01
      0.2825394365D+01  0.2347269535D+00
      0.6401216923D+00  0.8137573261D+00
 S   1 1.00       0.000000000000
      0.1612777588D+00  0.1000000000D+01
 ****
     72 0
 S   3 1.00       0.000000000000
      0.1873113696D+02  0.3349460434D-01
      0.2825394365D+01  0.2347269535D+00
      0.6401216923D+00  0.8137573261D+00
 S   1 1.00       0.000000000000
      0.1612777588D+00  0.1000000000D+01
 ****
     73 0
 S   6 1.00       0.000000000000
      0.3047524880D+04  0.1834737132D-02
      0.4573695180D+03  0.1403732281D-01
      0.1039486850D+03  0.6884262226D-01
      0.2921015530D+02  0.2321844432D+00
      0.9286662960D+01  0.4679413484D+00
      0.3163926960D+01  0.3623119853D+00
 SP   3 1.00       0.000000000000
      0.7868272350D+01 -0.1193324198D+00  0.6899906659D-01
      0.1881288540D+01 -0.1608541517D+00  0.3164239610D+00
      0.5442492580D+00  0.1143456438D+01  0.7443082909D+00
 SP   1 1.00       0.000000000000
      0.1687144782D+00  0.1000000000D+01  0.1000000000D+01
 D   1 1.00       0.000000000000
      0.8000000000D+00  0.1000000000D+01
 ****
     74 0
 S   3 1.00       0.000000000000
      0.1873113696D+02  0.3349460434D-01
      0.2825394365D+01  0.2347269535D+00
      0.6401216923D+00  0.8137573261D+00
 S   1 1.00       0.000000000000
      0.1612777588D+00  0.1000000000D+01
 ****
     75 0
 S   3 1.00       0.000000000000
      0.1873113696D+02  0.3349460434D-01
      0.2825394365D+01  0.2347269535D+00
      0.6401216923D+00  0.8137573261D+00
 S   1 1.00       0.000000000000
      0.1612777588D+00  0.1000000000D+01
 ****
     76 0
 S   3 1.00       0.000000000000
      0.1873113696D+02  0.3349460434D-01
      0.2825394365D+01  0.2347269535D+00
      0.6401216923D+00  0.8137573261D+00
 S   1 1.00       0.000000000000
      0.1612777588D+00  0.1000000000D+01
 ****

 AO basis set (Overlap normalization):
 Atom C1       Shell     1 S   6     bf    1 -     1         14.202928108008          4.065121938512         -0.104812261563
      0.3047524880D+04  0.1834737132D-02
      0.4573695180D+03  0.1403732281D-01
      0.1039486850D+03  0.6884262226D-01
      0.2921015530D+02  0.2321844432D+00
      0.9286662960D+01  0.4679413484D+00
      0.3163926960D+01  0.3623119853D+00
 Atom C1       Shell     2 SP   3    bf    2 -     5         14.202928108008          4.065121938512         -0.104812261563
      0.7868272350D+01 -0.1193324198D+00  0.6899906659D-01
      0.1881288540D+01 -0.1608541517D+00  0.3164239610D+00
      0.5442492580D+00  0.1143456438D+01  0.7443082909D+00
 Atom C1       Shell     3 SP   1    bf    6 -     9         14.202928108008          4.065121938512         -0.104812261563
      0.1687144782D+00  0.1000000000D+01  0.1000000000D+01
 Atom C1       Shell     4 D   1     bf   10 -    15         14.202928108008          4.065121938512         -0.104812261563
      0.8000000000D+00  0.1000000000D+01
 Atom H2       Shell     5 S   3     bf   16 -    16         14.010625324842          3.909154336998          1.953229359129
      0.1873113696D+02  0.3349460434D-01
      0.2825394365D+01  0.2347269535D+00
      0.6401216923D+00  0.8137573261D+00
 Atom H2       Shell     6 S   1     bf   17 -    17         14.010625324842          3.909154336998          1.953229359129
      0.1612777588D+00  0.1000000000D+01
 Atom C3       Shell     7 S   6     bf   18 -    18         12.779646213448          1.861083119252         -1.350696644522
      0.3047524880D+04  0.1834737132D-02
      0.4573695180D+03  0.1403732281D-01
      0.1039486850D+03  0.6884262226D-01
      0.2921015530D+02  0.2321844432D+00
      0.9286662960D+01  0.4679413484D+00
      0.3163926960D+01  0.3623119853D+00
 Atom C3       Shell     8 SP   3    bf   19 -    22         12.779646213448          1.861083119252         -1.350696644522
      0.7868272350D+01 -0.1193324198D+00  0.6899906659D-01
      0.1881288540D+01 -0.1608541517D+00  0.3164239610D+00
      0.5442492580D+00  0.1143456438D+01  0.7443082909D+00
 Atom C3       Shell     9 SP   1    bf   23 -    26         12.779646213448          1.861083119252         -1.350696644522
      0.1687144782D+00  0.1000000000D+01  0.1000000000D+01
 Atom C3       Shell    10 D   1     bf   27 -    32         12.779646213448          1.861083119252         -1.350696644522
      0.8000000000D+00  0.1000000000D+01
 Atom H4       Shell    11 S   3     bf   33 -    33         13.518327913367          0.064733740312         -0.640124072808
      0.1873113696D+02  0.3349460434D-01
      0.2825394365D+01  0.2347269535D+00
      0.6401216923D+00  0.8137573261D+00
 Atom H4       Shell    12 S   1     bf   34 -    34         13.518327913367          0.064733740312         -0.640124072808
      0.1612777588D+00  0.1000000000D+01
 Atom H5       Shell    13 S   3     bf   35 -    35         13.196205763673          1.911594818483         -3.389313940370
      0.1873113696D+02  0.3349460434D-01
      0.2825394365D+01  0.2347269535D+00
      0.6401216923D+00  0.8137573261D+00
 Atom H5       Shell    14 S   1     bf   36 -    36         13.196205763673          1.911594818483         -3.389313940370
      0.1612777588D+00  0.1000000000D+01
 Atom C6       Shell    15 S   6     bf   37 -    37          9.947322172143          2.007624521152         -0.924814640646
      0.3047524880D+04  0.1834737132D-02
      0.4573695180D+03  0.1403732281D-01
      0.1039486850D+03  0.6884262226D-01
      0.2921015530D+02  0.2321844432D+00
      0.9286662960D+01  0.4679413484D+00
      0.3163926960D+01  0.3623119853D+00
 Atom C6       Shell    16 SP   3    bf   38 -    41          9.947322172143          2.007624521152         -0.924814640646
      0.7868272350D+01 -0.1193324198D+00  0.6899906659D-01
      0.1881288540D+01 -0.1608541517D+00  0.3164239610D+00
      0.5442492580D+00  0.1143456438D+01  0.7443082909D+00
 Atom C6       Shell    17 SP   1    bf   42 -    45          9.947322172143          2.007624521152         -0.924814640646
      0.1687144782D+00  0.1000000000D+01  0.1000000000D+01
 Atom C6       Shell    18 D   1     bf   46 -    51          9.947322172143          2.007624521152         -0.924814640646
      0.8000000000D+00  0.1000000000D+01
 Atom C7       Shell    19 S   6     bf   52 -    52          8.656778836349          4.512153738371         -1.605649896117
      0.3047524880D+04  0.1834737132D-02
      0.4573695180D+03  0.1403732281D-01
      0.1039486850D+03  0.6884262226D-01
      0.2921015530D+02  0.2321844432D+00
      0.9286662960D+01  0.4679413484D+00
      0.3163926960D+01  0.3623119853D+00
 Atom C7       Shell    20 SP   3    bf   53 -    56          8.656778836349          4.512153738371         -1.605649896117
      0.7868272350D+01 -0.1193324198D+00  0.6899906659D-01
      0.1881288540D+01 -0.1608541517D+00  0.3164239610D+00
      0.5442492580D+00  0.1143456438D+01  0.7443082909D+00
 Atom C7       Shell    21 SP   1    bf   57 -    60          8.656778836349          4.512153738371         -1.605649896117
      0.1687144782D+00  0.1000000000D+01  0.1000000000D+01
 Atom C7       Shell    22 D   1     bf   61 -    66          8.656778836349          4.512153738371         -1.605649896117
      0.8000000000D+00  0.1000000000D+01
 Atom C8       Shell    23 S   6     bf   67 -    67         10.236600503702          6.706527194276         -0.430398468231
      0.3047524880D+04  0.1834737132D-02
      0.4573695180D+03  0.1403732281D-01
      0.1039486850D+03  0.6884262226D-01
      0.2921015530D+02  0.2321844432D+00
      0.9286662960D+01  0.4679413484D+00
      0.3163926960D+01  0.3623119853D+00
 Atom C8       Shell    24 SP   3    bf   68 -    71         10.236600503702          6.706527194276         -0.430398468231
      0.7868272350D+01 -0.1193324198D+00  0.6899906659D-01
      0.1881288540D+01 -0.1608541517D+00  0.3164239610D+00
      0.5442492580D+00  0.1143456438D+01  0.7443082909D+00
 Atom C8       Shell    25 SP   1    bf   72 -    75         10.236600503702          6.706527194276         -0.430398468231
      0.1687144782D+00  0.1000000000D+01  0.1000000000D+01
 Atom C8       Shell    26 D   1     bf   76 -    81         10.236600503702          6.706527194276         -0.430398468231
      0.8000000000D+00  0.1000000000D+01
 Atom H9       Shell    27 S   3     bf   82 -    82          9.957262963081          6.674998908989          1.626376298959
      0.1873113696D+02  0.3349460434D-01
      0.2825394365D+01  0.2347269535D+00
      0.6401216923D+00  0.8137573261D+00
 Atom H9       Shell    28 S   1     bf   83 -    83          9.957262963081          6.674998908989          1.626376298959
      0.1612777588D+00  0.1000000000D+01
 Atom H10      Shell    29 S   3     bf   84 -    84          9.491951899031          8.519483448678         -1.096099833070
      0.1873113696D+02  0.3349460434D-01
      0.2825394365D+01  0.2347269535D+00
      0.6401216923D+00  0.8137573261D+00
 Atom H10      Shell    30 S   1     bf   85 -    85          9.491951899031          8.519483448678         -1.096099833070
      0.1612777588D+00  0.1000000000D+01
 Atom C11      Shell    31 S   6     bf   86 -    86         13.087331441301          6.585888022816         -0.968442672286
      0.3047524880D+04  0.1834737132D-02
      0.4573695180D+03  0.1403732281D-01
      0.1039486850D+03  0.6884262226D-01
      0.2921015530D+02  0.2321844432D+00
      0.9286662960D+01  0.4679413484D+00
      0.3163926960D+01  0.3623119853D+00
 Atom C11      Shell    32 SP   3    bf   87 -    90         13.087331441301          6.585888022816         -0.968442672286
      0.7868272350D+01 -0.1193324198D+00  0.6899906659D-01
      0.1881288540D+01 -0.1608541517D+00  0.3164239610D+00
      0.5442492580D+00  0.1143456438D+01  0.7443082909D+00
 Atom C11      Shell    33 SP   1    bf   91 -    94         13.087331441301          6.585888022816         -0.968442672286
      0.1687144782D+00  0.1000000000D+01  0.1000000000D+01
 Atom C11      Shell    34 D   1     bf   95 -   100         13.087331441301          6.585888022816         -0.968442672286
      0.8000000000D+00  0.1000000000D+01
 Atom H12      Shell    35 S   3     bf  101 -   101         13.455440284309          6.830088676023         -2.999804610311
      0.1873113696D+02  0.3349460434D-01
      0.2825394365D+01  0.2347269535D+00
      0.6401216923D+00  0.8137573261D+00
 Atom H12      Shell    36 S   1     bf  102 -   102         13.455440284309          6.830088676023         -2.999804610311
      0.1612777588D+00  0.1000000000D+01
 Atom H13      Shell    37 S   3     bf  103 -   103         14.057494633643          8.138186962879          0.000000000000
      0.1873113696D+02  0.3349460434D-01
      0.2825394365D+01  0.2347269535D+00
      0.6401216923D+00  0.8137573261D+00
 Atom H13      Shell    38 S   1     bf  104 -   104         14.057494633643          8.138186962879          0.000000000000
      0.1612777588D+00  0.1000000000D+01
 Atom C14      Shell    39 S   6     bf  105 -   105          8.703926860857          0.000000000000          0.000000000000
      0.3047524880D+04  0.1834737132D-02
      0.4573695180D+03  0.1403732281D-01
      0.1039486850D+03  0.6884262226D-01
      0.2921015530D+02  0.2321844432D+00
      0.9286662960D+01  0.4679413484D+00
      0.3163926960D+01  0.3623119853D+00
 Atom C14      Shell    40 SP   3    bf  106 -   109          8.703926860857          0.000000000000          0.000000000000
      0.7868272350D+01 -0.1193324198D+00  0.6899906659D-01
      0.1881288540D+01 -0.1608541517D+00  0.3164239610D+00
      0.5442492580D+00  0.1143456438D+01  0.7443082909D+00
 Atom C14      Shell    41 SP   1    bf  110 -   113          8.703926860857          0.000000000000          0.000000000000
      0.1687144782D+00  0.1000000000D+01  0.1000000000D+01
 Atom C14      Shell    42 D   1     bf  114 -   119          8.703926860857          0.000000000000          0.000000000000
      0.8000000000D+00  0.1000000000D+01
 Atom H15      Shell    43 S   3     bf  120 -   120          9.756795164624         -1.710894886067          0.441632701119
      0.1873113696D+02  0.3349460434D-01
      0.2825394365D+01  0.2347269535D+00
      0.6401216923D+00  0.8137573261D+00
 Atom H15      Shell    44 S   1     bf  121 -   121          9.756795164624         -1.710894886067          0.441632701119
      0.1612777588D+00  0.1000000000D+01
 Atom C16      Shell    45 S   6     bf  122 -   122          5.911583963216         -0.084507513313          0.496516149477
      0.3047524880D+04  0.1834737132D-02
      0.4573695180D+03  0.1403732281D-01
      0.1039486850D+03  0.6884262226D-01
      0.2921015530D+02  0.2321844432D+00
      0.9286662960D+01  0.4679413484D+00
      0.3163926960D+01  0.3623119853D+00
 Atom C16      Shell    46 SP   3    bf  123 -   126          5.911583963216         -0.084507513313          0.496516149477
      0.7868272350D+01 -0.1193324198D+00  0.6899906659D-01
      0.1881288540D+01 -0.1608541517D+00  0.3164239610D+00
      0.5442492580D+00  0.1143456438D+01  0.7443082909D+00
 Atom C16      Shell    47 SP   1    bf  127 -   130          5.911583963216         -0.084507513313          0.496516149477
      0.1687144782D+00  0.1000000000D+01  0.1000000000D+01
 Atom C16      Shell    48 D   1     bf  131 -   136          5.911583963216         -0.084507513313          0.496516149477
      0.8000000000D+00  0.1000000000D+01
 Atom H17      Shell    49 S   3     bf  137 -   137          5.133489133514         -1.908736305351         -0.109485081858
      0.1873113696D+02  0.3349460434D-01
      0.2825394365D+01  0.2347269535D+00
      0.6401216923D+00  0.8137573261D+00
 Atom H17      Shell    50 S   1     bf  138 -   138          5.133489133514         -1.908736305351         -0.109485081858
      0.1612777588D+00  0.1000000000D+01
 Atom C18      Shell    51 S   6     bf  139 -   139          4.474863148981          2.079357448012         -0.813837506622
      0.3047524880D+04  0.1834737132D-02
      0.4573695180D+03  0.1403732281D-01
      0.1039486850D+03  0.6884262226D-01
      0.2921015530D+02  0.2321844432D+00
      0.9286662960D+01  0.4679413484D+00
      0.3163926960D+01  0.3623119853D+00
 Atom C18      Shell    52 SP   3    bf  140 -   143          4.474863148981          2.079357448012         -0.813837506622
      0.7868272350D+01 -0.1193324198D+00  0.6899906659D-01
      0.1881288540D+01 -0.1608541517D+00  0.3164239610D+00
      0.5442492580D+00  0.1143456438D+01  0.7443082909D+00
 Atom C18      Shell    53 SP   1    bf  144 -   147          4.474863148981          2.079357448012         -0.813837506622
      0.1687144782D+00  0.1000000000D+01  0.1000000000D+01
 Atom C18      Shell    54 D   1     bf  148 -   153          4.474863148981          2.079357448012         -0.813837506622
      0.8000000000D+00  0.1000000000D+01
 Atom H19      Shell    55 S   3     bf  154 -   154          4.446835883711          1.561454511999         -2.824765665897
      0.1873113696D+02  0.3349460434D-01
      0.2825394365D+01  0.2347269535D+00
      0.6401216923D+00  0.8137573261D+00
 Atom H19      Shell    56 S   1     bf  155 -   155          4.446835883711          1.561454511999         -2.824765665897
      0.1612777588D+00  0.1000000000D+01
 Atom C20      Shell    57 S   6     bf  156 -   156          5.912812247408          4.615327059356         -0.483859009503
      0.3047524880D+04  0.1834737132D-02
      0.4573695180D+03  0.1403732281D-01
      0.1039486850D+03  0.6884262226D-01
      0.2921015530D+02  0.2321844432D+00
      0.9286662960D+01  0.4679413484D+00
      0.3163926960D+01  0.3623119853D+00
 Atom C20      Shell    58 SP   3    bf  157 -   160          5.912812247408          4.615327059356         -0.483859009503
      0.7868272350D+01 -0.1193324198D+00  0.6899906659D-01
      0.1881288540D+01 -0.1608541517D+00  0.3164239610D+00
      0.5442492580D+00  0.1143456438D+01  0.7443082909D+00
 Atom C20      Shell    59 SP   1    bf  161 -   164          5.912812247408          4.615327059356         -0.483859009503
      0.1687144782D+00  0.1000000000D+01  0.1000000000D+01
 Atom C20      Shell    60 D   1     bf  165 -   170          5.912812247408          4.615327059356         -0.483859009503
      0.8000000000D+00  0.1000000000D+01
 Atom H21      Shell    61 S   3     bf  171 -   171          6.140373125022          4.868367492365          1.566654679269
      0.1873113696D+02  0.3349460434D-01
      0.2825394365D+01  0.2347269535D+00
      0.6401216923D+00  0.8137573261D+00
 Atom H21      Shell    62 S   1     bf  172 -   172          6.140373125022          4.868367492365          1.566654679269
      0.1612777588D+00  0.1000000000D+01
 Atom C22      Shell    63 S   6     bf  173 -   173          4.355640365052          6.895477036365         -1.451995187108
      0.3047524880D+04  0.1834737132D-02
      0.4573695180D+03  0.1403732281D-01
      0.1039486850D+03  0.6884262226D-01
      0.2921015530D+02  0.2321844432D+00
      0.9286662960D+01  0.4679413484D+00
      0.3163926960D+01  0.3623119853D+00
 Atom C22      Shell    64 SP   3    bf  174 -   177          4.355640365052          6.895477036365         -1.451995187108
      0.7868272350D+01 -0.1193324198D+00  0.6899906659D-01
      0.1881288540D+01 -0.1608541517D+00  0.3164239610D+00
      0.5442492580D+00  0.1143456438D+01  0.7443082909D+00
 Atom C22      Shell    65 SP   1    bf  178 -   181          4.355640365052          6.895477036365         -1.451995187108
      0.1687144782D+00  0.1000000000D+01  0.1000000000D+01
 Atom C22      Shell    66 D   1     bf  182 -   187          4.355640365052          6.895477036365         -1.451995187108
      0.8000000000D+00  0.1000000000D+01
 Atom H23      Shell    67 S   3     bf  188 -   188          4.325026234781          6.903130200436         -3.520391751118
      0.1873113696D+02  0.3349460434D-01
      0.2825394365D+01  0.2347269535D+00
      0.6401216923D+00  0.8137573261D+00
 Atom H23      Shell    68 S   1     bf  189 -   189          4.325026234781          6.903130200436         -3.520391751118
      0.1612777588D+00  0.1000000000D+01
 Atom H24      Shell    69 S   3     bf  190 -   190          5.292843351026          8.655554085945         -0.891426978227
      0.1873113696D+02  0.3349460434D-01
      0.2825394365D+01  0.2347269535D+00
      0.6401216923D+00  0.8137573261D+00
 Atom H24      Shell    70 S   1     bf  191 -   191          5.292843351026          8.655554085945         -0.891426978227
      0.1612777588D+00  0.1000000000D+01
 Atom C25      Shell    71 S   6     bf  192 -   192          1.602401740353          6.965728191170         -0.497023087409
      0.3047524880D+04  0.1834737132D-02
      0.4573695180D+03  0.1403732281D-01
      0.1039486850D+03  0.6884262226D-01
      0.2921015530D+02  0.2321844432D+00
      0.9286662960D+01  0.4679413484D+00
      0.3163926960D+01  0.3623119853D+00
 Atom C25      Shell    72 SP   3    bf  193 -   196          1.602401740353          6.965728191170         -0.497023087409
      0.7868272350D+01 -0.1193324198D+00  0.6899906659D-01
      0.1881288540D+01 -0.1608541517D+00  0.3164239610D+00
      0.5442492580D+00  0.1143456438D+01  0.7443082909D+00
 Atom C25      Shell    73 SP   1    bf  197 -   200          1.602401740353          6.965728191170         -0.497023087409
      0.1687144782D+00  0.1000000000D+01  0.1000000000D+01
 Atom C25      Shell    74 D   1     bf  201 -   206          1.602401740353          6.965728191170         -0.497023087409
      0.8000000000D+00  0.1000000000D+01
 Atom H26      Shell    75 S   3     bf  207 -   207          1.584496452964          7.267305559601          1.557948408619
      0.1873113696D+02  0.3349460434D-01
      0.2825394365D+01  0.2347269535D+00
      0.6401216923D+00  0.8137573261D+00
 Atom H26      Shell    76 S   1     bf  208 -   208          1.584496452964          7.267305559601          1.557948408619
      0.1612777588D+00  0.1000000000D+01
 Atom H27      Shell    77 S   3     bf  209 -   209          0.654042888435          8.600653724538         -1.344163388849
      0.1873113696D+02  0.3349460434D-01
      0.2825394365D+01  0.2347269535D+00
      0.6401216923D+00  0.8137573261D+00
 Atom H27      Shell    78 S   1     bf  210 -   210          0.654042888435          8.600653724538         -1.344163388849
      0.1612777588D+00  0.1000000000D+01
 Atom C28      Shell    79 S   6     bf  211 -   211          0.193777884488          4.488567669664         -1.097325282673
      0.3047524880D+04  0.1834737132D-02
      0.4573695180D+03  0.1403732281D-01
      0.1039486850D+03  0.6884262226D-01
      0.2921015530D+02  0.2321844432D+00
      0.9286662960D+01  0.4679413484D+00
      0.3163926960D+01  0.3623119853D+00
 Atom C28      Shell    80 SP   3    bf  212 -   215          0.193777884488          4.488567669664         -1.097325282673
      0.7868272350D+01 -0.1193324198D+00  0.6899906659D-01
      0.1881288540D+01 -0.1608541517D+00  0.3164239610D+00
      0.5442492580D+00  0.1143456438D+01  0.7443082909D+00
 Atom C28      Shell    81 SP   1    bf  216 -   219          0.193777884488          4.488567669664         -1.097325282673
      0.1687144782D+00  0.1000000000D+01  0.1000000000D+01
 Atom C28      Shell    82 D   1     bf  220 -   225          0.193777884488          4.488567669664         -1.097325282673
      0.8000000000D+00  0.1000000000D+01
 Atom C29      Shell    83 S   6     bf  226 -   226          1.745047623008          2.319313851914          0.142061503745
      0.3047524880D+04  0.1834737132D-02
      0.4573695180D+03  0.1403732281D-01
      0.1039486850D+03  0.6884262226D-01
      0.2921015530D+02  0.2321844432D+00
      0.9286662960D+01  0.4679413484D+00
      0.3163926960D+01  0.3623119853D+00
 Atom C29      Shell    84 SP   3    bf  227 -   230          1.745047623008          2.319313851914          0.142061503745
      0.7868272350D+01 -0.1193324198D+00  0.6899906659D-01
      0.1881288540D+01 -0.1608541517D+00  0.3164239610D+00
      0.5442492580D+00  0.1143456438D+01  0.7443082909D+00
 Atom C29      Shell    85 SP   1    bf  231 -   234          1.745047623008          2.319313851914          0.142061503745
      0.1687144782D+00  0.1000000000D+01  0.1000000000D+01
 Atom C29      Shell    86 D   1     bf  235 -   240          1.745047623008          2.319313851914          0.142061503745
      0.8000000000D+00  0.1000000000D+01
 Atom H30      Shell    87 S   3     bf  241 -   241          1.883012483956          2.823482371777          2.150436170583
      0.1873113696D+02  0.3349460434D-01
      0.2825394365D+01  0.2347269535D+00
      0.6401216923D+00  0.8137573261D+00
 Atom H30      Shell    88 S   1     bf  242 -   242          1.883012483956          2.823482371777          2.150436170583
      0.1612777588D+00  0.1000000000D+01
 Atom C31      Shell    89 S   6     bf  243 -   243          0.000000000000          0.000000000000          0.000000000000
      0.3047524880D+04  0.1834737132D-02
      0.4573695180D+03  0.1403732281D-01
      0.1039486850D+03  0.6884262226D-01
      0.2921015530D+02  0.2321844432D+00
      0.9286662960D+01  0.4679413484D+00
      0.3163926960D+01  0.3623119853D+00
 Atom C31      Shell    90 SP   3    bf  244 -   247          0.000000000000          0.000000000000          0.000000000000
      0.7868272350D+01 -0.1193324198D+00  0.6899906659D-01
      0.1881288540D+01 -0.1608541517D+00  0.3164239610D+00
      0.5442492580D+00  0.1143456438D+01  0.7443082909D+00
 Atom C31      Shell    91 SP   1    bf  248 -   251          0.000000000000          0.000000000000          0.000000000000
      0.1687144782D+00  0.1000000000D+01  0.1000000000D+01
 Atom C31      Shell    92 D   1     bf  252 -   257          0.000000000000          0.000000000000          0.000000000000
      0.8000000000D+00  0.1000000000D+01
 Atom H32      Shell    93 S   3     bf  258 -   258          0.453059308126         -1.394115351199          1.456657028094
      0.1873113696D+02  0.3349460434D-01
      0.2825394365D+01  0.2347269535D+00
      0.6401216923D+00  0.8137573261D+00
 Atom H32      Shell    94 S   1     bf  259 -   259          0.453059308126         -1.394115351199          1.456657028094
      0.1612777588D+00  0.1000000000D+01
 Atom H33      Shell    95 S   3     bf  260 -   260          0.183157604724         -0.952649550693         -1.833247944644
      0.1873113696D+02  0.3349460434D-01
      0.2825394365D+01  0.2347269535D+00
      0.6401216923D+00  0.8137573261D+00
 Atom H33      Shell    96 S   1     bf  261 -   261          0.183157604724         -0.952649550693         -1.833247944644
      0.1612777588D+00  0.1000000000D+01
 Atom C34      Shell    97 S   6     bf  262 -   262         -2.690642202437          1.137035326225          0.328944325595
      0.3047524880D+04  0.1834737132D-02
      0.4573695180D+03  0.1403732281D-01
      0.1039486850D+03  0.6884262226D-01
      0.2921015530D+02  0.2321844432D+00
      0.9286662960D+01  0.4679413484D+00
      0.3163926960D+01  0.3623119853D+00
 Atom C34      Shell    98 SP   3    bf  263 -   266         -2.690642202437          1.137035326225          0.328944325595
      0.7868272350D+01 -0.1193324198D+00  0.6899906659D-01
      0.1881288540D+01 -0.1608541517D+00  0.3164239610D+00
      0.5442492580D+00  0.1143456438D+01  0.7443082909D+00
 Atom C34      Shell    99 SP   1    bf  267 -   270         -2.690642202437          1.137035326225          0.328944325595
      0.1687144782D+00  0.1000000000D+01  0.1000000000D+01
 Atom C34      Shell   100 D   1     bf  271 -   276         -2.690642202437          1.137035326225          0.328944325595
      0.8000000000D+00  0.1000000000D+01
 Atom H35      Shell   101 S   3     bf  277 -   277         -3.943061012699          0.508348518480         -1.192863410883
      0.1873113696D+02  0.3349460434D-01
      0.2825394365D+01  0.2347269535D+00
      0.6401216923D+00  0.8137573261D+00
 Atom H35      Shell   102 S   1     bf  278 -   278         -3.943061012699          0.508348518480         -1.192863410883
      0.1612777588D+00  0.1000000000D+01
 Atom H36      Shell   103 S   3     bf  279 -   279         -3.574118913850          0.521623750077          2.096836073036
      0.1873113696D+02  0.3349460434D-01
      0.2825394365D+01  0.2347269535D+00
      0.6401216923D+00  0.8137573261D+00
 Atom H36      Shell   104 S   1     bf  280 -   280         -3.574118913850          0.521623750077          2.096836073036
      0.1612777588D+00  0.1000000000D+01
 Atom C37      Shell   105 S   6     bf  281 -   281         -2.377067548604          4.071539127206          0.314678896402
      0.3047524880D+04  0.1834737132D-02
      0.4573695180D+03  0.1403732281D-01
      0.1039486850D+03  0.6884262226D-01
      0.2921015530D+02  0.2321844432D+00
      0.9286662960D+01  0.4679413484D+00
      0.3163926960D+01  0.3623119853D+00
 Atom C37      Shell   106 SP   3    bf  282 -   285         -2.377067548604          4.071539127206          0.314678896402
      0.7868272350D+01 -0.1193324198D+00  0.6899906659D-01
      0.1881288540D+01 -0.1608541517D+00  0.3164239610D+00
      0.5442492580D+00  0.1143456438D+01  0.7443082909D+00
[...]
 **** Fit       0.019286
 **** Fit       0.021168
 **** Fit       0.022107
 **** Fit       0.020795
 **** Fit       0.015497
 **** Fit       0.004982
 **** Fit      -0.010159
 **** Fit      -0.055331
 **** Fit      -0.048677
 **** Fit      -0.040784
 **** Fit      -0.033320
 **** Fit      -0.026934
 **** Fit       0.014009
 **** Fit       0.015982
 **** Fit       0.018268
 **** Fit       0.020787
 **** Fit       0.023251
 **** Fit       0.024932
 **** Fit       0.024407
 **** Fit      -0.056837
 **** Fit      -0.049959
 **** Fit      -0.041731
 **** Fit      -0.033976
 **** Fit      -0.027378
 **** Fit       0.014161
 **** Fit       0.016164
 **** Fit       0.018488
 **** Fit       0.021056
 **** Fit       0.023579
 **** Fit       0.025335
 **** Fit       0.024906
 **** Fit      -0.055379
 **** Fit      -0.048766
 **** Fit      -0.040828
 **** Fit      -0.033315
 **** Fit      -0.026900
 **** Fit       0.015735
 **** Fit       0.017841
 **** Fit       0.020087
 **** Fit       0.022155
 **** Fit       0.023335
 **** Fit       0.022343
 **** Fit       0.017462
 **** Fit       0.007445
 **** Fit      -0.007187
 **** Fit      -0.023876
 **** Fit      -0.053307
 **** Fit      -0.051101
 **** Fit      -0.045253
 **** Fit      -0.038189
 **** Fit      -0.031415
 **** Fit      -0.025549
 **** Fit       0.014795
 **** Fit       0.016504
 **** Fit       0.018190
 **** Fit       0.019514
 **** Fit       0.019822
 **** Fit       0.018073
 **** Fit       0.013028
 **** Fit       0.003928
 **** Fit      -0.008657
 **** Fit      -0.022631
 **** Fit      -0.035098
 **** Fit      -0.043453
 **** Fit      -0.046454
 **** Fit      -0.044711
 **** Fit      -0.040030
 **** Fit      -0.034243
 **** Fit      -0.028546
 **** Fit      -0.023491
 **** Fit       0.013514
 **** Fit       0.014753
 **** Fit       0.015817
 **** Fit       0.016379
 **** Fit       0.015897
 **** Fit       0.013616
 **** Fit       0.008762
 **** Fit       0.000988
 **** Fit      -0.009139
 **** Fit      -0.020039
 **** Fit      -0.029604
 **** Fit      -0.036003
 **** Fit      -0.038432
 **** Fit      -0.037344
 **** Fit      -0.033968
 **** Fit      -0.029583
 **** Fit      -0.025091
 **** Fit       0.012861
 **** Fit       0.013375
 **** Fit       0.013333
 **** Fit       0.012327
 **** Fit       0.009867
 **** Fit       0.005527
 **** Fit      -0.000779
 **** Fit      -0.008546
 **** Fit      -0.016663
 **** Fit      -0.023718
 **** Fit      -0.028523
 **** Fit      -0.030559
 **** Fit      -0.030093
 **** Fit      -0.027888
 **** Fit      -0.024785
 **** Fit      -0.021435
 **** Fit       0.011133
 **** Fit       0.010695
 **** Fit       0.009441
 **** Fit       0.007077
 **** Fit       0.003405
 **** Fit      -0.001532
 **** Fit      -0.007327
 **** Fit      -0.013233
 **** Fit      -0.018350
 **** Fit      -0.021938
 **** Fit      -0.023659
 **** Fit      -0.023644
 **** Fit      -0.022337
 **** Fit      -0.020268
 **** Fit       0.008568
 **** Fit       0.007266
 **** Fit       0.005154
 **** Fit       0.002158
 **** Fit      -0.001631
 **** Fit      -0.005905
 **** Fit      -0.010173
 **** Fit      -0.013876
 **** Fit      -0.016559
 **** Fit      -0.018001
 **** Fit      -0.018255
 **** Fit       0.003894
 **** Fit       0.001502
 **** Fit      -0.001379
 **** Fit      -0.004527
 **** Fit      -0.007621
 **** Fit      -0.006461
 **** Fit       0.002406
 **** Fit      -0.000084
 **** Fit      -0.003304
 **** Fit      -0.007120
 **** Fit      -0.011222
 **** Fit      -0.015160
 **** Fit      -0.018444
 **** Fit      -0.020686
 **** Fit      -0.021708
 **** Fit      -0.021577
 **** Fit       0.006877
 **** Fit       0.005810
 **** Fit       0.003974
 **** Fit       0.001184
 **** Fit      -0.002643
 **** Fit      -0.007386
 **** Fit      -0.012652
 **** Fit      -0.017811
 **** Fit      -0.022141
 **** Fit      -0.025053
 **** Fit      -0.026287
 **** Fit      -0.025956
 **** Fit      -0.024441
 **** Fit       0.008950
 **** Fit       0.008707
 **** Fit       0.007853
 **** Fit       0.006093
 **** Fit       0.003120
 **** Fit      -0.001267
 **** Fit      -0.006997
 **** Fit      -0.013605
 **** Fit      -0.020241
 **** Fit      -0.025876
 **** Fit      -0.029647
 **** Fit      -0.031162
 **** Fit      -0.030598
 **** Fit      -0.028520
 **** Fit      -0.025594
 **** Fit       0.010593
 **** Fit       0.010707
 **** Fit       0.010205
 **** Fit       0.008695
 **** Fit       0.005723
 **** Fit       0.000921
 **** Fit      -0.005745
 **** Fit      -0.013757
 **** Fit      -0.022030
 **** Fit      -0.029178
 **** Fit      -0.033989
 **** Fit      -0.035888
 **** Fit      -0.035109
 **** Fit      -0.032441
 **** Fit      -0.028793
 **** Fit      -0.024880
 **** Fit       0.011363
 **** Fit       0.012153
 **** Fit       0.012674
 **** Fit       0.012618
 **** Fit       0.011510
 **** Fit       0.008740
 **** Fit       0.003740
 **** Fit      -0.003673
 **** Fit      -0.012963
 **** Fit      -0.022825
 **** Fit      -0.031521
 **** Fit      -0.037465
 **** Fit      -0.039851
 **** Fit      -0.038942
 **** Fit      -0.035757
 **** Fit      -0.031461
 **** Fit      -0.026935
 **** Fit       0.012345
 **** Fit       0.013429
 **** Fit       0.014324
 **** Fit       0.014707
 **** Fit       0.014045
 **** Fit       0.011598
 **** Fit       0.006608
 **** Fit      -0.001269
 **** Fit      -0.011503
 **** Fit      -0.022621
 **** Fit      -0.032603
 **** Fit      -0.039551
 **** Fit      -0.042436
 **** Fit      -0.041515
 **** Fit      -0.037991
 **** Fit      -0.033242
 **** Fit      -0.028288
 **** Fit       0.012959
 **** Fit       0.014229
 **** Fit       0.015366
 **** Fit       0.016045
 **** Fit       0.015707
 **** Fit       0.013537
 **** Fit       0.008660
 **** Fit       0.000624
 **** Fit      -0.010058
 **** Fit      -0.021821
 **** Fit      -0.032493
 **** Fit      -0.040011
 **** Fit      -0.043224
 **** Fit      -0.042378
 **** Fit      -0.038760
 **** Fit      -0.033853
 **** Fit      -0.028744
 **** Fit      -0.024021
 **** Fit       0.013127
 **** Fit       0.014431
 **** Fit       0.015611
 **** Fit       0.016345
 **** Fit       0.016077
 **** Fit       0.013997
 **** Fit       0.009231
 **** Fit       0.001327
 **** Fit      -0.009214
 **** Fit      -0.020837
 **** Fit      -0.031385
 **** Fit      -0.038832
 **** Fit      -0.042069
 **** Fit      -0.041341
 **** Fit      -0.037897
 **** Fit      -0.033171
 **** Fit      -0.028220
 **** Fit      -0.023625
 **** Fit       0.012842
 **** Fit       0.014027
 **** Fit       0.015050
 **** Fit       0.015597
 **** Fit       0.015146
 **** Fit       0.012970
 **** Fit       0.008317
 **** Fit       0.000837
 **** Fit      -0.008970
 **** Fit      -0.019673
 **** Fit      -0.029315
 **** Fit      -0.036102
 **** Fit      -0.039094
 **** Fit      -0.038534
 **** Fit      -0.035511
 **** Fit      -0.031276
 **** Fit      -0.026772
 **** Fit       0.013124
 **** Fit       0.013853
 **** Fit       0.014064
 **** Fit       0.013301
 **** Fit       0.010972
 **** Fit       0.006521
 **** Fit      -0.000251
 **** Fit      -0.008859
 **** Fit      -0.018083
 **** Fit      -0.026309
 **** Fit      -0.032097
 **** Fit      -0.034723
 **** Fit      -0.034395
 **** Fit      -0.031967
 **** Fit      -0.028435
 **** Fit      -0.024584
 **** Fit       0.011897
 **** Fit       0.012285
 **** Fit       0.012134
 **** Fit       0.011076
 **** Fit       0.008676
 **** Fit       0.004575
 **** Fit      -0.001288
 **** Fit      -0.008463
 **** Fit      -0.015990
 **** Fit      -0.022644
 **** Fit      -0.027360
 **** Fit      -0.029614
 **** Fit      -0.029548
 **** Fit      -0.027773
 **** Fit      -0.025024
 **** Fit       0.010607
 **** Fit       0.010160
 **** Fit       0.008913
 **** Fit       0.006578
 **** Fit       0.002953
 **** Fit      -0.001927
 **** Fit      -0.007679
 **** Fit      -0.013586
 **** Fit      -0.018780
 **** Fit      -0.022518
 **** Fit      -0.024433
 **** Fit      -0.024601
 **** Fit      -0.023426
 **** Fit      -0.021420
 **** Fit       0.008368
 **** Fit       0.007059
 **** Fit       0.004906
 **** Fit       0.001816
 **** Fit      -0.002128
 **** Fit      -0.006620
 **** Fit      -0.011149
 **** Fit      -0.015122
 **** Fit      -0.018043
 **** Fit      -0.019656
 **** Fit      -0.019992
 **** Fit       0.005594
 **** Fit       0.003690
 **** Fit       0.001128
 **** Fit      -0.001999
 **** Fit      -0.005456
 **** Fit      -0.008888
 **** Fit      -0.011902
 **** Fit      -0.003316
 **** Fit      -0.006350
 **** Fit      -0.009557
 **** Fit       0.002506
 **** Fit       0.000133
 **** Fit      -0.002947
 **** Fit      -0.006614
 **** Fit      -0.010585
 **** Fit      -0.014445
 **** Fit      -0.017734
 **** Fit      -0.020073
 **** Fit      -0.021269
 **** Fit      -0.021353
 **** Fit       0.005593
 **** Fit       0.003894
 **** Fit       0.001332
 **** Fit      -0.002164
 **** Fit      -0.006486
 **** Fit      -0.011299
 **** Fit      -0.016065
 **** Fit      -0.020161
 **** Fit      -0.023064
 **** Fit      -0.024506
 **** Fit      -0.024532
 **** Fit      -0.023429
 **** Fit       0.007993
 **** Fit       0.007161
 **** Fit       0.005536
 **** Fit       0.002878
 **** Fit      -0.000956
 **** Fit      -0.005894
 **** Fit      -0.011556
 **** Fit      -0.017275
 **** Fit      -0.022249
 **** Fit      -0.025782
 **** Fit      -0.027513
 **** Fit      -0.027500
 **** Fit      -0.026124
 **** Fit      -0.023887
 **** Fit       0.009405
 **** Fit       0.009347
 **** Fit       0.008730
 **** Fit       0.007256
 **** Fit       0.004604
 **** Fit       0.000546
 **** Fit      -0.004895
 **** Fit      -0.011312
 **** Fit      -0.017921
 **** Fit      -0.023744
 **** Fit      -0.027909
 **** Fit      -0.029950
 **** Fit      -0.029934
 **** Fit      -0.028330
 **** Fit      -0.025758
 **** Fit       0.010326
 **** Fit       0.010474
 **** Fit       0.010071
 **** Fit       0.008777
 **** Fit       0.006205
 **** Fit       0.002048
 **** Fit      -0.003723
 **** Fit      -0.010690
 **** Fit      -0.017981
 **** Fit      -0.024478
 **** Fit      -0.029166
 **** Fit      -0.031489
 **** Fit      -0.031508
 **** Fit      -0.029765
 **** Fit      -0.026970
 **** Fit       0.010915
 **** Fit       0.011201
 **** Fit       0.010950
 **** Fit       0.009799
 **** Fit       0.007325
 **** Fit       0.003173
 **** Fit      -0.002723
 **** Fit      -0.009942
 **** Fit      -0.017571
 **** Fit      -0.024419
 **** Fit      -0.029396
 **** Fit      -0.031898
 **** Fit      -0.031980
 **** Fit      -0.030215
 **** Fit      -0.027355
 **** Fit      -0.024051
 **** Fit       0.011096
 **** Fit       0.011418
 **** Fit       0.011212
 **** Fit       0.010118
 **** Fit       0.007713
 **** Fit       0.003642
 **** Fit      -0.002162
 **** Fit      -0.009287
 **** Fit      -0.016829
 **** Fit      -0.023614
 **** Fit      -0.028568
 **** Fit      -0.031098
 **** Fit      -0.031255
 **** Fit      -0.029593
 **** Fit      -0.026842
 **** Fit       0.010861
 **** Fit       0.011116
 **** Fit       0.010846
 **** Fit       0.009718
 **** Fit       0.007349
 **** Fit       0.003431
 **** Fit      -0.002073
 **** Fit      -0.008766
 **** Fit      -0.015811
 **** Fit      -0.022134
 **** Fit      -0.026767
 **** Fit      -0.029179
 **** Fit      -0.029417
 **** Fit      -0.027968
 **** Fit      -0.025486
 **** Fit       0.010273
 **** Fit       0.010386
 **** Fit       0.009982
 **** Fit       0.008772
 **** Fit       0.006441
 **** Fit       0.002760
 **** Fit      -0.002266
 **** Fit      -0.008264
 **** Fit      -0.014506
 **** Fit      -0.020084
 **** Fit      -0.024191
 **** Fit      -0.026388
 **** Fit      -0.026710
 **** Fit      -0.025551
 **** Fit      -0.023451
 **** Fit       0.009382
 **** Fit       0.008827
 **** Fit       0.007542
 **** Fit       0.005294
 **** Fit       0.001933
 **** Fit      -0.002491
 **** Fit      -0.007646
 **** Fit      -0.012937
 **** Fit      -0.017643
 **** Fit      -0.021137
 **** Fit      -0.023077
 **** Fit      -0.023479
 **** Fit      -0.022637
 **** Fit       0.007586
 **** Fit       0.006274
 **** Fit       0.004169
 **** Fit       0.001192
 **** Fit      -0.002579
 **** Fit      -0.006864
 **** Fit      -0.011198
 **** Fit      -0.015041
 **** Fit      -0.017930
 **** Fit      -0.019607
 **** Fit      -0.020073
 **** Fit       0.005129
 **** Fit       0.003220
 **** Fit       0.000655
 **** Fit      -0.002480
 **** Fit      -0.005954
 **** Fit      -0.009422
 **** Fit      -0.012495
 **** Fit       0.002306
 **** Fit       0.000141
 **** Fit      -0.002639
 **** Fit      -0.005928
 **** Fit      -0.009487
 **** Fit      -0.012972
 **** Fit      -0.015996
 **** Fit      -0.018234
 **** Fit       0.004907
 **** Fit       0.003344
 **** Fit       0.001064
 **** Fit      -0.001974
 **** Fit      -0.005669
 **** Fit      -0.009753
 **** Fit      -0.013809
 **** Fit      -0.017358
 **** Fit      -0.019989
 **** Fit      -0.021469
 **** Fit      -0.021792
 **** Fit       0.005933
 **** Fit       0.004410
 **** Fit       0.002074
 **** Fit      -0.001150
 **** Fit      -0.005177
 **** Fit      -0.009716
 **** Fit      -0.014285
 **** Fit      -0.018319
 **** Fit      -0.021321
 **** Fit      -0.023008
 **** Fit      -0.023370
 **** Fit       0.007574
 **** Fit       0.006807
 **** Fit       0.005350
 **** Fit       0.003011
 **** Fit      -0.000317
 **** Fit      -0.004565
 **** Fit      -0.009428
 **** Fit      -0.014378
 **** Fit      -0.018783
 **** Fit      -0.022080
 **** Fit      -0.023942
 **** Fit      -0.024353
 **** Fit      -0.023559
 **** Fit       0.008089
 **** Fit       0.007400
 **** Fit       0.006006
 **** Fit       0.003699
 **** Fit       0.000350
 **** Fit      -0.003983
 **** Fit      -0.008991
 **** Fit      -0.014125
 **** Fit      -0.018720
 **** Fit      -0.022176
 **** Fit      -0.024146
 **** Fit      -0.024610
 **** Fit      -0.023822
 **** Fit       0.008278
 **** Fit       0.007624
 **** Fit       0.006274
 **** Fit       0.004016
 **** Fit       0.000723
 **** Fit      -0.003550
 **** Fit      -0.008499
 **** Fit      -0.013584
 **** Fit      -0.018146
 **** Fit      -0.021594
 **** Fit      -0.023585
 **** Fit      -0.024093
 **** Fit      -0.023366
 **** Fit       0.008133
 **** Fit       0.007471
 **** Fit       0.006138
 **** Fit       0.003944
 **** Fit       0.000780
 **** Fit      -0.003295
 **** Fit      -0.007990
 **** Fit      -0.012799
 **** Fit      -0.017113
 **** Fit      -0.020390
 **** Fit      -0.022312
 **** Fit      -0.022854
 **** Fit      -0.022236
 **** Fit       0.007002
 **** Fit       0.005676
 **** Fit       0.003569
 **** Fit       0.000600
 **** Fit      -0.003160
 **** Fit      -0.007442
 **** Fit      -0.011799
 **** Fit      -0.015702
 **** Fit      -0.018683
 **** Fit      -0.020468
 **** Fit      -0.021032
 **** Fit       0.005021
 **** Fit       0.003031
 **** Fit       0.000314
 **** Fit      -0.003049
 **** Fit      -0.006820
 **** Fit      -0.010624
 **** Fit      -0.014024
 **** Fit      -0.016641
 **** Fit      -0.018250
 **** Fit       0.002465
 **** Fit       0.000041
 **** Fit      -0.002886
 **** Fit      -0.006113
 **** Fit      -0.009335
 **** Fit      -0.005269
 **** Fit       0.000542
 **** Fit      -0.002005
 **** Fit      -0.005026
 **** Fit      -0.008316
 **** Fit      -0.011573
 **** Fit       0.003122
 **** Fit       0.001113
 **** Fit      -0.001519
 **** Fit      -0.004687
 **** Fit      -0.008174
 **** Fit      -0.011654
 **** Fit      -0.014754
 **** Fit       0.003561
 **** Fit       0.001558
 **** Fit      -0.001097
 **** Fit      -0.004321
 **** Fit      -0.007895
 **** Fit      -0.011481
 **** Fit      -0.014690
 **** Fit      -0.017176
 **** Fit       0.003783
 **** Fit       0.001815
 **** Fit      -0.000802
 **** Fit      -0.003987
 **** Fit      -0.007525
 **** Fit      -0.011082
 **** Fit      -0.014272
 **** Fit      -0.016757
 **** Fit       0.003776
 **** Fit       0.001869
 **** Fit      -0.000652
 **** Fit      -0.003707
 **** Fit      -0.007090
 **** Fit      -0.010486
 **** Fit      -0.013537
 **** Fit       0.001756
 **** Fit      -0.000618
 **** Fit      -0.003465
 **** Fit      -0.006595
 **** Fit      -0.009726
 -----------------------------------------------------------------
 Leave Link  602 at Fri Apr 28 12:24:16 2017, MaxMem=    33554432 cpu:        38.5
 (Enter /home/michal/g09/l9999.exe)

 Test job not archived.
 1\1\GINC-LINUX\SP\RHF\6-31G(d)\C27H46O3\MICHAL\28-Apr-2017\0\\#P HF/6-
 31G* SCF(Conver=6) NoSymm Test Pop=chelpg IOp(6/33=2) GFInput GFPrint\
 \MEP - Input generated by R.E.D.-III.x MOLECULE\\0,1\C,0,7.51586585,2.
 15116988,-0.05546426\H,0,7.4141036,2.06863538,1.03360446\C,0,6.7626975
 1,0.98484277,-0.71475788\H,0,7.15359103,0.03425562,-0.33873907\H,0,6.9
 8313133,1.01157241,-1.79354769\C,0,5.26389618,1.06238914,-0.48939083\C
 ,0,4.58097006,2.38772892,-0.84967333\C,0,5.41697568,3.54894134,-0.2277
 5706\H,0,5.26915662,3.53225729,0.86064127\H,0,5.02292461,4.50831647,-0
 .58003105\C,0,6.92551752,3.48510184,-0.51247779\H,0,7.12031233,3.61432
 726,-1.58742823\H,0,7.43890577,4.30654306,0.\C,0,4.60591972,0.,0.\H,0,
 5.16307363,-0.90536658,0.23370196\C,0,3.1282755,-0.04471945,0.26274503
 \H,0,2.71652545,-1.01005975,-0.05793701\C,0,2.36799559,1.10034857,-0.4
 3066426\H,0,2.3531642,0.82628614,-1.49480161\C,0,3.12892548,2.44232589
 ,-0.25604716\H,0,3.24934551,2.57622912,0.82903795\C,0,2.30490561,3.648
 92929,-0.76836276\H,0,2.28870531,3.65297917,-1.86291108\H,0,2.80085207
 ,4.58032195,-0.47172284\C,0,0.84795448,3.6861046,-0.26301329\H,0,0.838
 47941,3.84569247,0.82443079\H,0,0.34610459,4.55126993,-0.71130063\C,0,
 0.10254284,2.37524771,-0.58067953\C,0,0.92343943,1.22732803,0.07517571
 \H,0,0.99644729,1.49412252,1.13796181\C,0,0.,0.,0.\H,0,0.23974866,-0.7
 3773407,0.7708297\H,0,0.09692283,-0.50412043,-0.97011303\C,0,-1.423826
 53,0.60169318,0.17406984\H,0,-2.08657802,0.26900645,-0.63123613\H,0,-1
 .89134227,0.2760314,1.10959786\C,0,-1.25788997,2.15456571,0.1665209\H,
 0,-1.04575082,2.44657594,1.20609287\C,0,-0.03926112,2.19587553,-2.1095
 7627\H,0,0.92650469,2.04568653,-2.59942161\H,0,-0.66718585,1.33938103,
 -2.36858301\H,0,-0.4911325,3.08365901,-2.56187395\C,0,-2.57499098,2.91
 254388,-0.17425532\H,0,-3.29459859,2.48749902,0.54184208\C,0,-3.177241
 1,2.67536153,-1.57321262\H,0,-2.65823706,3.24869357,-2.347468\H,0,-4.2
 2760029,2.98362484,-1.59211085\H,0,-3.15093376,1.62120604,-1.86390741\
 C,0,4.5714312,2.52343971,-2.39721021\H,0,4.27764976,3.53089321,-2.7063
 4083\H,0,5.55774128,2.33107326,-2.82609922\H,0,3.8783435,1.80972944,-2
 .85323775\O,0,2.84802571,0.06896171,1.68544384\O,0,3.34134837,-1.13898
 758,2.32978755\H,0,4.11387015,-0.79170718,2.80575145\O,0,8.92527416,2.
 06716232,-0.28146909\H,0,9.09340539,2.15963938,-1.22980623\C,0,-2.4739
 2805,4.42429934,0.13551995\H,0,-1.95975351,4.55419497,1.09824647\H,0,-
 1.83280665,4.89841352,-0.61863502\C,0,-3.80371936,5.2041753,0.18899629
 \H,0,-3.5562337,6.26463913,0.32414163\H,0,-4.31252099,5.13692618,-0.78
 028386\C,0,-4.75272284,4.75773139,1.31347622\H,0,-4.1957865,4.75784418
 ,2.26216634\H,0,-5.05844412,3.71695277,1.14267661\C,0,-6.03493675,5.60
 29469,1.50412527\H,0,-6.58732224,5.12887132,2.32896487\C,0,-5.73749179
 ,7.04861032,1.9359583\H,0,-5.24157831,7.61666267,1.1405082\H,0,-6.6641
 6691,7.57830013,2.18491224\H,0,-5.08986329,7.0754185,2.82022012\C,0,-6
 .95256702,5.57257495,0.27052925\H,0,-6.49664375,6.08423549,-0.58494019
 \H,0,-7.90491603,6.07271807,0.48055458\H,0,-7.17649954,4.54371584,-0.0
 3517383\\Version=EM64L-G09RevD.01\HF=-1273.6762638\RMSD=5.655e-07\Dipo
 le=0.1108152,0.530575,-0.7925043\Quadrupole=-5.4146347,2.176799,3.2378
 357,2.2290463,-8.3399699,-1.6061078\PG=C01 [X(C27H46O3)]\\@


 THE PROBLEM WITH THE LADDER OF SUCCESS IS YOU CAN'T
 CLIMB IT WHILE YOU'RE TWIDDLING YOUR THUMBS.
 Job cpu time:       0 days  0 hours 12 minutes  2.4 seconds.
 File lengths (MBytes):  RWF=    159 Int=      0 D2E=      0 Chk=     11 Scr=      1
 Normal termination of Gaussian 09 at Fri Apr 28 12:24:16 2017.
