 Entering Gaussian System, Link 0=/home/michal/g09/g09
 Input=JOB2-gau_m1-2-4.com
 Output=JOB2-gau_m1-2-4.log
 Initial command:
 /home/michal/g09/l1.exe "/home/michal/gauss_scratch/Gau-12233.inp" -scrdir="/home/michal/gauss_scratch/"
 Entering Link 1 = /home/michal/g09/l1.exe PID=     12234.
  
 Copyright (c) 1988,1990,1992,1993,1995,1998,2003,2009,2013,
            Gaussian, Inc.  All Rights Reserved.
  
 This is part of the Gaussian(R) 09 program.  It is based on
 the Gaussian(R) 03 system (copyright 2003, Gaussian, Inc.),
 the Gaussian(R) 98 system (copyright 1998, Gaussian, Inc.),
 the Gaussian(R) 94 system (copyright 1995, Gaussian, Inc.),
 the Gaussian 92(TM) system (copyright 1992, Gaussian, Inc.),
 the Gaussian 90(TM) system (copyright 1990, Gaussian, Inc.),
 the Gaussian 88(TM) system (copyright 1988, Gaussian, Inc.),
 the Gaussian 86(TM) system (copyright 1986, Carnegie Mellon
 University), and the Gaussian 82(TM) system (copyright 1983,
 Carnegie Mellon University). Gaussian is a federally registered
 trademark of Gaussian, Inc.
  
 This software contains proprietary and confidential information,
 including trade secrets, belonging to Gaussian, Inc.
  
 This software is provided under written license and may be
 used, copied, transmitted, or stored only in accord with that
 written license.
  
 The following legend is applicable only to US Government
 contracts under FAR:
  
                    RESTRICTED RIGHTS LEGEND
  
 Use, reproduction and disclosure by the US Government is
 subject to restrictions as set forth in subparagraphs (a)
 and (c) of the Commercial Computer Software - Restricted
 Rights clause in FAR 52.227-19.
  
 Gaussian, Inc.
 340 Quinnipiac St., Bldg. 40, Wallingford CT 06492
  
  
 ---------------------------------------------------------------
 Warning -- This program may not be used in any manner that
 competes with the business of Gaussian, Inc. or will provide
 assistance to any competitor of Gaussian, Inc.  The licensee
 of this program is prohibited from giving any competitor of
 Gaussian, Inc. access to this program.  By using this program,
 the user acknowledges that Gaussian, Inc. is engaged in the
 business of creating and licensing software in the field of
 computational chemistry and represents and warrants to the
 licensee that it is not a competitor of Gaussian, Inc. and that
 it will not use this program in any manner prohibited above.
 ---------------------------------------------------------------
  

 Cite this work as:
 Gaussian 09, Revision D.01,
 M. J. Frisch, G. W. Trucks, H. B. Schlegel, G. E. Scuseria, 
 M. A. Robb, J. R. Cheeseman, G. Scalmani, V. Barone, B. Mennucci, 
 G. A. Petersson, H. Nakatsuji, M. Caricato, X. Li, H. P. Hratchian, 
 A. F. Izmaylov, J. Bloino, G. Zheng, J. L. Sonnenberg, M. Hada, 
 M. Ehara, K. Toyota, R. Fukuda, J. Hasegawa, M. Ishida, T. Nakajima, 
 Y. Honda, O. Kitao, H. Nakai, T. Vreven, J. A. Montgomery, Jr., 
 J. E. Peralta, F. Ogliaro, M. Bearpark, J. J. Heyd, E. Brothers, 
 K. N. Kudin, V. N. Staroverov, T. Keith, R. Kobayashi, J. Normand, 
 K. Raghavachari, A. Rendell, J. C. Burant, S. S. Iyengar, J. Tomasi, 
 M. Cossi, N. Rega, J. M. Millam, M. Klene, J. E. Knox, J. B. Cross, 
 V. Bakken, C. Adamo, J. Jaramillo, R. Gomperts, R. E. Stratmann, 
 O. Yazyev, A. J. Austin, R. Cammi, C. Pomelli, J. W. Ochterski, 
 R. L. Martin, K. Morokuma, V. G. Zakrzewski, G. A. Voth, 
 P. Salvador, J. J. Dannenberg, S. Dapprich, A. D. Daniels, 
 O. Farkas, J. B. Foresman, J. V. Ortiz, J. Cioslowski, 
 and D. J. Fox, Gaussian, Inc., Wallingford CT, 2013.
 
 ******************************************
 Gaussian 09:  EM64L-G09RevD.01 24-Apr-2013
                28-Apr-2017 
 ******************************************
 %Mem=256MB
 %NProc=12
 Will use up to   12 processors via shared memory.
 ----------------------------------------------------------------------
 #P HF/6-31G* SCF(Conver=6) NoSymm Test Pop=chelpg IOp(6/33=2) GFInput 
 GFPrint
 ----------------------------------------------------------------------
 1/38=1/1;
 2/12=2,15=1,17=6,18=5,40=1/2;
 3/5=1,6=6,7=1,11=9,16=1,24=110,25=1,30=1/1,2,3;
 4//1;
 5/5=2,6=6,38=5/2;
 6/7=2,8=2,9=2,10=2,15=8,20=3,28=1,33=2/1,2;
 99/5=1,9=1/99;
 Leave Link    1 at Fri Apr 28 11:56:26 2017, MaxMem=    33554432 cpu:         0.6
 (Enter /home/michal/g09/l101.exe)
 ----------------------------------------------
 MEP - Input generated by R.E.D.-III.x MOLECULE
 ----------------------------------------------
 Symbolic Z-matrix:
 Charge =  0 Multiplicity = 1
 C                     1.01338  -0.87649  -1.69097 
 H                     1.14107   0.09557  -2.18295 
 C                     2.2506   -1.74331  -1.97421 
 H                     2.38812  -1.84729  -3.05498 
 H                     2.04805  -2.753    -1.58365 
 C                     3.50829  -1.18279  -1.33613 
 C                     3.4357   -0.86064   0.16181 
 C                     2.12969  -0.04709   0.41977 
 H                     2.26462   0.95906   0. 
 H                     1.99037   0.08253   1.49845 
 C                     0.85656  -0.65771  -0.18621 
 H                     0.62461  -1.61983   0.29408 
 H                     0.        0.        0. 
 C                     4.60908  -0.99612  -2.08079 
 H                     4.5801   -1.24729  -3.13945 
 C                     5.90975  -0.45255  -1.56382 
 H                     6.75031  -1.01276  -1.99267 
 C                     5.99533  -0.48316  -0.02699 
 H                     6.14563  -1.54189   0.22604 
 C                     4.66445   0.01158   0.60135 
 H                     4.49184   1.01313   0.18072 
 C                     4.77332   0.18297   2.13636 
 H                     4.78913  -0.79746   2.62276 
 H                     3.87631   0.68997   2.51013 
 C                     6.01384   0.97391   2.59922 
 H                     5.93761   2.0122    2.248 
 H                     6.01572   1.01111   3.69503 
 C                     7.31622   0.35627   2.05447 
 C                     7.18288   0.33363   0.50412 
 H                     6.98861   1.37486   0.21436 
 C                     8.59719   0.        0. 
 H                     8.76339   0.36615  -1.01699 
 H                     8.76063  -1.08516  -0.01735 
 C                     9.52978   0.68584   1.0394 
 H                     10.25886  -0.0275    1.43698 
 H                     10.11037   1.49926   0.59089 
 C                     8.60623   1.24146   2.17048 
 H                     8.28244   2.2352    1.83183 
 C                     7.52354  -1.05878   2.64252 
 H                     6.77156  -1.76767   2.28609 
 H                     8.50185  -1.47343   2.3866 
 H                     7.44979  -1.03921   3.73374 
 C                     9.36913   1.50574   3.50035 
 H                     10.2341   2.10876   3.18466 
 C                     9.9644    0.27796   4.21932 
 H                     9.2041   -0.29094   4.76261 
 H                     10.70666   0.60833   4.9549 
 H                     10.47033  -0.40893   3.53462 
 C                     3.37743  -2.20137   0.94433 
 H                     3.12773  -2.03712   1.99671 
 H                     2.62024  -2.87517   0.53634 
 H                     4.33513  -2.729     0.89813 
 O                     6.09237   0.93351  -1.96495 
 O                     6.26514   0.95544  -3.40969 
 H                     5.42009   1.34405  -3.69047 
 O                    -0.16388  -1.42031  -2.29331 
 H                    -0.35412  -2.27653  -1.88482 
 C                     8.58933   2.35602   4.5333 
 H                     7.71712   1.7865    4.87919 
 H                     9.23419   2.47162   5.41664 
 C                     8.12651   3.76103   4.10077 
 H                     7.42803   3.6851    3.25983 
 H                     7.54859   4.18457   4.93207 
 C                     9.2763    4.7169    3.74112 
 H                     9.80536   4.33386   2.85839 
 H                     10.00955   4.70803   4.56122 
 C                     8.88272   6.18655   3.45867 
 H                     9.81858   6.7039    3.20037 
 C                     7.9418    6.32541   2.25038 
 H                     6.95805   5.88608   2.45222 
 H                     7.78293   7.38035   1.99924 
 H                     8.35399   5.82987   1.36356 
 C                     8.30398   6.89646   4.69397 
 H                     7.33174   6.48119   4.9833 
 H                     8.15538   7.96392   4.49466 
 H                     8.97567   6.80825   5.55603 
 
 NAtoms=     76 NQM=       76 NQMF=       0 NMMI=      0 NMMIF=      0
                NMic=       0 NMicF=      0.
                    Isotopes and Nuclear Properties:
 (Nuclear quadrupole moments (NQMom) in fm**2, nuclear magnetic moments (NMagM)
  in nuclear magnetons)

  Atom         1           2           3           4           5           6           7           8           9          10
 IAtWgt=          12           1          12           1           1          12          12          12           1           1
 AtmWgt=  12.0000000   1.0078250  12.0000000   1.0078250   1.0078250  12.0000000  12.0000000  12.0000000   1.0078250   1.0078250
 NucSpn=           0           1           0           1           1           0           0           0           1           1
 AtZEff=   0.0000000   0.0000000   0.0000000   0.0000000   0.0000000   0.0000000   0.0000000   0.0000000   0.0000000   0.0000000
 NQMom=    0.0000000   0.0000000   0.0000000   0.0000000   0.0000000   0.0000000   0.0000000   0.0000000   0.0000000   0.0000000
 NMagM=    0.0000000   2.7928460   0.0000000   2.7928460   2.7928460   0.0000000   0.0000000   0.0000000   2.7928460   2.7928460
 AtZNuc=   6.0000000   1.0000000   6.0000000   1.0000000   1.0000000   6.0000000   6.0000000   6.0000000   1.0000000   1.0000000

  Atom        11          12          13          14          15          16          17          18          19          20
 IAtWgt=          12           1           1          12           1          12           1          12           1          12
 AtmWgt=  12.0000000   1.0078250   1.0078250  12.0000000   1.0078250  12.0000000   1.0078250  12.0000000   1.0078250  12.0000000
 NucSpn=           0           1           1           0           1           0           1           0           1           0
 AtZEff=   0.0000000   0.0000000   0.0000000   0.0000000   0.0000000   0.0000000   0.0000000   0.0000000   0.0000000   0.0000000
 NQMom=    0.0000000   0.0000000   0.0000000   0.0000000   0.0000000   0.0000000   0.0000000   0.0000000   0.0000000   0.0000000
 NMagM=    0.0000000   2.7928460   2.7928460   0.0000000   2.7928460   0.0000000   2.7928460   0.0000000   2.7928460   0.0000000
 AtZNuc=   6.0000000   1.0000000   1.0000000   6.0000000   1.0000000   6.0000000   1.0000000   6.0000000   1.0000000   6.0000000

  Atom        21          22          23          24          25          26          27          28          29          30
 IAtWgt=           1          12           1           1          12           1           1          12          12           1
 AtmWgt=   1.0078250  12.0000000   1.0078250   1.0078250  12.0000000   1.0078250   1.0078250  12.0000000  12.0000000   1.0078250
 NucSpn=           1           0           1           1           0           1           1           0           0           1
 AtZEff=   0.0000000   0.0000000   0.0000000   0.0000000   0.0000000   0.0000000   0.0000000   0.0000000   0.0000000   0.0000000
 NQMom=    0.0000000   0.0000000   0.0000000   0.0000000   0.0000000   0.0000000   0.0000000   0.0000000   0.0000000   0.0000000
 NMagM=    2.7928460   0.0000000   2.7928460   2.7928460   0.0000000   2.7928460   2.7928460   0.0000000   0.0000000   2.7928460
 AtZNuc=   1.0000000   6.0000000   1.0000000   1.0000000   6.0000000   1.0000000   1.0000000   6.0000000   6.0000000   1.0000000

  Atom        31          32          33          34          35          36          37          38          39          40
 IAtWgt=          12           1           1          12           1           1          12           1          12           1
 AtmWgt=  12.0000000   1.0078250   1.0078250  12.0000000   1.0078250   1.0078250  12.0000000   1.0078250  12.0000000   1.0078250
 NucSpn=           0           1           1           0           1           1           0           1           0           1
 AtZEff=   0.0000000   0.0000000   0.0000000   0.0000000   0.0000000   0.0000000   0.0000000   0.0000000   0.0000000   0.0000000
 NQMom=    0.0000000   0.0000000   0.0000000   0.0000000   0.0000000   0.0000000   0.0000000   0.0000000   0.0000000   0.0000000
 NMagM=    0.0000000   2.7928460   2.7928460   0.0000000   2.7928460   2.7928460   0.0000000   2.7928460   0.0000000   2.7928460
 AtZNuc=   6.0000000   1.0000000   1.0000000   6.0000000   1.0000000   1.0000000   6.0000000   1.0000000   6.0000000   1.0000000

  Atom        41          42          43          44          45          46          47          48          49          50
 IAtWgt=           1           1          12           1          12           1           1           1          12           1
 AtmWgt=   1.0078250   1.0078250  12.0000000   1.0078250  12.0000000   1.0078250   1.0078250   1.0078250  12.0000000   1.0078250
 NucSpn=           1           1           0           1           0           1           1           1           0           1
 AtZEff=   0.0000000   0.0000000   0.0000000   0.0000000   0.0000000   0.0000000   0.0000000   0.0000000   0.0000000   0.0000000
 NQMom=    0.0000000   0.0000000   0.0000000   0.0000000   0.0000000   0.0000000   0.0000000   0.0000000   0.0000000   0.0000000
 NMagM=    2.7928460   2.7928460   0.0000000   2.7928460   0.0000000   2.7928460   2.7928460   2.7928460   0.0000000   2.7928460
 AtZNuc=   1.0000000   1.0000000   6.0000000   1.0000000   6.0000000   1.0000000   1.0000000   1.0000000   6.0000000   1.0000000

  Atom        51          52          53          54          55          56          57          58          59          60
 IAtWgt=           1           1          16          16           1          16           1          12           1           1
 AtmWgt=   1.0078250   1.0078250  15.9949146  15.9949146   1.0078250  15.9949146   1.0078250  12.0000000   1.0078250   1.0078250
 NucSpn=           1           1           0           0           1           0           1           0           1           1
 AtZEff=   0.0000000   0.0000000   0.0000000   0.0000000   0.0000000   0.0000000   0.0000000   0.0000000   0.0000000   0.0000000
 NQMom=    0.0000000   0.0000000   0.0000000   0.0000000   0.0000000   0.0000000   0.0000000   0.0000000   0.0000000   0.0000000
 NMagM=    2.7928460   2.7928460   0.0000000   0.0000000   2.7928460   0.0000000   2.7928460   0.0000000   2.7928460   2.7928460
 AtZNuc=   1.0000000   1.0000000   8.0000000   8.0000000   1.0000000   8.0000000   1.0000000   6.0000000   1.0000000   1.0000000

  Atom        61          62          63          64          65          66          67          68          69          70
 IAtWgt=          12           1           1          12           1           1          12           1          12           1
 AtmWgt=  12.0000000   1.0078250   1.0078250  12.0000000   1.0078250   1.0078250  12.0000000   1.0078250  12.0000000   1.0078250
 NucSpn=           0           1           1           0           1           1           0           1           0           1
 AtZEff=   0.0000000   0.0000000   0.0000000   0.0000000   0.0000000   0.0000000   0.0000000   0.0000000   0.0000000   0.0000000
 NQMom=    0.0000000   0.0000000   0.0000000   0.0000000   0.0000000   0.0000000   0.0000000   0.0000000   0.0000000   0.0000000
 NMagM=    0.0000000   2.7928460   2.7928460   0.0000000   2.7928460   2.7928460   0.0000000   2.7928460   0.0000000   2.7928460
 AtZNuc=   6.0000000   1.0000000   1.0000000   6.0000000   1.0000000   1.0000000   6.0000000   1.0000000   6.0000000   1.0000000

  Atom        71          72          73          74          75          76
 IAtWgt=           1           1          12           1           1           1
 AtmWgt=   1.0078250   1.0078250  12.0000000   1.0078250   1.0078250   1.0078250
 NucSpn=           1           1           0           1           1           1
 AtZEff=   0.0000000   0.0000000   0.0000000   0.0000000   0.0000000   0.0000000
 NQMom=    0.0000000   0.0000000   0.0000000   0.0000000   0.0000000   0.0000000
 NMagM=    2.7928460   2.7928460   0.0000000   2.7928460   2.7928460   2.7928460
 AtZNuc=   1.0000000   1.0000000   6.0000000   1.0000000   1.0000000   1.0000000
 Leave Link  101 at Fri Apr 28 11:56:26 2017, MaxMem=    33554432 cpu:         1.0
 (Enter /home/michal/g09/l202.exe)
 Symmetry turned off by external request.
 Stoichiometry    C27H46O3
 Framework group  C1[X(C27H46O3)]
 Deg. of freedom   222
 Full point group                 C1      NOp   1
                          Input orientation:                          
 ---------------------------------------------------------------------
 Center     Atomic      Atomic             Coordinates (Angstroms)
 Number     Number       Type             X           Y           Z
 ---------------------------------------------------------------------
      1          6           0        1.013382   -0.876486   -1.690966
      2          1           0        1.141068    0.095572   -2.182950
      3          6           0        2.250597   -1.743306   -1.974215
      4          1           0        2.388121   -1.847287   -3.054980
      5          1           0        2.048046   -2.753001   -1.583653
      6          6           0        3.508295   -1.182794   -1.336134
      7          6           0        3.435703   -0.860636    0.161809
      8          6           0        2.129687   -0.047087    0.419772
      9          1           0        2.264621    0.959060    0.000000
     10          1           0        1.990367    0.082531    1.498450
     11          6           0        0.856562   -0.657713   -0.186206
     12          1           0        0.624607   -1.619829    0.294083
     13          1           0        0.000000    0.000000    0.000000
     14          6           0        4.609083   -0.996118   -2.080788
     15          1           0        4.580097   -1.247295   -3.139449
     16          6           0        5.909748   -0.452546   -1.563819
     17          1           0        6.750306   -1.012757   -1.992673
     18          6           0        5.995330   -0.483156   -0.026995
     19          1           0        6.145626   -1.541890    0.226036
     20          6           0        4.664448    0.011583    0.601352
     21          1           0        4.491838    1.013127    0.180722
     22          6           0        4.773325    0.182972    2.136358
     23          1           0        4.789127   -0.797457    2.622762
     24          1           0        3.876312    0.689973    2.510133
     25          6           0        6.013844    0.973914    2.599220
     26          1           0        5.937611    2.012205    2.248002
     27          1           0        6.015715    1.011112    3.695031
     28          6           0        7.316218    0.356267    2.054468
     29          6           0        7.182878    0.333633    0.504125
     30          1           0        6.988608    1.374855    0.214355
     31          6           0        8.597189    0.000000    0.000000
     32          1           0        8.763390    0.366151   -1.016988
     33          1           0        8.760634   -1.085164   -0.017347
     34          6           0        9.529784    0.685841    1.039398
     35          1           0       10.258855   -0.027498    1.436983
     36          1           0       10.110367    1.499265    0.590886
     37          6           0        8.606228    1.241460    2.170476
     38          1           0        8.282437    2.235198    1.831835
     39          6           0        7.523537   -1.058781    2.642518
     40          1           0        6.771561   -1.767670    2.286094
     41          1           0        8.501851   -1.473429    2.386605
     42          1           0        7.449790   -1.039211    3.733740
     43          6           0        9.369128    1.505740    3.500354
     44          1           0       10.234099    2.108760    3.184663
     45          6           0        9.964398    0.277956    4.219317
     46          1           0        9.204100   -0.290937    4.762606
     47          1           0       10.706663    0.608331    4.954901
     48          1           0       10.470331   -0.408926    3.534617
     49          6           0        3.377428   -2.201372    0.944326
     50          1           0        3.127725   -2.037121    1.996714
     51          1           0        2.620237   -2.875168    0.536336
     52          1           0        4.335131   -2.729003    0.898130
     53          8           0        6.092369    0.933509   -1.964947
     54          8           0        6.265139    0.955440   -3.409691
     55          1           0        5.420088    1.344053   -3.690470
     56          8           0       -0.163879   -1.420309   -2.293307
     57          1           0       -0.354118   -2.276531   -1.884821
     58          6           0        8.589329    2.356025    4.533298
     59          1           0        7.717121    1.786500    4.879191
     60          1           0        9.234187    2.471616    5.416643
     61          6           0        8.126509    3.761033    4.100768
     62          1           0        7.428027    3.685103    3.259834
     63          1           0        7.548590    4.184574    4.932067
     64          6           0        9.276295    4.716897    3.741122
     65          1           0        9.805362    4.333856    2.858391
     66          1           0       10.009550    4.708030    4.561224
     67          6           0        8.882720    6.186549    3.458671
     68          1           0        9.818576    6.703904    3.200372
     69          6           0        7.941802    6.325410    2.250381
     70          1           0        6.958053    5.886078    2.452216
     71          1           0        7.782928    7.380354    1.999237
     72          1           0        8.353986    5.829867    1.363557
     73          6           0        8.303976    6.896464    4.693972
     74          1           0        7.331738    6.481193    4.983299
     75          1           0        8.155384    7.963923    4.494664
     76          1           0        8.975667    6.808254    5.556033
 ---------------------------------------------------------------------
 Rotational constants (GHZ):      0.2435355      0.0707793      0.0682753
 Leave Link  202 at Fri Apr 28 11:56:26 2017, MaxMem=    33554432 cpu:         0.0
 (Enter /home/michal/g09/l301.exe)
 Standard basis: 6-31G(d) (6D, 7F)
 Ernie: Thresh=  0.10000D-02 Tol=  0.10000D-05 Strict=F.
 AO basis set in the form of general basis input (Overlap normalization):
      1 0
 S   6 1.00       0.000000000000
      0.3047524880D+04  0.1834737132D-02
      0.4573695180D+03  0.1403732281D-01
      0.1039486850D+03  0.6884262226D-01
      0.2921015530D+02  0.2321844432D+00
      0.9286662960D+01  0.4679413484D+00
      0.3163926960D+01  0.3623119853D+00
 SP   3 1.00       0.000000000000
      0.7868272350D+01 -0.1193324198D+00  0.6899906659D-01
      0.1881288540D+01 -0.1608541517D+00  0.3164239610D+00
      0.5442492580D+00  0.1143456438D+01  0.7443082909D+00
 SP   1 1.00       0.000000000000
      0.1687144782D+00  0.1000000000D+01  0.1000000000D+01
 D   1 1.00       0.000000000000
      0.8000000000D+00  0.1000000000D+01
 ****
      2 0
 S   3 1.00       0.000000000000
      0.1873113696D+02  0.3349460434D-01
      0.2825394365D+01  0.2347269535D+00
      0.6401216923D+00  0.8137573261D+00
 S   1 1.00       0.000000000000
      0.1612777588D+00  0.1000000000D+01
 ****
      3 0
 S   6 1.00       0.000000000000
      0.3047524880D+04  0.1834737132D-02
      0.4573695180D+03  0.1403732281D-01
      0.1039486850D+03  0.6884262226D-01
      0.2921015530D+02  0.2321844432D+00
      0.9286662960D+01  0.4679413484D+00
      0.3163926960D+01  0.3623119853D+00
 SP   3 1.00       0.000000000000
      0.7868272350D+01 -0.1193324198D+00  0.6899906659D-01
      0.1881288540D+01 -0.1608541517D+00  0.3164239610D+00
      0.5442492580D+00  0.1143456438D+01  0.7443082909D+00
 SP   1 1.00       0.000000000000
      0.1687144782D+00  0.1000000000D+01  0.1000000000D+01
 D   1 1.00       0.000000000000
      0.8000000000D+00  0.1000000000D+01
 ****
      4 0
 S   3 1.00       0.000000000000
      0.1873113696D+02  0.3349460434D-01
      0.2825394365D+01  0.2347269535D+00
      0.6401216923D+00  0.8137573261D+00
 S   1 1.00       0.000000000000
      0.1612777588D+00  0.1000000000D+01
 ****
      5 0
 S   3 1.00       0.000000000000
      0.1873113696D+02  0.3349460434D-01
      0.2825394365D+01  0.2347269535D+00
      0.6401216923D+00  0.8137573261D+00
 S   1 1.00       0.000000000000
      0.1612777588D+00  0.1000000000D+01
 ****
      6 0
 S   6 1.00       0.000000000000
      0.3047524880D+04  0.1834737132D-02
      0.4573695180D+03  0.1403732281D-01
      0.1039486850D+03  0.6884262226D-01
      0.2921015530D+02  0.2321844432D+00
      0.9286662960D+01  0.4679413484D+00
      0.3163926960D+01  0.3623119853D+00
 SP   3 1.00       0.000000000000
      0.7868272350D+01 -0.1193324198D+00  0.6899906659D-01
      0.1881288540D+01 -0.1608541517D+00  0.3164239610D+00
      0.5442492580D+00  0.1143456438D+01  0.7443082909D+00
 SP   1 1.00       0.000000000000
      0.1687144782D+00  0.1000000000D+01  0.1000000000D+01
 D   1 1.00       0.000000000000
      0.8000000000D+00  0.1000000000D+01
 ****
      7 0
 S   6 1.00       0.000000000000
      0.3047524880D+04  0.1834737132D-02
      0.4573695180D+03  0.1403732281D-01
      0.1039486850D+03  0.6884262226D-01
      0.2921015530D+02  0.2321844432D+00
      0.9286662960D+01  0.4679413484D+00
      0.3163926960D+01  0.3623119853D+00
 SP   3 1.00       0.000000000000
      0.7868272350D+01 -0.1193324198D+00  0.6899906659D-01
      0.1881288540D+01 -0.1608541517D+00  0.3164239610D+00
      0.5442492580D+00  0.1143456438D+01  0.7443082909D+00
 SP   1 1.00       0.000000000000
      0.1687144782D+00  0.1000000000D+01  0.1000000000D+01
 D   1 1.00       0.000000000000
      0.8000000000D+00  0.1000000000D+01
 ****
      8 0
 S   6 1.00       0.000000000000
      0.3047524880D+04  0.1834737132D-02
      0.4573695180D+03  0.1403732281D-01
      0.1039486850D+03  0.6884262226D-01
      0.2921015530D+02  0.2321844432D+00
      0.9286662960D+01  0.4679413484D+00
      0.3163926960D+01  0.3623119853D+00
 SP   3 1.00       0.000000000000
      0.7868272350D+01 -0.1193324198D+00  0.6899906659D-01
      0.1881288540D+01 -0.1608541517D+00  0.3164239610D+00
      0.5442492580D+00  0.1143456438D+01  0.7443082909D+00
 SP   1 1.00       0.000000000000
      0.1687144782D+00  0.1000000000D+01  0.1000000000D+01
 D   1 1.00       0.000000000000
      0.8000000000D+00  0.1000000000D+01
 ****
      9 0
 S   3 1.00       0.000000000000
      0.1873113696D+02  0.3349460434D-01
      0.2825394365D+01  0.2347269535D+00
      0.6401216923D+00  0.8137573261D+00
 S   1 1.00       0.000000000000
      0.1612777588D+00  0.1000000000D+01
 ****
     10 0
 S   3 1.00       0.000000000000
      0.1873113696D+02  0.3349460434D-01
      0.2825394365D+01  0.2347269535D+00
      0.6401216923D+00  0.8137573261D+00
 S   1 1.00       0.000000000000
      0.1612777588D+00  0.1000000000D+01
 ****
     11 0
 S   6 1.00       0.000000000000
      0.3047524880D+04  0.1834737132D-02
      0.4573695180D+03  0.1403732281D-01
      0.1039486850D+03  0.6884262226D-01
      0.2921015530D+02  0.2321844432D+00
      0.9286662960D+01  0.4679413484D+00
      0.3163926960D+01  0.3623119853D+00
 SP   3 1.00       0.000000000000
      0.7868272350D+01 -0.1193324198D+00  0.6899906659D-01
      0.1881288540D+01 -0.1608541517D+00  0.3164239610D+00
      0.5442492580D+00  0.1143456438D+01  0.7443082909D+00
 SP   1 1.00       0.000000000000
      0.1687144782D+00  0.1000000000D+01  0.1000000000D+01
 D   1 1.00       0.000000000000
      0.8000000000D+00  0.1000000000D+01
 ****
     12 0
 S   3 1.00       0.000000000000
      0.1873113696D+02  0.3349460434D-01
      0.2825394365D+01  0.2347269535D+00
      0.6401216923D+00  0.8137573261D+00
 S   1 1.00       0.000000000000
      0.1612777588D+00  0.1000000000D+01
 ****
     13 0
 S   3 1.00       0.000000000000
      0.1873113696D+02  0.3349460434D-01
      0.2825394365D+01  0.2347269535D+00
      0.6401216923D+00  0.8137573261D+00
 S   1 1.00       0.000000000000
      0.1612777588D+00  0.1000000000D+01
 ****
     14 0
 S   6 1.00       0.000000000000
      0.3047524880D+04  0.1834737132D-02
      0.4573695180D+03  0.1403732281D-01
      0.1039486850D+03  0.6884262226D-01
      0.2921015530D+02  0.2321844432D+00
      0.9286662960D+01  0.4679413484D+00
      0.3163926960D+01  0.3623119853D+00
 SP   3 1.00       0.000000000000
      0.7868272350D+01 -0.1193324198D+00  0.6899906659D-01
      0.1881288540D+01 -0.1608541517D+00  0.3164239610D+00
      0.5442492580D+00  0.1143456438D+01  0.7443082909D+00
 SP   1 1.00       0.000000000000
      0.1687144782D+00  0.1000000000D+01  0.1000000000D+01
 D   1 1.00       0.000000000000
      0.8000000000D+00  0.1000000000D+01
 ****
     15 0
 S   3 1.00       0.000000000000
      0.1873113696D+02  0.3349460434D-01
      0.2825394365D+01  0.2347269535D+00
      0.6401216923D+00  0.8137573261D+00
 S   1 1.00       0.000000000000
      0.1612777588D+00  0.1000000000D+01
 ****
     16 0
 S   6 1.00       0.000000000000
      0.3047524880D+04  0.1834737132D-02
      0.4573695180D+03  0.1403732281D-01
      0.1039486850D+03  0.6884262226D-01
      0.2921015530D+02  0.2321844432D+00
      0.9286662960D+01  0.4679413484D+00
      0.3163926960D+01  0.3623119853D+00
 SP   3 1.00       0.000000000000
      0.7868272350D+01 -0.1193324198D+00  0.6899906659D-01
      0.1881288540D+01 -0.1608541517D+00  0.3164239610D+00
      0.5442492580D+00  0.1143456438D+01  0.7443082909D+00
 SP   1 1.00       0.000000000000
      0.1687144782D+00  0.1000000000D+01  0.1000000000D+01
 D   1 1.00       0.000000000000
      0.8000000000D+00  0.1000000000D+01
 ****
     17 0
 S   3 1.00       0.000000000000
      0.1873113696D+02  0.3349460434D-01
      0.2825394365D+01  0.2347269535D+00
      0.6401216923D+00  0.8137573261D+00
 S   1 1.00       0.000000000000
      0.1612777588D+00  0.1000000000D+01
 ****
     18 0
 S   6 1.00       0.000000000000
      0.3047524880D+04  0.1834737132D-02
      0.4573695180D+03  0.1403732281D-01
      0.1039486850D+03  0.6884262226D-01
      0.2921015530D+02  0.2321844432D+00
      0.9286662960D+01  0.4679413484D+00
      0.3163926960D+01  0.3623119853D+00
 SP   3 1.00       0.000000000000
      0.7868272350D+01 -0.1193324198D+00  0.6899906659D-01
      0.1881288540D+01 -0.1608541517D+00  0.3164239610D+00
      0.5442492580D+00  0.1143456438D+01  0.7443082909D+00
 SP   1 1.00       0.000000000000
      0.1687144782D+00  0.1000000000D+01  0.1000000000D+01
 D   1 1.00       0.000000000000
      0.8000000000D+00  0.1000000000D+01
 ****
     19 0
 S   3 1.00       0.000000000000
      0.1873113696D+02  0.3349460434D-01
      0.2825394365D+01  0.2347269535D+00
      0.6401216923D+00  0.8137573261D+00
 S   1 1.00       0.000000000000
      0.1612777588D+00  0.1000000000D+01
 ****
     20 0
 S   6 1.00       0.000000000000
      0.3047524880D+04  0.1834737132D-02
      0.4573695180D+03  0.1403732281D-01
      0.1039486850D+03  0.6884262226D-01
      0.2921015530D+02  0.2321844432D+00
      0.9286662960D+01  0.4679413484D+00
      0.3163926960D+01  0.3623119853D+00
 SP   3 1.00       0.000000000000
      0.7868272350D+01 -0.1193324198D+00  0.6899906659D-01
      0.1881288540D+01 -0.1608541517D+00  0.3164239610D+00
      0.5442492580D+00  0.1143456438D+01  0.7443082909D+00
 SP   1 1.00       0.000000000000
      0.1687144782D+00  0.1000000000D+01  0.1000000000D+01
 D   1 1.00       0.000000000000
      0.8000000000D+00  0.1000000000D+01
 ****
     21 0
 S   3 1.00       0.000000000000
      0.1873113696D+02  0.3349460434D-01
      0.2825394365D+01  0.2347269535D+00
      0.6401216923D+00  0.8137573261D+00
 S   1 1.00       0.000000000000
      0.1612777588D+00  0.1000000000D+01
 ****
     22 0
 S   6 1.00       0.000000000000
      0.3047524880D+04  0.1834737132D-02
      0.4573695180D+03  0.1403732281D-01
      0.1039486850D+03  0.6884262226D-01
      0.2921015530D+02  0.2321844432D+00
      0.9286662960D+01  0.4679413484D+00
      0.3163926960D+01  0.3623119853D+00
 SP   3 1.00       0.000000000000
      0.7868272350D+01 -0.1193324198D+00  0.6899906659D-01
      0.1881288540D+01 -0.1608541517D+00  0.3164239610D+00
      0.5442492580D+00  0.1143456438D+01  0.7443082909D+00
 SP   1 1.00       0.000000000000
      0.1687144782D+00  0.1000000000D+01  0.1000000000D+01
 D   1 1.00       0.000000000000
      0.8000000000D+00  0.1000000000D+01
 ****
     23 0
 S   3 1.00       0.000000000000
      0.1873113696D+02  0.3349460434D-01
      0.2825394365D+01  0.2347269535D+00
      0.6401216923D+00  0.8137573261D+00
 S   1 1.00       0.000000000000
      0.1612777588D+00  0.1000000000D+01
 ****
     24 0
 S   3 1.00       0.000000000000
      0.1873113696D+02  0.3349460434D-01
      0.2825394365D+01  0.2347269535D+00
      0.6401216923D+00  0.8137573261D+00
 S   1 1.00       0.000000000000
      0.1612777588D+00  0.1000000000D+01
 ****
     25 0
 S   6 1.00       0.000000000000
      0.3047524880D+04  0.1834737132D-02
      0.4573695180D+03  0.1403732281D-01
      0.1039486850D+03  0.6884262226D-01
      0.2921015530D+02  0.2321844432D+00
      0.9286662960D+01  0.4679413484D+00
      0.3163926960D+01  0.3623119853D+00
 SP   3 1.00       0.000000000000
      0.7868272350D+01 -0.1193324198D+00  0.6899906659D-01
      0.1881288540D+01 -0.1608541517D+00  0.3164239610D+00
      0.5442492580D+00  0.1143456438D+01  0.7443082909D+00
 SP   1 1.00       0.000000000000
      0.1687144782D+00  0.1000000000D+01  0.1000000000D+01
 D   1 1.00       0.000000000000
      0.8000000000D+00  0.1000000000D+01
 ****
     26 0
 S   3 1.00       0.000000000000
      0.1873113696D+02  0.3349460434D-01
      0.2825394365D+01  0.2347269535D+00
      0.6401216923D+00  0.8137573261D+00
 S   1 1.00       0.000000000000
      0.1612777588D+00  0.1000000000D+01
 ****
     27 0
 S   3 1.00       0.000000000000
      0.1873113696D+02  0.3349460434D-01
      0.2825394365D+01  0.2347269535D+00
      0.6401216923D+00  0.8137573261D+00
 S   1 1.00       0.000000000000
      0.1612777588D+00  0.1000000000D+01
 ****
     28 0
 S   6 1.00       0.000000000000
      0.3047524880D+04  0.1834737132D-02
      0.4573695180D+03  0.1403732281D-01
      0.1039486850D+03  0.6884262226D-01
      0.2921015530D+02  0.2321844432D+00
      0.9286662960D+01  0.4679413484D+00
      0.3163926960D+01  0.3623119853D+00
 SP   3 1.00       0.000000000000
      0.7868272350D+01 -0.1193324198D+00  0.6899906659D-01
      0.1881288540D+01 -0.1608541517D+00  0.3164239610D+00
      0.5442492580D+00  0.1143456438D+01  0.7443082909D+00
 SP   1 1.00       0.000000000000
      0.1687144782D+00  0.1000000000D+01  0.1000000000D+01
 D   1 1.00       0.000000000000
      0.8000000000D+00  0.1000000000D+01
 ****
     29 0
 S   6 1.00       0.000000000000
      0.3047524880D+04  0.1834737132D-02
      0.4573695180D+03  0.1403732281D-01
      0.1039486850D+03  0.6884262226D-01
      0.2921015530D+02  0.2321844432D+00
      0.9286662960D+01  0.4679413484D+00
      0.3163926960D+01  0.3623119853D+00
 SP   3 1.00       0.000000000000
      0.7868272350D+01 -0.1193324198D+00  0.6899906659D-01
      0.1881288540D+01 -0.1608541517D+00  0.3164239610D+00
      0.5442492580D+00  0.1143456438D+01  0.7443082909D+00
 SP   1 1.00       0.000000000000
      0.1687144782D+00  0.1000000000D+01  0.1000000000D+01
 D   1 1.00       0.000000000000
      0.8000000000D+00  0.1000000000D+01
 ****
     30 0
 S   3 1.00       0.000000000000
      0.1873113696D+02  0.3349460434D-01
      0.2825394365D+01  0.2347269535D+00
      0.6401216923D+00  0.8137573261D+00
 S   1 1.00       0.000000000000
      0.1612777588D+00  0.1000000000D+01
 ****
     31 0
 S   6 1.00       0.000000000000
      0.3047524880D+04  0.1834737132D-02
      0.4573695180D+03  0.1403732281D-01
      0.1039486850D+03  0.6884262226D-01
      0.2921015530D+02  0.2321844432D+00
      0.9286662960D+01  0.4679413484D+00
      0.3163926960D+01  0.3623119853D+00
 SP   3 1.00       0.000000000000
      0.7868272350D+01 -0.1193324198D+00  0.6899906659D-01
      0.1881288540D+01 -0.1608541517D+00  0.3164239610D+00
      0.5442492580D+00  0.1143456438D+01  0.7443082909D+00
 SP   1 1.00       0.000000000000
      0.1687144782D+00  0.1000000000D+01  0.1000000000D+01
 D   1 1.00       0.000000000000
      0.8000000000D+00  0.1000000000D+01
 ****
     32 0
 S   3 1.00       0.000000000000
      0.1873113696D+02  0.3349460434D-01
      0.2825394365D+01  0.2347269535D+00
      0.6401216923D+00  0.8137573261D+00
 S   1 1.00       0.000000000000
      0.1612777588D+00  0.1000000000D+01
 ****
     33 0
 S   3 1.00       0.000000000000
      0.1873113696D+02  0.3349460434D-01
      0.2825394365D+01  0.2347269535D+00
      0.6401216923D+00  0.8137573261D+00
 S   1 1.00       0.000000000000
      0.1612777588D+00  0.1000000000D+01
 ****
     34 0
 S   6 1.00       0.000000000000
      0.3047524880D+04  0.1834737132D-02
      0.4573695180D+03  0.1403732281D-01
      0.1039486850D+03  0.6884262226D-01
      0.2921015530D+02  0.2321844432D+00
      0.9286662960D+01  0.4679413484D+00
      0.3163926960D+01  0.3623119853D+00
 SP   3 1.00       0.000000000000
      0.7868272350D+01 -0.1193324198D+00  0.6899906659D-01
      0.1881288540D+01 -0.1608541517D+00  0.3164239610D+00
      0.5442492580D+00  0.1143456438D+01  0.7443082909D+00
 SP   1 1.00       0.000000000000
      0.1687144782D+00  0.1000000000D+01  0.1000000000D+01
 D   1 1.00       0.000000000000
      0.8000000000D+00  0.1000000000D+01
 ****
     35 0
 S   3 1.00       0.000000000000
      0.1873113696D+02  0.3349460434D-01
      0.2825394365D+01  0.2347269535D+00
      0.6401216923D+00  0.8137573261D+00
 S   1 1.00       0.000000000000
      0.1612777588D+00  0.1000000000D+01
 ****
     36 0
 S   3 1.00       0.000000000000
      0.1873113696D+02  0.3349460434D-01
      0.2825394365D+01  0.2347269535D+00
      0.6401216923D+00  0.8137573261D+00
 S   1 1.00       0.000000000000
      0.1612777588D+00  0.1000000000D+01
 ****
     37 0
 S   6 1.00       0.000000000000
      0.3047524880D+04  0.1834737132D-02
      0.4573695180D+03  0.1403732281D-01
      0.1039486850D+03  0.6884262226D-01
      0.2921015530D+02  0.2321844432D+00
      0.9286662960D+01  0.4679413484D+00
      0.3163926960D+01  0.3623119853D+00
 SP   3 1.00       0.000000000000
      0.7868272350D+01 -0.1193324198D+00  0.6899906659D-01
      0.1881288540D+01 -0.1608541517D+00  0.3164239610D+00
      0.5442492580D+00  0.1143456438D+01  0.7443082909D+00
 SP   1 1.00       0.000000000000
      0.1687144782D+00  0.1000000000D+01  0.1000000000D+01
 D   1 1.00       0.000000000000
      0.8000000000D+00  0.1000000000D+01
 ****
     38 0
 S   3 1.00       0.000000000000
      0.1873113696D+02  0.3349460434D-01
      0.2825394365D+01  0.2347269535D+00
      0.6401216923D+00  0.8137573261D+00
 S   1 1.00       0.000000000000
      0.1612777588D+00  0.1000000000D+01
 ****
     39 0
 S   6 1.00       0.000000000000
      0.3047524880D+04  0.1834737132D-02
      0.4573695180D+03  0.1403732281D-01
      0.1039486850D+03  0.6884262226D-01
      0.2921015530D+02  0.2321844432D+00
      0.9286662960D+01  0.4679413484D+00
      0.3163926960D+01  0.3623119853D+00
 SP   3 1.00       0.000000000000
      0.7868272350D+01 -0.1193324198D+00  0.6899906659D-01
      0.1881288540D+01 -0.1608541517D+00  0.3164239610D+00
      0.5442492580D+00  0.1143456438D+01  0.7443082909D+00
 SP   1 1.00       0.000000000000
      0.1687144782D+00  0.1000000000D+01  0.1000000000D+01
 D   1 1.00       0.000000000000
      0.8000000000D+00  0.1000000000D+01
 ****
     40 0
 S   3 1.00       0.000000000000
      0.1873113696D+02  0.3349460434D-01
      0.2825394365D+01  0.2347269535D+00
      0.6401216923D+00  0.8137573261D+00
 S   1 1.00       0.000000000000
      0.1612777588D+00  0.1000000000D+01
 ****
     41 0
 S   3 1.00       0.000000000000
      0.1873113696D+02  0.3349460434D-01
      0.2825394365D+01  0.2347269535D+00
      0.6401216923D+00  0.8137573261D+00
 S   1 1.00       0.000000000000
      0.1612777588D+00  0.1000000000D+01
 ****
     42 0
 S   3 1.00       0.000000000000
      0.1873113696D+02  0.3349460434D-01
      0.2825394365D+01  0.2347269535D+00
      0.6401216923D+00  0.8137573261D+00
 S   1 1.00       0.000000000000
      0.1612777588D+00  0.1000000000D+01
 ****
     43 0
 S   6 1.00       0.000000000000
      0.3047524880D+04  0.1834737132D-02
      0.4573695180D+03  0.1403732281D-01
      0.1039486850D+03  0.6884262226D-01
      0.2921015530D+02  0.2321844432D+00
      0.9286662960D+01  0.4679413484D+00
      0.3163926960D+01  0.3623119853D+00
 SP   3 1.00       0.000000000000
      0.7868272350D+01 -0.1193324198D+00  0.6899906659D-01
      0.1881288540D+01 -0.1608541517D+00  0.3164239610D+00
      0.5442492580D+00  0.1143456438D+01  0.7443082909D+00
 SP   1 1.00       0.000000000000
      0.1687144782D+00  0.1000000000D+01  0.1000000000D+01
 D   1 1.00       0.000000000000
      0.8000000000D+00  0.1000000000D+01
 ****
     44 0
 S   3 1.00       0.000000000000
      0.1873113696D+02  0.3349460434D-01
      0.2825394365D+01  0.2347269535D+00
      0.6401216923D+00  0.8137573261D+00
 S   1 1.00       0.000000000000
      0.1612777588D+00  0.1000000000D+01
 ****
     45 0
 S   6 1.00       0.000000000000
      0.3047524880D+04  0.1834737132D-02
      0.4573695180D+03  0.1403732281D-01
      0.1039486850D+03  0.6884262226D-01
      0.2921015530D+02  0.2321844432D+00
      0.9286662960D+01  0.4679413484D+00
      0.3163926960D+01  0.3623119853D+00
 SP   3 1.00       0.000000000000
      0.7868272350D+01 -0.1193324198D+00  0.6899906659D-01
      0.1881288540D+01 -0.1608541517D+00  0.3164239610D+00
      0.5442492580D+00  0.1143456438D+01  0.7443082909D+00
 SP   1 1.00       0.000000000000
      0.1687144782D+00  0.1000000000D+01  0.1000000000D+01
 D   1 1.00       0.000000000000
      0.8000000000D+00  0.1000000000D+01
 ****
     46 0
 S   3 1.00       0.000000000000
      0.1873113696D+02  0.3349460434D-01
      0.2825394365D+01  0.2347269535D+00
      0.6401216923D+00  0.8137573261D+00
 S   1 1.00       0.000000000000
      0.1612777588D+00  0.1000000000D+01
 ****
     47 0
 S   3 1.00       0.000000000000
      0.1873113696D+02  0.3349460434D-01
      0.2825394365D+01  0.2347269535D+00
      0.6401216923D+00  0.8137573261D+00
 S   1 1.00       0.000000000000
      0.1612777588D+00  0.1000000000D+01
 ****
     48 0
 S   3 1.00       0.000000000000
      0.1873113696D+02  0.3349460434D-01
      0.2825394365D+01  0.2347269535D+00
      0.6401216923D+00  0.8137573261D+00
 S   1 1.00       0.000000000000
      0.1612777588D+00  0.1000000000D+01
 ****
     49 0
 S   6 1.00       0.000000000000
      0.3047524880D+04  0.1834737132D-02
      0.4573695180D+03  0.1403732281D-01
      0.1039486850D+03  0.6884262226D-01
      0.2921015530D+02  0.2321844432D+00
      0.9286662960D+01  0.4679413484D+00
      0.3163926960D+01  0.3623119853D+00
 SP   3 1.00       0.000000000000
      0.7868272350D+01 -0.1193324198D+00  0.6899906659D-01
      0.1881288540D+01 -0.1608541517D+00  0.3164239610D+00
      0.5442492580D+00  0.1143456438D+01  0.7443082909D+00
 SP   1 1.00       0.000000000000
      0.1687144782D+00  0.1000000000D+01  0.1000000000D+01
 D   1 1.00       0.000000000000
      0.8000000000D+00  0.1000000000D+01
 ****
     50 0
 S   3 1.00       0.000000000000
      0.1873113696D+02  0.3349460434D-01
      0.2825394365D+01  0.2347269535D+00
      0.6401216923D+00  0.8137573261D+00
 S   1 1.00       0.000000000000
      0.1612777588D+00  0.1000000000D+01
 ****
     51 0
 S   3 1.00       0.000000000000
      0.1873113696D+02  0.3349460434D-01
      0.2825394365D+01  0.2347269535D+00
      0.6401216923D+00  0.8137573261D+00
 S   1 1.00       0.000000000000
      0.1612777588D+00  0.1000000000D+01
 ****
     52 0
 S   3 1.00       0.000000000000
      0.1873113696D+02  0.3349460434D-01
      0.2825394365D+01  0.2347269535D+00
      0.6401216923D+00  0.8137573261D+00
 S   1 1.00       0.000000000000
      0.1612777588D+00  0.1000000000D+01
 ****
     53 0
 S   6 1.00       0.000000000000
      0.5484671660D+04  0.1831074430D-02
      0.8252349460D+03  0.1395017220D-01
      0.1880469580D+03  0.6844507810D-01
      0.5296450000D+02  0.2327143360D+00
      0.1689757040D+02  0.4701928980D+00
      0.5799635340D+01  0.3585208530D+00
 SP   3 1.00       0.000000000000
      0.1553961625D+02 -0.1107775495D+00  0.7087426823D-01
      0.3599933586D+01 -0.1480262627D+00  0.3397528391D+00
      0.1013761750D+01  0.1130767015D+01  0.7271585773D+00
 SP   1 1.00       0.000000000000
      0.2700058226D+00  0.1000000000D+01  0.1000000000D+01
 D   1 1.00       0.000000000000
      0.8000000000D+00  0.1000000000D+01
 ****
     54 0
 S   6 1.00       0.000000000000
      0.5484671660D+04  0.1831074430D-02
      0.8252349460D+03  0.1395017220D-01
      0.1880469580D+03  0.6844507810D-01
      0.5296450000D+02  0.2327143360D+00
      0.1689757040D+02  0.4701928980D+00
      0.5799635340D+01  0.3585208530D+00
 SP   3 1.00       0.000000000000
      0.1553961625D+02 -0.1107775495D+00  0.7087426823D-01
      0.3599933586D+01 -0.1480262627D+00  0.3397528391D+00
      0.1013761750D+01  0.1130767015D+01  0.7271585773D+00
 SP   1 1.00       0.000000000000
      0.2700058226D+00  0.1000000000D+01  0.1000000000D+01
 D   1 1.00       0.000000000000
      0.8000000000D+00  0.1000000000D+01
 ****
     55 0
 S   3 1.00       0.000000000000
      0.1873113696D+02  0.3349460434D-01
      0.2825394365D+01  0.2347269535D+00
      0.6401216923D+00  0.8137573261D+00
 S   1 1.00       0.000000000000
      0.1612777588D+00  0.1000000000D+01
 ****
     56 0
 S   6 1.00       0.000000000000
      0.5484671660D+04  0.1831074430D-02
      0.8252349460D+03  0.1395017220D-01
      0.1880469580D+03  0.6844507810D-01
      0.5296450000D+02  0.2327143360D+00
      0.1689757040D+02  0.4701928980D+00
      0.5799635340D+01  0.3585208530D+00
 SP   3 1.00       0.000000000000
      0.1553961625D+02 -0.1107775495D+00  0.7087426823D-01
      0.3599933586D+01 -0.1480262627D+00  0.3397528391D+00
      0.1013761750D+01  0.1130767015D+01  0.7271585773D+00
 SP   1 1.00       0.000000000000
      0.2700058226D+00  0.1000000000D+01  0.1000000000D+01
 D   1 1.00       0.000000000000
      0.8000000000D+00  0.1000000000D+01
 ****
     57 0
 S   3 1.00       0.000000000000
      0.1873113696D+02  0.3349460434D-01
      0.2825394365D+01  0.2347269535D+00
      0.6401216923D+00  0.8137573261D+00
 S   1 1.00       0.000000000000
      0.1612777588D+00  0.1000000000D+01
 ****
     58 0
 S   6 1.00       0.000000000000
      0.3047524880D+04  0.1834737132D-02
      0.4573695180D+03  0.1403732281D-01
      0.1039486850D+03  0.6884262226D-01
      0.2921015530D+02  0.2321844432D+00
      0.9286662960D+01  0.4679413484D+00
      0.3163926960D+01  0.3623119853D+00
 SP   3 1.00       0.000000000000
      0.7868272350D+01 -0.1193324198D+00  0.6899906659D-01
      0.1881288540D+01 -0.1608541517D+00  0.3164239610D+00
      0.5442492580D+00  0.1143456438D+01  0.7443082909D+00
 SP   1 1.00       0.000000000000
      0.1687144782D+00  0.1000000000D+01  0.1000000000D+01
 D   1 1.00       0.000000000000
      0.8000000000D+00  0.1000000000D+01
 ****
     59 0
 S   3 1.00       0.000000000000
      0.1873113696D+02  0.3349460434D-01
      0.2825394365D+01  0.2347269535D+00
      0.6401216923D+00  0.8137573261D+00
 S   1 1.00       0.000000000000
      0.1612777588D+00  0.1000000000D+01
 ****
     60 0
 S   3 1.00       0.000000000000
      0.1873113696D+02  0.3349460434D-01
      0.2825394365D+01  0.2347269535D+00
      0.6401216923D+00  0.8137573261D+00
 S   1 1.00       0.000000000000
      0.1612777588D+00  0.1000000000D+01
 ****
     61 0
 S   6 1.00       0.000000000000
      0.3047524880D+04  0.1834737132D-02
      0.4573695180D+03  0.1403732281D-01
      0.1039486850D+03  0.6884262226D-01
      0.2921015530D+02  0.2321844432D+00
      0.9286662960D+01  0.4679413484D+00
      0.3163926960D+01  0.3623119853D+00
 SP   3 1.00       0.000000000000
      0.7868272350D+01 -0.1193324198D+00  0.6899906659D-01
      0.1881288540D+01 -0.1608541517D+00  0.3164239610D+00
      0.5442492580D+00  0.1143456438D+01  0.7443082909D+00
 SP   1 1.00       0.000000000000
      0.1687144782D+00  0.1000000000D+01  0.1000000000D+01
 D   1 1.00       0.000000000000
      0.8000000000D+00  0.1000000000D+01
 ****
     62 0
 S   3 1.00       0.000000000000
      0.1873113696D+02  0.3349460434D-01
      0.2825394365D+01  0.2347269535D+00
      0.6401216923D+00  0.8137573261D+00
 S   1 1.00       0.000000000000
      0.1612777588D+00  0.1000000000D+01
 ****
     63 0
 S   3 1.00       0.000000000000
      0.1873113696D+02  0.3349460434D-01
      0.2825394365D+01  0.2347269535D+00
      0.6401216923D+00  0.8137573261D+00
 S   1 1.00       0.000000000000
      0.1612777588D+00  0.1000000000D+01
 ****
     64 0
 S   6 1.00       0.000000000000
      0.3047524880D+04  0.1834737132D-02
      0.4573695180D+03  0.1403732281D-01
      0.1039486850D+03  0.6884262226D-01
      0.2921015530D+02  0.2321844432D+00
      0.9286662960D+01  0.4679413484D+00
      0.3163926960D+01  0.3623119853D+00
 SP   3 1.00       0.000000000000
      0.7868272350D+01 -0.1193324198D+00  0.6899906659D-01
      0.1881288540D+01 -0.1608541517D+00  0.3164239610D+00
      0.5442492580D+00  0.1143456438D+01  0.7443082909D+00
 SP   1 1.00       0.000000000000
      0.1687144782D+00  0.1000000000D+01  0.1000000000D+01
 D   1 1.00       0.000000000000
      0.8000000000D+00  0.1000000000D+01
 ****
     65 0
 S   3 1.00       0.000000000000
      0.1873113696D+02  0.3349460434D-01
      0.2825394365D+01  0.2347269535D+00
      0.6401216923D+00  0.8137573261D+00
 S   1 1.00       0.000000000000
      0.1612777588D+00  0.1000000000D+01
 ****
     66 0
 S   3 1.00       0.000000000000
      0.1873113696D+02  0.3349460434D-01
      0.2825394365D+01  0.2347269535D+00
      0.6401216923D+00  0.8137573261D+00
 S   1 1.00       0.000000000000
      0.1612777588D+00  0.1000000000D+01
 ****
     67 0
 S   6 1.00       0.000000000000
      0.3047524880D+04  0.1834737132D-02
      0.4573695180D+03  0.1403732281D-01
      0.1039486850D+03  0.6884262226D-01
      0.2921015530D+02  0.2321844432D+00
      0.9286662960D+01  0.4679413484D+00
      0.3163926960D+01  0.3623119853D+00
 SP   3 1.00       0.000000000000
      0.7868272350D+01 -0.1193324198D+00  0.6899906659D-01
      0.1881288540D+01 -0.1608541517D+00  0.3164239610D+00
      0.5442492580D+00  0.1143456438D+01  0.7443082909D+00
 SP   1 1.00       0.000000000000
      0.1687144782D+00  0.1000000000D+01  0.1000000000D+01
 D   1 1.00       0.000000000000
      0.8000000000D+00  0.1000000000D+01
 ****
     68 0
 S   3 1.00       0.000000000000
      0.1873113696D+02  0.3349460434D-01
      0.2825394365D+01  0.2347269535D+00
      0.6401216923D+00  0.8137573261D+00
 S   1 1.00       0.000000000000
      0.1612777588D+00  0.1000000000D+01
 ****
     69 0
 S   6 1.00       0.000000000000
      0.3047524880D+04  0.1834737132D-02
      0.4573695180D+03  0.1403732281D-01
      0.1039486850D+03  0.6884262226D-01
      0.2921015530D+02  0.2321844432D+00
      0.9286662960D+01  0.4679413484D+00
      0.3163926960D+01  0.3623119853D+00
 SP   3 1.00       0.000000000000
      0.7868272350D+01 -0.1193324198D+00  0.6899906659D-01
      0.1881288540D+01 -0.1608541517D+00  0.3164239610D+00
      0.5442492580D+00  0.1143456438D+01  0.7443082909D+00
 SP   1 1.00       0.000000000000
      0.1687144782D+00  0.1000000000D+01  0.1000000000D+01
 D   1 1.00       0.000000000000
      0.8000000000D+00  0.1000000000D+01
 ****
     70 0
 S   3 1.00       0.000000000000
      0.1873113696D+02  0.3349460434D-01
      0.2825394365D+01  0.2347269535D+00
      0.6401216923D+00  0.8137573261D+00
 S   1 1.00       0.000000000000
      0.1612777588D+00  0.1000000000D+01
 ****
     71 0
 S   3 1.00       0.000000000000
      0.1873113696D+02  0.3349460434D-01
      0.2825394365D+01  0.2347269535D+00
      0.6401216923D+00  0.8137573261D+00
 S   1 1.00       0.000000000000
      0.1612777588D+00  0.1000000000D+01
 ****
     72 0
 S   3 1.00       0.000000000000
      0.1873113696D+02  0.3349460434D-01
      0.2825394365D+01  0.2347269535D+00
      0.6401216923D+00  0.8137573261D+00
 S   1 1.00       0.000000000000
      0.1612777588D+00  0.1000000000D+01
 ****
     73 0
 S   6 1.00       0.000000000000
      0.3047524880D+04  0.1834737132D-02
      0.4573695180D+03  0.1403732281D-01
      0.1039486850D+03  0.6884262226D-01
      0.2921015530D+02  0.2321844432D+00
      0.9286662960D+01  0.4679413484D+00
      0.3163926960D+01  0.3623119853D+00
 SP   3 1.00       0.000000000000
      0.7868272350D+01 -0.1193324198D+00  0.6899906659D-01
      0.1881288540D+01 -0.1608541517D+00  0.3164239610D+00
      0.5442492580D+00  0.1143456438D+01  0.7443082909D+00
 SP   1 1.00       0.000000000000
      0.1687144782D+00  0.1000000000D+01  0.1000000000D+01
 D   1 1.00       0.000000000000
      0.8000000000D+00  0.1000000000D+01
 ****
     74 0
 S   3 1.00       0.000000000000
      0.1873113696D+02  0.3349460434D-01
      0.2825394365D+01  0.2347269535D+00
      0.6401216923D+00  0.8137573261D+00
 S   1 1.00       0.000000000000
      0.1612777588D+00  0.1000000000D+01
 ****
     75 0
 S   3 1.00       0.000000000000
      0.1873113696D+02  0.3349460434D-01
      0.2825394365D+01  0.2347269535D+00
      0.6401216923D+00  0.8137573261D+00
 S   1 1.00       0.000000000000
      0.1612777588D+00  0.1000000000D+01
 ****
     76 0
 S   3 1.00       0.000000000000
      0.1873113696D+02  0.3349460434D-01
      0.2825394365D+01  0.2347269535D+00
      0.6401216923D+00  0.8137573261D+00
 S   1 1.00       0.000000000000
      0.1612777588D+00  0.1000000000D+01
 ****

 AO basis set (Overlap normalization):
 Atom C1       Shell     1 S   6     bf    1 -     1          1.915014542482         -1.656319122918         -3.195463169144
      0.3047524880D+04  0.1834737132D-02
      0.4573695180D+03  0.1403732281D-01
      0.1039486850D+03  0.6884262226D-01
      0.2921015530D+02  0.2321844432D+00
      0.9286662960D+01  0.4679413484D+00
      0.3163926960D+01  0.3623119853D+00
 Atom C1       Shell     2 SP   3    bf    2 -     5          1.915014542482         -1.656319122918         -3.195463169144
      0.7868272350D+01 -0.1193324198D+00  0.6899906659D-01
      0.1881288540D+01 -0.1608541517D+00  0.3164239610D+00
      0.5442492580D+00  0.1143456438D+01  0.7443082909D+00
 Atom C1       Shell     3 SP   1    bf    6 -     9          1.915014542482         -1.656319122918         -3.195463169144
      0.1687144782D+00  0.1000000000D+01  0.1000000000D+01
 Atom C1       Shell     4 D   1     bf   10 -    15          1.915014542482         -1.656319122918         -3.195463169144
      0.8000000000D+00  0.1000000000D+01
 Atom H2       Shell     5 S   3     bf   16 -    16          2.156305962308          0.180605435095         -4.125176849200
      0.1873113696D+02  0.3349460434D-01
      0.2825394365D+01  0.2347269535D+00
      0.6401216923D+00  0.8137573261D+00
 Atom H2       Shell     6 S   1     bf   17 -    17          2.156305962308          0.180605435095         -4.125176849200
      0.1612777588D+00  0.1000000000D+01
 Atom C3       Shell     7 S   6     bf   18 -    18          4.253011606446         -3.294370168823         -3.730725431770
      0.3047524880D+04  0.1834737132D-02
      0.4573695180D+03  0.1403732281D-01
      0.1039486850D+03  0.6884262226D-01
      0.2921015530D+02  0.2321844432D+00
      0.9286662960D+01  0.4679413484D+00
      0.3163926960D+01  0.3623119853D+00
 Atom C3       Shell     8 SP   3    bf   19 -    22          4.253011606446         -3.294370168823         -3.730725431770
      0.7868272350D+01 -0.1193324198D+00  0.6899906659D-01
      0.1881288540D+01 -0.1608541517D+00  0.3164239610D+00
      0.5442492580D+00  0.1143456438D+01  0.7443082909D+00
 Atom C3       Shell     9 SP   1    bf   23 -    26          4.253011606446         -3.294370168823         -3.730725431770
      0.1687144782D+00  0.1000000000D+01  0.1000000000D+01
 Atom C3       Shell    10 D   1     bf   27 -    32          4.253011606446         -3.294370168823         -3.730725431770
      0.8000000000D+00  0.1000000000D+01
 Atom H4       Shell    11 S   3     bf   33 -    33          4.512895418083         -3.490866896785         -5.773075598135
      0.1873113696D+02  0.3349460434D-01
      0.2825394365D+01  0.2347269535D+00
      0.6401216923D+00  0.8137573261D+00
 Atom H4       Shell    12 S   1     bf   34 -    34          4.512895418083         -3.490866896785         -5.773075598135
      0.1612777588D+00  0.1000000000D+01
 Atom H5       Shell    13 S   3     bf   35 -    35          3.870246860134         -5.202418462684         -2.992669968194
      0.1873113696D+02  0.3349460434D-01
      0.2825394365D+01  0.2347269535D+00
      0.6401216923D+00  0.8137573261D+00
 Atom H5       Shell    14 S   1     bf   36 -    36          3.870246860134         -5.202418462684         -2.992669968194
      0.1612777588D+00  0.1000000000D+01
 Atom C6       Shell    15 S   6     bf   37 -    37          6.629716554399         -2.235156145805         -2.524927280145
      0.3047524880D+04  0.1834737132D-02
      0.4573695180D+03  0.1403732281D-01
      0.1039486850D+03  0.6884262226D-01
      0.2921015530D+02  0.2321844432D+00
      0.9286662960D+01  0.4679413484D+00
      0.3163926960D+01  0.3623119853D+00
 Atom C6       Shell    16 SP   3    bf   38 -    41          6.629716554399         -2.235156145805         -2.524927280145
      0.7868272350D+01 -0.1193324198D+00  0.6899906659D-01
      0.1881288540D+01 -0.1608541517D+00  0.3164239610D+00
      0.5442492580D+00  0.1143456438D+01  0.7443082909D+00
 Atom C6       Shell    17 SP   1    bf   42 -    45          6.629716554399         -2.235156145805         -2.524927280145
      0.1687144782D+00  0.1000000000D+01  0.1000000000D+01
 Atom C6       Shell    18 D   1     bf   46 -    51          6.629716554399         -2.235156145805         -2.524927280145
      0.8000000000D+00  0.1000000000D+01
 Atom C7       Shell    19 S   6     bf   52 -    52          6.492538102982         -1.626365924362          0.305775168268
      0.3047524880D+04  0.1834737132D-02
      0.4573695180D+03  0.1403732281D-01
      0.1039486850D+03  0.6884262226D-01
      0.2921015530D+02  0.2321844432D+00
      0.9286662960D+01  0.4679413484D+00
      0.3163926960D+01  0.3623119853D+00
 Atom C7       Shell    20 SP   3    bf   53 -    56          6.492538102982         -1.626365924362          0.305775168268
      0.7868272350D+01 -0.1193324198D+00  0.6899906659D-01
      0.1881288540D+01 -0.1608541517D+00  0.3164239610D+00
      0.5442492580D+00  0.1143456438D+01  0.7443082909D+00
 Atom C7       Shell    21 SP   1    bf   57 -    60          6.492538102982         -1.626365924362          0.305775168268
      0.1687144782D+00  0.1000000000D+01  0.1000000000D+01
 Atom C7       Shell    22 D   1     bf   61 -    66          6.492538102982         -1.626365924362          0.305775168268
      0.8000000000D+00  0.1000000000D+01
 Atom C8       Shell    23 S   6     bf   67 -    67          4.024525103178         -0.088982025748          0.793254156048
      0.3047524880D+04  0.1834737132D-02
      0.4573695180D+03  0.1403732281D-01
      0.1039486850D+03  0.6884262226D-01
      0.2921015530D+02  0.2321844432D+00
      0.9286662960D+01  0.4679413484D+00
      0.3163926960D+01  0.3623119853D+00
 Atom C8       Shell    24 SP   3    bf   68 -    71          4.024525103178         -0.088982025748          0.793254156048
      0.7868272350D+01 -0.1193324198D+00  0.6899906659D-01
      0.1881288540D+01 -0.1608541517D+00  0.3164239610D+00
      0.5442492580D+00  0.1143456438D+01  0.7443082909D+00
 Atom C8       Shell    25 SP   1    bf   72 -    75          4.024525103178         -0.088982025748          0.793254156048
      0.1687144782D+00  0.1000000000D+01  0.1000000000D+01
 Atom C8       Shell    26 D   1     bf   76 -    81          4.024525103178         -0.088982025748          0.793254156048
      0.8000000000D+00  0.1000000000D+01
 Atom H9       Shell    27 S   3     bf   82 -    82          4.279513843830          1.812360593827          0.000000000000
      0.1873113696D+02  0.3349460434D-01
      0.2825394365D+01  0.2347269535D+00
      0.6401216923D+00  0.8137573261D+00
 Atom H9       Shell    28 S   1     bf   83 -    83          4.279513843830          1.812360593827          0.000000000000
      0.1612777588D+00  0.1000000000D+01
 Atom H10      Shell    29 S   3     bf   84 -    84          3.761249176440          0.155960061507          2.831659953747
      0.1873113696D+02  0.3349460434D-01
      0.2825394365D+01  0.2347269535D+00
      0.6401216923D+00  0.8137573261D+00
 Atom H10      Shell    30 S   1     bf   85 -    85          3.761249176440          0.155960061507          2.831659953747
      0.1612777588D+00  0.1000000000D+01
 Atom C11      Shell    31 S   6     bf   86 -    86          1.618667973782         -1.242896707045         -0.351877720690
      0.3047524880D+04  0.1834737132D-02
      0.4573695180D+03  0.1403732281D-01
      0.1039486850D+03  0.6884262226D-01
      0.2921015530D+02  0.2321844432D+00
      0.9286662960D+01  0.4679413484D+00
      0.3163926960D+01  0.3623119853D+00
 Atom C11      Shell    32 SP   3    bf   87 -    90          1.618667973782         -1.242896707045         -0.351877720690
      0.7868272350D+01 -0.1193324198D+00  0.6899906659D-01
      0.1881288540D+01 -0.1608541517D+00  0.3164239610D+00
      0.5442492580D+00  0.1143456438D+01  0.7443082909D+00
 Atom C11      Shell    33 SP   1    bf   91 -    94          1.618667973782         -1.242896707045         -0.351877720690
      0.1687144782D+00  0.1000000000D+01  0.1000000000D+01
 Atom C11      Shell    34 D   1     bf   95 -   100          1.618667973782         -1.242896707045         -0.351877720690
      0.8000000000D+00  0.1000000000D+01
 Atom H12      Shell    35 S   3     bf  101 -   101          1.180335906122         -3.061032474010          0.555736897255
      0.1873113696D+02  0.3349460434D-01
      0.2825394365D+01  0.2347269535D+00
      0.6401216923D+00  0.8137573261D+00
 Atom H12      Shell    36 S   1     bf  102 -   102          1.180335906122         -3.061032474010          0.555736897255
      0.1612777588D+00  0.1000000000D+01
 Atom H13      Shell    37 S   3     bf  103 -   103          0.000000000000          0.000000000000          0.000000000000
      0.1873113696D+02  0.3349460434D-01
      0.2825394365D+01  0.2347269535D+00
      0.6401216923D+00  0.8137573261D+00
 Atom H13      Shell    38 S   1     bf  104 -   104          0.000000000000          0.000000000000          0.000000000000
      0.1612777588D+00  0.1000000000D+01
 Atom C14      Shell    39 S   6     bf  105 -   105          8.709904839403         -1.882391142004         -3.932119233828
      0.3047524880D+04  0.1834737132D-02
      0.4573695180D+03  0.1403732281D-01
      0.1039486850D+03  0.6884262226D-01
      0.2921015530D+02  0.2321844432D+00
      0.9286662960D+01  0.4679413484D+00
      0.3163926960D+01  0.3623119853D+00
 Atom C14      Shell    40 SP   3    bf  106 -   109          8.709904839403         -1.882391142004         -3.932119233828
      0.7868272350D+01 -0.1193324198D+00  0.6899906659D-01
      0.1881288540D+01 -0.1608541517D+00  0.3164239610D+00
      0.5442492580D+00  0.1143456438D+01  0.7443082909D+00
 Atom C14      Shell    41 SP   1    bf  110 -   113          8.709904839403         -1.882391142004         -3.932119233828
      0.1687144782D+00  0.1000000000D+01  0.1000000000D+01
 Atom C14      Shell    42 D   1     bf  114 -   119          8.709904839403         -1.882391142004         -3.932119233828
      0.8000000000D+00  0.1000000000D+01
 Atom H15      Shell    43 S   3     bf  120 -   120          8.655128765284         -2.357045616767         -5.932699215004
      0.1873113696D+02  0.3349460434D-01
      0.2825394365D+01  0.2347269535D+00
      0.6401216923D+00  0.8137573261D+00
 Atom H15      Shell    44 S   1     bf  121 -   121          8.655128765284         -2.357045616767         -5.932699215004
      0.1612777588D+00  0.1000000000D+01
 Atom C16      Shell    45 S   6     bf  122 -   122         11.167805404444         -0.855188569451         -2.955190047143
      0.3047524880D+04  0.1834737132D-02
      0.4573695180D+03  0.1403732281D-01
      0.1039486850D+03  0.6884262226D-01
      0.2921015530D+02  0.2321844432D+00
      0.9286662960D+01  0.4679413484D+00
      0.3163926960D+01  0.3623119853D+00
 Atom C16      Shell    46 SP   3    bf  123 -   126         11.167805404444         -0.855188569451         -2.955190047143
      0.7868272350D+01 -0.1193324198D+00  0.6899906659D-01
      0.1881288540D+01 -0.1608541517D+00  0.3164239610D+00
      0.5442492580D+00  0.1143456438D+01  0.7443082909D+00
 Atom C16      Shell    47 SP   1    bf  127 -   130         11.167805404444         -0.855188569451         -2.955190047143
      0.1687144782D+00  0.1000000000D+01  0.1000000000D+01
 Atom C16      Shell    48 D   1     bf  131 -   136         11.167805404444         -0.855188569451         -2.955190047143
      0.8000000000D+00  0.1000000000D+01
 Atom H17      Shell    49 S   3     bf  137 -   137         12.756229766558         -1.913832594375         -3.765605580991
      0.1873113696D+02  0.3349460434D-01
      0.2825394365D+01  0.2347269535D+00
      0.6401216923D+00  0.8137573261D+00
 Atom H17      Shell    50 S   1     bf  138 -   138         12.756229766558         -1.913832594375         -3.765605580991
      0.1612777588D+00  0.1000000000D+01
 Atom C18      Shell    51 S   6     bf  139 -   139         11.329531738479         -0.913032443871         -0.051013138060
      0.3047524880D+04  0.1834737132D-02
      0.4573695180D+03  0.1403732281D-01
      0.1039486850D+03  0.6884262226D-01
      0.2921015530D+02  0.2321844432D+00
      0.9286662960D+01  0.4679413484D+00
      0.3163926960D+01  0.3623119853D+00
 Atom C18      Shell    52 SP   3    bf  140 -   143         11.329531738479         -0.913032443871         -0.051013138060
      0.7868272350D+01 -0.1193324198D+00  0.6899906659D-01
      0.1881288540D+01 -0.1608541517D+00  0.3164239610D+00
      0.5442492580D+00  0.1143456438D+01  0.7443082909D+00
 Atom C18      Shell    53 SP   1    bf  144 -   147         11.329531738479         -0.913032443871         -0.051013138060
      0.1687144782D+00  0.1000000000D+01  0.1000000000D+01
 Atom C18      Shell    54 D   1     bf  148 -   153         11.329531738479         -0.913032443871         -0.051013138060
      0.8000000000D+00  0.1000000000D+01
 Atom H19      Shell    55 S   3     bf  154 -   154         11.613550357498         -2.913750034905          0.427145720433
      0.1873113696D+02  0.3349460434D-01
      0.2825394365D+01  0.2347269535D+00
      0.6401216923D+00  0.8137573261D+00
 Atom H19      Shell    56 S   1     bf  155 -   155         11.613550357498         -2.913750034905          0.427145720433
      0.1612777588D+00  0.1000000000D+01
 Atom C20      Shell    57 S   6     bf  156 -   156          8.814529129908          0.021888263160          1.136390929614
      0.3047524880D+04  0.1834737132D-02
      0.4573695180D+03  0.1403732281D-01
      0.1039486850D+03  0.6884262226D-01
      0.2921015530D+02  0.2321844432D+00
      0.9286662960D+01  0.4679413484D+00
      0.3163926960D+01  0.3623119853D+00
 Atom C20      Shell    58 SP   3    bf  157 -   160          8.814529129908          0.021888263160          1.136390929614
      0.7868272350D+01 -0.1193324198D+00  0.6899906659D-01
      0.1881288540D+01 -0.1608541517D+00  0.3164239610D+00
      0.5442492580D+00  0.1143456438D+01  0.7443082909D+00
 Atom C20      Shell    59 SP   1    bf  161 -   164          8.814529129908          0.021888263160          1.136390929614
      0.1687144782D+00  0.1000000000D+01  0.1000000000D+01
 Atom C20      Shell    60 D   1     bf  165 -   170          8.814529129908          0.021888263160          1.136390929614
      0.8000000000D+00  0.1000000000D+01
 Atom H21      Shell    61 S   3     bf  171 -   171          8.488343747775          1.914532397757          0.341515955461
      0.1873113696D+02  0.3349460434D-01
      0.2825394365D+01  0.2347269535D+00
      0.6401216923D+00  0.8137573261D+00
 Atom H21      Shell    62 S   1     bf  172 -   172          8.488343747775          1.914532397757          0.341515955461
      0.1612777588D+00  0.1000000000D+01
 Atom C22      Shell    63 S   6     bf  173 -   173          9.020276709797          0.345767895952          4.037132014231
      0.3047524880D+04  0.1834737132D-02
      0.4573695180D+03  0.1403732281D-01
      0.1039486850D+03  0.6884262226D-01
      0.2921015530D+02  0.2321844432D+00
      0.9286662960D+01  0.4679413484D+00
      0.3163926960D+01  0.3623119853D+00
 Atom C22      Shell    64 SP   3    bf  174 -   177          9.020276709797          0.345767895952          4.037132014231
      0.7868272350D+01 -0.1193324198D+00  0.6899906659D-01
      0.1881288540D+01 -0.1608541517D+00  0.3164239610D+00
      0.5442492580D+00  0.1143456438D+01  0.7443082909D+00
 Atom C22      Shell    65 SP   1    bf  178 -   181          9.020276709797          0.345767895952          4.037132014231
      0.1687144782D+00  0.1000000000D+01  0.1000000000D+01
 Atom C22      Shell    66 D   1     bf  182 -   187          9.020276709797          0.345767895952          4.037132014231
      0.8000000000D+00  0.1000000000D+01
 Atom H23      Shell    67 S   3     bf  188 -   188          9.050137859793         -1.506974973705          4.956301381513
      0.1873113696D+02  0.3349460434D-01
      0.2825394365D+01  0.2347269535D+00
      0.6401216923D+00  0.8137573261D+00
 Atom H23      Shell    68 S   1     bf  189 -   189          9.050137859793         -1.506974973705          4.956301381513
      0.1612777588D+00  0.1000000000D+01
 Atom H24      Shell    69 S   3     bf  190 -   190          7.325168444666          1.303860009086          4.743462982256
      0.1873113696D+02  0.3349460434D-01
      0.2825394365D+01  0.2347269535D+00
      0.6401216923D+00  0.8137573261D+00
 Atom H24      Shell    70 S   1     bf  191 -   191          7.325168444666          1.303860009086          4.743462982256
      0.1612777588D+00  0.1000000000D+01
 Atom C25      Shell    71 S   6     bf  192 -   192         11.364518147000          1.840431171620          4.911814450448
      0.3047524880D+04  0.1834737132D-02
      0.4573695180D+03  0.1403732281D-01
      0.1039486850D+03  0.6884262226D-01
      0.2921015530D+02  0.2321844432D+00
      0.9286662960D+01  0.4679413484D+00
      0.3163926960D+01  0.3623119853D+00
 Atom C25      Shell    72 SP   3    bf  193 -   196         11.364518147000          1.840431171620          4.911814450448
      0.7868272350D+01 -0.1193324198D+00  0.6899906659D-01
      0.1881288540D+01 -0.1608541517D+00  0.3164239610D+00
      0.5442492580D+00  0.1143456438D+01  0.7443082909D+00
 Atom C25      Shell    73 SP   1    bf  197 -   200         11.364518147000          1.840431171620          4.911814450448
      0.1687144782D+00  0.1000000000D+01  0.1000000000D+01
 Atom C25      Shell    74 D   1     bf  201 -   206         11.364518147000          1.840431171620          4.911814450448
      0.8000000000D+00  0.1000000000D+01
 Atom H26      Shell    75 S   3     bf  207 -   207         11.220458201178          3.802515976381          4.248107578159
      0.1873113696D+02  0.3349460434D-01
      0.2825394365D+01  0.2347269535D+00
      0.6401216923D+00  0.8137573261D+00
 Atom H26      Shell    76 S   1     bf  208 -   208         11.220458201178          3.802515976381          4.248107578159
      0.1612777588D+00  0.1000000000D+01
 Atom H27      Shell    77 S   3     bf  209 -   209         11.368054164746          1.910724977544          6.982596132297
      0.1873113696D+02  0.3349460434D-01
      0.2825394365D+01  0.2347269535D+00
      0.6401216923D+00  0.8137573261D+00
 Atom H27      Shell    78 S   1     bf  210 -   210         11.368054164746          1.910724977544          6.982596132297
      0.1612777588D+00  0.1000000000D+01
 Atom C28      Shell    79 S   6     bf  211 -   211         13.825648707536          0.673246833418          3.882381774291
      0.3047524880D+04  0.1834737132D-02
      0.4573695180D+03  0.1403732281D-01
      0.1039486850D+03  0.6884262226D-01
      0.2921015530D+02  0.2321844432D+00
      0.9286662960D+01  0.4679413484D+00
      0.3163926960D+01  0.3623119853D+00
 Atom C28      Shell    80 SP   3    bf  212 -   215         13.825648707536          0.673246833418          3.882381774291
      0.7868272350D+01 -0.1193324198D+00  0.6899906659D-01
      0.1881288540D+01 -0.1608541517D+00  0.3164239610D+00
      0.5442492580D+00  0.1143456438D+01  0.7443082909D+00
 Atom C28      Shell    81 SP   1    bf  216 -   219         13.825648707536          0.673246833418          3.882381774291
      0.1687144782D+00  0.1000000000D+01  0.1000000000D+01
 Atom C28      Shell    82 D   1     bf  220 -   225         13.825648707536          0.673246833418          3.882381774291
      0.8000000000D+00  0.1000000000D+01
 Atom C29      Shell    83 S   6     bf  226 -   226         13.573671547833          0.630475225660          0.952657959974
      0.3047524880D+04  0.1834737132D-02
      0.4573695180D+03  0.1403732281D-01
      0.1039486850D+03  0.6884262226D-01
      0.2921015530D+02  0.2321844432D+00
      0.9286662960D+01  0.4679413484D+00
      0.3163926960D+01  0.3623119853D+00
 Atom C29      Shell    84 SP   3    bf  227 -   230         13.573671547833          0.630475225660          0.952657959974
      0.7868272350D+01 -0.1193324198D+00  0.6899906659D-01
      0.1881288540D+01 -0.1608541517D+00  0.3164239610D+00
      0.5442492580D+00  0.1143456438D+01  0.7443082909D+00
 Atom C29      Shell    85 SP   1    bf  231 -   234         13.573671547833          0.630475225660          0.952657959974
      0.1687144782D+00  0.1000000000D+01  0.1000000000D+01
 Atom C29      Shell    86 D   1     bf  235 -   240         13.573671547833          0.630475225660          0.952657959974
      0.8000000000D+00  0.1000000000D+01
 Atom H30      Shell    87 S   3     bf  241 -   241         13.206554848840          2.598100216113          0.405072698749
      0.1873113696D+02  0.3349460434D-01
      0.2825394365D+01  0.2347269535D+00
      0.6401216923D+00  0.8137573261D+00
 Atom H30      Shell    88 S   1     bf  242 -   242         13.206554848840          2.598100216113          0.405072698749
      0.1612777588D+00  0.1000000000D+01
 Atom C31      Shell    89 S   6     bf  243 -   243         16.246331891177          0.000000000000          0.000000000000
      0.3047524880D+04  0.1834737132D-02
      0.4573695180D+03  0.1403732281D-01
      0.1039486850D+03  0.6884262226D-01
      0.2921015530D+02  0.2321844432D+00
      0.9286662960D+01  0.4679413484D+00
      0.3163926960D+01  0.3623119853D+00
 Atom C31      Shell    90 SP   3    bf  244 -   247         16.246331891177          0.000000000000          0.000000000000
      0.7868272350D+01 -0.1193324198D+00  0.6899906659D-01
      0.1881288540D+01 -0.1608541517D+00  0.3164239610D+00
      0.5442492580D+00  0.1143456438D+01  0.7443082909D+00
 Atom C31      Shell    91 SP   1    bf  248 -   251         16.246331891177          0.000000000000          0.000000000000
      0.1687144782D+00  0.1000000000D+01  0.1000000000D+01
 Atom C31      Shell    92 D   1     bf  252 -   257         16.246331891177          0.000000000000          0.000000000000
      0.8000000000D+00  0.1000000000D+01
 Atom H32      Shell    93 S   3     bf  258 -   258         16.560406509854          0.691924281803         -1.921828384691
      0.1873113696D+02  0.3349460434D-01
      0.2825394365D+01  0.2347269535D+00
      0.6401216923D+00  0.8137573261D+00
 Atom H32      Shell    94 S   1     bf  259 -   259         16.560406509854          0.691924281803         -1.921828384691
      0.1612777588D+00  0.1000000000D+01
 Atom H33      Shell    95 S   3     bf  260 -   260         16.555198178967         -2.050662296835         -0.032780417823
      0.1873113696D+02  0.3349460434D-01
      0.2825394365D+01  0.2347269535D+00
      0.6401216923D+00  0.8137573261D+00
 Atom H33      Shell    96 S   1     bf  261 -   261         16.555198178967         -2.050662296835         -0.032780417823
      0.1612777588D+00  0.1000000000D+01
 Atom C34      Shell    97 S   6     bf  262 -   262         18.008681412021          1.296052038650          1.964178224473
      0.3047524880D+04  0.1834737132D-02
      0.4573695180D+03  0.1403732281D-01
      0.1039486850D+03  0.6884262226D-01
      0.2921015530D+02  0.2321844432D+00
      0.9286662960D+01  0.4679413484D+00
      0.3163926960D+01  0.3623119853D+00
 Atom C34      Shell    98 SP   3    bf  263 -   266         18.008681412021          1.296052038650          1.964178224473
      0.7868272350D+01 -0.1193324198D+00  0.6899906659D-01
      0.1881288540D+01 -0.1608541517D+00  0.3164239610D+00
      0.5442492580D+00  0.1143456438D+01  0.7443082909D+00
 Atom C34      Shell    99 SP   1    bf  267 -   270         18.008681412021          1.296052038650          1.964178224473
      0.1687144782D+00  0.1000000000D+01  0.1000000000D+01
 Atom C34      Shell   100 D   1     bf  271 -   276         18.008681412021          1.296052038650          1.964178224473
      0.8000000000D+00  0.1000000000D+01
 Atom H35      Shell   101 S   3     bf  277 -   277         19.386426764930         -0.051963178976          2.715503647311
      0.1873113696D+02  0.3349460434D-01
      0.2825394365D+01  0.2347269535D+00
      0.6401216923D+00  0.8137573261D+00
 Atom H35      Shell   102 S   1     bf  278 -   278         19.386426764930         -0.051963178976          2.715503647311
      0.1612777588D+00  0.1000000000D+01
 Atom H36      Shell   103 S   3     bf  279 -   279         19.105824147150          2.833199589217          1.116612281119
      0.1873113696D+02  0.3349460434D-01
      0.2825394365D+01  0.2347269535D+00
      0.6401216923D+00  0.8137573261D+00
 Atom H36      Shell   104 S   1     bf  280 -   280         19.105824147150          2.833199589217          1.116612281119
      0.1612777588D+00  0.1000000000D+01
 Atom C37      Shell   105 S   6     bf  281 -   281         16.263413239076          2.346018630144          4.101604896748
      0.3047524880D+04  0.1834737132D-02
      0.4573695180D+03  0.1403732281D-01
      0.1039486850D+03  0.6884262226D-01
      0.2921015530D+02  0.2321844432D+00
      0.9286662960D+01  0.4679413484D+00
      0.3163926960D+01  0.3623119853D+00
 Atom C37      Shell   106 SP   3    bf  282 -   285         16.263413239076          2.346018630144          4.101604896748
      0.7868272350D+01 -0.1193324198D+00  0.6899906659D-01
      0.1881288540D+01 -0.1608541517D+00  0.3164239610D+00
      0.5442492580D+00  0.1143456438D+01  0.7443082909D+00
[...]
 **** Fit      -0.001486
 **** Fit      -0.001327
 **** Fit      -0.001015
 **** Fit      -0.000608
 **** Fit      -0.000185
 **** Fit       0.000186
 **** Fit       0.000466
 **** Fit       0.000651
 **** Fit       0.000754
 **** Fit      -0.000859
 **** Fit      -0.001007
 **** Fit      -0.001197
 **** Fit      -0.001378
 **** Fit      -0.001490
 **** Fit      -0.001474
 **** Fit      -0.001300
 **** Fit      -0.000981
 **** Fit      -0.000573
 **** Fit      -0.000155
 **** Fit       0.000208
 **** Fit       0.000479
 **** Fit       0.000654
 **** Fit       0.000750
 **** Fit      -0.000891
 **** Fit      -0.001016
 **** Fit      -0.001172
 **** Fit      -0.001318
 **** Fit      -0.001399
 **** Fit      -0.001367
 **** Fit      -0.001196
 **** Fit      -0.000897
 **** Fit      -0.000518
 **** Fit      -0.000129
 **** Fit       0.000209
 **** Fit       0.000464
 **** Fit       0.000632
 **** Fit      -0.001075
 **** Fit      -0.001177
 **** Fit      -0.001228
 **** Fit      -0.001189
 **** Fit      -0.001036
 **** Fit      -0.000778
 **** Fit      -0.000451
 **** Fit      -0.000111
 **** Fit       0.000191
 **** Fit       0.000425
 **** Fit       0.000585
 **** Fit      -0.000923
 **** Fit      -0.000982
 **** Fit      -0.001007
 **** Fit      -0.000968
 **** Fit      -0.000846
 **** Fit      -0.000641
 **** Fit      -0.000378
 **** Fit      -0.000097
 **** Fit       0.000161
 **** Fit       0.000370
 **** Fit      -0.000724
 **** Fit      -0.000738
 **** Fit      -0.000759
 **** Fit      -0.000766
 **** Fit      -0.000736
 **** Fit      -0.000650
 **** Fit      -0.000501
 **** Fit      -0.000304
 **** Fit      -0.000085
 **** Fit       0.000127
 **** Fit      -0.000573
 **** Fit      -0.000546
 **** Fit      -0.000537
 **** Fit      -0.000533
 **** Fit      -0.000517
 **** Fit      -0.000467
 **** Fit      -0.000373
 **** Fit      -0.000519
 **** Fit      -0.000433
 **** Fit      -0.000373
 **** Fit      -0.000342
 **** Fit      -0.000334
 **** Fit      -0.000332
 **** Fit      -0.000316
 **** Fit      -0.000269
 **** Fit      -0.000434
 **** Fit      -0.000324
 **** Fit      -0.000243
 **** Fit      -0.000197
 **** Fit      -0.000187
 **** Fit      -0.000198
 **** Fit      -0.000207
 **** Fit      -0.000197
 **** Fit      -0.000258
 **** Fit      -0.000166
 **** Fit      -0.000114
 **** Fit      -0.000103
 **** Fit      -0.000121
 **** Fit      -0.000147
 **** Fit      -0.000236
 **** Fit      -0.000143
 **** Fit      -0.000091
 **** Fit      -0.000079
 **** Fit      -0.000098
 **** Fit      -0.000131
 **** Fit      -0.000112
 **** Fit      -0.000099
 **** Fit       0.000281
 **** Fit       0.000002
 **** Fit       0.000684
 **** Fit       0.000500
 **** Fit       0.000221
 **** Fit      -0.000120
 **** Fit      -0.000473
 **** Fit      -0.000784
 **** Fit      -0.001011
 **** Fit       0.000738
 **** Fit       0.000650
 **** Fit       0.000432
 **** Fit       0.000098
 **** Fit      -0.000309
 **** Fit      -0.000724
 **** Fit      -0.001076
 **** Fit      -0.001313
 **** Fit      -0.001417
 **** Fit      -0.000621
 **** Fit      -0.000220
 **** Fit       0.000139
 **** Fit       0.000418
 **** Fit       0.000590
 **** Fit       0.000631
 **** Fit       0.000527
 **** Fit       0.000271
 **** Fit      -0.000119
 **** Fit      -0.000590
 **** Fit      -0.001057
 **** Fit      -0.001431
 **** Fit      -0.001650
 **** Fit      -0.001702
 **** Fit      -0.001615
 **** Fit      -0.001441
 **** Fit      -0.001229
 **** Fit      -0.001750
 **** Fit      -0.001358
 **** Fit      -0.000929
 **** Fit      -0.000498
 **** Fit      -0.000110
 **** Fit       0.000191
 **** Fit       0.000372
 **** Fit       0.000408
 **** Fit       0.000281
 **** Fit      -0.000014
 **** Fit      -0.000454
 **** Fit      -0.000974
 **** Fit      -0.001469
 **** Fit      -0.001830
 **** Fit      -0.001990
 **** Fit      -0.001949
 **** Fit      -0.001759
 **** Fit      -0.001494
 **** Fit      -0.001217
 **** Fit      -0.000965
 **** Fit      -0.002124
 **** Fit      -0.001743
 **** Fit      -0.001312
 **** Fit      -0.000869
 **** Fit      -0.000466
 **** Fit      -0.000153
 **** Fit       0.000030
 **** Fit       0.000054
 **** Fit      -0.000097
 **** Fit      -0.000425
 **** Fit      -0.000900
 **** Fit      -0.001439
 **** Fit      -0.001921
 **** Fit      -0.002219
 **** Fit      -0.002270
 **** Fit      -0.002092
 **** Fit      -0.001772
 **** Fit      -0.001408
 **** Fit      -0.001075
 **** Fit      -0.000804
 **** Fit      -0.000598
 **** Fit      -0.002510
 **** Fit      -0.002162
 **** Fit      -0.001753
 **** Fit      -0.001320
 **** Fit      -0.000917
 **** Fit      -0.000602
 **** Fit      -0.000421
 **** Fit      -0.000406
 **** Fit      -0.000573
 **** Fit      -0.000918
 **** Fit      -0.001397
 **** Fit      -0.001913
 **** Fit      -0.002329
 **** Fit      -0.002511
 **** Fit      -0.002405
 **** Fit      -0.002058
 **** Fit      -0.001594
 **** Fit      -0.001142
 **** Fit      -0.000779
 **** Fit      -0.000522
 **** Fit      -0.000354
 **** Fit      -0.000244
 **** Fit      -0.003091
 **** Fit      -0.002867
 **** Fit      -0.002570
 **** Fit      -0.002206
 **** Fit      -0.001805
 **** Fit      -0.001418
 **** Fit      -0.001108
 **** Fit      -0.000927
 **** Fit      -0.000909
 **** Fit      -0.001072
 **** Fit      -0.001401
 **** Fit      -0.001843
 **** Fit      -0.002289
 **** Fit      -0.002590
 **** Fit      -0.002618
 **** Fit      -0.002329
 **** Fit      -0.001805
 **** Fit      -0.001211
 **** Fit      -0.000700
 **** Fit      -0.000345
 **** Fit      -0.000140
 **** Fit      -0.000039
 **** Fit       0.000005
 **** Fit      -0.003142
 **** Fit      -0.002908
 **** Fit      -0.002604
 **** Fit      -0.002250
 **** Fit      -0.001894
 **** Fit      -0.001595
 **** Fit      -0.001406
 **** Fit      -0.001369
 **** Fit      -0.001498
 **** Fit      -0.001775
 **** Fit      -0.002137
 **** Fit      -0.002472
 **** Fit      -0.002633
 **** Fit      -0.002497
 **** Fit      -0.002039
 **** Fit      -0.001370
 **** Fit      -0.000687
 **** Fit      -0.000160
 **** Fit       0.000151
 **** Fit       0.000281
 **** Fit       0.000300
 **** Fit       0.000270
 **** Fit      -0.003410
 **** Fit      -0.003288
 **** Fit      -0.003113
 **** Fit      -0.002872
 **** Fit      -0.002576
 **** Fit      -0.002259
 **** Fit      -0.001975
 **** Fit      -0.001778
 **** Fit      -0.001707
 **** Fit      -0.001779
 **** Fit      -0.001973
 **** Fit      -0.002226
 **** Fit      -0.002431
 **** Fit      -0.002455
 **** Fit      -0.002187
 **** Fit      -0.001617
 **** Fit      -0.000871
 **** Fit      -0.000161
 **** Fit       0.000344
 **** Fit       0.000598
 **** Fit       0.000656
 **** Fit       0.000604
 **** Fit       0.000511
 **** Fit       0.000417
 **** Fit      -0.003450
 **** Fit      -0.003371
 **** Fit      -0.003278
 **** Fit      -0.003147
 **** Fit      -0.002963
 **** Fit      -0.002723
 **** Fit      -0.002451
 **** Fit      -0.002188
 **** Fit      -0.001983
 **** Fit      -0.001876
 **** Fit      -0.001882
 **** Fit      -0.001982
 **** Fit      -0.002121
 **** Fit      -0.002206
 **** Fit      -0.002122
 **** Fit      -0.001780
 **** Fit      -0.001179
 **** Fit      -0.000443
 **** Fit       0.000232
 **** Fit       0.000692
 **** Fit       0.000900
 **** Fit       0.000916
 **** Fit       0.000824
 **** Fit       0.000696
 **** Fit      -0.003294
 **** Fit      -0.003205
 **** Fit      -0.003117
 **** Fit      -0.003012
 **** Fit      -0.002870
 **** Fit      -0.002679
 **** Fit      -0.002450
 **** Fit      -0.002213
 **** Fit      -0.002009
 **** Fit      -0.001872
 **** Fit      -0.001818
 **** Fit      -0.001836
 **** Fit      -0.001879
 **** Fit      -0.001871
 **** Fit      -0.001724
 **** Fit      -0.001369
 **** Fit      -0.000812
 **** Fit      -0.000156
 **** Fit       0.000439
 **** Fit       0.000844
 **** Fit       0.001027
 **** Fit       0.001035
 **** Fit       0.000941
 **** Fit       0.000808
 **** Fit      -0.003065
 **** Fit      -0.002949
 **** Fit      -0.002848
 **** Fit      -0.002750
 **** Fit      -0.002632
 **** Fit      -0.002478
 **** Fit      -0.002287
 **** Fit      -0.001879
 **** Fit      -0.001724
 **** Fit      -0.001629
 **** Fit      -0.001586
 **** Fit      -0.001564
 **** Fit      -0.001504
 **** Fit      -0.001336
 **** Fit      -0.001014
 **** Fit      -0.000543
 **** Fit      -0.000001
 **** Fit       0.000492
 **** Fit       0.000841
 **** Fit       0.001012
 **** Fit       0.001036
 **** Fit       0.000966
 **** Fit       0.000854
 **** Fit      -0.002807
 **** Fit      -0.002656
 **** Fit      -0.002531
 **** Fit      -0.002423
 **** Fit      -0.002313
 **** Fit      -0.002180
 **** Fit      -0.002018
 **** Fit      -0.001647
 **** Fit      -0.001487
 **** Fit      -0.001369
 **** Fit      -0.001294
 **** Fit      -0.001240
 **** Fit      -0.001162
 **** Fit      -0.001007
 **** Fit      -0.000740
 **** Fit      -0.000366
 **** Fit       0.000061
 **** Fit       0.000457
 **** Fit       0.000753
 **** Fit       0.000918
 **** Fit       0.000965
 **** Fit       0.000930
 **** Fit      -0.002559
 **** Fit      -0.002374
 **** Fit      -0.002221
 **** Fit      -0.002095
 **** Fit      -0.001979
 **** Fit      -0.001855
 **** Fit      -0.001710
 **** Fit      -0.001545
 **** Fit      -0.001375
 **** Fit      -0.001221
 **** Fit      -0.001100
 **** Fit      -0.001018
 **** Fit      -0.000959
 **** Fit      -0.000887
 **** Fit      -0.000761
 **** Fit      -0.000553
 **** Fit      -0.000264
 **** Fit       0.000067
 **** Fit       0.000384
 **** Fit       0.000636
 **** Fit       0.000796
 **** Fit       0.000866
 **** Fit      -0.002136
 **** Fit      -0.001957
 **** Fit      -0.001809
 **** Fit      -0.001680
 **** Fit      -0.001554
 **** Fit      -0.001120
 **** Fit      -0.000983
 **** Fit      -0.000877
 **** Fit      -0.000806
 **** Fit      -0.000759
 **** Fit      -0.000706
 **** Fit      -0.000610
 **** Fit      -0.000450
 **** Fit      -0.000224
 **** Fit       0.000040
 **** Fit       0.000302
 **** Fit       0.000523
 **** Fit       0.000679
 **** Fit      -0.000919
 **** Fit      -0.000811
 **** Fit      -0.000733
 **** Fit      -0.000687
 **** Fit      -0.000660
 **** Fit      -0.000626
 **** Fit      -0.000553
 **** Fit      -0.000422
 **** Fit      -0.000718
 **** Fit      -0.000676
 **** Fit      -0.000662
 **** Fit      -0.000658
 **** Fit      -0.000638
 **** Fit      -0.000576
 **** Fit      -0.000695
 **** Fit      -0.000714
 **** Fit      -0.000732
 **** Fit      -0.000720
 **** Fit      -0.000467
 **** Fit      -0.000951
 **** Fit      -0.000756
 **** Fit      -0.000500
 **** Fit      -0.000222
 **** Fit       0.000040
 **** Fit      -0.000988
 **** Fit      -0.000776
 **** Fit      -0.000506
 **** Fit      -0.000219
 **** Fit       0.000048
 **** Fit      -0.000973
 **** Fit      -0.000758
 **** Fit      -0.000489
 **** Fit      -0.000205
 **** Fit       0.000057
 **** Fit      -0.000911
 **** Fit      -0.000707
 **** Fit      -0.000453
 **** Fit      -0.000186
 **** Fit       0.000060
 **** Fit      -0.000630
 **** Fit      -0.000404
 **** Fit      -0.000166
 **** Fit       0.000060
 **** Fit      -0.000161
 **** Fit      -0.000422
 **** Fit      -0.000684
 **** Fit       0.000064
 **** Fit      -0.000107
 **** Fit      -0.000357
 **** Fit      -0.000648
 **** Fit      -0.000929
 **** Fit      -0.001150
 **** Fit      -0.000070
 **** Fit      -0.000154
 **** Fit      -0.000345
 **** Fit      -0.000617
 **** Fit      -0.000925
 **** Fit      -0.001209
 **** Fit      -0.001410
 **** Fit      -0.001495
 **** Fit      -0.001460
 **** Fit      -0.001333
 **** Fit      -0.001153
 **** Fit      -0.001012
 **** Fit      -0.000727
 **** Fit      -0.000349
 **** Fit      -0.000443
 **** Fit      -0.000645
 **** Fit      -0.000927
 **** Fit      -0.001233
 **** Fit      -0.001495
 **** Fit      -0.001650
 **** Fit      -0.001665
 **** Fit      -0.001549
 **** Fit      -0.001343
 **** Fit      -0.001101
 **** Fit      -0.000867
 **** Fit      -0.000666
 **** Fit      -0.001650
 **** Fit      -0.001342
 **** Fit      -0.001059
 **** Fit      -0.000836
 **** Fit      -0.000680
 **** Fit      -0.000775
 **** Fit      -0.000976
 **** Fit      -0.001247
 **** Fit      -0.001527
 **** Fit      -0.001741
 **** Fit      -0.001823
 **** Fit      -0.001747
 **** Fit      -0.001535
 **** Fit      -0.001246
 **** Fit      -0.000946
 **** Fit      -0.000685
 **** Fit      -0.000482
 **** Fit      -0.001967
 **** Fit      -0.001678
 **** Fit      -0.001407
 **** Fit      -0.001187
 **** Fit      -0.001023
 **** Fit      -0.001106
 **** Fit      -0.001286
 **** Fit      -0.001524
 **** Fit      -0.001753
 **** Fit      -0.001895
 **** Fit      -0.001887
 **** Fit      -0.001710
 **** Fit      -0.001402
 **** Fit      -0.001038
 **** Fit      -0.000696
 **** Fit      -0.000426
 **** Fit      -0.000240
 **** Fit      -0.000123
 **** Fit      -0.002238
 **** Fit      -0.001977
 **** Fit      -0.001724
 **** Fit      -0.001511
 **** Fit      -0.001383
 **** Fit      -0.001524
 **** Fit      -0.001707
 **** Fit      -0.001865
 **** Fit      -0.001923
 **** Fit      -0.001823
 **** Fit      -0.001555
 **** Fit      -0.001168
 **** Fit      -0.000751
 **** Fit      -0.000389
 **** Fit      -0.000129
 **** Fit       0.000028
 **** Fit       0.000106
 **** Fit      -0.002194
 **** Fit      -0.001964
 **** Fit      -0.001654
 **** Fit      -0.001769
 **** Fit      -0.001849
 **** Fit      -0.001825
 **** Fit      -0.001647
 **** Fit      -0.001314
 **** Fit      -0.000881
 **** Fit      -0.000443
 **** Fit      -0.000085
 **** Fit       0.000154
 **** Fit       0.000277
 **** Fit       0.000318
 **** Fit      -0.001721
 **** Fit      -0.001631
 **** Fit      -0.001404
 **** Fit      -0.001043
 **** Fit      -0.000604
 **** Fit      -0.000177
 **** Fit       0.000160
 **** Fit       0.000373
 **** Fit       0.000469
 **** Fit       0.000484
 **** Fit      -0.001520
 **** Fit      -0.001388
 **** Fit      -0.001143
 **** Fit      -0.000790
 **** Fit      -0.000381
 **** Fit       0.000010
 **** Fit       0.000315
 **** Fit       0.000504
 **** Fit       0.000586
 **** Fit       0.000590
 **** Fit      -0.001290
 **** Fit      -0.001141
 **** Fit      -0.000904
 **** Fit      -0.000585
 **** Fit      -0.000225
 **** Fit       0.000115
 **** Fit       0.000384
 **** Fit       0.000554
 **** Fit       0.000631
 **** Fit       0.000638
 **** Fit      -0.001314
 **** Fit      -0.001236
 **** Fit      -0.001163
 **** Fit      -0.001068
 **** Fit      -0.000922
 **** Fit      -0.000710
 **** Fit      -0.000437
 **** Fit      -0.000133
 **** Fit       0.000156
 **** Fit       0.000390
 **** Fit       0.000546
 **** Fit       0.000624
 **** Fit      -0.001135
 **** Fit      -0.001052
 **** Fit      -0.000975
 **** Fit      -0.000882
 **** Fit      -0.000342
 **** Fit      -0.000089
 **** Fit       0.000155
 **** Fit       0.000359
 **** Fit      -0.000977
 **** Fit      -0.000901
 **** Fit      -0.000831
 **** Fit      -0.000750
 **** Fit      -0.001318
 **** Fit      -0.001178
 **** Fit      -0.000989
 **** Fit      -0.000786
 **** Fit      -0.001420
 **** Fit      -0.001299
 **** Fit      -0.001103
 **** Fit      -0.000868
 **** Fit      -0.000636
 **** Fit      -0.000437
 **** Fit      -0.001469
 **** Fit      -0.001385
 **** Fit      -0.001210
 **** Fit      -0.000966
 **** Fit      -0.000698
 **** Fit      -0.000450
 **** Fit      -0.000250
 **** Fit      -0.001416
 **** Fit      -0.001283
 **** Fit      -0.001067
 **** Fit      -0.000794
 **** Fit      -0.000509
 **** Fit      -0.000257
 **** Fit      -0.000065
 **** Fit       0.000061
 **** Fit      -0.001302
 **** Fit      -0.001137
 **** Fit      -0.000898
 **** Fit      -0.000615
 **** Fit      -0.000332
 **** Fit      -0.000088
 **** Fit       0.000090
 **** Fit      -0.000972
 **** Fit      -0.000731
 **** Fit      -0.000457
 **** Fit      -0.000189
 **** Fit       0.000038
 **** Fit       0.000202
 **** Fit      -0.000586
 **** Fit      -0.000334
 **** Fit      -0.000090
 **** Fit       0.000116
 -----------------------------------------------------------------
 Leave Link  602 at Fri Apr 28 11:57:30 2017, MaxMem=    33554432 cpu:        38.8
 (Enter /home/michal/g09/l9999.exe)

 Test job not archived.
 1\1\GINC-LINUX\SP\RHF\6-31G(d)\C27H46O3\MICHAL\28-Apr-2017\0\\#P HF/6-
 31G* SCF(Conver=6) NoSymm Test Pop=chelpg IOp(6/33=2) GFInput GFPrint\
 \MEP - Input generated by R.E.D.-III.x MOLECULE\\0,1\C,0,1.01338205,-0
 .87648633,-1.69096628\H,0,1.14106797,0.09557228,-2.18294957\C,0,2.2505
 9681,-1.74330561,-1.97421487\H,0,2.3881214,-1.8472872,-3.05498003\H,0,
 2.04804643,-2.75300128,-1.58365274\C,0,3.5082949,-1.18279369,-1.336133
 97\C,0,3.43570319,-0.86063578,0.16180925\C,0,2.12968696,-0.04708726,0.
 41977202\H,0,2.26462119,0.95905992,0.\H,0,1.99036734,0.08253051,1.4984
 4991\C,0,0.8565622,-0.65771261,-0.18620567\H,0,0.62460686,-1.61982862,
 0.2940833\H,0,0.,0.,0.\C,0,4.60908313,-0.99611849,-2.08078788\H,0,4.58
 009688,-1.24729482,-3.13944921\C,0,5.90974809,-0.4525463,-1.56381922\H
 ,0,6.75030606,-1.01275659,-1.99267265\C,0,5.99532998,-0.48315596,-0.02
 699499\H,0,6.14562616,-1.54189011,0.22603578\C,0,4.66444792,0.01158277
 ,0.60135218\H,0,4.49183805,1.01312691,0.18072246\C,0,4.77332485,0.1829
 7249,2.13635825\H,0,4.78912669,-0.79745681,2.62276173\H,0,3.87631219,0
 .689973,2.5101325\C,0,6.01384399,0.97391423,2.59922026\H,0,5.93761075,
 2.01220479,2.24800171\H,0,6.01571517,1.01111211,3.69503073\C,0,7.31621
 819,0.35626688,2.05446795\C,0,7.18287762,0.33363312,0.50412488\H,0,6.9
 8860783,1.37485542,0.21435524\C,0,8.59718856,0.,0.\H,0,8.76338969,0.36
 615056,-1.01698778\H,0,8.76063356,-1.08516375,-0.01734665\C,0,9.529783
 76,0.6858412,1.03939835\H,0,10.2588552,-0.02749773,1.43698264\H,0,10.1
 1036669,1.49926465,0.59088577\C,0,8.60622762,1.24145959,2.17047583\H,0
 ,8.28243692,2.23519795,1.83183483\C,0,7.52353682,-1.05878141,2.6425183
 2\H,0,6.77156077,-1.76767043,2.28609378\H,0,8.50185127,-1.47342909,2.3
 8660453\H,0,7.4497896,-1.03921138,3.73373964\C,0,9.36912792,1.50574042
 ,3.50035404\H,0,10.23409927,2.10876046,3.18466286\C,0,9.96439774,0.277
 95613,4.21931741\H,0,9.20409961,-0.2909369,4.76260589\H,0,10.70666291,
 0.60833089,4.95490115\H,0,10.47033143,-0.40892615,3.53461729\C,0,3.377
 42788,-2.20137153,0.94432576\H,0,3.12772543,-2.03712145,1.996714\H,0,2
 .62023726,-2.87516834,0.53633606\H,0,4.3351312,-2.72900298,0.8981301\O
 ,0,6.09236939,0.93350901,-1.96494683\O,0,6.26513893,0.95543988,-3.4096
 9054\H,0,5.42008774,1.34405252,-3.69046999\O,0,-0.16387936,-1.42030926
 ,-2.29330721\H,0,-0.35411759,-2.27653131,-1.88482097\C,0,8.58932942,2.
 35602498,4.53329825\H,0,7.71712096,1.78649955,4.87919063\H,0,9.2341869
 5,2.47161624,5.41664309\C,0,8.12650871,3.76103316,4.10076806\H,0,7.428
 02652,3.68510281,3.25983382\H,0,7.54859008,4.18457415,4.93206691\C,0,9
 .27629514,4.71689678,3.74112176\H,0,9.8053617,4.33385621,2.85839056\H,
 0,10.0095497,4.70803029,4.56122429\C,0,8.88271989,6.1865492,3.45867136
 \H,0,9.8185762,6.70390391,3.20037178\C,0,7.94180249,6.32540979,2.25038
 052\H,0,6.9580534,5.88607773,2.45221568\H,0,7.78292783,7.38035398,1.99
 923652\H,0,8.35398555,5.82986749,1.36355695\C,0,8.30397584,6.8964637,4
 .69397157\H,0,7.33173825,6.48119328,4.98329907\H,0,8.15538389,7.963922
 84,4.49466388\H,0,8.97566683,6.80825377,5.55603284\\Version=EM64L-G09R
 evD.01\HF=-1273.6753862\RMSD=5.849e-07\Dipole=-0.3642316,-0.5509028,0.
 7034721\Quadrupole=-9.3894902,8.1208864,1.2686038,-3.4144224,4.1036518
 ,-0.1074061\PG=C01 [X(C27H46O3)]\\@


 THE DIFFICULTY IN SCIENCE IS OFTEN NOT SO MUCH HOW
 TO MAKE A DISCOVERY BUT RATHER TO KNOW ONE HAS MADE IT.

                                                   -- J. D. BERNAL
 Job cpu time:       0 days  0 hours 12 minutes 42.2 seconds.
 File lengths (MBytes):  RWF=    159 Int=      0 D2E=      0 Chk=     11 Scr=      1
 Normal termination of Gaussian 09 at Fri Apr 28 11:57:30 2017.
