 Entering Gaussian System, Link 0=/home/michal/g09/g09
 Input=JOB2-gau_m1-17-1.com
 Output=JOB2-gau_m1-17-1.log
 Initial command:
 /home/michal/g09/l1.exe "/home/michal/gauss_scratch/Gau-19721.inp" -scrdir="/home/michal/gauss_scratch/"
 Entering Link 1 = /home/michal/g09/l1.exe PID=     19722.
  
 Copyright (c) 1988,1990,1992,1993,1995,1998,2003,2009,2013,
            Gaussian, Inc.  All Rights Reserved.
  
 This is part of the Gaussian(R) 09 program.  It is based on
 the Gaussian(R) 03 system (copyright 2003, Gaussian, Inc.),
 the Gaussian(R) 98 system (copyright 1998, Gaussian, Inc.),
 the Gaussian(R) 94 system (copyright 1995, Gaussian, Inc.),
 the Gaussian 92(TM) system (copyright 1992, Gaussian, Inc.),
 the Gaussian 90(TM) system (copyright 1990, Gaussian, Inc.),
 the Gaussian 88(TM) system (copyright 1988, Gaussian, Inc.),
 the Gaussian 86(TM) system (copyright 1986, Carnegie Mellon
 University), and the Gaussian 82(TM) system (copyright 1983,
 Carnegie Mellon University). Gaussian is a federally registered
 trademark of Gaussian, Inc.
  
 This software contains proprietary and confidential information,
 including trade secrets, belonging to Gaussian, Inc.
  
 This software is provided under written license and may be
 used, copied, transmitted, or stored only in accord with that
 written license.
  
 The following legend is applicable only to US Government
 contracts under FAR:
  
                    RESTRICTED RIGHTS LEGEND
  
 Use, reproduction and disclosure by the US Government is
 subject to restrictions as set forth in subparagraphs (a)
 and (c) of the Commercial Computer Software - Restricted
 Rights clause in FAR 52.227-19.
  
 Gaussian, Inc.
 340 Quinnipiac St., Bldg. 40, Wallingford CT 06492
  
  
 ---------------------------------------------------------------
 Warning -- This program may not be used in any manner that
 competes with the business of Gaussian, Inc. or will provide
 assistance to any competitor of Gaussian, Inc.  The licensee
 of this program is prohibited from giving any competitor of
 Gaussian, Inc. access to this program.  By using this program,
 the user acknowledges that Gaussian, Inc. is engaged in the
 business of creating and licensing software in the field of
 computational chemistry and represents and warrants to the
 licensee that it is not a competitor of Gaussian, Inc. and that
 it will not use this program in any manner prohibited above.
 ---------------------------------------------------------------
  

 Cite this work as:
 Gaussian 09, Revision D.01,
 M. J. Frisch, G. W. Trucks, H. B. Schlegel, G. E. Scuseria, 
 M. A. Robb, J. R. Cheeseman, G. Scalmani, V. Barone, B. Mennucci, 
 G. A. Petersson, H. Nakatsuji, M. Caricato, X. Li, H. P. Hratchian, 
 A. F. Izmaylov, J. Bloino, G. Zheng, J. L. Sonnenberg, M. Hada, 
 M. Ehara, K. Toyota, R. Fukuda, J. Hasegawa, M. Ishida, T. Nakajima, 
 Y. Honda, O. Kitao, H. Nakai, T. Vreven, J. A. Montgomery, Jr., 
 J. E. Peralta, F. Ogliaro, M. Bearpark, J. J. Heyd, E. Brothers, 
 K. N. Kudin, V. N. Staroverov, T. Keith, R. Kobayashi, J. Normand, 
 K. Raghavachari, A. Rendell, J. C. Burant, S. S. Iyengar, J. Tomasi, 
 M. Cossi, N. Rega, J. M. Millam, M. Klene, J. E. Knox, J. B. Cross, 
 V. Bakken, C. Adamo, J. Jaramillo, R. Gomperts, R. E. Stratmann, 
 O. Yazyev, A. J. Austin, R. Cammi, C. Pomelli, J. W. Ochterski, 
 R. L. Martin, K. Morokuma, V. G. Zakrzewski, G. A. Voth, 
 P. Salvador, J. J. Dannenberg, S. Dapprich, A. D. Daniels, 
 O. Farkas, J. B. Foresman, J. V. Ortiz, J. Cioslowski, 
 and D. J. Fox, Gaussian, Inc., Wallingford CT, 2013.
 
 ******************************************
 Gaussian 09:  EM64L-G09RevD.01 24-Apr-2013
                28-Apr-2017 
 ******************************************
 %Mem=256MB
 %NProc=12
 Will use up to   12 processors via shared memory.
 ----------------------------------------------------------------------
 #P HF/6-31G* SCF(Conver=6) NoSymm Test Pop=chelpg IOp(6/33=2) GFInput 
 GFPrint
 ----------------------------------------------------------------------
 1/38=1/1;
 2/12=2,15=1,17=6,18=5,40=1/2;
 3/5=1,6=6,7=1,11=9,16=1,24=110,25=1,30=1/1,2,3;
 4//1;
 5/5=2,6=6,38=5/2;
 6/7=2,8=2,9=2,10=2,15=8,20=3,28=1,33=2/1,2;
 99/5=1,9=1/99;
 Leave Link    1 at Fri Apr 28 12:55:11 2017, MaxMem=    33554432 cpu:         0.7
 (Enter /home/michal/g09/l101.exe)
 ----------------------------------------------
 MEP - Input generated by R.E.D.-III.x MOLECULE
 ----------------------------------------------
 Symbolic Z-matrix:
 Charge =  0 Multiplicity = 1
 C                     1.7559   -1.24472   0.14249 
 H                     1.88495  -1.27631  -0.94606 
 C                     3.14268  -1.21545   0.80569 
 H                     3.72261  -2.08631   0.48483 
 H                     2.99656  -1.31513   1.89271 
 C                     3.89899   0.06265   0.49874 
 C                     3.1712    1.38254   0.77737 
 C                     1.74298   1.2848    0.15665 
 H                     1.84137   1.3339   -0.93616 
 H                     1.15757   2.16063   0.45636 
 C                     0.96593   0.00908   0.51758 
 H                     0.74537  -0.0153    1.59516 
 H                     0.        0.        0. 
 C                     5.14299   0.        0. 
 H                     5.58801  -0.97096  -0.21003 
 C                     5.97269   1.19624  -0.36171 
 H                     7.02741   1.01959  -0.12403 
 C                     5.46746   2.48558   0.31395 
 H                     5.6921    2.36232   1.38369 
 C                     3.93075   2.58233   0.10841 
 H                     3.77948   2.47118  -0.97541 
 C                     3.35092   3.96236   0.49567 
 H                     3.29183   4.05795   1.58452 
 H                     2.31968   4.03657   0.13164 
 C                     4.15074   5.16041  -0.05116 
 H                     4.09536   5.17306  -1.14902 
 H                     3.67228   6.08127   0.29604 
 C                     5.63225   5.08746   0.3668 
 C                     6.18373   3.74474  -0.19655 
 H                     6.00109   3.78635  -1.27982 
 C                     7.7029    3.85855   0. 
 H                     8.25632   3.20442  -0.67614 
 H                     7.98251   3.58076   1.02456 
 C                     7.99151   5.36043  -0.26771 
 H                     8.61462   5.78903   0.5267 
 H                     8.54741   5.4913   -1.20084 
 C                     6.60848   6.09534  -0.33398 
 H                     6.29616   6.13691  -1.3894 
 C                     5.77509   5.19142   1.90364 
 H                     5.30985   4.3512    2.42545 
 H                     6.82324   5.22259   2.21525 
 H                     5.29909   6.10489   2.27576 
 C                     6.69191   7.56163   0.16557 
 H                     7.07587   7.54378   1.19724 
 C                     5.33253   8.28299   0.17905 
 H                     4.86529   8.25811  -0.8136 
 H                     5.44449   9.33272   0.46653 
 H                     4.6335    7.83311   0.88741 
 C                     3.05907   1.56156   2.3164 
 H                     2.38683   2.38585   2.572 
 H                     2.6647    0.66473   2.80025 
 H                     4.0362    1.76571   2.7648 
 O                     5.87353   1.23879  -1.8171 
 O                     7.10967   1.79206  -2.37729 
 H                     7.37672   1.04948  -2.94259 
 O                     1.0498   -2.45044   0.44667 
 H                     0.86927  -2.47253   1.39698 
 C                     7.71304   8.35716  -0.68616 
 H                     8.63905   7.77719  -0.77583 
 H                     7.31352   8.45119  -1.70636 
 C                     8.08372   9.74474  -0.13534 
 H                     7.2164    10.41435  -0.16013 
 H                     8.35066   9.63968   0.92594 
 C                     9.26796   10.41323  -0.85813 
 H                     10.14965   9.76354  -0.75907 
 H                     9.5189    11.34685  -0.33284 
 C                     9.07131   10.74115  -2.35372 
 H                     8.83769   9.80629  -2.88299 
 C                     7.911     11.72049  -2.59209 
 H                     8.0845    12.66622  -2.06209 
 H                     7.80732   11.95208  -3.65829 
 H                     6.95288   11.31718  -2.24867 
 C                     10.37501   11.29466  -2.951 
 H                     10.65998   12.23589  -2.46329 
 H                     10.26835   11.49547  -4.02319 
 H                     11.20429   10.58948  -2.82265 
 
 NAtoms=     76 NQM=       76 NQMF=       0 NMMI=      0 NMMIF=      0
                NMic=       0 NMicF=      0.
                    Isotopes and Nuclear Properties:
 (Nuclear quadrupole moments (NQMom) in fm**2, nuclear magnetic moments (NMagM)
  in nuclear magnetons)

  Atom         1           2           3           4           5           6           7           8           9          10
 IAtWgt=          12           1          12           1           1          12          12          12           1           1
 AtmWgt=  12.0000000   1.0078250  12.0000000   1.0078250   1.0078250  12.0000000  12.0000000  12.0000000   1.0078250   1.0078250
 NucSpn=           0           1           0           1           1           0           0           0           1           1
 AtZEff=   0.0000000   0.0000000   0.0000000   0.0000000   0.0000000   0.0000000   0.0000000   0.0000000   0.0000000   0.0000000
 NQMom=    0.0000000   0.0000000   0.0000000   0.0000000   0.0000000   0.0000000   0.0000000   0.0000000   0.0000000   0.0000000
 NMagM=    0.0000000   2.7928460   0.0000000   2.7928460   2.7928460   0.0000000   0.0000000   0.0000000   2.7928460   2.7928460
 AtZNuc=   6.0000000   1.0000000   6.0000000   1.0000000   1.0000000   6.0000000   6.0000000   6.0000000   1.0000000   1.0000000

  Atom        11          12          13          14          15          16          17          18          19          20
 IAtWgt=          12           1           1          12           1          12           1          12           1          12
 AtmWgt=  12.0000000   1.0078250   1.0078250  12.0000000   1.0078250  12.0000000   1.0078250  12.0000000   1.0078250  12.0000000
 NucSpn=           0           1           1           0           1           0           1           0           1           0
 AtZEff=   0.0000000   0.0000000   0.0000000   0.0000000   0.0000000   0.0000000   0.0000000   0.0000000   0.0000000   0.0000000
 NQMom=    0.0000000   0.0000000   0.0000000   0.0000000   0.0000000   0.0000000   0.0000000   0.0000000   0.0000000   0.0000000
 NMagM=    0.0000000   2.7928460   2.7928460   0.0000000   2.7928460   0.0000000   2.7928460   0.0000000   2.7928460   0.0000000
 AtZNuc=   6.0000000   1.0000000   1.0000000   6.0000000   1.0000000   6.0000000   1.0000000   6.0000000   1.0000000   6.0000000

  Atom        21          22          23          24          25          26          27          28          29          30
 IAtWgt=           1          12           1           1          12           1           1          12          12           1
 AtmWgt=   1.0078250  12.0000000   1.0078250   1.0078250  12.0000000   1.0078250   1.0078250  12.0000000  12.0000000   1.0078250
 NucSpn=           1           0           1           1           0           1           1           0           0           1
 AtZEff=   0.0000000   0.0000000   0.0000000   0.0000000   0.0000000   0.0000000   0.0000000   0.0000000   0.0000000   0.0000000
 NQMom=    0.0000000   0.0000000   0.0000000   0.0000000   0.0000000   0.0000000   0.0000000   0.0000000   0.0000000   0.0000000
 NMagM=    2.7928460   0.0000000   2.7928460   2.7928460   0.0000000   2.7928460   2.7928460   0.0000000   0.0000000   2.7928460
 AtZNuc=   1.0000000   6.0000000   1.0000000   1.0000000   6.0000000   1.0000000   1.0000000   6.0000000   6.0000000   1.0000000

  Atom        31          32          33          34          35          36          37          38          39          40
 IAtWgt=          12           1           1          12           1           1          12           1          12           1
 AtmWgt=  12.0000000   1.0078250   1.0078250  12.0000000   1.0078250   1.0078250  12.0000000   1.0078250  12.0000000   1.0078250
 NucSpn=           0           1           1           0           1           1           0           1           0           1
 AtZEff=   0.0000000   0.0000000   0.0000000   0.0000000   0.0000000   0.0000000   0.0000000   0.0000000   0.0000000   0.0000000
 NQMom=    0.0000000   0.0000000   0.0000000   0.0000000   0.0000000   0.0000000   0.0000000   0.0000000   0.0000000   0.0000000
 NMagM=    0.0000000   2.7928460   2.7928460   0.0000000   2.7928460   2.7928460   0.0000000   2.7928460   0.0000000   2.7928460
 AtZNuc=   6.0000000   1.0000000   1.0000000   6.0000000   1.0000000   1.0000000   6.0000000   1.0000000   6.0000000   1.0000000

  Atom        41          42          43          44          45          46          47          48          49          50
 IAtWgt=           1           1          12           1          12           1           1           1          12           1
 AtmWgt=   1.0078250   1.0078250  12.0000000   1.0078250  12.0000000   1.0078250   1.0078250   1.0078250  12.0000000   1.0078250
 NucSpn=           1           1           0           1           0           1           1           1           0           1
 AtZEff=   0.0000000   0.0000000   0.0000000   0.0000000   0.0000000   0.0000000   0.0000000   0.0000000   0.0000000   0.0000000
 NQMom=    0.0000000   0.0000000   0.0000000   0.0000000   0.0000000   0.0000000   0.0000000   0.0000000   0.0000000   0.0000000
 NMagM=    2.7928460   2.7928460   0.0000000   2.7928460   0.0000000   2.7928460   2.7928460   2.7928460   0.0000000   2.7928460
 AtZNuc=   1.0000000   1.0000000   6.0000000   1.0000000   6.0000000   1.0000000   1.0000000   1.0000000   6.0000000   1.0000000

  Atom        51          52          53          54          55          56          57          58          59          60
 IAtWgt=           1           1          16          16           1          16           1          12           1           1
 AtmWgt=   1.0078250   1.0078250  15.9949146  15.9949146   1.0078250  15.9949146   1.0078250  12.0000000   1.0078250   1.0078250
 NucSpn=           1           1           0           0           1           0           1           0           1           1
 AtZEff=   0.0000000   0.0000000   0.0000000   0.0000000   0.0000000   0.0000000   0.0000000   0.0000000   0.0000000   0.0000000
 NQMom=    0.0000000   0.0000000   0.0000000   0.0000000   0.0000000   0.0000000   0.0000000   0.0000000   0.0000000   0.0000000
 NMagM=    2.7928460   2.7928460   0.0000000   0.0000000   2.7928460   0.0000000   2.7928460   0.0000000   2.7928460   2.7928460
 AtZNuc=   1.0000000   1.0000000   8.0000000   8.0000000   1.0000000   8.0000000   1.0000000   6.0000000   1.0000000   1.0000000

  Atom        61          62          63          64          65          66          67          68          69          70
 IAtWgt=          12           1           1          12           1           1          12           1          12           1
 AtmWgt=  12.0000000   1.0078250   1.0078250  12.0000000   1.0078250   1.0078250  12.0000000   1.0078250  12.0000000   1.0078250
 NucSpn=           0           1           1           0           1           1           0           1           0           1
 AtZEff=   0.0000000   0.0000000   0.0000000   0.0000000   0.0000000   0.0000000   0.0000000   0.0000000   0.0000000   0.0000000
 NQMom=    0.0000000   0.0000000   0.0000000   0.0000000   0.0000000   0.0000000   0.0000000   0.0000000   0.0000000   0.0000000
 NMagM=    0.0000000   2.7928460   2.7928460   0.0000000   2.7928460   2.7928460   0.0000000   2.7928460   0.0000000   2.7928460
 AtZNuc=   6.0000000   1.0000000   1.0000000   6.0000000   1.0000000   1.0000000   6.0000000   1.0000000   6.0000000   1.0000000

  Atom        71          72          73          74          75          76
 IAtWgt=           1           1          12           1           1           1
 AtmWgt=   1.0078250   1.0078250  12.0000000   1.0078250   1.0078250   1.0078250
 NucSpn=           1           1           0           1           1           1
 AtZEff=   0.0000000   0.0000000   0.0000000   0.0000000   0.0000000   0.0000000
 NQMom=    0.0000000   0.0000000   0.0000000   0.0000000   0.0000000   0.0000000
 NMagM=    2.7928460   2.7928460   0.0000000   2.7928460   2.7928460   2.7928460
 AtZNuc=   1.0000000   1.0000000   6.0000000   1.0000000   1.0000000   1.0000000
 Leave Link  101 at Fri Apr 28 12:55:12 2017, MaxMem=    33554432 cpu:         1.0
 (Enter /home/michal/g09/l202.exe)
 Symmetry turned off by external request.
 Stoichiometry    C27H46O3
 Framework group  C1[X(C27H46O3)]
 Deg. of freedom   222
 Full point group                 C1      NOp   1
                          Input orientation:                          
 ---------------------------------------------------------------------
 Center     Atomic      Atomic             Coordinates (Angstroms)
 Number     Number       Type             X           Y           Z
 ---------------------------------------------------------------------
      1          6           0        1.755903   -1.244721    0.142486
      2          1           0        1.884946   -1.276314   -0.946063
      3          6           0        3.142677   -1.215448    0.805693
      4          1           0        3.722607   -2.086308    0.484827
      5          1           0        2.996557   -1.315129    1.892712
      6          6           0        3.898985    0.062650    0.498743
      7          6           0        3.171199    1.382537    0.777369
      8          6           0        1.742982    1.284801    0.156645
      9          1           0        1.841366    1.333905   -0.936159
     10          1           0        1.157569    2.160625    0.456365
     11          6           0        0.965931    0.009084    0.517575
     12          1           0        0.745366   -0.015295    1.595155
     13          1           0        0.000000    0.000000    0.000000
     14          6           0        5.142986    0.000000    0.000000
     15          1           0        5.588014   -0.970962   -0.210034
     16          6           0        5.972690    1.196239   -0.361708
     17          1           0        7.027415    1.019593   -0.124027
     18          6           0        5.467455    2.485579    0.313946
     19          1           0        5.692096    2.362322    1.383688
     20          6           0        3.930754    2.582329    0.108411
     21          1           0        3.779484    2.471183   -0.975406
     22          6           0        3.350924    3.962365    0.495674
     23          1           0        3.291826    4.057950    1.584524
     24          1           0        2.319676    4.036571    0.131640
     25          6           0        4.150737    5.160412   -0.051162
     26          1           0        4.095361    5.173063   -1.149025
     27          1           0        3.672277    6.081267    0.296037
     28          6           0        5.632248    5.087459    0.366797
     29          6           0        6.183726    3.744744   -0.196547
     30          1           0        6.001087    3.786350   -1.279824
     31          6           0        7.702900    3.858551    0.000000
     32          1           0        8.256321    3.204419   -0.676141
     33          1           0        7.982507    3.580758    1.024563
     34          6           0        7.991512    5.360430   -0.267711
     35          1           0        8.614618    5.789027    0.526703
     36          1           0        8.547410    5.491298   -1.200835
     37          6           0        6.608481    6.095338   -0.333980
     38          1           0        6.296158    6.136907   -1.389401
     39          6           0        5.775089    5.191416    1.903639
     40          1           0        5.309851    4.351202    2.425453
     41          1           0        6.823243    5.222588    2.215254
     42          1           0        5.299086    6.104890    2.275763
     43          6           0        6.691911    7.561630    0.165568
     44          1           0        7.075865    7.543777    1.197244
     45          6           0        5.332531    8.282994    0.179055
     46          1           0        4.865293    8.258112   -0.813599
     47          1           0        5.444490    9.332716    0.466529
     48          1           0        4.633498    7.833110    0.887414
     49          6           0        3.059066    1.561557    2.316399
     50          1           0        2.386834    2.385849    2.572002
     51          1           0        2.664698    0.664728    2.800255
     52          1           0        4.036197    1.765705    2.764800
     53          8           0        5.873526    1.238786   -1.817096
     54          8           0        7.109668    1.792062   -2.377286
     55          1           0        7.376723    1.049481   -2.942593
     56          8           0        1.049795   -2.450439    0.446674
     57          1           0        0.869268   -2.472525    1.396981
     58          6           0        7.713043    8.357155   -0.686163
     59          1           0        8.639049    7.777194   -0.775834
     60          1           0        7.313517    8.451192   -1.706358
     61          6           0        8.083724    9.744741   -0.135337
     62          1           0        7.216404   10.414355   -0.160133
     63          1           0        8.350655    9.639685    0.925944
     64          6           0        9.267956   10.413228   -0.858129
     65          1           0       10.149651    9.763539   -0.759066
     66          1           0        9.518902   11.346849   -0.332845
     67          6           0        9.071309   10.741149   -2.353721
     68          1           0        8.837694    9.806287   -2.882991
     69          6           0        7.911000   11.720490   -2.592088
     70          1           0        8.084504   12.666222   -2.062091
     71          1           0        7.807320   11.952081   -3.658288
     72          1           0        6.952883   11.317184   -2.248668
     73          6           0       10.375009   11.294659   -2.950999
     74          1           0       10.659978   12.235892   -2.463289
     75          1           0       10.268346   11.495468   -4.023187
     76          1           0       11.204293   10.589477   -2.822651
 ---------------------------------------------------------------------
 Rotational constants (GHZ):      0.4054307      0.0539806      0.0510442
 Leave Link  202 at Fri Apr 28 12:55:12 2017, MaxMem=    33554432 cpu:         0.1
 (Enter /home/michal/g09/l301.exe)
 Standard basis: 6-31G(d) (6D, 7F)
 Ernie: Thresh=  0.10000D-02 Tol=  0.10000D-05 Strict=F.
 AO basis set in the form of general basis input (Overlap normalization):
      1 0
 S   6 1.00       0.000000000000
      0.3047524880D+04  0.1834737132D-02
      0.4573695180D+03  0.1403732281D-01
      0.1039486850D+03  0.6884262226D-01
      0.2921015530D+02  0.2321844432D+00
      0.9286662960D+01  0.4679413484D+00
      0.3163926960D+01  0.3623119853D+00
 SP   3 1.00       0.000000000000
      0.7868272350D+01 -0.1193324198D+00  0.6899906659D-01
      0.1881288540D+01 -0.1608541517D+00  0.3164239610D+00
      0.5442492580D+00  0.1143456438D+01  0.7443082909D+00
 SP   1 1.00       0.000000000000
      0.1687144782D+00  0.1000000000D+01  0.1000000000D+01
 D   1 1.00       0.000000000000
      0.8000000000D+00  0.1000000000D+01
 ****
      2 0
 S   3 1.00       0.000000000000
      0.1873113696D+02  0.3349460434D-01
      0.2825394365D+01  0.2347269535D+00
      0.6401216923D+00  0.8137573261D+00
 S   1 1.00       0.000000000000
      0.1612777588D+00  0.1000000000D+01
 ****
      3 0
 S   6 1.00       0.000000000000
      0.3047524880D+04  0.1834737132D-02
      0.4573695180D+03  0.1403732281D-01
      0.1039486850D+03  0.6884262226D-01
      0.2921015530D+02  0.2321844432D+00
      0.9286662960D+01  0.4679413484D+00
      0.3163926960D+01  0.3623119853D+00
 SP   3 1.00       0.000000000000
      0.7868272350D+01 -0.1193324198D+00  0.6899906659D-01
      0.1881288540D+01 -0.1608541517D+00  0.3164239610D+00
      0.5442492580D+00  0.1143456438D+01  0.7443082909D+00
 SP   1 1.00       0.000000000000
      0.1687144782D+00  0.1000000000D+01  0.1000000000D+01
 D   1 1.00       0.000000000000
      0.8000000000D+00  0.1000000000D+01
 ****
      4 0
 S   3 1.00       0.000000000000
      0.1873113696D+02  0.3349460434D-01
      0.2825394365D+01  0.2347269535D+00
      0.6401216923D+00  0.8137573261D+00
 S   1 1.00       0.000000000000
      0.1612777588D+00  0.1000000000D+01
 ****
      5 0
 S   3 1.00       0.000000000000
      0.1873113696D+02  0.3349460434D-01
      0.2825394365D+01  0.2347269535D+00
      0.6401216923D+00  0.8137573261D+00
 S   1 1.00       0.000000000000
      0.1612777588D+00  0.1000000000D+01
 ****
      6 0
 S   6 1.00       0.000000000000
      0.3047524880D+04  0.1834737132D-02
      0.4573695180D+03  0.1403732281D-01
      0.1039486850D+03  0.6884262226D-01
      0.2921015530D+02  0.2321844432D+00
      0.9286662960D+01  0.4679413484D+00
      0.3163926960D+01  0.3623119853D+00
 SP   3 1.00       0.000000000000
      0.7868272350D+01 -0.1193324198D+00  0.6899906659D-01
      0.1881288540D+01 -0.1608541517D+00  0.3164239610D+00
      0.5442492580D+00  0.1143456438D+01  0.7443082909D+00
 SP   1 1.00       0.000000000000
      0.1687144782D+00  0.1000000000D+01  0.1000000000D+01
 D   1 1.00       0.000000000000
      0.8000000000D+00  0.1000000000D+01
 ****
      7 0
 S   6 1.00       0.000000000000
      0.3047524880D+04  0.1834737132D-02
      0.4573695180D+03  0.1403732281D-01
      0.1039486850D+03  0.6884262226D-01
      0.2921015530D+02  0.2321844432D+00
      0.9286662960D+01  0.4679413484D+00
      0.3163926960D+01  0.3623119853D+00
 SP   3 1.00       0.000000000000
      0.7868272350D+01 -0.1193324198D+00  0.6899906659D-01
      0.1881288540D+01 -0.1608541517D+00  0.3164239610D+00
      0.5442492580D+00  0.1143456438D+01  0.7443082909D+00
 SP   1 1.00       0.000000000000
      0.1687144782D+00  0.1000000000D+01  0.1000000000D+01
 D   1 1.00       0.000000000000
      0.8000000000D+00  0.1000000000D+01
 ****
      8 0
 S   6 1.00       0.000000000000
      0.3047524880D+04  0.1834737132D-02
      0.4573695180D+03  0.1403732281D-01
      0.1039486850D+03  0.6884262226D-01
      0.2921015530D+02  0.2321844432D+00
      0.9286662960D+01  0.4679413484D+00
      0.3163926960D+01  0.3623119853D+00
 SP   3 1.00       0.000000000000
      0.7868272350D+01 -0.1193324198D+00  0.6899906659D-01
      0.1881288540D+01 -0.1608541517D+00  0.3164239610D+00
      0.5442492580D+00  0.1143456438D+01  0.7443082909D+00
 SP   1 1.00       0.000000000000
      0.1687144782D+00  0.1000000000D+01  0.1000000000D+01
 D   1 1.00       0.000000000000
      0.8000000000D+00  0.1000000000D+01
 ****
      9 0
 S   3 1.00       0.000000000000
      0.1873113696D+02  0.3349460434D-01
      0.2825394365D+01  0.2347269535D+00
      0.6401216923D+00  0.8137573261D+00
 S   1 1.00       0.000000000000
      0.1612777588D+00  0.1000000000D+01
 ****
     10 0
 S   3 1.00       0.000000000000
      0.1873113696D+02  0.3349460434D-01
      0.2825394365D+01  0.2347269535D+00
      0.6401216923D+00  0.8137573261D+00
 S   1 1.00       0.000000000000
      0.1612777588D+00  0.1000000000D+01
 ****
     11 0
 S   6 1.00       0.000000000000
      0.3047524880D+04  0.1834737132D-02
      0.4573695180D+03  0.1403732281D-01
      0.1039486850D+03  0.6884262226D-01
      0.2921015530D+02  0.2321844432D+00
      0.9286662960D+01  0.4679413484D+00
      0.3163926960D+01  0.3623119853D+00
 SP   3 1.00       0.000000000000
      0.7868272350D+01 -0.1193324198D+00  0.6899906659D-01
      0.1881288540D+01 -0.1608541517D+00  0.3164239610D+00
      0.5442492580D+00  0.1143456438D+01  0.7443082909D+00
 SP   1 1.00       0.000000000000
      0.1687144782D+00  0.1000000000D+01  0.1000000000D+01
 D   1 1.00       0.000000000000
      0.8000000000D+00  0.1000000000D+01
 ****
     12 0
 S   3 1.00       0.000000000000
      0.1873113696D+02  0.3349460434D-01
      0.2825394365D+01  0.2347269535D+00
      0.6401216923D+00  0.8137573261D+00
 S   1 1.00       0.000000000000
      0.1612777588D+00  0.1000000000D+01
 ****
     13 0
 S   3 1.00       0.000000000000
      0.1873113696D+02  0.3349460434D-01
      0.2825394365D+01  0.2347269535D+00
      0.6401216923D+00  0.8137573261D+00
 S   1 1.00       0.000000000000
      0.1612777588D+00  0.1000000000D+01
 ****
     14 0
 S   6 1.00       0.000000000000
      0.3047524880D+04  0.1834737132D-02
      0.4573695180D+03  0.1403732281D-01
      0.1039486850D+03  0.6884262226D-01
      0.2921015530D+02  0.2321844432D+00
      0.9286662960D+01  0.4679413484D+00
      0.3163926960D+01  0.3623119853D+00
 SP   3 1.00       0.000000000000
      0.7868272350D+01 -0.1193324198D+00  0.6899906659D-01
      0.1881288540D+01 -0.1608541517D+00  0.3164239610D+00
      0.5442492580D+00  0.1143456438D+01  0.7443082909D+00
 SP   1 1.00       0.000000000000
      0.1687144782D+00  0.1000000000D+01  0.1000000000D+01
 D   1 1.00       0.000000000000
      0.8000000000D+00  0.1000000000D+01
 ****
     15 0
 S   3 1.00       0.000000000000
      0.1873113696D+02  0.3349460434D-01
      0.2825394365D+01  0.2347269535D+00
      0.6401216923D+00  0.8137573261D+00
 S   1 1.00       0.000000000000
      0.1612777588D+00  0.1000000000D+01
 ****
     16 0
 S   6 1.00       0.000000000000
      0.3047524880D+04  0.1834737132D-02
      0.4573695180D+03  0.1403732281D-01
      0.1039486850D+03  0.6884262226D-01
      0.2921015530D+02  0.2321844432D+00
      0.9286662960D+01  0.4679413484D+00
      0.3163926960D+01  0.3623119853D+00
 SP   3 1.00       0.000000000000
      0.7868272350D+01 -0.1193324198D+00  0.6899906659D-01
      0.1881288540D+01 -0.1608541517D+00  0.3164239610D+00
      0.5442492580D+00  0.1143456438D+01  0.7443082909D+00
 SP   1 1.00       0.000000000000
      0.1687144782D+00  0.1000000000D+01  0.1000000000D+01
 D   1 1.00       0.000000000000
      0.8000000000D+00  0.1000000000D+01
 ****
     17 0
 S   3 1.00       0.000000000000
      0.1873113696D+02  0.3349460434D-01
      0.2825394365D+01  0.2347269535D+00
      0.6401216923D+00  0.8137573261D+00
 S   1 1.00       0.000000000000
      0.1612777588D+00  0.1000000000D+01
 ****
     18 0
 S   6 1.00       0.000000000000
      0.3047524880D+04  0.1834737132D-02
      0.4573695180D+03  0.1403732281D-01
      0.1039486850D+03  0.6884262226D-01
      0.2921015530D+02  0.2321844432D+00
      0.9286662960D+01  0.4679413484D+00
      0.3163926960D+01  0.3623119853D+00
 SP   3 1.00       0.000000000000
      0.7868272350D+01 -0.1193324198D+00  0.6899906659D-01
      0.1881288540D+01 -0.1608541517D+00  0.3164239610D+00
      0.5442492580D+00  0.1143456438D+01  0.7443082909D+00
 SP   1 1.00       0.000000000000
      0.1687144782D+00  0.1000000000D+01  0.1000000000D+01
 D   1 1.00       0.000000000000
      0.8000000000D+00  0.1000000000D+01
 ****
     19 0
 S   3 1.00       0.000000000000
      0.1873113696D+02  0.3349460434D-01
      0.2825394365D+01  0.2347269535D+00
      0.6401216923D+00  0.8137573261D+00
 S   1 1.00       0.000000000000
      0.1612777588D+00  0.1000000000D+01
 ****
     20 0
 S   6 1.00       0.000000000000
      0.3047524880D+04  0.1834737132D-02
      0.4573695180D+03  0.1403732281D-01
      0.1039486850D+03  0.6884262226D-01
      0.2921015530D+02  0.2321844432D+00
      0.9286662960D+01  0.4679413484D+00
      0.3163926960D+01  0.3623119853D+00
 SP   3 1.00       0.000000000000
      0.7868272350D+01 -0.1193324198D+00  0.6899906659D-01
      0.1881288540D+01 -0.1608541517D+00  0.3164239610D+00
      0.5442492580D+00  0.1143456438D+01  0.7443082909D+00
 SP   1 1.00       0.000000000000
      0.1687144782D+00  0.1000000000D+01  0.1000000000D+01
 D   1 1.00       0.000000000000
      0.8000000000D+00  0.1000000000D+01
 ****
     21 0
 S   3 1.00       0.000000000000
      0.1873113696D+02  0.3349460434D-01
      0.2825394365D+01  0.2347269535D+00
      0.6401216923D+00  0.8137573261D+00
 S   1 1.00       0.000000000000
      0.1612777588D+00  0.1000000000D+01
 ****
     22 0
 S   6 1.00       0.000000000000
      0.3047524880D+04  0.1834737132D-02
      0.4573695180D+03  0.1403732281D-01
      0.1039486850D+03  0.6884262226D-01
      0.2921015530D+02  0.2321844432D+00
      0.9286662960D+01  0.4679413484D+00
      0.3163926960D+01  0.3623119853D+00
 SP   3 1.00       0.000000000000
      0.7868272350D+01 -0.1193324198D+00  0.6899906659D-01
      0.1881288540D+01 -0.1608541517D+00  0.3164239610D+00
      0.5442492580D+00  0.1143456438D+01  0.7443082909D+00
 SP   1 1.00       0.000000000000
      0.1687144782D+00  0.1000000000D+01  0.1000000000D+01
 D   1 1.00       0.000000000000
      0.8000000000D+00  0.1000000000D+01
 ****
     23 0
 S   3 1.00       0.000000000000
      0.1873113696D+02  0.3349460434D-01
      0.2825394365D+01  0.2347269535D+00
      0.6401216923D+00  0.8137573261D+00
 S   1 1.00       0.000000000000
      0.1612777588D+00  0.1000000000D+01
 ****
     24 0
 S   3 1.00       0.000000000000
      0.1873113696D+02  0.3349460434D-01
      0.2825394365D+01  0.2347269535D+00
      0.6401216923D+00  0.8137573261D+00
 S   1 1.00       0.000000000000
      0.1612777588D+00  0.1000000000D+01
 ****
     25 0
 S   6 1.00       0.000000000000
      0.3047524880D+04  0.1834737132D-02
      0.4573695180D+03  0.1403732281D-01
      0.1039486850D+03  0.6884262226D-01
      0.2921015530D+02  0.2321844432D+00
      0.9286662960D+01  0.4679413484D+00
      0.3163926960D+01  0.3623119853D+00
 SP   3 1.00       0.000000000000
      0.7868272350D+01 -0.1193324198D+00  0.6899906659D-01
      0.1881288540D+01 -0.1608541517D+00  0.3164239610D+00
      0.5442492580D+00  0.1143456438D+01  0.7443082909D+00
 SP   1 1.00       0.000000000000
      0.1687144782D+00  0.1000000000D+01  0.1000000000D+01
 D   1 1.00       0.000000000000
      0.8000000000D+00  0.1000000000D+01
 ****
     26 0
 S   3 1.00       0.000000000000
      0.1873113696D+02  0.3349460434D-01
      0.2825394365D+01  0.2347269535D+00
      0.6401216923D+00  0.8137573261D+00
 S   1 1.00       0.000000000000
      0.1612777588D+00  0.1000000000D+01
 ****
     27 0
 S   3 1.00       0.000000000000
      0.1873113696D+02  0.3349460434D-01
      0.2825394365D+01  0.2347269535D+00
      0.6401216923D+00  0.8137573261D+00
 S   1 1.00       0.000000000000
      0.1612777588D+00  0.1000000000D+01
 ****
     28 0
 S   6 1.00       0.000000000000
      0.3047524880D+04  0.1834737132D-02
      0.4573695180D+03  0.1403732281D-01
      0.1039486850D+03  0.6884262226D-01
      0.2921015530D+02  0.2321844432D+00
      0.9286662960D+01  0.4679413484D+00
      0.3163926960D+01  0.3623119853D+00
 SP   3 1.00       0.000000000000
      0.7868272350D+01 -0.1193324198D+00  0.6899906659D-01
      0.1881288540D+01 -0.1608541517D+00  0.3164239610D+00
      0.5442492580D+00  0.1143456438D+01  0.7443082909D+00
 SP   1 1.00       0.000000000000
      0.1687144782D+00  0.1000000000D+01  0.1000000000D+01
 D   1 1.00       0.000000000000
      0.8000000000D+00  0.1000000000D+01
 ****
     29 0
 S   6 1.00       0.000000000000
      0.3047524880D+04  0.1834737132D-02
      0.4573695180D+03  0.1403732281D-01
      0.1039486850D+03  0.6884262226D-01
      0.2921015530D+02  0.2321844432D+00
      0.9286662960D+01  0.4679413484D+00
      0.3163926960D+01  0.3623119853D+00
 SP   3 1.00       0.000000000000
      0.7868272350D+01 -0.1193324198D+00  0.6899906659D-01
      0.1881288540D+01 -0.1608541517D+00  0.3164239610D+00
      0.5442492580D+00  0.1143456438D+01  0.7443082909D+00
 SP   1 1.00       0.000000000000
      0.1687144782D+00  0.1000000000D+01  0.1000000000D+01
 D   1 1.00       0.000000000000
      0.8000000000D+00  0.1000000000D+01
 ****
     30 0
 S   3 1.00       0.000000000000
      0.1873113696D+02  0.3349460434D-01
      0.2825394365D+01  0.2347269535D+00
      0.6401216923D+00  0.8137573261D+00
 S   1 1.00       0.000000000000
      0.1612777588D+00  0.1000000000D+01
 ****
     31 0
 S   6 1.00       0.000000000000
      0.3047524880D+04  0.1834737132D-02
      0.4573695180D+03  0.1403732281D-01
      0.1039486850D+03  0.6884262226D-01
      0.2921015530D+02  0.2321844432D+00
      0.9286662960D+01  0.4679413484D+00
      0.3163926960D+01  0.3623119853D+00
 SP   3 1.00       0.000000000000
      0.7868272350D+01 -0.1193324198D+00  0.6899906659D-01
      0.1881288540D+01 -0.1608541517D+00  0.3164239610D+00
      0.5442492580D+00  0.1143456438D+01  0.7443082909D+00
 SP   1 1.00       0.000000000000
      0.1687144782D+00  0.1000000000D+01  0.1000000000D+01
 D   1 1.00       0.000000000000
      0.8000000000D+00  0.1000000000D+01
 ****
     32 0
 S   3 1.00       0.000000000000
      0.1873113696D+02  0.3349460434D-01
      0.2825394365D+01  0.2347269535D+00
      0.6401216923D+00  0.8137573261D+00
 S   1 1.00       0.000000000000
      0.1612777588D+00  0.1000000000D+01
 ****
     33 0
 S   3 1.00       0.000000000000
      0.1873113696D+02  0.3349460434D-01
      0.2825394365D+01  0.2347269535D+00
      0.6401216923D+00  0.8137573261D+00
 S   1 1.00       0.000000000000
      0.1612777588D+00  0.1000000000D+01
 ****
     34 0
 S   6 1.00       0.000000000000
      0.3047524880D+04  0.1834737132D-02
      0.4573695180D+03  0.1403732281D-01
      0.1039486850D+03  0.6884262226D-01
      0.2921015530D+02  0.2321844432D+00
      0.9286662960D+01  0.4679413484D+00
      0.3163926960D+01  0.3623119853D+00
 SP   3 1.00       0.000000000000
      0.7868272350D+01 -0.1193324198D+00  0.6899906659D-01
      0.1881288540D+01 -0.1608541517D+00  0.3164239610D+00
      0.5442492580D+00  0.1143456438D+01  0.7443082909D+00
 SP   1 1.00       0.000000000000
      0.1687144782D+00  0.1000000000D+01  0.1000000000D+01
 D   1 1.00       0.000000000000
      0.8000000000D+00  0.1000000000D+01
 ****
     35 0
 S   3 1.00       0.000000000000
      0.1873113696D+02  0.3349460434D-01
      0.2825394365D+01  0.2347269535D+00
      0.6401216923D+00  0.8137573261D+00
 S   1 1.00       0.000000000000
      0.1612777588D+00  0.1000000000D+01
 ****
     36 0
 S   3 1.00       0.000000000000
      0.1873113696D+02  0.3349460434D-01
      0.2825394365D+01  0.2347269535D+00
      0.6401216923D+00  0.8137573261D+00
 S   1 1.00       0.000000000000
      0.1612777588D+00  0.1000000000D+01
 ****
     37 0
 S   6 1.00       0.000000000000
      0.3047524880D+04  0.1834737132D-02
      0.4573695180D+03  0.1403732281D-01
      0.1039486850D+03  0.6884262226D-01
      0.2921015530D+02  0.2321844432D+00
      0.9286662960D+01  0.4679413484D+00
      0.3163926960D+01  0.3623119853D+00
 SP   3 1.00       0.000000000000
      0.7868272350D+01 -0.1193324198D+00  0.6899906659D-01
      0.1881288540D+01 -0.1608541517D+00  0.3164239610D+00
      0.5442492580D+00  0.1143456438D+01  0.7443082909D+00
 SP   1 1.00       0.000000000000
      0.1687144782D+00  0.1000000000D+01  0.1000000000D+01
 D   1 1.00       0.000000000000
      0.8000000000D+00  0.1000000000D+01
 ****
     38 0
 S   3 1.00       0.000000000000
      0.1873113696D+02  0.3349460434D-01
      0.2825394365D+01  0.2347269535D+00
      0.6401216923D+00  0.8137573261D+00
 S   1 1.00       0.000000000000
      0.1612777588D+00  0.1000000000D+01
 ****
     39 0
 S   6 1.00       0.000000000000
      0.3047524880D+04  0.1834737132D-02
      0.4573695180D+03  0.1403732281D-01
      0.1039486850D+03  0.6884262226D-01
      0.2921015530D+02  0.2321844432D+00
      0.9286662960D+01  0.4679413484D+00
      0.3163926960D+01  0.3623119853D+00
 SP   3 1.00       0.000000000000
      0.7868272350D+01 -0.1193324198D+00  0.6899906659D-01
      0.1881288540D+01 -0.1608541517D+00  0.3164239610D+00
      0.5442492580D+00  0.1143456438D+01  0.7443082909D+00
 SP   1 1.00       0.000000000000
      0.1687144782D+00  0.1000000000D+01  0.1000000000D+01
 D   1 1.00       0.000000000000
      0.8000000000D+00  0.1000000000D+01
 ****
     40 0
 S   3 1.00       0.000000000000
      0.1873113696D+02  0.3349460434D-01
      0.2825394365D+01  0.2347269535D+00
      0.6401216923D+00  0.8137573261D+00
 S   1 1.00       0.000000000000
      0.1612777588D+00  0.1000000000D+01
 ****
     41 0
 S   3 1.00       0.000000000000
      0.1873113696D+02  0.3349460434D-01
      0.2825394365D+01  0.2347269535D+00
      0.6401216923D+00  0.8137573261D+00
 S   1 1.00       0.000000000000
      0.1612777588D+00  0.1000000000D+01
 ****
     42 0
 S   3 1.00       0.000000000000
      0.1873113696D+02  0.3349460434D-01
      0.2825394365D+01  0.2347269535D+00
      0.6401216923D+00  0.8137573261D+00
 S   1 1.00       0.000000000000
      0.1612777588D+00  0.1000000000D+01
 ****
     43 0
 S   6 1.00       0.000000000000
      0.3047524880D+04  0.1834737132D-02
      0.4573695180D+03  0.1403732281D-01
      0.1039486850D+03  0.6884262226D-01
      0.2921015530D+02  0.2321844432D+00
      0.9286662960D+01  0.4679413484D+00
      0.3163926960D+01  0.3623119853D+00
 SP   3 1.00       0.000000000000
      0.7868272350D+01 -0.1193324198D+00  0.6899906659D-01
      0.1881288540D+01 -0.1608541517D+00  0.3164239610D+00
      0.5442492580D+00  0.1143456438D+01  0.7443082909D+00
 SP   1 1.00       0.000000000000
      0.1687144782D+00  0.1000000000D+01  0.1000000000D+01
 D   1 1.00       0.000000000000
      0.8000000000D+00  0.1000000000D+01
 ****
     44 0
 S   3 1.00       0.000000000000
      0.1873113696D+02  0.3349460434D-01
      0.2825394365D+01  0.2347269535D+00
      0.6401216923D+00  0.8137573261D+00
 S   1 1.00       0.000000000000
      0.1612777588D+00  0.1000000000D+01
 ****
     45 0
 S   6 1.00       0.000000000000
      0.3047524880D+04  0.1834737132D-02
      0.4573695180D+03  0.1403732281D-01
      0.1039486850D+03  0.6884262226D-01
      0.2921015530D+02  0.2321844432D+00
      0.9286662960D+01  0.4679413484D+00
      0.3163926960D+01  0.3623119853D+00
 SP   3 1.00       0.000000000000
      0.7868272350D+01 -0.1193324198D+00  0.6899906659D-01
      0.1881288540D+01 -0.1608541517D+00  0.3164239610D+00
      0.5442492580D+00  0.1143456438D+01  0.7443082909D+00
 SP   1 1.00       0.000000000000
      0.1687144782D+00  0.1000000000D+01  0.1000000000D+01
 D   1 1.00       0.000000000000
      0.8000000000D+00  0.1000000000D+01
 ****
     46 0
 S   3 1.00       0.000000000000
      0.1873113696D+02  0.3349460434D-01
      0.2825394365D+01  0.2347269535D+00
      0.6401216923D+00  0.8137573261D+00
 S   1 1.00       0.000000000000
      0.1612777588D+00  0.1000000000D+01
 ****
     47 0
 S   3 1.00       0.000000000000
      0.1873113696D+02  0.3349460434D-01
      0.2825394365D+01  0.2347269535D+00
      0.6401216923D+00  0.8137573261D+00
 S   1 1.00       0.000000000000
      0.1612777588D+00  0.1000000000D+01
 ****
     48 0
 S   3 1.00       0.000000000000
      0.1873113696D+02  0.3349460434D-01
      0.2825394365D+01  0.2347269535D+00
      0.6401216923D+00  0.8137573261D+00
 S   1 1.00       0.000000000000
      0.1612777588D+00  0.1000000000D+01
 ****
     49 0
 S   6 1.00       0.000000000000
      0.3047524880D+04  0.1834737132D-02
      0.4573695180D+03  0.1403732281D-01
      0.1039486850D+03  0.6884262226D-01
      0.2921015530D+02  0.2321844432D+00
      0.9286662960D+01  0.4679413484D+00
      0.3163926960D+01  0.3623119853D+00
 SP   3 1.00       0.000000000000
      0.7868272350D+01 -0.1193324198D+00  0.6899906659D-01
      0.1881288540D+01 -0.1608541517D+00  0.3164239610D+00
      0.5442492580D+00  0.1143456438D+01  0.7443082909D+00
 SP   1 1.00       0.000000000000
      0.1687144782D+00  0.1000000000D+01  0.1000000000D+01
 D   1 1.00       0.000000000000
      0.8000000000D+00  0.1000000000D+01
 ****
     50 0
 S   3 1.00       0.000000000000
      0.1873113696D+02  0.3349460434D-01
      0.2825394365D+01  0.2347269535D+00
      0.6401216923D+00  0.8137573261D+00
 S   1 1.00       0.000000000000
      0.1612777588D+00  0.1000000000D+01
 ****
     51 0
 S   3 1.00       0.000000000000
      0.1873113696D+02  0.3349460434D-01
      0.2825394365D+01  0.2347269535D+00
      0.6401216923D+00  0.8137573261D+00
 S   1 1.00       0.000000000000
      0.1612777588D+00  0.1000000000D+01
 ****
     52 0
 S   3 1.00       0.000000000000
      0.1873113696D+02  0.3349460434D-01
      0.2825394365D+01  0.2347269535D+00
      0.6401216923D+00  0.8137573261D+00
 S   1 1.00       0.000000000000
      0.1612777588D+00  0.1000000000D+01
 ****
     53 0
 S   6 1.00       0.000000000000
      0.5484671660D+04  0.1831074430D-02
      0.8252349460D+03  0.1395017220D-01
      0.1880469580D+03  0.6844507810D-01
      0.5296450000D+02  0.2327143360D+00
      0.1689757040D+02  0.4701928980D+00
      0.5799635340D+01  0.3585208530D+00
 SP   3 1.00       0.000000000000
      0.1553961625D+02 -0.1107775495D+00  0.7087426823D-01
      0.3599933586D+01 -0.1480262627D+00  0.3397528391D+00
      0.1013761750D+01  0.1130767015D+01  0.7271585773D+00
 SP   1 1.00       0.000000000000
      0.2700058226D+00  0.1000000000D+01  0.1000000000D+01
 D   1 1.00       0.000000000000
      0.8000000000D+00  0.1000000000D+01
 ****
     54 0
 S   6 1.00       0.000000000000
      0.5484671660D+04  0.1831074430D-02
      0.8252349460D+03  0.1395017220D-01
      0.1880469580D+03  0.6844507810D-01
      0.5296450000D+02  0.2327143360D+00
      0.1689757040D+02  0.4701928980D+00
      0.5799635340D+01  0.3585208530D+00
 SP   3 1.00       0.000000000000
      0.1553961625D+02 -0.1107775495D+00  0.7087426823D-01
      0.3599933586D+01 -0.1480262627D+00  0.3397528391D+00
      0.1013761750D+01  0.1130767015D+01  0.7271585773D+00
 SP   1 1.00       0.000000000000
      0.2700058226D+00  0.1000000000D+01  0.1000000000D+01
 D   1 1.00       0.000000000000
      0.8000000000D+00  0.1000000000D+01
 ****
     55 0
 S   3 1.00       0.000000000000
      0.1873113696D+02  0.3349460434D-01
      0.2825394365D+01  0.2347269535D+00
      0.6401216923D+00  0.8137573261D+00
 S   1 1.00       0.000000000000
      0.1612777588D+00  0.1000000000D+01
 ****
     56 0
 S   6 1.00       0.000000000000
      0.5484671660D+04  0.1831074430D-02
      0.8252349460D+03  0.1395017220D-01
      0.1880469580D+03  0.6844507810D-01
      0.5296450000D+02  0.2327143360D+00
      0.1689757040D+02  0.4701928980D+00
      0.5799635340D+01  0.3585208530D+00
 SP   3 1.00       0.000000000000
      0.1553961625D+02 -0.1107775495D+00  0.7087426823D-01
      0.3599933586D+01 -0.1480262627D+00  0.3397528391D+00
      0.1013761750D+01  0.1130767015D+01  0.7271585773D+00
 SP   1 1.00       0.000000000000
      0.2700058226D+00  0.1000000000D+01  0.1000000000D+01
 D   1 1.00       0.000000000000
      0.8000000000D+00  0.1000000000D+01
 ****
     57 0
 S   3 1.00       0.000000000000
      0.1873113696D+02  0.3349460434D-01
      0.2825394365D+01  0.2347269535D+00
      0.6401216923D+00  0.8137573261D+00
 S   1 1.00       0.000000000000
      0.1612777588D+00  0.1000000000D+01
 ****
     58 0
 S   6 1.00       0.000000000000
      0.3047524880D+04  0.1834737132D-02
      0.4573695180D+03  0.1403732281D-01
      0.1039486850D+03  0.6884262226D-01
      0.2921015530D+02  0.2321844432D+00
      0.9286662960D+01  0.4679413484D+00
      0.3163926960D+01  0.3623119853D+00
 SP   3 1.00       0.000000000000
      0.7868272350D+01 -0.1193324198D+00  0.6899906659D-01
      0.1881288540D+01 -0.1608541517D+00  0.3164239610D+00
      0.5442492580D+00  0.1143456438D+01  0.7443082909D+00
 SP   1 1.00       0.000000000000
      0.1687144782D+00  0.1000000000D+01  0.1000000000D+01
 D   1 1.00       0.000000000000
      0.8000000000D+00  0.1000000000D+01
 ****
     59 0
 S   3 1.00       0.000000000000
      0.1873113696D+02  0.3349460434D-01
      0.2825394365D+01  0.2347269535D+00
      0.6401216923D+00  0.8137573261D+00
 S   1 1.00       0.000000000000
      0.1612777588D+00  0.1000000000D+01
 ****
     60 0
 S   3 1.00       0.000000000000
      0.1873113696D+02  0.3349460434D-01
      0.2825394365D+01  0.2347269535D+00
      0.6401216923D+00  0.8137573261D+00
 S   1 1.00       0.000000000000
      0.1612777588D+00  0.1000000000D+01
 ****
     61 0
 S   6 1.00       0.000000000000
      0.3047524880D+04  0.1834737132D-02
      0.4573695180D+03  0.1403732281D-01
      0.1039486850D+03  0.6884262226D-01
      0.2921015530D+02  0.2321844432D+00
      0.9286662960D+01  0.4679413484D+00
      0.3163926960D+01  0.3623119853D+00
 SP   3 1.00       0.000000000000
      0.7868272350D+01 -0.1193324198D+00  0.6899906659D-01
      0.1881288540D+01 -0.1608541517D+00  0.3164239610D+00
      0.5442492580D+00  0.1143456438D+01  0.7443082909D+00
 SP   1 1.00       0.000000000000
      0.1687144782D+00  0.1000000000D+01  0.1000000000D+01
 D   1 1.00       0.000000000000
      0.8000000000D+00  0.1000000000D+01
 ****
     62 0
 S   3 1.00       0.000000000000
      0.1873113696D+02  0.3349460434D-01
      0.2825394365D+01  0.2347269535D+00
      0.6401216923D+00  0.8137573261D+00
 S   1 1.00       0.000000000000
      0.1612777588D+00  0.1000000000D+01
 ****
     63 0
 S   3 1.00       0.000000000000
      0.1873113696D+02  0.3349460434D-01
      0.2825394365D+01  0.2347269535D+00
      0.6401216923D+00  0.8137573261D+00
 S   1 1.00       0.000000000000
      0.1612777588D+00  0.1000000000D+01
 ****
     64 0
 S   6 1.00       0.000000000000
      0.3047524880D+04  0.1834737132D-02
      0.4573695180D+03  0.1403732281D-01
      0.1039486850D+03  0.6884262226D-01
      0.2921015530D+02  0.2321844432D+00
      0.9286662960D+01  0.4679413484D+00
      0.3163926960D+01  0.3623119853D+00
 SP   3 1.00       0.000000000000
      0.7868272350D+01 -0.1193324198D+00  0.6899906659D-01
      0.1881288540D+01 -0.1608541517D+00  0.3164239610D+00
      0.5442492580D+00  0.1143456438D+01  0.7443082909D+00
 SP   1 1.00       0.000000000000
      0.1687144782D+00  0.1000000000D+01  0.1000000000D+01
 D   1 1.00       0.000000000000
      0.8000000000D+00  0.1000000000D+01
 ****
     65 0
 S   3 1.00       0.000000000000
      0.1873113696D+02  0.3349460434D-01
      0.2825394365D+01  0.2347269535D+00
      0.6401216923D+00  0.8137573261D+00
 S   1 1.00       0.000000000000
      0.1612777588D+00  0.1000000000D+01
 ****
     66 0
 S   3 1.00       0.000000000000
      0.1873113696D+02  0.3349460434D-01
      0.2825394365D+01  0.2347269535D+00
      0.6401216923D+00  0.8137573261D+00
 S   1 1.00       0.000000000000
      0.1612777588D+00  0.1000000000D+01
 ****
     67 0
 S   6 1.00       0.000000000000
      0.3047524880D+04  0.1834737132D-02
      0.4573695180D+03  0.1403732281D-01
      0.1039486850D+03  0.6884262226D-01
      0.2921015530D+02  0.2321844432D+00
      0.9286662960D+01  0.4679413484D+00
      0.3163926960D+01  0.3623119853D+00
 SP   3 1.00       0.000000000000
      0.7868272350D+01 -0.1193324198D+00  0.6899906659D-01
      0.1881288540D+01 -0.1608541517D+00  0.3164239610D+00
      0.5442492580D+00  0.1143456438D+01  0.7443082909D+00
 SP   1 1.00       0.000000000000
      0.1687144782D+00  0.1000000000D+01  0.1000000000D+01
 D   1 1.00       0.000000000000
      0.8000000000D+00  0.1000000000D+01
 ****
     68 0
 S   3 1.00       0.000000000000
      0.1873113696D+02  0.3349460434D-01
      0.2825394365D+01  0.2347269535D+00
      0.6401216923D+00  0.8137573261D+00
 S   1 1.00       0.000000000000
      0.1612777588D+00  0.1000000000D+01
 ****
     69 0
 S   6 1.00       0.000000000000
      0.3047524880D+04  0.1834737132D-02
      0.4573695180D+03  0.1403732281D-01
      0.1039486850D+03  0.6884262226D-01
      0.2921015530D+02  0.2321844432D+00
      0.9286662960D+01  0.4679413484D+00
      0.3163926960D+01  0.3623119853D+00
 SP   3 1.00       0.000000000000
      0.7868272350D+01 -0.1193324198D+00  0.6899906659D-01
      0.1881288540D+01 -0.1608541517D+00  0.3164239610D+00
      0.5442492580D+00  0.1143456438D+01  0.7443082909D+00
 SP   1 1.00       0.000000000000
      0.1687144782D+00  0.1000000000D+01  0.1000000000D+01
 D   1 1.00       0.000000000000
      0.8000000000D+00  0.1000000000D+01
 ****
     70 0
 S   3 1.00       0.000000000000
      0.1873113696D+02  0.3349460434D-01
      0.2825394365D+01  0.2347269535D+00
      0.6401216923D+00  0.8137573261D+00
 S   1 1.00       0.000000000000
      0.1612777588D+00  0.1000000000D+01
 ****
     71 0
 S   3 1.00       0.000000000000
      0.1873113696D+02  0.3349460434D-01
      0.2825394365D+01  0.2347269535D+00
      0.6401216923D+00  0.8137573261D+00
 S   1 1.00       0.000000000000
      0.1612777588D+00  0.1000000000D+01
 ****
     72 0
 S   3 1.00       0.000000000000
      0.1873113696D+02  0.3349460434D-01
      0.2825394365D+01  0.2347269535D+00
      0.6401216923D+00  0.8137573261D+00
 S   1 1.00       0.000000000000
      0.1612777588D+00  0.1000000000D+01
 ****
     73 0
 S   6 1.00       0.000000000000
      0.3047524880D+04  0.1834737132D-02
      0.4573695180D+03  0.1403732281D-01
      0.1039486850D+03  0.6884262226D-01
      0.2921015530D+02  0.2321844432D+00
      0.9286662960D+01  0.4679413484D+00
      0.3163926960D+01  0.3623119853D+00
 SP   3 1.00       0.000000000000
      0.7868272350D+01 -0.1193324198D+00  0.6899906659D-01
      0.1881288540D+01 -0.1608541517D+00  0.3164239610D+00
      0.5442492580D+00  0.1143456438D+01  0.7443082909D+00
 SP   1 1.00       0.000000000000
      0.1687144782D+00  0.1000000000D+01  0.1000000000D+01
 D   1 1.00       0.000000000000
      0.8000000000D+00  0.1000000000D+01
 ****
     74 0
 S   3 1.00       0.000000000000
      0.1873113696D+02  0.3349460434D-01
      0.2825394365D+01  0.2347269535D+00
      0.6401216923D+00  0.8137573261D+00
 S   1 1.00       0.000000000000
      0.1612777588D+00  0.1000000000D+01
 ****
     75 0
 S   3 1.00       0.000000000000
      0.1873113696D+02  0.3349460434D-01
      0.2825394365D+01  0.2347269535D+00
      0.6401216923D+00  0.8137573261D+00
 S   1 1.00       0.000000000000
      0.1612777588D+00  0.1000000000D+01
 ****
     76 0
 S   3 1.00       0.000000000000
      0.1873113696D+02  0.3349460434D-01
      0.2825394365D+01  0.2347269535D+00
      0.6401216923D+00  0.8137573261D+00
 S   1 1.00       0.000000000000
      0.1612777588D+00  0.1000000000D+01
 ****

 AO basis set (Overlap normalization):
 Atom C1       Shell     1 S   6     bf    1 -     1          3.318175596940         -2.352181877441          0.269259876818
      0.3047524880D+04  0.1834737132D-02
      0.4573695180D+03  0.1403732281D-01
      0.1039486850D+03  0.6884262226D-01
      0.2921015530D+02  0.2321844432D+00
      0.9286662960D+01  0.4679413484D+00
      0.3163926960D+01  0.3623119853D+00
 Atom C1       Shell     2 SP   3    bf    2 -     5          3.318175596940         -2.352181877441          0.269259876818
      0.7868272350D+01 -0.1193324198D+00  0.6899906659D-01
      0.1881288540D+01 -0.1608541517D+00  0.3164239610D+00
      0.5442492580D+00  0.1143456438D+01  0.7443082909D+00
 Atom C1       Shell     3 SP   1    bf    6 -     9          3.318175596940         -2.352181877441          0.269259876818
      0.1687144782D+00  0.1000000000D+01  0.1000000000D+01
 Atom C1       Shell     4 D   1     bf   10 -    15          3.318175596940         -2.352181877441          0.269259876818
      0.8000000000D+00  0.1000000000D+01
 Atom H2       Shell     5 S   3     bf   16 -    16          3.562031488511         -2.411884751047         -1.787799861073
      0.1873113696D+02  0.3349460434D-01
      0.2825394365D+01  0.2347269535D+00
      0.6401216923D+00  0.8137573261D+00
 Atom H2       Shell     6 S   1     bf   17 -    17          3.562031488511         -2.411884751047         -1.787799861073
      0.1612777588D+00  0.1000000000D+01
 Atom C3       Shell     7 S   6     bf   18 -    18          5.938799269858         -2.296863319640          1.522538588060
      0.3047524880D+04  0.1834737132D-02
      0.4573695180D+03  0.1403732281D-01
      0.1039486850D+03  0.6884262226D-01
      0.2921015530D+02  0.2321844432D+00
      0.9286662960D+01  0.4679413484D+00
      0.3163926960D+01  0.3623119853D+00
 Atom C3       Shell     8 SP   3    bf   19 -    22          5.938799269858         -2.296863319640          1.522538588060
      0.7868272350D+01 -0.1193324198D+00  0.6899906659D-01
      0.1881288540D+01 -0.1608541517D+00  0.3164239610D+00
      0.5442492580D+00  0.1143456438D+01  0.7443082909D+00
 Atom C3       Shell     9 SP   1    bf   23 -    26          5.938799269858         -2.296863319640          1.522538588060
      0.1687144782D+00  0.1000000000D+01  0.1000000000D+01
 Atom C3       Shell    10 D   1     bf   27 -    32          5.938799269858         -2.296863319640          1.522538588060
      0.8000000000D+00  0.1000000000D+01
 Atom H4       Shell    11 S   3     bf   33 -    33          7.034708429562         -3.942551637020          0.916190459698
      0.1873113696D+02  0.3349460434D-01
      0.2825394365D+01  0.2347269535D+00
      0.6401216923D+00  0.8137573261D+00
 Atom H4       Shell    12 S   1     bf   34 -    34          7.034708429562         -3.942551637020          0.916190459698
      0.1612777588D+00  0.1000000000D+01
 Atom H5       Shell    13 S   3     bf   35 -    35          5.662671164513         -2.485233412649          3.576707970933
      0.1873113696D+02  0.3349460434D-01
      0.2825394365D+01  0.2347269535D+00
      0.6401216923D+00  0.8137573261D+00
 Atom H5       Shell    14 S   1     bf   36 -    36          5.662671164513         -2.485233412649          3.576707970933
      0.1612777588D+00  0.1000000000D+01
 Atom C6       Shell    15 S   6     bf   37 -    37          7.368013940715          0.118390472951          0.942487869666
      0.3047524880D+04  0.1834737132D-02
      0.4573695180D+03  0.1403732281D-01
      0.1039486850D+03  0.6884262226D-01
      0.2921015530D+02  0.2321844432D+00
      0.9286662960D+01  0.4679413484D+00
      0.3163926960D+01  0.3623119853D+00
 Atom C6       Shell    16 SP   3    bf   38 -    41          7.368013940715          0.118390472951          0.942487869666
      0.7868272350D+01 -0.1193324198D+00  0.6899906659D-01
      0.1881288540D+01 -0.1608541517D+00  0.3164239610D+00
      0.5442492580D+00  0.1143456438D+01  0.7443082909D+00
 Atom C6       Shell    17 SP   1    bf   42 -    45          7.368013940715          0.118390472951          0.942487869666
      0.1687144782D+00  0.1000000000D+01  0.1000000000D+01
 Atom C6       Shell    18 D   1     bf   46 -    51          7.368013940715          0.118390472951          0.942487869666
      0.8000000000D+00  0.1000000000D+01
 Atom C7       Shell    19 S   6     bf   52 -    52          5.992698322079          2.612616449759          1.469015307880
      0.3047524880D+04  0.1834737132D-02
      0.4573695180D+03  0.1403732281D-01
      0.1039486850D+03  0.6884262226D-01
      0.2921015530D+02  0.2321844432D+00
      0.9286662960D+01  0.4679413484D+00
      0.3163926960D+01  0.3623119853D+00
 Atom C7       Shell    20 SP   3    bf   53 -    56          5.992698322079          2.612616449759          1.469015307880
      0.7868272350D+01 -0.1193324198D+00  0.6899906659D-01
      0.1881288540D+01 -0.1608541517D+00  0.3164239610D+00
      0.5442492580D+00  0.1143456438D+01  0.7443082909D+00
 Atom C7       Shell    21 SP   1    bf   57 -    60          5.992698322079          2.612616449759          1.469015307880
      0.1687144782D+00  0.1000000000D+01  0.1000000000D+01
 Atom C7       Shell    22 D   1     bf   61 -    66          5.992698322079          2.612616449759          1.469015307880
      0.8000000000D+00  0.1000000000D+01
 Atom C8       Shell    23 S   6     bf   67 -    67          3.293758407782          2.427922724456          0.296016905976
      0.3047524880D+04  0.1834737132D-02
      0.4573695180D+03  0.1403732281D-01
      0.1039486850D+03  0.6884262226D-01
      0.2921015530D+02  0.2321844432D+00
      0.9286662960D+01  0.4679413484D+00
      0.3163926960D+01  0.3623119853D+00
 Atom C8       Shell    24 SP   3    bf   68 -    71          3.293758407782          2.427922724456          0.296016905976
      0.7868272350D+01 -0.1193324198D+00  0.6899906659D-01
      0.1881288540D+01 -0.1608541517D+00  0.3164239610D+00
      0.5442492580D+00  0.1143456438D+01  0.7443082909D+00
 Atom C8       Shell    25 SP   1    bf   72 -    75          3.293758407782          2.427922724456          0.296016905976
      0.1687144782D+00  0.1000000000D+01  0.1000000000D+01
 Atom C8       Shell    26 D   1     bf   76 -    81          3.293758407782          2.427922724456          0.296016905976
      0.8000000000D+00  0.1000000000D+01
 Atom H9       Shell    27 S   3     bf   82 -    82          3.479677355921          2.520714740444         -1.769084637062
      0.1873113696D+02  0.3349460434D-01
      0.2825394365D+01  0.2347269535D+00
      0.6401216923D+00  0.8137573261D+00
 Atom H9       Shell    28 S   1     bf   83 -    83          3.479677355921          2.520714740444         -1.769084637062
      0.1612777588D+00  0.1000000000D+01
 Atom H10      Shell    29 S   3     bf   84 -    84          2.187488654480          4.082989544763          0.862404583175
      0.1873113696D+02  0.3349460434D-01
      0.2825394365D+01  0.2347269535D+00
      0.6401216923D+00  0.8137573261D+00
 Atom H10      Shell    30 S   1     bf   85 -    85          2.187488654480          4.082989544763          0.862404583175
      0.1612777588D+00  0.1000000000D+01
 Atom C11      Shell    31 S   6     bf   86 -    86          1.825345091059          0.017166839109          0.978075645735
      0.3047524880D+04  0.1834737132D-02
      0.4573695180D+03  0.1403732281D-01
      0.1039486850D+03  0.6884262226D-01
      0.2921015530D+02  0.2321844432D+00
      0.9286662960D+01  0.4679413484D+00
      0.3163926960D+01  0.3623119853D+00
 Atom C11      Shell    32 SP   3    bf   87 -    90          1.825345091059          0.017166839109          0.978075645735
      0.7868272350D+01 -0.1193324198D+00  0.6899906659D-01
      0.1881288540D+01 -0.1608541517D+00  0.3164239610D+00
      0.5442492580D+00  0.1143456438D+01  0.7443082909D+00
 Atom C11      Shell    33 SP   1    bf   91 -    94          1.825345091059          0.017166839109          0.978075645735
      0.1687144782D+00  0.1000000000D+01  0.1000000000D+01
 Atom C11      Shell    34 D   1     bf   95 -   100          1.825345091059          0.017166839109          0.978075645735
      0.8000000000D+00  0.1000000000D+01
 Atom H12      Shell    35 S   3     bf  101 -   101          1.408536947360         -0.028903833634          3.014406410757
      0.1873113696D+02  0.3349460434D-01
      0.2825394365D+01  0.2347269535D+00
      0.6401216923D+00  0.8137573261D+00
 Atom H12      Shell    36 S   1     bf  102 -   102          1.408536947360         -0.028903833634          3.014406410757
      0.1612777588D+00  0.1000000000D+01
 Atom H13      Shell    37 S   3     bf  103 -   103          0.000000000000          0.000000000000          0.000000000000
      0.1873113696D+02  0.3349460434D-01
      0.2825394365D+01  0.2347269535D+00
      0.6401216923D+00  0.8137573261D+00
 Atom H13      Shell    38 S   1     bf  104 -   104          0.000000000000          0.000000000000          0.000000000000
      0.1612777588D+00  0.1000000000D+01
 Atom C14      Shell    39 S   6     bf  105 -   105          9.718834667320          0.000000000000          0.000000000000
      0.3047524880D+04  0.1834737132D-02
      0.4573695180D+03  0.1403732281D-01
      0.1039486850D+03  0.6884262226D-01
      0.2921015530D+02  0.2321844432D+00
      0.9286662960D+01  0.4679413484D+00
      0.3163926960D+01  0.3623119853D+00
 Atom C14      Shell    40 SP   3    bf  106 -   109          9.718834667320          0.000000000000          0.000000000000
      0.7868272350D+01 -0.1193324198D+00  0.6899906659D-01
      0.1881288540D+01 -0.1608541517D+00  0.3164239610D+00
      0.5442492580D+00  0.1143456438D+01  0.7443082909D+00
 Atom C14      Shell    41 SP   1    bf  110 -   113          9.718834667320          0.000000000000          0.000000000000
      0.1687144782D+00  0.1000000000D+01  0.1000000000D+01
 Atom C14      Shell    42 D   1     bf  114 -   119          9.718834667320          0.000000000000          0.000000000000
      0.8000000000D+00  0.1000000000D+01
 Atom H15      Shell    43 S   3     bf  120 -   120         10.559816596957         -1.834852246542         -0.396907154334
      0.1873113696D+02  0.3349460434D-01
      0.2825394365D+01  0.2347269535D+00
      0.6401216923D+00  0.8137573261D+00
 Atom H15      Shell    44 S   1     bf  121 -   121         10.559816596957         -1.834852246542         -0.396907154334
      0.1612777588D+00  0.1000000000D+01
 Atom C16      Shell    45 S   6     bf  122 -   122         11.286747507351          2.260564553011         -0.683529173457
      0.3047524880D+04  0.1834737132D-02
      0.4573695180D+03  0.1403732281D-01
      0.1039486850D+03  0.6884262226D-01
      0.2921015530D+02  0.2321844432D+00
      0.9286662960D+01  0.4679413484D+00
      0.3163926960D+01  0.3623119853D+00
 Atom C16      Shell    46 SP   3    bf  123 -   126         11.286747507351          2.260564553011         -0.683529173457
      0.7868272350D+01 -0.1193324198D+00  0.6899906659D-01
      0.1881288540D+01 -0.1608541517D+00  0.3164239610D+00
      0.5442492580D+00  0.1143456438D+01  0.7443082909D+00
 Atom C16      Shell    47 SP   1    bf  127 -   130         11.286747507351          2.260564553011         -0.683529173457
      0.1687144782D+00  0.1000000000D+01  0.1000000000D+01
 Atom C16      Shell    48 D   1     bf  131 -   136         11.286747507351          2.260564553011         -0.683529173457
      0.8000000000D+00  0.1000000000D+01
 Atom H17      Shell    49 S   3     bf  137 -   137         13.279888827270          1.926751272446         -0.234376779624
      0.1873113696D+02  0.3349460434D-01
      0.2825394365D+01  0.2347269535D+00
      0.6401216923D+00  0.8137573261D+00
 Atom H17      Shell    50 S   1     bf  138 -   138         13.279888827270          1.926751272446         -0.234376779624
      0.1612777588D+00  0.1000000000D+01
 Atom C18      Shell    51 S   6     bf  139 -   139         10.331993311972          4.697064234159          0.593271185727
      0.3047524880D+04  0.1834737132D-02
      0.4573695180D+03  0.1403732281D-01
      0.1039486850D+03  0.6884262226D-01
      0.2921015530D+02  0.2321844432D+00
      0.9286662960D+01  0.4679413484D+00
      0.3163926960D+01  0.3623119853D+00
 Atom C18      Shell    52 SP   3    bf  140 -   143         10.331993311972          4.697064234159          0.593271185727
      0.7868272350D+01 -0.1193324198D+00  0.6899906659D-01
      0.1881288540D+01 -0.1608541517D+00  0.3164239610D+00
      0.5442492580D+00  0.1143456438D+01  0.7443082909D+00
 Atom C18      Shell    53 SP   1    bf  144 -   147         10.331993311972          4.697064234159          0.593271185727
      0.1687144782D+00  0.1000000000D+01  0.1000000000D+01
 Atom C18      Shell    54 D   1     bf  148 -   153         10.331993311972          4.697064234159          0.593271185727
      0.8000000000D+00  0.1000000000D+01
 Atom H19      Shell    55 S   3     bf  154 -   154         10.756501995176          4.464140691725          2.614790711956
      0.1873113696D+02  0.3349460434D-01
      0.2825394365D+01  0.2347269535D+00
      0.6401216923D+00  0.8137573261D+00
 Atom H19      Shell    56 S   1     bf  155 -   155         10.756501995176          4.464140691725          2.614790711956
      0.1612777588D+00  0.1000000000D+01
 Atom C20      Shell    57 S   6     bf  156 -   156          7.428048480156          4.879894387139          0.204866873025
      0.3047524880D+04  0.1834737132D-02
      0.4573695180D+03  0.1403732281D-01
      0.1039486850D+03  0.6884262226D-01
      0.2921015530D+02  0.2321844432D+00
      0.9286662960D+01  0.4679413484D+00
      0.3163926960D+01  0.3623119853D+00
 Atom C20      Shell    58 SP   3    bf  157 -   160          7.428048480156          4.879894387139          0.204866873025
      0.7868272350D+01 -0.1193324198D+00  0.6899906659D-01
      0.1881288540D+01 -0.1608541517D+00  0.3164239610D+00
      0.5442492580D+00  0.1143456438D+01  0.7443082909D+00
 Atom C20      Shell    59 SP   1    bf  161 -   164          7.428048480156          4.879894387139          0.204866873025
      0.1687144782D+00  0.1000000000D+01  0.1000000000D+01
 Atom C20      Shell    60 D   1     bf  165 -   170          7.428048480156          4.879894387139          0.204866873025
      0.8000000000D+00  0.1000000000D+01
 Atom H21      Shell    61 S   3     bf  171 -   171          7.142189589137          4.669859566674         -1.843249660353
      0.1873113696D+02  0.3349460434D-01
      0.2825394365D+01  0.2347269535D+00
      0.6401216923D+00  0.8137573261D+00
 Atom H21      Shell    62 S   1     bf  172 -   172          7.142189589137          4.669859566674         -1.843249660353
      0.1612777588D+00  0.1000000000D+01
 Atom C22      Shell    63 S   6     bf  173 -   173          6.332329237929          7.487784272792          0.936688734802
      0.3047524880D+04  0.1834737132D-02
      0.4573695180D+03  0.1403732281D-01
      0.1039486850D+03  0.6884262226D-01
      0.2921015530D+02  0.2321844432D+00
      0.9286662960D+01  0.4679413484D+00
      0.3163926960D+01  0.3623119853D+00
 Atom C22      Shell    64 SP   3    bf  174 -   177          6.332329237929          7.487784272792          0.936688734802
      0.7868272350D+01 -0.1193324198D+00  0.6899906659D-01
      0.1881288540D+01 -0.1608541517D+00  0.3164239610D+00
      0.5442492580D+00  0.1143456438D+01  0.7443082909D+00
 Atom C22      Shell    65 SP   1    bf  178 -   181          6.332329237929          7.487784272792          0.936688734802
      0.1687144782D+00  0.1000000000D+01  0.1000000000D+01
 Atom C22      Shell    66 D   1     bf  182 -   187          6.332329237929          7.487784272792          0.936688734802
      0.8000000000D+00  0.1000000000D+01
 Atom H23      Shell    67 S   3     bf  188 -   188          6.220649352551          7.668414973526          2.994315522813
      0.1873113696D+02  0.3349460434D-01
      0.2825394365D+01  0.2347269535D+00
      0.6401216923D+00  0.8137573261D+00
 Atom H23      Shell    68 S   1     bf  189 -   189          6.220649352551          7.668414973526          2.994315522813
      0.1612777588D+00  0.1000000000D+01
 Atom H24      Shell    69 S   3     bf  190 -   190          4.383552489308          7.628013290209          0.248764001667
      0.1873113696D+02  0.3349460434D-01
      0.2825394365D+01  0.2347269535D+00
      0.6401216923D+00  0.8137573261D+00
 Atom H24      Shell    70 S   1     bf  191 -   191          4.383552489308          7.628013290209          0.248764001667
      0.1612777588D+00  0.1000000000D+01
 Atom C25      Shell    71 S   6     bf  192 -   192          7.843755744998          9.751765601829         -0.096681431418
      0.3047524880D+04  0.1834737132D-02
      0.4573695180D+03  0.1403732281D-01
      0.1039486850D+03  0.6884262226D-01
      0.2921015530D+02  0.2321844432D+00
      0.9286662960D+01  0.4679413484D+00
      0.3163926960D+01  0.3623119853D+00
 Atom C25      Shell    72 SP   3    bf  193 -   196          7.843755744998          9.751765601829         -0.096681431418
      0.7868272350D+01 -0.1193324198D+00  0.6899906659D-01
      0.1881288540D+01 -0.1608541517D+00  0.3164239610D+00
      0.5442492580D+00  0.1143456438D+01  0.7443082909D+00
 Atom C25      Shell    73 SP   1    bf  197 -   200          7.843755744998          9.751765601829         -0.096681431418
      0.1687144782D+00  0.1000000000D+01  0.1000000000D+01
 Atom C25      Shell    74 D   1     bf  201 -   206          7.843755744998          9.751765601829         -0.096681431418
      0.8000000000D+00  0.1000000000D+01
 Atom H26      Shell    75 S   3     bf  207 -   207          7.739109760438          9.775672621623         -2.171342059613
      0.1873113696D+02  0.3349460434D-01
      0.2825394365D+01  0.2347269535D+00
      0.6401216923D+00  0.8137573261D+00
 Atom H26      Shell    76 S   1     bf  208 -   208          7.739109760438          9.775672621623         -2.171342059613
      0.1612777588D+00  0.1000000000D+01
 Atom H27      Shell    77 S   3     bf  209 -   209          6.939598551088         11.491929964640          0.559428704023
      0.1873113696D+02  0.3349460434D-01
      0.2825394365D+01  0.2347269535D+00
      0.6401216923D+00  0.8137573261D+00
 Atom H27      Shell    78 S   1     bf  210 -   210          6.939598551088         11.491929964640          0.559428704023
      0.1612777588D+00  0.1000000000D+01
 Atom C28      Shell    79 S   6     bf  211 -   211         10.643406421466          9.613903541983          0.693146575563
      0.3047524880D+04  0.1834737132D-02
      0.4573695180D+03  0.1403732281D-01
      0.1039486850D+03  0.6884262226D-01
      0.2921015530D+02  0.2321844432D+00
      0.9286662960D+01  0.4679413484D+00
      0.3163926960D+01  0.3623119853D+00
 Atom C28      Shell    80 SP   3    bf  212 -   215         10.643406421466          9.613903541983          0.693146575563
      0.7868272350D+01 -0.1193324198D+00  0.6899906659D-01
      0.1881288540D+01 -0.1608541517D+00  0.3164239610D+00
      0.5442492580D+00  0.1143456438D+01  0.7443082909D+00
 Atom C28      Shell    81 SP   1    bf  216 -   219         10.643406421466          9.613903541983          0.693146575563
      0.1687144782D+00  0.1000000000D+01  0.1000000000D+01
 Atom C28      Shell    82 D   1     bf  220 -   225         10.643406421466          9.613903541983          0.693146575563
      0.8000000000D+00  0.1000000000D+01
 Atom C29      Shell    83 S   6     bf  226 -   226         11.685549149928          7.076541353657         -0.371420625850
      0.3047524880D+04  0.1834737132D-02
      0.4573695180D+03  0.1403732281D-01
      0.1039486850D+03  0.6884262226D-01
      0.2921015530D+02  0.2321844432D+00
      0.9286662960D+01  0.4679413484D+00
      0.3163926960D+01  0.3623119853D+00
 Atom C29      Shell    84 SP   3    bf  227 -   230         11.685549149928          7.076541353657         -0.371420625850
      0.7868272350D+01 -0.1193324198D+00  0.6899906659D-01
      0.1881288540D+01 -0.1608541517D+00  0.3164239610D+00
      0.5442492580D+00  0.1143456438D+01  0.7443082909D+00
 Atom C29      Shell    85 SP   1    bf  231 -   234         11.685549149928          7.076541353657         -0.371420625850
      0.1687144782D+00  0.1000000000D+01  0.1000000000D+01
 Atom C29      Shell    86 D   1     bf  235 -   240         11.685549149928          7.076541353657         -0.371420625850
      0.8000000000D+00  0.1000000000D+01
 Atom H30      Shell    87 S   3     bf  241 -   241         11.340410287113          7.155163976334         -2.418516329171
      0.1873113696D+02  0.3349460434D-01
      0.2825394365D+01  0.2347269535D+00
      0.6401216923D+00  0.8137573261D+00
 Atom H30      Shell    88 S   1     bf  242 -   242         11.340410287113          7.155163976334         -2.418516329171
      0.1612777588D+00  0.1000000000D+01
 Atom C31      Shell    89 S   6     bf  243 -   243         14.556370843190          7.291605453457          0.000000000000
      0.3047524880D+04  0.1834737132D-02
      0.4573695180D+03  0.1403732281D-01
      0.1039486850D+03  0.6884262226D-01
      0.2921015530D+02  0.2321844432D+00
      0.9286662960D+01  0.4679413484D+00
      0.3163926960D+01  0.3623119853D+00
 Atom C31      Shell    90 SP   3    bf  244 -   247         14.556370843190          7.291605453457          0.000000000000
      0.7868272350D+01 -0.1193324198D+00  0.6899906659D-01
      0.1881288540D+01 -0.1608541517D+00  0.3164239610D+00
      0.5442492580D+00  0.1143456438D+01  0.7443082909D+00
 Atom C31      Shell    91 SP   1    bf  248 -   251         14.556370843190          7.291605453457          0.000000000000
      0.1687144782D+00  0.1000000000D+01  0.1000000000D+01
 Atom C31      Shell    92 D   1     bf  252 -   257         14.556370843190          7.291605453457          0.000000000000
      0.8000000000D+00  0.1000000000D+01
 Atom H32      Shell    93 S   3     bf  258 -   258         15.602186348878          6.055475118700         -1.277721506188
      0.1873113696D+02  0.3349460434D-01
      0.2825394365D+01  0.2347269535D+00
      0.6401216923D+00  0.8137573261D+00
 Atom H32      Shell    94 S   1     bf  259 -   259         15.602186348878          6.055475118700         -1.277721506188
      0.1612777588D+00  0.1000000000D+01
 Atom H33      Shell    95 S   3     bf  260 -   260         15.084752348404          6.766651193352          1.936142606614
      0.1873113696D+02  0.3349460434D-01
      0.2825394365D+01  0.2347269535D+00
      0.6401216923D+00  0.8137573261D+00
 Atom H33      Shell    96 S   1     bf  261 -   261         15.084752348404          6.766651193352          1.936142606614
      0.1612777588D+00  0.1000000000D+01
 Atom C34      Shell    97 S   6     bf  262 -   262         15.101768595238         10.129744333251         -0.505899792460
      0.3047524880D+04  0.1834737132D-02
      0.4573695180D+03  0.1403732281D-01
      0.1039486850D+03  0.6884262226D-01
      0.2921015530D+02  0.2321844432D+00
      0.9286662960D+01  0.4679413484D+00
      0.3163926960D+01  0.3623119853D+00
 Atom C34      Shell    98 SP   3    bf  263 -   266         15.101768595238         10.129744333251         -0.505899792460
      0.7868272350D+01 -0.1193324198D+00  0.6899906659D-01
      0.1881288540D+01 -0.1608541517D+00  0.3164239610D+00
      0.5442492580D+00  0.1143456438D+01  0.7443082909D+00
 Atom C34      Shell    99 SP   1    bf  267 -   270         15.101768595238         10.129744333251         -0.505899792460
      0.1687144782D+00  0.1000000000D+01  0.1000000000D+01
 Atom C34      Shell   100 D   1     bf  271 -   276         15.101768595238         10.129744333251         -0.505899792460
      0.8000000000D+00  0.1000000000D+01
 Atom H35      Shell   101 S   3     bf  277 -   277         16.279268835016         10.939675435805          0.995325122568
      0.1873113696D+02  0.3349460434D-01
      0.2825394365D+01  0.2347269535D+00
      0.6401216923D+00  0.8137573261D+00
 Atom H35      Shell   102 S   1     bf  278 -   278         16.279268835016         10.939675435805          0.995325122568
      0.1612777588D+00  0.1000000000D+01
 Atom H36      Shell   103 S   3     bf  279 -   279         16.152263818721         10.377049523035         -2.269249431962
      0.1873113696D+02  0.3349460434D-01
      0.2825394365D+01  0.2347269535D+00
      0.6401216923D+00  0.8137573261D+00
 Atom H36      Shell   104 S   1     bf  280 -   280         16.152263818721         10.377049523035         -2.269249431962
      0.1612777588D+00  0.1000000000D+01
 Atom C37      Shell   105 S   6     bf  281 -   281         12.488219811296         11.518518921556         -0.631130960628
      0.3047524880D+04  0.1834737132D-02
      0.4573695180D+03  0.1403732281D-01
      0.1039486850D+03  0.6884262226D-01
      0.2921015530D+02  0.2321844432D+00
      0.9286662960D+01  0.4679413484D+00
      0.3163926960D+01  0.3623119853D+00
 Atom C37      Shell   106 SP   3    bf  282 -   285         12.488219811296         11.518518921556         -0.631130960628
      0.7868272350D+01 -0.1193324198D+00  0.6899906659D-01
      0.1881288540D+01 -0.1608541517D+00  0.3164239610D+00
      0.5442492580D+00  0.1143456438D+01  0.7443082909D+00
[...]
 **** Fit       0.000720
 **** Fit      -0.000209
 **** Fit      -0.000757
 **** Fit      -0.001050
 **** Fit      -0.001202
 **** Fit      -0.001275
 **** Fit      -0.001295
 **** Fit      -0.001272
 **** Fit      -0.002260
 **** Fit      -0.002544
 **** Fit      -0.002709
 **** Fit      -0.002587
 **** Fit      -0.001952
 **** Fit      -0.000630
 **** Fit       0.001218
 **** Fit       0.002870
 **** Fit       0.003397
 **** Fit       0.002579
 **** Fit       0.001116
 **** Fit      -0.000192
 **** Fit      -0.001028
 **** Fit      -0.001454
 **** Fit      -0.001634
 **** Fit      -0.001687
 **** Fit      -0.001674
 **** Fit      -0.001619
 **** Fit      -0.002447
 **** Fit      -0.002840
 **** Fit      -0.003162
 **** Fit      -0.003257
 **** Fit      -0.002914
 **** Fit      -0.001963
 **** Fit      -0.000523
 **** Fit       0.000799
 **** Fit       0.001219
 **** Fit       0.000565
 **** Fit      -0.000561
 **** Fit      -0.001494
 **** Fit      -0.002002
 **** Fit      -0.002178
 **** Fit      -0.002178
 **** Fit      -0.002101
 **** Fit      -0.001992
 **** Fit      -0.002140
 **** Fit      -0.002571
 **** Fit      -0.003051
 **** Fit      -0.003510
 **** Fit      -0.003824
 **** Fit      -0.003826
 **** Fit      -0.003394
 **** Fit      -0.002606
 **** Fit      -0.001849
 **** Fit      -0.001594
 **** Fit      -0.001928
 **** Fit      -0.002472
 **** Fit      -0.002834
 **** Fit      -0.002906
 **** Fit      -0.002785
 **** Fit      -0.002588
 **** Fit      -0.002382
 **** Fit      -0.002164
 **** Fit      -0.002624
 **** Fit      -0.003154
 **** Fit      -0.003703
 **** Fit      -0.004176
 **** Fit      -0.004457
 **** Fit      -0.004466
 **** Fit      -0.004246
 **** Fit      -0.003979
 **** Fit      -0.003862
 **** Fit      -0.003903
 **** Fit      -0.003929
 **** Fit      -0.003794
 **** Fit      -0.003500
 **** Fit      -0.003140
 **** Fit      -0.002794
 **** Fit      -0.002492
 **** Fit      -0.002149
 **** Fit      -0.002612
 **** Fit      -0.003154
 **** Fit      -0.003736
 **** Fit      -0.004287
 **** Fit      -0.004721
 **** Fit      -0.004983
 **** Fit      -0.005080
 **** Fit      -0.005070
 **** Fit      -0.004998
 **** Fit      -0.004843
 **** Fit      -0.004558
 **** Fit      -0.004141
 **** Fit      -0.003655
 **** Fit      -0.003180
 **** Fit      -0.002767
 **** Fit      -0.002427
 **** Fit      -0.002547
 **** Fit      -0.003069
 **** Fit      -0.003636
 **** Fit      -0.004191
 **** Fit      -0.004665
 **** Fit      -0.005008
 **** Fit      -0.005198
 **** Fit      -0.005234
 **** Fit      -0.005112
 **** Fit      -0.004830
 **** Fit      -0.004411
 **** Fit      -0.003911
 **** Fit      -0.003399
 **** Fit      -0.002932
 **** Fit      -0.002537
 **** Fit      -0.002215
 **** Fit      -0.002443
 **** Fit      -0.002920
 **** Fit      -0.003438
 **** Fit      -0.003945
 **** Fit      -0.004382
 **** Fit      -0.004694
 **** Fit      -0.004844
 **** Fit      -0.004811
 **** Fit      -0.004594
 **** Fit      -0.004230
 **** Fit      -0.003782
 **** Fit      -0.003314
 **** Fit      -0.002876
 **** Fit      -0.002493
 **** Fit      -0.002172
 **** Fit      -0.001909
 **** Fit      -0.002728
 **** Fit      -0.003173
 **** Fit      -0.003601
 **** Fit      -0.003957
 **** Fit      -0.004186
 **** Fit      -0.004246
 **** Fit      -0.004118
 **** Fit      -0.003821
 **** Fit      -0.003420
 **** Fit      -0.002993
 **** Fit      -0.002601
 **** Fit      -0.002266
 **** Fit      -0.001989
 **** Fit      -0.001760
 **** Fit      -0.001570
 **** Fit      -0.003206
 **** Fit      -0.003467
 **** Fit      -0.003603
 **** Fit      -0.003577
 **** Fit      -0.003381
 **** Fit      -0.003049
 **** Fit      -0.002654
 **** Fit      -0.002274
 **** Fit      -0.001957
 **** Fit      -0.001711
 **** Fit      -0.001522
 **** Fit      -0.001373
 **** Fit      -0.001248
 **** Fit      -0.002976
 **** Fit      -0.003034
 **** Fit      -0.002950
 **** Fit      -0.002727
 **** Fit      -0.002403
 **** Fit      -0.002045
 **** Fit      -0.001720
 **** Fit      -0.001463
 **** Fit      -0.001279
 **** Fit      -0.001150
 **** Fit      -0.001055
 **** Fit      -0.002528
 **** Fit      -0.002531
 **** Fit      -0.002420
 **** Fit      -0.002202
 **** Fit      -0.001914
 **** Fit      -0.001608
 **** Fit      -0.001335
 **** Fit      -0.001125
 **** Fit      -0.000980
 **** Fit      -0.000884
 **** Fit      -0.002114
 **** Fit      -0.001998
 **** Fit      -0.001803
 **** Fit      -0.001560
 **** Fit      -0.001308
 **** Fit      -0.001083
 **** Fit      -0.000909
 **** Fit      -0.000787
 **** Fit      -0.001507
 **** Fit      -0.001309
 **** Fit      -0.001104
 **** Fit      -0.000921
 **** Fit      -0.000423
 **** Fit      -0.000175
 **** Fit       0.000078
 **** Fit       0.000295
 **** Fit       0.000444
 **** Fit       0.000510
 **** Fit       0.000501
 **** Fit       0.000440
 **** Fit      -0.000700
 **** Fit      -0.000427
 **** Fit      -0.000096
 **** Fit       0.000244
 **** Fit       0.000531
 **** Fit       0.000708
 **** Fit       0.000755
 **** Fit       0.000690
 **** Fit       0.000557
 **** Fit       0.000401
 **** Fit      -0.001040
 **** Fit      -0.000812
 **** Fit      -0.000470
 **** Fit      -0.000037
 **** Fit       0.000418
 **** Fit       0.000796
 **** Fit       0.001005
 **** Fit       0.001014
 **** Fit       0.000863
 **** Fit       0.000628
 **** Fit       0.000382
 **** Fit       0.000165
 **** Fit      -0.001243
 **** Fit      -0.000995
 **** Fit      -0.000588
 **** Fit      -0.000044
 **** Fit       0.000549
 **** Fit       0.001038
 **** Fit       0.001281
 **** Fit       0.001232
 **** Fit       0.000964
 **** Fit       0.000605
 **** Fit       0.000260
 **** Fit      -0.000021
 **** Fit      -0.000232
 **** Fit      -0.001585
 **** Fit      -0.001510
 **** Fit      -0.001273
 **** Fit      -0.000829
 **** Fit      -0.000191
 **** Fit       0.000533
 **** Fit       0.001135
 **** Fit       0.001409
 **** Fit       0.001290
 **** Fit       0.000897
 **** Fit       0.000419
 **** Fit      -0.000006
 **** Fit      -0.000325
 **** Fit      -0.000544
 **** Fit      -0.001848
 **** Fit      -0.001839
 **** Fit      -0.001655
 **** Fit      -0.001234
 **** Fit      -0.000568
 **** Fit       0.000227
 **** Fit       0.000900
 **** Fit       0.001187
 **** Fit       0.001014
 **** Fit       0.000540
 **** Fit       0.000002
 **** Fit      -0.000441
 **** Fit      -0.000745
 **** Fit      -0.000931
 **** Fit      -0.002118
 **** Fit      -0.002202
 **** Fit      -0.002121
 **** Fit      -0.001802
 **** Fit      -0.001219
 **** Fit      -0.000478
 **** Fit       0.000168
 **** Fit       0.000441
 **** Fit       0.000265
 **** Fit      -0.000186
 **** Fit      -0.000667
 **** Fit      -0.001030
 **** Fit      -0.001248
 **** Fit      -0.001355
 **** Fit      -0.002365
 **** Fit      -0.002553
 **** Fit      -0.002610
 **** Fit      -0.002459
 **** Fit      -0.002070
 **** Fit      -0.001519
 **** Fit      -0.001017
 **** Fit      -0.000790
 **** Fit      -0.000901
 **** Fit      -0.001205
 **** Fit      -0.001505
 **** Fit      -0.001694
 **** Fit      -0.001766
 **** Fit      -0.001757
 **** Fit      -0.002557
 **** Fit      -0.002842
 **** Fit      -0.003035
 **** Fit      -0.003074
 **** Fit      -0.002926
 **** Fit      -0.002635
 **** Fit      -0.002337
 **** Fit      -0.002174
 **** Fit      -0.002183
 **** Fit      -0.002273
 **** Fit      -0.002330
 **** Fit      -0.002303
 **** Fit      -0.002207
 **** Fit      -0.002074
 **** Fit      -0.002673
 **** Fit      -0.003027
 **** Fit      -0.003327
 **** Fit      -0.003520
 **** Fit      -0.003578
 **** Fit      -0.003517
 **** Fit      -0.003400
 **** Fit      -0.003290
 **** Fit      -0.003201
 **** Fit      -0.003095
 **** Fit      -0.002936
 **** Fit      -0.002724
 **** Fit      -0.002488
 **** Fit      -0.002256
 **** Fit      -0.003096
 **** Fit      -0.003453
 **** Fit      -0.003738
 **** Fit      -0.003921
 **** Fit      -0.003997
 **** Fit      -0.003983
 **** Fit      -0.003894
 **** Fit      -0.003732
 **** Fit      -0.003498
 **** Fit      -0.003204
 **** Fit      -0.002881
 **** Fit      -0.002566
 **** Fit      -0.003056
 **** Fit      -0.003425
 **** Fit      -0.003737
 **** Fit      -0.003962
 **** Fit      -0.004082
 **** Fit      -0.004091
 **** Fit      -0.003987
 **** Fit      -0.003776
 **** Fit      -0.003480
 **** Fit      -0.003134
 **** Fit      -0.002780
 **** Fit      -0.002450
 **** Fit      -0.002161
 **** Fit      -0.003566
 **** Fit      -0.003774
 **** Fit      -0.003874
 **** Fit      -0.003854
 **** Fit      -0.003713
 **** Fit      -0.003470
 **** Fit      -0.003159
 **** Fit      -0.002820
 **** Fit      -0.002491
 **** Fit      -0.002193
 **** Fit      -0.001936
 **** Fit      -0.003282
 **** Fit      -0.003441
 **** Fit      -0.003492
 **** Fit      -0.003425
 **** Fit      -0.003249
 **** Fit      -0.002991
 **** Fit      -0.002692
 **** Fit      -0.002389
 **** Fit      -0.002110
 **** Fit      -0.001866
 **** Fit      -0.001658
 **** Fit      -0.002939
 **** Fit      -0.003040
 **** Fit      -0.003040
 **** Fit      -0.002933
 **** Fit      -0.002736
 **** Fit      -0.002481
 **** Fit      -0.002208
 **** Fit      -0.001951
 **** Fit      -0.001725
 **** Fit      -0.001535
 **** Fit      -0.002633
 **** Fit      -0.002593
 **** Fit      -0.002463
 **** Fit      -0.002263
 **** Fit      -0.002026
 **** Fit      -0.001787
 **** Fit      -0.001571
 **** Fit      -0.001391
 **** Fit      -0.001246
 **** Fit      -0.002193
 **** Fit      -0.002058
 **** Fit      -0.001871
 **** Fit      -0.001660
 **** Fit      -0.001455
 **** Fit      -0.001275
 **** Fit      -0.001129
 **** Fit      -0.001563
 **** Fit      -0.001382
 **** Fit      -0.001208
 **** Fit       0.000087
 **** Fit       0.000199
 **** Fit      -0.000235
 **** Fit      -0.000001
 **** Fit       0.000196
 **** Fit       0.000325
 **** Fit       0.000372
 **** Fit       0.000345
 **** Fit       0.000267
 **** Fit      -0.000768
 **** Fit      -0.000532
 **** Fit      -0.000248
 **** Fit       0.000042
 **** Fit       0.000284
 **** Fit       0.000430
 **** Fit       0.000461
 **** Fit       0.000394
 **** Fit       0.000267
 **** Fit       0.000118
 **** Fit      -0.000924
 **** Fit      -0.000660
 **** Fit      -0.000328
 **** Fit       0.000019
 **** Fit       0.000306
 **** Fit       0.000467
 **** Fit       0.000478
 **** Fit       0.000365
 **** Fit       0.000185
 **** Fit      -0.000009
 **** Fit      -0.000182
 **** Fit      -0.001309
 **** Fit      -0.001147
 **** Fit      -0.000876
 **** Fit      -0.000516
 **** Fit      -0.000127
 **** Fit       0.000195
 **** Fit       0.000367
 **** Fit       0.000358
 **** Fit       0.000207
 **** Fit      -0.000014
 **** Fit      -0.000236
 **** Fit      -0.000421
 **** Fit      -0.001560
 **** Fit      -0.001438
 **** Fit      -0.001195
 **** Fit      -0.000845
 **** Fit      -0.000451
 **** Fit      -0.000118
 **** Fit       0.000056
 **** Fit       0.000037
 **** Fit      -0.000129
 **** Fit      -0.000355
 **** Fit      -0.000569
 **** Fit      -0.000735
 **** Fit      -0.001836
 **** Fit      -0.001781
 **** Fit      -0.001606
 **** Fit      -0.001316
 **** Fit      -0.000969
 **** Fit      -0.000665
 **** Fit      -0.000502
 **** Fit      -0.000512
 **** Fit      -0.000650
 **** Fit      -0.000831
 **** Fit      -0.000991
 **** Fit      -0.001100
 **** Fit      -0.002105
 **** Fit      -0.002136
 **** Fit      -0.002060
 **** Fit      -0.001874
 **** Fit      -0.001623
 **** Fit      -0.001386
 **** Fit      -0.001245
 **** Fit      -0.001227
 **** Fit      -0.001295
 **** Fit      -0.001384
 **** Fit      -0.001449
 **** Fit      -0.001471
 **** Fit      -0.002335
 **** Fit      -0.002452
 **** Fit      -0.002482
 **** Fit      -0.002417
 **** Fit      -0.002284
 **** Fit      -0.002134
 **** Fit      -0.002020
 **** Fit      -0.001962
 **** Fit      -0.001938
 **** Fit      -0.001914
 **** Fit      -0.001866
 **** Fit      -0.001791
 **** Fit      -0.002495
 **** Fit      -0.002682
 **** Fit      -0.002801
 **** Fit      -0.002842
 **** Fit      -0.002813
 **** Fit      -0.002740
 **** Fit      -0.002648
 **** Fit      -0.002551
 **** Fit      -0.002442
 **** Fit      -0.002314
 **** Fit      -0.002167
 **** Fit      -0.002009
 **** Fit      -0.002802
 **** Fit      -0.002979
 **** Fit      -0.003088
 **** Fit      -0.003125
 **** Fit      -0.003099
 **** Fit      -0.003017
 **** Fit      -0.002888
 **** Fit      -0.002718
 **** Fit      -0.002520
 **** Fit      -0.002307
 **** Fit      -0.003010
 **** Fit      -0.003145
 **** Fit      -0.003208
 **** Fit      -0.003195
 **** Fit      -0.003108
 **** Fit      -0.002956
 **** Fit      -0.002754
 **** Fit      -0.002522
 **** Fit      -0.002281
 **** Fit      -0.003047
 **** Fit      -0.003103
 **** Fit      -0.003079
 **** Fit      -0.002978
 **** Fit      -0.002810
 **** Fit      -0.002597
 **** Fit      -0.002361
 **** Fit      -0.002125
 **** Fit      -0.002871
 **** Fit      -0.002826
 **** Fit      -0.002708
 **** Fit      -0.002534
 **** Fit      -0.002325
 **** Fit      -0.002104
 **** Fit      -0.001891
 **** Fit      -0.002508
 **** Fit      -0.002379
 **** Fit      -0.002206
 **** Fit      -0.002011
 **** Fit      -0.001815
 **** Fit      -0.002049
 **** Fit      -0.001886
 **** Fit      -0.001710
 **** Fit      -0.000389
 **** Fit      -0.000200
 **** Fit      -0.000041
 **** Fit       0.000063
 **** Fit       0.000101
 **** Fit       0.000078
 **** Fit      -0.000700
 **** Fit      -0.000492
 **** Fit      -0.000279
 **** Fit      -0.000101
 **** Fit       0.000011
 **** Fit       0.000041
 **** Fit       0.000000
 **** Fit      -0.000088
 **** Fit      -0.000883
 **** Fit      -0.000669
 **** Fit      -0.000444
 **** Fit      -0.000254
 **** Fit      -0.000139
 **** Fit      -0.000115
 **** Fit      -0.000168
 **** Fit      -0.000267
 **** Fit      -0.000380
 **** Fit      -0.001276
 **** Fit      -0.001130
 **** Fit      -0.000931
 **** Fit      -0.000714
 **** Fit      -0.000527
 **** Fit      -0.000413
 **** Fit      -0.000389
 **** Fit      -0.000440
 **** Fit      -0.000534
 **** Fit      -0.000635
 **** Fit      -0.001531
 **** Fit      -0.001428
 **** Fit      -0.001269
 **** Fit      -0.001083
 **** Fit      -0.000916
 **** Fit      -0.000808
 **** Fit      -0.000778
 **** Fit      -0.000810
 **** Fit      -0.000874
 **** Fit      -0.000940
 **** Fit      -0.001791
 **** Fit      -0.001747
 **** Fit      -0.001646
 **** Fit      -0.001512
 **** Fit      -0.001379
 **** Fit      -0.001283
 **** Fit      -0.001238
 **** Fit      -0.001234
 **** Fit      -0.001249
 **** Fit      -0.001261
 **** Fit      -0.002025
 **** Fit      -0.002043
 **** Fit      -0.002008
 **** Fit      -0.001932
 **** Fit      -0.001841
 **** Fit      -0.001758
 **** Fit      -0.001694
 **** Fit      -0.001647
 **** Fit      -0.001603
 **** Fit      -0.001553
 **** Fit      -0.002275
 **** Fit      -0.002298
 **** Fit      -0.002275
 **** Fit      -0.002220
 **** Fit      -0.002147
 **** Fit      -0.002065
 **** Fit      -0.001975
 **** Fit      -0.001877
 **** Fit      -0.002478
 **** Fit      -0.002491
 **** Fit      -0.002460
 **** Fit      -0.002392
 **** Fit      -0.002294
 **** Fit      -0.002172
 **** Fit      -0.002034
 **** Fit      -0.002568
 **** Fit      -0.002546
 **** Fit      -0.002476
 **** Fit      -0.002365
 **** Fit      -0.000595
 **** Fit      -0.000476
 **** Fit      -0.000395
 **** Fit      -0.000362
 **** Fit      -0.000937
 **** Fit      -0.000808
 **** Fit      -0.000693
 **** Fit      -0.000613
 **** Fit      -0.000579
 **** Fit      -0.000585
 **** Fit      -0.001182
 **** Fit      -0.001073
 **** Fit      -0.000971
 **** Fit      -0.000896
 **** Fit      -0.000857
 **** Fit      -0.000850
 **** Fit      -0.001446
 **** Fit      -0.001366
 **** Fit      -0.001282
 **** Fit      -0.001213
 **** Fit      -0.001167
 **** Fit      -0.001141
 **** Fit      -0.001647
 **** Fit      -0.001586
 **** Fit      -0.001523
 **** Fit      -0.001467
 **** Fit      -0.001417
 **** Fit      -0.001837
 **** Fit      -0.001779
 **** Fit      -0.001713
 -----------------------------------------------------------------
 Leave Link  602 at Fri Apr 28 12:56:12 2017, MaxMem=    33554432 cpu:        39.0
 (Enter /home/michal/g09/l9999.exe)

 Test job not archived.
 1\1\GINC-LINUX\SP\RHF\6-31G(d)\C27H46O3\MICHAL\28-Apr-2017\0\\#P HF/6-
 31G* SCF(Conver=6) NoSymm Test Pop=chelpg IOp(6/33=2) GFInput GFPrint\
 \MEP - Input generated by R.E.D.-III.x MOLECULE\\0,1\C,0,1.7559029,-1.
 24472104,0.14248619\H,0,1.88494588,-1.27631444,-0.94606294\C,0,3.14267
 722,-1.21544772,0.80569272\H,0,3.72260737,-2.08630847,0.48482711\H,0,2
 .99655652,-1.31512888,1.89271234\C,0,3.89898505,0.06264954,0.4987431\C
 ,0,3.17119937,1.38253708,0.77736942\C,0,1.74298188,1.28480137,0.156645
 4\H,0,1.84136595,1.33390479,-0.93615927\H,0,1.15756914,2.16062501,0.45
 636485\C,0,0.96593102,0.0090843,0.51757534\H,0,0.74536565,-0.01529525,
 1.59515517\H,0,0.,0.,0.\C,0,5.1429858,0.,0.\H,0,5.58801427,-0.97096199
 ,-0.21003422\C,0,5.97268954,1.19623924,-0.36170806\H,0,7.0274145,1.019
 59286,-0.12402685\C,0,5.46745538,2.48557934,0.31394559\H,0,5.6920957,2
 .36232151,1.38368765\C,0,3.93075396,2.58232889,0.10841088\H,0,3.779483
 95,2.47118325,-0.97540571\C,0,3.35092431,3.96236478,0.49567433\H,0,3.2
 9182586,4.05795043,1.58452353\H,0,2.31967607,4.03657078,0.13164024\C,0
 ,4.15073677,5.1604121,-0.05116161\H,0,4.0953605,5.17306315,-1.14902473
 \H,0,3.67227739,6.08126742,0.29603692\C,0,5.6322481,5.08745864,0.36679
 737\C,0,6.18372628,3.7447444,-0.19654733\H,0,6.00108666,3.7863497,-1.2
 7982372\C,0,7.70289969,3.85855142,0.\H,0,8.25632142,3.20441942,-0.6761
 411\H,0,7.98250714,3.58075759,1.02456254\C,0,7.99151175,5.36042983,-0.
 26771064\H,0,8.61461804,5.78902691,0.52670337\H,0,8.54740988,5.4912981
 ,-1.20083508\C,0,6.6084813,6.09533769,-0.33398012\H,0,6.29615815,6.136
 9071,-1.38940135\C,0,5.77508926,5.19141619,1.90363864\H,0,5.30985092,4
 .35120221,2.42545283\H,0,6.82324285,5.22258765,2.21525355\H,0,5.299086
 27,6.10488978,2.27576314\C,0,6.69191071,7.56162952,0.16556807\H,0,7.07
 586534,7.54377658,1.19724362\C,0,5.33253126,8.28299432,0.17905473\H,0,
 4.86529293,8.25811221,-0.81359913\H,0,5.44449009,9.33271624,0.46652929
 \H,0,4.63349835,7.83310957,0.88741364\C,0,3.05906599,1.56155726,2.3163
 9856\H,0,2.38683371,2.38584942,2.57200151\H,0,2.66469789,0.66472779,2.
 80025479\H,0,4.03619704,1.76570538,2.76480042\O,0,5.87352588,1.2387861
 1,-1.81709614\O,0,7.1096679,1.79206198,-2.37728611\H,0,7.37672299,1.04
 948102,-2.94259294\O,0,1.04979521,-2.45043941,0.44667431\H,0,0.8692684
 ,-2.47252545,1.39698085\C,0,7.71304318,8.35715528,-0.68616307\H,0,8.63
 904901,7.77719365,-0.77583449\H,0,7.31351694,8.45119157,-1.70635824\C,
 0,8.08372437,9.7447413,-0.13533731\H,0,7.21640385,10.41435462,-0.16013
 338\H,0,8.35065533,9.63968493,0.92594389\C,0,9.26795581,10.41322817,-0
 .85812907\H,0,10.14965119,9.76353914,-0.75906634\H,0,9.51890186,11.346
 84933,-0.33284479\C,0,9.07130869,10.74114941,-2.35372096\H,0,8.8376936
 1,9.80628732,-2.88299051\C,0,7.91100005,11.72049031,-2.59208757\H,0,8.
 08450439,12.66622221,-2.06209107\H,0,7.80732009,11.95208139,-3.6582882
 6\H,0,6.95288334,11.31718374,-2.24866769\C,0,10.37500913,11.29465948,-
 2.95099933\H,0,10.65997821,12.23589167,-2.46328932\H,0,10.26834635,11.
 49546843,-4.02318673\H,0,11.20429266,10.58947721,-2.82265067\\Version=
 EM64L-G09RevD.01\HF=-1273.6798622\RMSD=5.465e-07\Dipole=0.234186,-0.02
 60654,0.6817166\Quadrupole=4.8578184,-8.3242492,3.4664308,-7.8317129,0
 .5309203,1.0844318\PG=C01 [X(C27H46O3)]\\@


 SUCCESS IS COUNTED SWEETEST
 BY THOSE WHO NE'ER SUCCEED.
 TO COMPREHEND NECTAR
 REQUIRES SOREST NEED.
           EMILY DICKINSON
 Job cpu time:       0 days  0 hours 11 minutes 57.1 seconds.
 File lengths (MBytes):  RWF=    159 Int=      0 D2E=      0 Chk=     11 Scr=      1
 Normal termination of Gaussian 09 at Fri Apr 28 12:56:12 2017.
