 Entering Gaussian System, Link 0=/home/michal/g09/g09
 Input=JOB2-gau_m1-13-1.com
 Output=JOB2-gau_m1-13-1.log
 Initial command:
 /home/michal/g09/l1.exe "/home/michal/gauss_scratch/Gau-17623.inp" -scrdir="/home/michal/gauss_scratch/"
 Entering Link 1 = /home/michal/g09/l1.exe PID=     17624.
  
 Copyright (c) 1988,1990,1992,1993,1995,1998,2003,2009,2013,
            Gaussian, Inc.  All Rights Reserved.
  
 This is part of the Gaussian(R) 09 program.  It is based on
 the Gaussian(R) 03 system (copyright 2003, Gaussian, Inc.),
 the Gaussian(R) 98 system (copyright 1998, Gaussian, Inc.),
 the Gaussian(R) 94 system (copyright 1995, Gaussian, Inc.),
 the Gaussian 92(TM) system (copyright 1992, Gaussian, Inc.),
 the Gaussian 90(TM) system (copyright 1990, Gaussian, Inc.),
 the Gaussian 88(TM) system (copyright 1988, Gaussian, Inc.),
 the Gaussian 86(TM) system (copyright 1986, Carnegie Mellon
 University), and the Gaussian 82(TM) system (copyright 1983,
 Carnegie Mellon University). Gaussian is a federally registered
 trademark of Gaussian, Inc.
  
 This software contains proprietary and confidential information,
 including trade secrets, belonging to Gaussian, Inc.
  
 This software is provided under written license and may be
 used, copied, transmitted, or stored only in accord with that
 written license.
  
 The following legend is applicable only to US Government
 contracts under FAR:
  
                    RESTRICTED RIGHTS LEGEND
  
 Use, reproduction and disclosure by the US Government is
 subject to restrictions as set forth in subparagraphs (a)
 and (c) of the Commercial Computer Software - Restricted
 Rights clause in FAR 52.227-19.
  
 Gaussian, Inc.
 340 Quinnipiac St., Bldg. 40, Wallingford CT 06492
  
  
 ---------------------------------------------------------------
 Warning -- This program may not be used in any manner that
 competes with the business of Gaussian, Inc. or will provide
 assistance to any competitor of Gaussian, Inc.  The licensee
 of this program is prohibited from giving any competitor of
 Gaussian, Inc. access to this program.  By using this program,
 the user acknowledges that Gaussian, Inc. is engaged in the
 business of creating and licensing software in the field of
 computational chemistry and represents and warrants to the
 licensee that it is not a competitor of Gaussian, Inc. and that
 it will not use this program in any manner prohibited above.
 ---------------------------------------------------------------
  

 Cite this work as:
 Gaussian 09, Revision D.01,
 M. J. Frisch, G. W. Trucks, H. B. Schlegel, G. E. Scuseria, 
 M. A. Robb, J. R. Cheeseman, G. Scalmani, V. Barone, B. Mennucci, 
 G. A. Petersson, H. Nakatsuji, M. Caricato, X. Li, H. P. Hratchian, 
 A. F. Izmaylov, J. Bloino, G. Zheng, J. L. Sonnenberg, M. Hada, 
 M. Ehara, K. Toyota, R. Fukuda, J. Hasegawa, M. Ishida, T. Nakajima, 
 Y. Honda, O. Kitao, H. Nakai, T. Vreven, J. A. Montgomery, Jr., 
 J. E. Peralta, F. Ogliaro, M. Bearpark, J. J. Heyd, E. Brothers, 
 K. N. Kudin, V. N. Staroverov, T. Keith, R. Kobayashi, J. Normand, 
 K. Raghavachari, A. Rendell, J. C. Burant, S. S. Iyengar, J. Tomasi, 
 M. Cossi, N. Rega, J. M. Millam, M. Klene, J. E. Knox, J. B. Cross, 
 V. Bakken, C. Adamo, J. Jaramillo, R. Gomperts, R. E. Stratmann, 
 O. Yazyev, A. J. Austin, R. Cammi, C. Pomelli, J. W. Ochterski, 
 R. L. Martin, K. Morokuma, V. G. Zakrzewski, G. A. Voth, 
 P. Salvador, J. J. Dannenberg, S. Dapprich, A. D. Daniels, 
 O. Farkas, J. B. Foresman, J. V. Ortiz, J. Cioslowski, 
 and D. J. Fox, Gaussian, Inc., Wallingford CT, 2013.
 
 ******************************************
 Gaussian 09:  EM64L-G09RevD.01 24-Apr-2013
                28-Apr-2017 
 ******************************************
 %Mem=256MB
 %NProc=12
 Will use up to   12 processors via shared memory.
 ----------------------------------------------------------------------
 #P HF/6-31G* SCF(Conver=6) NoSymm Test Pop=chelpg IOp(6/33=2) GFInput 
 GFPrint
 ----------------------------------------------------------------------
 1/38=1/1;
 2/12=2,15=1,17=6,18=5,40=1/2;
 3/5=1,6=6,7=1,11=9,16=1,24=110,25=1,30=1/1,2,3;
 4//1;
 5/5=2,6=6,38=5/2;
 6/7=2,8=2,9=2,10=2,15=8,20=3,28=1,33=2/1,2;
 99/5=1,9=1/99;
 Leave Link    1 at Fri Apr 28 12:38:30 2017, MaxMem=    33554432 cpu:         0.6
 (Enter /home/michal/g09/l101.exe)
 ----------------------------------------------
 MEP - Input generated by R.E.D.-III.x MOLECULE
 ----------------------------------------------
 Symbolic Z-matrix:
 Charge =  0 Multiplicity = 1
 C                     1.75838  -1.24875   0.05734 
 H                     1.8835   -1.21037  -1.03174 
 C                     3.14655  -1.25966   0.71694 
 H                     3.72592  -2.10923   0.34233 
 H                     3.00289  -1.42738   1.79597 
 C                     3.90541   0.03485   0.48965 
 C                     3.17352   1.33428   0.84853 
 C                     1.74401   1.27318   0.22653 
 H                     1.83923   1.38613  -0.86201 
 H                     1.15908   2.1301    0.57765 
 C                     0.96829  -0.02191   0.51274 
 H                     0.75296  -0.11241   1.58773 
 H                     0.        0.        0. 
 C                     5.15446   0.        0. 
 H                     5.6046   -0.96333  -0.23255 
 C                     6.00383   1.20968  -0.26408 
 H                     7.03674   1.02334   0.05635 
 C                     5.46526   2.47449   0.42882 
 H                     5.70188   2.3363    1.49306 
 C                     3.92604   2.57677   0.25372 
 H                     3.74799   2.54897  -0.83132 
 C                     3.37101   3.92865   0.76513 
 H                     3.37666   3.94528   1.85968 
 H                     2.3203    4.02604   0.46854 
 C                     4.14076   5.16553   0.25863 
 H                     4.0132    5.25979  -0.82901 
 H                     3.69383   6.06089   0.70566 
 C                     5.64526   5.06793   0.57742 
 C                     6.15396   3.75085  -0.07706 
 H                     5.89234   3.83581  -1.14023 
 C                     7.68686   3.84808   0. 
 H                     8.17224   3.2432   -0.77098 
 H                     8.05393   3.4891    0.97003 
 C                     7.96689   5.36856  -0.17236 
 H                     8.60586   5.7394    0.63553 
 H                     8.4993    5.58085  -1.1058 
 C                     6.57812   6.08268  -0.16914 
 H                     6.22004   6.06376  -1.20962 
 C                     5.87183   5.08809   2.10661 
 H                     5.46982   4.19664   2.59532 
 H                     6.932     5.14616   2.36646 
 H                     5.37465   5.95105   2.55936 
 C                     6.66575   7.60006   0.16995 
 H                     7.41947   7.96813  -0.54312 
 C                     7.18897   7.97567   1.57053 
 H                     6.42065   7.86027   2.34122 
 H                     7.51031   9.02213   1.58834 
 H                     8.05263   7.37348   1.86704 
 C                     3.06511   1.41862   2.39593 
 H                     2.38355   2.21706   2.70386 
 H                     2.68519   0.48875   2.82574 
 H                     4.04186   1.60769   2.85196 
 O                     6.06213   1.50566  -1.68691 
 O                     6.79705   0.42792  -2.33181 
 H                     6.08044  -0.02649  -2.80503 
 O                     1.05392  -2.4721    0.28461 
 H                     0.88368  -2.56051   1.23296 
 C                     5.34902   8.34544  -0.14785 
 H                     4.96249   7.984    -1.10973 
 H                     4.59406   8.07117   0.60002 
 C                     5.4314    9.88543  -0.18476 
 H                     4.42238   10.27256  -0.37595 
 H                     5.70143   10.26168   0.81013 
 C                     6.41114   10.49079  -1.20804 
 H                     7.43785   10.20378  -0.94332 
 H                     6.37586   11.58603  -1.11032 
 C                     6.17266   10.13093  -2.68982 
 H                     6.22331   9.03713  -2.79117 
 C                     4.7923    10.5859  -3.18992 
 H                     4.68027   11.67315  -3.08679 
 H                     4.65864   10.33775  -4.249 
 H                     3.97524   10.11294  -2.63561 
 C                     7.28639   10.72558  -3.56668 
 H                     7.28349   11.82187  -3.51217 
 H                     7.15815   10.44515  -4.61839 
 H                     8.27569   10.37955  -3.2457 
 
 NAtoms=     76 NQM=       76 NQMF=       0 NMMI=      0 NMMIF=      0
                NMic=       0 NMicF=      0.
                    Isotopes and Nuclear Properties:
 (Nuclear quadrupole moments (NQMom) in fm**2, nuclear magnetic moments (NMagM)
  in nuclear magnetons)

  Atom         1           2           3           4           5           6           7           8           9          10
 IAtWgt=          12           1          12           1           1          12          12          12           1           1
 AtmWgt=  12.0000000   1.0078250  12.0000000   1.0078250   1.0078250  12.0000000  12.0000000  12.0000000   1.0078250   1.0078250
 NucSpn=           0           1           0           1           1           0           0           0           1           1
 AtZEff=   0.0000000   0.0000000   0.0000000   0.0000000   0.0000000   0.0000000   0.0000000   0.0000000   0.0000000   0.0000000
 NQMom=    0.0000000   0.0000000   0.0000000   0.0000000   0.0000000   0.0000000   0.0000000   0.0000000   0.0000000   0.0000000
 NMagM=    0.0000000   2.7928460   0.0000000   2.7928460   2.7928460   0.0000000   0.0000000   0.0000000   2.7928460   2.7928460
 AtZNuc=   6.0000000   1.0000000   6.0000000   1.0000000   1.0000000   6.0000000   6.0000000   6.0000000   1.0000000   1.0000000

  Atom        11          12          13          14          15          16          17          18          19          20
 IAtWgt=          12           1           1          12           1          12           1          12           1          12
 AtmWgt=  12.0000000   1.0078250   1.0078250  12.0000000   1.0078250  12.0000000   1.0078250  12.0000000   1.0078250  12.0000000
 NucSpn=           0           1           1           0           1           0           1           0           1           0
 AtZEff=   0.0000000   0.0000000   0.0000000   0.0000000   0.0000000   0.0000000   0.0000000   0.0000000   0.0000000   0.0000000
 NQMom=    0.0000000   0.0000000   0.0000000   0.0000000   0.0000000   0.0000000   0.0000000   0.0000000   0.0000000   0.0000000
 NMagM=    0.0000000   2.7928460   2.7928460   0.0000000   2.7928460   0.0000000   2.7928460   0.0000000   2.7928460   0.0000000
 AtZNuc=   6.0000000   1.0000000   1.0000000   6.0000000   1.0000000   6.0000000   1.0000000   6.0000000   1.0000000   6.0000000

  Atom        21          22          23          24          25          26          27          28          29          30
 IAtWgt=           1          12           1           1          12           1           1          12          12           1
 AtmWgt=   1.0078250  12.0000000   1.0078250   1.0078250  12.0000000   1.0078250   1.0078250  12.0000000  12.0000000   1.0078250
 NucSpn=           1           0           1           1           0           1           1           0           0           1
 AtZEff=   0.0000000   0.0000000   0.0000000   0.0000000   0.0000000   0.0000000   0.0000000   0.0000000   0.0000000   0.0000000
 NQMom=    0.0000000   0.0000000   0.0000000   0.0000000   0.0000000   0.0000000   0.0000000   0.0000000   0.0000000   0.0000000
 NMagM=    2.7928460   0.0000000   2.7928460   2.7928460   0.0000000   2.7928460   2.7928460   0.0000000   0.0000000   2.7928460
 AtZNuc=   1.0000000   6.0000000   1.0000000   1.0000000   6.0000000   1.0000000   1.0000000   6.0000000   6.0000000   1.0000000

  Atom        31          32          33          34          35          36          37          38          39          40
 IAtWgt=          12           1           1          12           1           1          12           1          12           1
 AtmWgt=  12.0000000   1.0078250   1.0078250  12.0000000   1.0078250   1.0078250  12.0000000   1.0078250  12.0000000   1.0078250
 NucSpn=           0           1           1           0           1           1           0           1           0           1
 AtZEff=   0.0000000   0.0000000   0.0000000   0.0000000   0.0000000   0.0000000   0.0000000   0.0000000   0.0000000   0.0000000
 NQMom=    0.0000000   0.0000000   0.0000000   0.0000000   0.0000000   0.0000000   0.0000000   0.0000000   0.0000000   0.0000000
 NMagM=    0.0000000   2.7928460   2.7928460   0.0000000   2.7928460   2.7928460   0.0000000   2.7928460   0.0000000   2.7928460
 AtZNuc=   6.0000000   1.0000000   1.0000000   6.0000000   1.0000000   1.0000000   6.0000000   1.0000000   6.0000000   1.0000000

  Atom        41          42          43          44          45          46          47          48          49          50
 IAtWgt=           1           1          12           1          12           1           1           1          12           1
 AtmWgt=   1.0078250   1.0078250  12.0000000   1.0078250  12.0000000   1.0078250   1.0078250   1.0078250  12.0000000   1.0078250
 NucSpn=           1           1           0           1           0           1           1           1           0           1
 AtZEff=   0.0000000   0.0000000   0.0000000   0.0000000   0.0000000   0.0000000   0.0000000   0.0000000   0.0000000   0.0000000
 NQMom=    0.0000000   0.0000000   0.0000000   0.0000000   0.0000000   0.0000000   0.0000000   0.0000000   0.0000000   0.0000000
 NMagM=    2.7928460   2.7928460   0.0000000   2.7928460   0.0000000   2.7928460   2.7928460   2.7928460   0.0000000   2.7928460
 AtZNuc=   1.0000000   1.0000000   6.0000000   1.0000000   6.0000000   1.0000000   1.0000000   1.0000000   6.0000000   1.0000000

  Atom        51          52          53          54          55          56          57          58          59          60
 IAtWgt=           1           1          16          16           1          16           1          12           1           1
 AtmWgt=   1.0078250   1.0078250  15.9949146  15.9949146   1.0078250  15.9949146   1.0078250  12.0000000   1.0078250   1.0078250
 NucSpn=           1           1           0           0           1           0           1           0           1           1
 AtZEff=   0.0000000   0.0000000   0.0000000   0.0000000   0.0000000   0.0000000   0.0000000   0.0000000   0.0000000   0.0000000
 NQMom=    0.0000000   0.0000000   0.0000000   0.0000000   0.0000000   0.0000000   0.0000000   0.0000000   0.0000000   0.0000000
 NMagM=    2.7928460   2.7928460   0.0000000   0.0000000   2.7928460   0.0000000   2.7928460   0.0000000   2.7928460   2.7928460
 AtZNuc=   1.0000000   1.0000000   8.0000000   8.0000000   1.0000000   8.0000000   1.0000000   6.0000000   1.0000000   1.0000000

  Atom        61          62          63          64          65          66          67          68          69          70
 IAtWgt=          12           1           1          12           1           1          12           1          12           1
 AtmWgt=  12.0000000   1.0078250   1.0078250  12.0000000   1.0078250   1.0078250  12.0000000   1.0078250  12.0000000   1.0078250
 NucSpn=           0           1           1           0           1           1           0           1           0           1
 AtZEff=   0.0000000   0.0000000   0.0000000   0.0000000   0.0000000   0.0000000   0.0000000   0.0000000   0.0000000   0.0000000
 NQMom=    0.0000000   0.0000000   0.0000000   0.0000000   0.0000000   0.0000000   0.0000000   0.0000000   0.0000000   0.0000000
 NMagM=    0.0000000   2.7928460   2.7928460   0.0000000   2.7928460   2.7928460   0.0000000   2.7928460   0.0000000   2.7928460
 AtZNuc=   6.0000000   1.0000000   1.0000000   6.0000000   1.0000000   1.0000000   6.0000000   1.0000000   6.0000000   1.0000000

  Atom        71          72          73          74          75          76
 IAtWgt=           1           1          12           1           1           1
 AtmWgt=   1.0078250   1.0078250  12.0000000   1.0078250   1.0078250   1.0078250
 NucSpn=           1           1           0           1           1           1
 AtZEff=   0.0000000   0.0000000   0.0000000   0.0000000   0.0000000   0.0000000
 NQMom=    0.0000000   0.0000000   0.0000000   0.0000000   0.0000000   0.0000000
 NMagM=    2.7928460   2.7928460   0.0000000   2.7928460   2.7928460   2.7928460
 AtZNuc=   1.0000000   1.0000000   6.0000000   1.0000000   1.0000000   1.0000000
 Leave Link  101 at Fri Apr 28 12:38:31 2017, MaxMem=    33554432 cpu:         1.0
 (Enter /home/michal/g09/l202.exe)
 Symmetry turned off by external request.
 Stoichiometry    C27H46O3
 Framework group  C1[X(C27H46O3)]
 Deg. of freedom   222
 Full point group                 C1      NOp   1
                          Input orientation:                          
 ---------------------------------------------------------------------
 Center     Atomic      Atomic             Coordinates (Angstroms)
 Number     Number       Type             X           Y           Z
 ---------------------------------------------------------------------
      1          6           0        1.758377   -1.248753    0.057344
      2          1           0        1.883500   -1.210365   -1.031743
      3          6           0        3.146547   -1.259662    0.716942
      4          1           0        3.725924   -2.109235    0.342327
      5          1           0        3.002894   -1.427382    1.795970
      6          6           0        3.905414    0.034846    0.489647
      7          6           0        3.173522    1.334280    0.848531
      8          6           0        1.744013    1.273181    0.226526
      9          1           0        1.839232    1.386132   -0.862009
     10          1           0        1.159078    2.130098    0.577648
     11          6           0        0.968290   -0.021906    0.512739
     12          1           0        0.752964   -0.112407    1.587729
     13          1           0        0.000000    0.000000    0.000000
     14          6           0        5.154457    0.000000    0.000000
     15          1           0        5.604596   -0.963329   -0.232548
     16          6           0        6.003833    1.209677   -0.264080
     17          1           0        7.036739    1.023340    0.056350
     18          6           0        5.465260    2.474492    0.428820
     19          1           0        5.701877    2.336302    1.493063
     20          6           0        3.926037    2.576774    0.253720
     21          1           0        3.747985    2.548971   -0.831324
     22          6           0        3.371010    3.928648    0.765131
     23          1           0        3.376657    3.945283    1.859676
     24          1           0        2.320302    4.026039    0.468536
     25          6           0        4.140762    5.165533    0.258633
     26          1           0        4.013203    5.259792   -0.829007
     27          1           0        3.693835    6.060892    0.705656
     28          6           0        5.645261    5.067927    0.577423
     29          6           0        6.153963    3.750848   -0.077064
     30          1           0        5.892343    3.835814   -1.140231
     31          6           0        7.686856    3.848085    0.000000
     32          1           0        8.172243    3.243203   -0.770981
     33          1           0        8.053926    3.489096    0.970031
     34          6           0        7.966888    5.368565   -0.172360
     35          1           0        8.605864    5.739396    0.635531
     36          1           0        8.499299    5.580854   -1.105805
     37          6           0        6.578124    6.082680   -0.169137
     38          1           0        6.220043    6.063757   -1.209615
     39          6           0        5.871833    5.088085    2.106613
     40          1           0        5.469817    4.196644    2.595320
     41          1           0        6.932005    5.146160    2.366460
     42          1           0        5.374654    5.951055    2.559364
     43          6           0        6.665752    7.600056    0.169948
     44          1           0        7.419471    7.968132   -0.543119
     45          6           0        7.188970    7.975672    1.570530
     46          1           0        6.420647    7.860268    2.341222
     47          1           0        7.510309    9.022134    1.588343
     48          1           0        8.052629    7.373479    1.867037
     49          6           0        3.065107    1.418625    2.395927
     50          1           0        2.383554    2.217060    2.703862
     51          1           0        2.685190    0.488752    2.825737
     52          1           0        4.041864    1.607688    2.851960
     53          8           0        6.062132    1.505663   -1.686909
     54          8           0        6.797054    0.427920   -2.331810
     55          1           0        6.080437   -0.026491   -2.805027
     56          8           0        1.053915   -2.472104    0.284610
     57          1           0        0.883684   -2.560514    1.232961
     58          6           0        5.349021    8.345443   -0.147846
     59          1           0        4.962488    7.984001   -1.109728
     60          1           0        4.594063    8.071172    0.600016
     61          6           0        5.431397    9.885431   -0.184759
     62          1           0        4.422377   10.272563   -0.375952
     63          1           0        5.701428   10.261682    0.810130
     64          6           0        6.411138   10.490792   -1.208039
     65          1           0        7.437847   10.203776   -0.943321
     66          1           0        6.375864   11.586030   -1.110318
     67          6           0        6.172661   10.130927   -2.689820
     68          1           0        6.223315    9.037126   -2.791166
     69          6           0        4.792296   10.585901   -3.189925
     70          1           0        4.680266   11.673153   -3.086788
     71          1           0        4.658638   10.337750   -4.249002
     72          1           0        3.975235   10.112943   -2.635610
     73          6           0        7.286387   10.725580   -3.566677
     74          1           0        7.283492   11.821869   -3.512168
     75          1           0        7.158149   10.445152   -4.618386
     76          1           0        8.275688   10.379550   -3.245701
 ---------------------------------------------------------------------
 Rotational constants (GHZ):      0.2966547      0.0621819      0.0598010
 Leave Link  202 at Fri Apr 28 12:38:31 2017, MaxMem=    33554432 cpu:         0.0
 (Enter /home/michal/g09/l301.exe)
 Standard basis: 6-31G(d) (6D, 7F)
 Ernie: Thresh=  0.10000D-02 Tol=  0.10000D-05 Strict=F.
 AO basis set in the form of general basis input (Overlap normalization):
      1 0
 S   6 1.00       0.000000000000
      0.3047524880D+04  0.1834737132D-02
      0.4573695180D+03  0.1403732281D-01
      0.1039486850D+03  0.6884262226D-01
      0.2921015530D+02  0.2321844432D+00
      0.9286662960D+01  0.4679413484D+00
      0.3163926960D+01  0.3623119853D+00
 SP   3 1.00       0.000000000000
      0.7868272350D+01 -0.1193324198D+00  0.6899906659D-01
      0.1881288540D+01 -0.1608541517D+00  0.3164239610D+00
      0.5442492580D+00  0.1143456438D+01  0.7443082909D+00
 SP   1 1.00       0.000000000000
      0.1687144782D+00  0.1000000000D+01  0.1000000000D+01
 D   1 1.00       0.000000000000
      0.8000000000D+00  0.1000000000D+01
 ****
      2 0
 S   3 1.00       0.000000000000
      0.1873113696D+02  0.3349460434D-01
      0.2825394365D+01  0.2347269535D+00
      0.6401216923D+00  0.8137573261D+00
 S   1 1.00       0.000000000000
      0.1612777588D+00  0.1000000000D+01
 ****
      3 0
 S   6 1.00       0.000000000000
      0.3047524880D+04  0.1834737132D-02
      0.4573695180D+03  0.1403732281D-01
      0.1039486850D+03  0.6884262226D-01
      0.2921015530D+02  0.2321844432D+00
      0.9286662960D+01  0.4679413484D+00
      0.3163926960D+01  0.3623119853D+00
 SP   3 1.00       0.000000000000
      0.7868272350D+01 -0.1193324198D+00  0.6899906659D-01
      0.1881288540D+01 -0.1608541517D+00  0.3164239610D+00
      0.5442492580D+00  0.1143456438D+01  0.7443082909D+00
 SP   1 1.00       0.000000000000
      0.1687144782D+00  0.1000000000D+01  0.1000000000D+01
 D   1 1.00       0.000000000000
      0.8000000000D+00  0.1000000000D+01
 ****
      4 0
 S   3 1.00       0.000000000000
      0.1873113696D+02  0.3349460434D-01
      0.2825394365D+01  0.2347269535D+00
      0.6401216923D+00  0.8137573261D+00
 S   1 1.00       0.000000000000
      0.1612777588D+00  0.1000000000D+01
 ****
      5 0
 S   3 1.00       0.000000000000
      0.1873113696D+02  0.3349460434D-01
      0.2825394365D+01  0.2347269535D+00
      0.6401216923D+00  0.8137573261D+00
 S   1 1.00       0.000000000000
      0.1612777588D+00  0.1000000000D+01
 ****
      6 0
 S   6 1.00       0.000000000000
      0.3047524880D+04  0.1834737132D-02
      0.4573695180D+03  0.1403732281D-01
      0.1039486850D+03  0.6884262226D-01
      0.2921015530D+02  0.2321844432D+00
      0.9286662960D+01  0.4679413484D+00
      0.3163926960D+01  0.3623119853D+00
 SP   3 1.00       0.000000000000
      0.7868272350D+01 -0.1193324198D+00  0.6899906659D-01
      0.1881288540D+01 -0.1608541517D+00  0.3164239610D+00
      0.5442492580D+00  0.1143456438D+01  0.7443082909D+00
 SP   1 1.00       0.000000000000
      0.1687144782D+00  0.1000000000D+01  0.1000000000D+01
 D   1 1.00       0.000000000000
      0.8000000000D+00  0.1000000000D+01
 ****
      7 0
 S   6 1.00       0.000000000000
      0.3047524880D+04  0.1834737132D-02
      0.4573695180D+03  0.1403732281D-01
      0.1039486850D+03  0.6884262226D-01
      0.2921015530D+02  0.2321844432D+00
      0.9286662960D+01  0.4679413484D+00
      0.3163926960D+01  0.3623119853D+00
 SP   3 1.00       0.000000000000
      0.7868272350D+01 -0.1193324198D+00  0.6899906659D-01
      0.1881288540D+01 -0.1608541517D+00  0.3164239610D+00
      0.5442492580D+00  0.1143456438D+01  0.7443082909D+00
 SP   1 1.00       0.000000000000
      0.1687144782D+00  0.1000000000D+01  0.1000000000D+01
 D   1 1.00       0.000000000000
      0.8000000000D+00  0.1000000000D+01
 ****
      8 0
 S   6 1.00       0.000000000000
      0.3047524880D+04  0.1834737132D-02
      0.4573695180D+03  0.1403732281D-01
      0.1039486850D+03  0.6884262226D-01
      0.2921015530D+02  0.2321844432D+00
      0.9286662960D+01  0.4679413484D+00
      0.3163926960D+01  0.3623119853D+00
 SP   3 1.00       0.000000000000
      0.7868272350D+01 -0.1193324198D+00  0.6899906659D-01
      0.1881288540D+01 -0.1608541517D+00  0.3164239610D+00
      0.5442492580D+00  0.1143456438D+01  0.7443082909D+00
 SP   1 1.00       0.000000000000
      0.1687144782D+00  0.1000000000D+01  0.1000000000D+01
 D   1 1.00       0.000000000000
      0.8000000000D+00  0.1000000000D+01
 ****
      9 0
 S   3 1.00       0.000000000000
      0.1873113696D+02  0.3349460434D-01
      0.2825394365D+01  0.2347269535D+00
      0.6401216923D+00  0.8137573261D+00
 S   1 1.00       0.000000000000
      0.1612777588D+00  0.1000000000D+01
 ****
     10 0
 S   3 1.00       0.000000000000
      0.1873113696D+02  0.3349460434D-01
      0.2825394365D+01  0.2347269535D+00
      0.6401216923D+00  0.8137573261D+00
 S   1 1.00       0.000000000000
      0.1612777588D+00  0.1000000000D+01
 ****
     11 0
 S   6 1.00       0.000000000000
      0.3047524880D+04  0.1834737132D-02
      0.4573695180D+03  0.1403732281D-01
      0.1039486850D+03  0.6884262226D-01
      0.2921015530D+02  0.2321844432D+00
      0.9286662960D+01  0.4679413484D+00
      0.3163926960D+01  0.3623119853D+00
 SP   3 1.00       0.000000000000
      0.7868272350D+01 -0.1193324198D+00  0.6899906659D-01
      0.1881288540D+01 -0.1608541517D+00  0.3164239610D+00
      0.5442492580D+00  0.1143456438D+01  0.7443082909D+00
 SP   1 1.00       0.000000000000
      0.1687144782D+00  0.1000000000D+01  0.1000000000D+01
 D   1 1.00       0.000000000000
      0.8000000000D+00  0.1000000000D+01
 ****
     12 0
 S   3 1.00       0.000000000000
      0.1873113696D+02  0.3349460434D-01
      0.2825394365D+01  0.2347269535D+00
      0.6401216923D+00  0.8137573261D+00
 S   1 1.00       0.000000000000
      0.1612777588D+00  0.1000000000D+01
 ****
     13 0
 S   3 1.00       0.000000000000
      0.1873113696D+02  0.3349460434D-01
      0.2825394365D+01  0.2347269535D+00
      0.6401216923D+00  0.8137573261D+00
 S   1 1.00       0.000000000000
      0.1612777588D+00  0.1000000000D+01
 ****
     14 0
 S   6 1.00       0.000000000000
      0.3047524880D+04  0.1834737132D-02
      0.4573695180D+03  0.1403732281D-01
      0.1039486850D+03  0.6884262226D-01
      0.2921015530D+02  0.2321844432D+00
      0.9286662960D+01  0.4679413484D+00
      0.3163926960D+01  0.3623119853D+00
 SP   3 1.00       0.000000000000
      0.7868272350D+01 -0.1193324198D+00  0.6899906659D-01
      0.1881288540D+01 -0.1608541517D+00  0.3164239610D+00
      0.5442492580D+00  0.1143456438D+01  0.7443082909D+00
 SP   1 1.00       0.000000000000
      0.1687144782D+00  0.1000000000D+01  0.1000000000D+01
 D   1 1.00       0.000000000000
      0.8000000000D+00  0.1000000000D+01
 ****
     15 0
 S   3 1.00       0.000000000000
      0.1873113696D+02  0.3349460434D-01
      0.2825394365D+01  0.2347269535D+00
      0.6401216923D+00  0.8137573261D+00
 S   1 1.00       0.000000000000
      0.1612777588D+00  0.1000000000D+01
 ****
     16 0
 S   6 1.00       0.000000000000
      0.3047524880D+04  0.1834737132D-02
      0.4573695180D+03  0.1403732281D-01
      0.1039486850D+03  0.6884262226D-01
      0.2921015530D+02  0.2321844432D+00
      0.9286662960D+01  0.4679413484D+00
      0.3163926960D+01  0.3623119853D+00
 SP   3 1.00       0.000000000000
      0.7868272350D+01 -0.1193324198D+00  0.6899906659D-01
      0.1881288540D+01 -0.1608541517D+00  0.3164239610D+00
      0.5442492580D+00  0.1143456438D+01  0.7443082909D+00
 SP   1 1.00       0.000000000000
      0.1687144782D+00  0.1000000000D+01  0.1000000000D+01
 D   1 1.00       0.000000000000
      0.8000000000D+00  0.1000000000D+01
 ****
     17 0
 S   3 1.00       0.000000000000
      0.1873113696D+02  0.3349460434D-01
      0.2825394365D+01  0.2347269535D+00
      0.6401216923D+00  0.8137573261D+00
 S   1 1.00       0.000000000000
      0.1612777588D+00  0.1000000000D+01
 ****
     18 0
 S   6 1.00       0.000000000000
      0.3047524880D+04  0.1834737132D-02
      0.4573695180D+03  0.1403732281D-01
      0.1039486850D+03  0.6884262226D-01
      0.2921015530D+02  0.2321844432D+00
      0.9286662960D+01  0.4679413484D+00
      0.3163926960D+01  0.3623119853D+00
 SP   3 1.00       0.000000000000
      0.7868272350D+01 -0.1193324198D+00  0.6899906659D-01
      0.1881288540D+01 -0.1608541517D+00  0.3164239610D+00
      0.5442492580D+00  0.1143456438D+01  0.7443082909D+00
 SP   1 1.00       0.000000000000
      0.1687144782D+00  0.1000000000D+01  0.1000000000D+01
 D   1 1.00       0.000000000000
      0.8000000000D+00  0.1000000000D+01
 ****
     19 0
 S   3 1.00       0.000000000000
      0.1873113696D+02  0.3349460434D-01
      0.2825394365D+01  0.2347269535D+00
      0.6401216923D+00  0.8137573261D+00
 S   1 1.00       0.000000000000
      0.1612777588D+00  0.1000000000D+01
 ****
     20 0
 S   6 1.00       0.000000000000
      0.3047524880D+04  0.1834737132D-02
      0.4573695180D+03  0.1403732281D-01
      0.1039486850D+03  0.6884262226D-01
      0.2921015530D+02  0.2321844432D+00
      0.9286662960D+01  0.4679413484D+00
      0.3163926960D+01  0.3623119853D+00
 SP   3 1.00       0.000000000000
      0.7868272350D+01 -0.1193324198D+00  0.6899906659D-01
      0.1881288540D+01 -0.1608541517D+00  0.3164239610D+00
      0.5442492580D+00  0.1143456438D+01  0.7443082909D+00
 SP   1 1.00       0.000000000000
      0.1687144782D+00  0.1000000000D+01  0.1000000000D+01
 D   1 1.00       0.000000000000
      0.8000000000D+00  0.1000000000D+01
 ****
     21 0
 S   3 1.00       0.000000000000
      0.1873113696D+02  0.3349460434D-01
      0.2825394365D+01  0.2347269535D+00
      0.6401216923D+00  0.8137573261D+00
 S   1 1.00       0.000000000000
      0.1612777588D+00  0.1000000000D+01
 ****
     22 0
 S   6 1.00       0.000000000000
      0.3047524880D+04  0.1834737132D-02
      0.4573695180D+03  0.1403732281D-01
      0.1039486850D+03  0.6884262226D-01
      0.2921015530D+02  0.2321844432D+00
      0.9286662960D+01  0.4679413484D+00
      0.3163926960D+01  0.3623119853D+00
 SP   3 1.00       0.000000000000
      0.7868272350D+01 -0.1193324198D+00  0.6899906659D-01
      0.1881288540D+01 -0.1608541517D+00  0.3164239610D+00
      0.5442492580D+00  0.1143456438D+01  0.7443082909D+00
 SP   1 1.00       0.000000000000
      0.1687144782D+00  0.1000000000D+01  0.1000000000D+01
 D   1 1.00       0.000000000000
      0.8000000000D+00  0.1000000000D+01
 ****
     23 0
 S   3 1.00       0.000000000000
      0.1873113696D+02  0.3349460434D-01
      0.2825394365D+01  0.2347269535D+00
      0.6401216923D+00  0.8137573261D+00
 S   1 1.00       0.000000000000
      0.1612777588D+00  0.1000000000D+01
 ****
     24 0
 S   3 1.00       0.000000000000
      0.1873113696D+02  0.3349460434D-01
      0.2825394365D+01  0.2347269535D+00
      0.6401216923D+00  0.8137573261D+00
 S   1 1.00       0.000000000000
      0.1612777588D+00  0.1000000000D+01
 ****
     25 0
 S   6 1.00       0.000000000000
      0.3047524880D+04  0.1834737132D-02
      0.4573695180D+03  0.1403732281D-01
      0.1039486850D+03  0.6884262226D-01
      0.2921015530D+02  0.2321844432D+00
      0.9286662960D+01  0.4679413484D+00
      0.3163926960D+01  0.3623119853D+00
 SP   3 1.00       0.000000000000
      0.7868272350D+01 -0.1193324198D+00  0.6899906659D-01
      0.1881288540D+01 -0.1608541517D+00  0.3164239610D+00
      0.5442492580D+00  0.1143456438D+01  0.7443082909D+00
 SP   1 1.00       0.000000000000
      0.1687144782D+00  0.1000000000D+01  0.1000000000D+01
 D   1 1.00       0.000000000000
      0.8000000000D+00  0.1000000000D+01
 ****
     26 0
 S   3 1.00       0.000000000000
      0.1873113696D+02  0.3349460434D-01
      0.2825394365D+01  0.2347269535D+00
      0.6401216923D+00  0.8137573261D+00
 S   1 1.00       0.000000000000
      0.1612777588D+00  0.1000000000D+01
 ****
     27 0
 S   3 1.00       0.000000000000
      0.1873113696D+02  0.3349460434D-01
      0.2825394365D+01  0.2347269535D+00
      0.6401216923D+00  0.8137573261D+00
 S   1 1.00       0.000000000000
      0.1612777588D+00  0.1000000000D+01
 ****
     28 0
 S   6 1.00       0.000000000000
      0.3047524880D+04  0.1834737132D-02
      0.4573695180D+03  0.1403732281D-01
      0.1039486850D+03  0.6884262226D-01
      0.2921015530D+02  0.2321844432D+00
      0.9286662960D+01  0.4679413484D+00
      0.3163926960D+01  0.3623119853D+00
 SP   3 1.00       0.000000000000
      0.7868272350D+01 -0.1193324198D+00  0.6899906659D-01
      0.1881288540D+01 -0.1608541517D+00  0.3164239610D+00
      0.5442492580D+00  0.1143456438D+01  0.7443082909D+00
 SP   1 1.00       0.000000000000
      0.1687144782D+00  0.1000000000D+01  0.1000000000D+01
 D   1 1.00       0.000000000000
      0.8000000000D+00  0.1000000000D+01
 ****
     29 0
 S   6 1.00       0.000000000000
      0.3047524880D+04  0.1834737132D-02
      0.4573695180D+03  0.1403732281D-01
      0.1039486850D+03  0.6884262226D-01
      0.2921015530D+02  0.2321844432D+00
      0.9286662960D+01  0.4679413484D+00
      0.3163926960D+01  0.3623119853D+00
 SP   3 1.00       0.000000000000
      0.7868272350D+01 -0.1193324198D+00  0.6899906659D-01
      0.1881288540D+01 -0.1608541517D+00  0.3164239610D+00
      0.5442492580D+00  0.1143456438D+01  0.7443082909D+00
 SP   1 1.00       0.000000000000
      0.1687144782D+00  0.1000000000D+01  0.1000000000D+01
 D   1 1.00       0.000000000000
      0.8000000000D+00  0.1000000000D+01
 ****
     30 0
 S   3 1.00       0.000000000000
      0.1873113696D+02  0.3349460434D-01
      0.2825394365D+01  0.2347269535D+00
      0.6401216923D+00  0.8137573261D+00
 S   1 1.00       0.000000000000
      0.1612777588D+00  0.1000000000D+01
 ****
     31 0
 S   6 1.00       0.000000000000
      0.3047524880D+04  0.1834737132D-02
      0.4573695180D+03  0.1403732281D-01
      0.1039486850D+03  0.6884262226D-01
      0.2921015530D+02  0.2321844432D+00
      0.9286662960D+01  0.4679413484D+00
      0.3163926960D+01  0.3623119853D+00
 SP   3 1.00       0.000000000000
      0.7868272350D+01 -0.1193324198D+00  0.6899906659D-01
      0.1881288540D+01 -0.1608541517D+00  0.3164239610D+00
      0.5442492580D+00  0.1143456438D+01  0.7443082909D+00
 SP   1 1.00       0.000000000000
      0.1687144782D+00  0.1000000000D+01  0.1000000000D+01
 D   1 1.00       0.000000000000
      0.8000000000D+00  0.1000000000D+01
 ****
     32 0
 S   3 1.00       0.000000000000
      0.1873113696D+02  0.3349460434D-01
      0.2825394365D+01  0.2347269535D+00
      0.6401216923D+00  0.8137573261D+00
 S   1 1.00       0.000000000000
      0.1612777588D+00  0.1000000000D+01
 ****
     33 0
 S   3 1.00       0.000000000000
      0.1873113696D+02  0.3349460434D-01
      0.2825394365D+01  0.2347269535D+00
      0.6401216923D+00  0.8137573261D+00
 S   1 1.00       0.000000000000
      0.1612777588D+00  0.1000000000D+01
 ****
     34 0
 S   6 1.00       0.000000000000
      0.3047524880D+04  0.1834737132D-02
      0.4573695180D+03  0.1403732281D-01
      0.1039486850D+03  0.6884262226D-01
      0.2921015530D+02  0.2321844432D+00
      0.9286662960D+01  0.4679413484D+00
      0.3163926960D+01  0.3623119853D+00
 SP   3 1.00       0.000000000000
      0.7868272350D+01 -0.1193324198D+00  0.6899906659D-01
      0.1881288540D+01 -0.1608541517D+00  0.3164239610D+00
      0.5442492580D+00  0.1143456438D+01  0.7443082909D+00
 SP   1 1.00       0.000000000000
      0.1687144782D+00  0.1000000000D+01  0.1000000000D+01
 D   1 1.00       0.000000000000
      0.8000000000D+00  0.1000000000D+01
 ****
     35 0
 S   3 1.00       0.000000000000
      0.1873113696D+02  0.3349460434D-01
      0.2825394365D+01  0.2347269535D+00
      0.6401216923D+00  0.8137573261D+00
 S   1 1.00       0.000000000000
      0.1612777588D+00  0.1000000000D+01
 ****
     36 0
 S   3 1.00       0.000000000000
      0.1873113696D+02  0.3349460434D-01
      0.2825394365D+01  0.2347269535D+00
      0.6401216923D+00  0.8137573261D+00
 S   1 1.00       0.000000000000
      0.1612777588D+00  0.1000000000D+01
 ****
     37 0
 S   6 1.00       0.000000000000
      0.3047524880D+04  0.1834737132D-02
      0.4573695180D+03  0.1403732281D-01
      0.1039486850D+03  0.6884262226D-01
      0.2921015530D+02  0.2321844432D+00
      0.9286662960D+01  0.4679413484D+00
      0.3163926960D+01  0.3623119853D+00
 SP   3 1.00       0.000000000000
      0.7868272350D+01 -0.1193324198D+00  0.6899906659D-01
      0.1881288540D+01 -0.1608541517D+00  0.3164239610D+00
      0.5442492580D+00  0.1143456438D+01  0.7443082909D+00
 SP   1 1.00       0.000000000000
      0.1687144782D+00  0.1000000000D+01  0.1000000000D+01
 D   1 1.00       0.000000000000
      0.8000000000D+00  0.1000000000D+01
 ****
     38 0
 S   3 1.00       0.000000000000
      0.1873113696D+02  0.3349460434D-01
      0.2825394365D+01  0.2347269535D+00
      0.6401216923D+00  0.8137573261D+00
 S   1 1.00       0.000000000000
      0.1612777588D+00  0.1000000000D+01
 ****
     39 0
 S   6 1.00       0.000000000000
      0.3047524880D+04  0.1834737132D-02
      0.4573695180D+03  0.1403732281D-01
      0.1039486850D+03  0.6884262226D-01
      0.2921015530D+02  0.2321844432D+00
      0.9286662960D+01  0.4679413484D+00
      0.3163926960D+01  0.3623119853D+00
 SP   3 1.00       0.000000000000
      0.7868272350D+01 -0.1193324198D+00  0.6899906659D-01
      0.1881288540D+01 -0.1608541517D+00  0.3164239610D+00
      0.5442492580D+00  0.1143456438D+01  0.7443082909D+00
 SP   1 1.00       0.000000000000
      0.1687144782D+00  0.1000000000D+01  0.1000000000D+01
 D   1 1.00       0.000000000000
      0.8000000000D+00  0.1000000000D+01
 ****
     40 0
 S   3 1.00       0.000000000000
      0.1873113696D+02  0.3349460434D-01
      0.2825394365D+01  0.2347269535D+00
      0.6401216923D+00  0.8137573261D+00
 S   1 1.00       0.000000000000
      0.1612777588D+00  0.1000000000D+01
 ****
     41 0
 S   3 1.00       0.000000000000
      0.1873113696D+02  0.3349460434D-01
      0.2825394365D+01  0.2347269535D+00
      0.6401216923D+00  0.8137573261D+00
 S   1 1.00       0.000000000000
      0.1612777588D+00  0.1000000000D+01
 ****
     42 0
 S   3 1.00       0.000000000000
      0.1873113696D+02  0.3349460434D-01
      0.2825394365D+01  0.2347269535D+00
      0.6401216923D+00  0.8137573261D+00
 S   1 1.00       0.000000000000
      0.1612777588D+00  0.1000000000D+01
 ****
     43 0
 S   6 1.00       0.000000000000
      0.3047524880D+04  0.1834737132D-02
      0.4573695180D+03  0.1403732281D-01
      0.1039486850D+03  0.6884262226D-01
      0.2921015530D+02  0.2321844432D+00
      0.9286662960D+01  0.4679413484D+00
      0.3163926960D+01  0.3623119853D+00
 SP   3 1.00       0.000000000000
      0.7868272350D+01 -0.1193324198D+00  0.6899906659D-01
      0.1881288540D+01 -0.1608541517D+00  0.3164239610D+00
      0.5442492580D+00  0.1143456438D+01  0.7443082909D+00
 SP   1 1.00       0.000000000000
      0.1687144782D+00  0.1000000000D+01  0.1000000000D+01
 D   1 1.00       0.000000000000
      0.8000000000D+00  0.1000000000D+01
 ****
     44 0
 S   3 1.00       0.000000000000
      0.1873113696D+02  0.3349460434D-01
      0.2825394365D+01  0.2347269535D+00
      0.6401216923D+00  0.8137573261D+00
 S   1 1.00       0.000000000000
      0.1612777588D+00  0.1000000000D+01
 ****
     45 0
 S   6 1.00       0.000000000000
      0.3047524880D+04  0.1834737132D-02
      0.4573695180D+03  0.1403732281D-01
      0.1039486850D+03  0.6884262226D-01
      0.2921015530D+02  0.2321844432D+00
      0.9286662960D+01  0.4679413484D+00
      0.3163926960D+01  0.3623119853D+00
 SP   3 1.00       0.000000000000
      0.7868272350D+01 -0.1193324198D+00  0.6899906659D-01
      0.1881288540D+01 -0.1608541517D+00  0.3164239610D+00
      0.5442492580D+00  0.1143456438D+01  0.7443082909D+00
 SP   1 1.00       0.000000000000
      0.1687144782D+00  0.1000000000D+01  0.1000000000D+01
 D   1 1.00       0.000000000000
      0.8000000000D+00  0.1000000000D+01
 ****
     46 0
 S   3 1.00       0.000000000000
      0.1873113696D+02  0.3349460434D-01
      0.2825394365D+01  0.2347269535D+00
      0.6401216923D+00  0.8137573261D+00
 S   1 1.00       0.000000000000
      0.1612777588D+00  0.1000000000D+01
 ****
     47 0
 S   3 1.00       0.000000000000
      0.1873113696D+02  0.3349460434D-01
      0.2825394365D+01  0.2347269535D+00
      0.6401216923D+00  0.8137573261D+00
 S   1 1.00       0.000000000000
      0.1612777588D+00  0.1000000000D+01
 ****
     48 0
 S   3 1.00       0.000000000000
      0.1873113696D+02  0.3349460434D-01
      0.2825394365D+01  0.2347269535D+00
      0.6401216923D+00  0.8137573261D+00
 S   1 1.00       0.000000000000
      0.1612777588D+00  0.1000000000D+01
 ****
     49 0
 S   6 1.00       0.000000000000
      0.3047524880D+04  0.1834737132D-02
      0.4573695180D+03  0.1403732281D-01
      0.1039486850D+03  0.6884262226D-01
      0.2921015530D+02  0.2321844432D+00
      0.9286662960D+01  0.4679413484D+00
      0.3163926960D+01  0.3623119853D+00
 SP   3 1.00       0.000000000000
      0.7868272350D+01 -0.1193324198D+00  0.6899906659D-01
      0.1881288540D+01 -0.1608541517D+00  0.3164239610D+00
      0.5442492580D+00  0.1143456438D+01  0.7443082909D+00
 SP   1 1.00       0.000000000000
      0.1687144782D+00  0.1000000000D+01  0.1000000000D+01
 D   1 1.00       0.000000000000
      0.8000000000D+00  0.1000000000D+01
 ****
     50 0
 S   3 1.00       0.000000000000
      0.1873113696D+02  0.3349460434D-01
      0.2825394365D+01  0.2347269535D+00
      0.6401216923D+00  0.8137573261D+00
 S   1 1.00       0.000000000000
      0.1612777588D+00  0.1000000000D+01
 ****
     51 0
 S   3 1.00       0.000000000000
      0.1873113696D+02  0.3349460434D-01
      0.2825394365D+01  0.2347269535D+00
      0.6401216923D+00  0.8137573261D+00
 S   1 1.00       0.000000000000
      0.1612777588D+00  0.1000000000D+01
 ****
     52 0
 S   3 1.00       0.000000000000
      0.1873113696D+02  0.3349460434D-01
      0.2825394365D+01  0.2347269535D+00
      0.6401216923D+00  0.8137573261D+00
 S   1 1.00       0.000000000000
      0.1612777588D+00  0.1000000000D+01
 ****
     53 0
 S   6 1.00       0.000000000000
      0.5484671660D+04  0.1831074430D-02
      0.8252349460D+03  0.1395017220D-01
      0.1880469580D+03  0.6844507810D-01
      0.5296450000D+02  0.2327143360D+00
      0.1689757040D+02  0.4701928980D+00
      0.5799635340D+01  0.3585208530D+00
 SP   3 1.00       0.000000000000
      0.1553961625D+02 -0.1107775495D+00  0.7087426823D-01
      0.3599933586D+01 -0.1480262627D+00  0.3397528391D+00
      0.1013761750D+01  0.1130767015D+01  0.7271585773D+00
 SP   1 1.00       0.000000000000
      0.2700058226D+00  0.1000000000D+01  0.1000000000D+01
 D   1 1.00       0.000000000000
      0.8000000000D+00  0.1000000000D+01
 ****
     54 0
 S   6 1.00       0.000000000000
      0.5484671660D+04  0.1831074430D-02
      0.8252349460D+03  0.1395017220D-01
      0.1880469580D+03  0.6844507810D-01
      0.5296450000D+02  0.2327143360D+00
      0.1689757040D+02  0.4701928980D+00
      0.5799635340D+01  0.3585208530D+00
 SP   3 1.00       0.000000000000
      0.1553961625D+02 -0.1107775495D+00  0.7087426823D-01
      0.3599933586D+01 -0.1480262627D+00  0.3397528391D+00
      0.1013761750D+01  0.1130767015D+01  0.7271585773D+00
 SP   1 1.00       0.000000000000
      0.2700058226D+00  0.1000000000D+01  0.1000000000D+01
 D   1 1.00       0.000000000000
      0.8000000000D+00  0.1000000000D+01
 ****
     55 0
 S   3 1.00       0.000000000000
      0.1873113696D+02  0.3349460434D-01
      0.2825394365D+01  0.2347269535D+00
      0.6401216923D+00  0.8137573261D+00
 S   1 1.00       0.000000000000
      0.1612777588D+00  0.1000000000D+01
 ****
     56 0
 S   6 1.00       0.000000000000
      0.5484671660D+04  0.1831074430D-02
      0.8252349460D+03  0.1395017220D-01
      0.1880469580D+03  0.6844507810D-01
      0.5296450000D+02  0.2327143360D+00
      0.1689757040D+02  0.4701928980D+00
      0.5799635340D+01  0.3585208530D+00
 SP   3 1.00       0.000000000000
      0.1553961625D+02 -0.1107775495D+00  0.7087426823D-01
      0.3599933586D+01 -0.1480262627D+00  0.3397528391D+00
      0.1013761750D+01  0.1130767015D+01  0.7271585773D+00
 SP   1 1.00       0.000000000000
      0.2700058226D+00  0.1000000000D+01  0.1000000000D+01
 D   1 1.00       0.000000000000
      0.8000000000D+00  0.1000000000D+01
 ****
     57 0
 S   3 1.00       0.000000000000
      0.1873113696D+02  0.3349460434D-01
      0.2825394365D+01  0.2347269535D+00
      0.6401216923D+00  0.8137573261D+00
 S   1 1.00       0.000000000000
      0.1612777588D+00  0.1000000000D+01
 ****
     58 0
 S   6 1.00       0.000000000000
      0.3047524880D+04  0.1834737132D-02
      0.4573695180D+03  0.1403732281D-01
      0.1039486850D+03  0.6884262226D-01
      0.2921015530D+02  0.2321844432D+00
      0.9286662960D+01  0.4679413484D+00
      0.3163926960D+01  0.3623119853D+00
 SP   3 1.00       0.000000000000
      0.7868272350D+01 -0.1193324198D+00  0.6899906659D-01
      0.1881288540D+01 -0.1608541517D+00  0.3164239610D+00
      0.5442492580D+00  0.1143456438D+01  0.7443082909D+00
 SP   1 1.00       0.000000000000
      0.1687144782D+00  0.1000000000D+01  0.1000000000D+01
 D   1 1.00       0.000000000000
      0.8000000000D+00  0.1000000000D+01
 ****
     59 0
 S   3 1.00       0.000000000000
      0.1873113696D+02  0.3349460434D-01
      0.2825394365D+01  0.2347269535D+00
      0.6401216923D+00  0.8137573261D+00
 S   1 1.00       0.000000000000
      0.1612777588D+00  0.1000000000D+01
 ****
     60 0
 S   3 1.00       0.000000000000
      0.1873113696D+02  0.3349460434D-01
      0.2825394365D+01  0.2347269535D+00
      0.6401216923D+00  0.8137573261D+00
 S   1 1.00       0.000000000000
      0.1612777588D+00  0.1000000000D+01
 ****
     61 0
 S   6 1.00       0.000000000000
      0.3047524880D+04  0.1834737132D-02
      0.4573695180D+03  0.1403732281D-01
      0.1039486850D+03  0.6884262226D-01
      0.2921015530D+02  0.2321844432D+00
      0.9286662960D+01  0.4679413484D+00
      0.3163926960D+01  0.3623119853D+00
 SP   3 1.00       0.000000000000
      0.7868272350D+01 -0.1193324198D+00  0.6899906659D-01
      0.1881288540D+01 -0.1608541517D+00  0.3164239610D+00
      0.5442492580D+00  0.1143456438D+01  0.7443082909D+00
 SP   1 1.00       0.000000000000
      0.1687144782D+00  0.1000000000D+01  0.1000000000D+01
 D   1 1.00       0.000000000000
      0.8000000000D+00  0.1000000000D+01
 ****
     62 0
 S   3 1.00       0.000000000000
      0.1873113696D+02  0.3349460434D-01
      0.2825394365D+01  0.2347269535D+00
      0.6401216923D+00  0.8137573261D+00
 S   1 1.00       0.000000000000
      0.1612777588D+00  0.1000000000D+01
 ****
     63 0
 S   3 1.00       0.000000000000
      0.1873113696D+02  0.3349460434D-01
      0.2825394365D+01  0.2347269535D+00
      0.6401216923D+00  0.8137573261D+00
 S   1 1.00       0.000000000000
      0.1612777588D+00  0.1000000000D+01
 ****
     64 0
 S   6 1.00       0.000000000000
      0.3047524880D+04  0.1834737132D-02
      0.4573695180D+03  0.1403732281D-01
      0.1039486850D+03  0.6884262226D-01
      0.2921015530D+02  0.2321844432D+00
      0.9286662960D+01  0.4679413484D+00
      0.3163926960D+01  0.3623119853D+00
 SP   3 1.00       0.000000000000
      0.7868272350D+01 -0.1193324198D+00  0.6899906659D-01
      0.1881288540D+01 -0.1608541517D+00  0.3164239610D+00
      0.5442492580D+00  0.1143456438D+01  0.7443082909D+00
 SP   1 1.00       0.000000000000
      0.1687144782D+00  0.1000000000D+01  0.1000000000D+01
 D   1 1.00       0.000000000000
      0.8000000000D+00  0.1000000000D+01
 ****
     65 0
 S   3 1.00       0.000000000000
      0.1873113696D+02  0.3349460434D-01
      0.2825394365D+01  0.2347269535D+00
      0.6401216923D+00  0.8137573261D+00
 S   1 1.00       0.000000000000
      0.1612777588D+00  0.1000000000D+01
 ****
     66 0
 S   3 1.00       0.000000000000
      0.1873113696D+02  0.3349460434D-01
      0.2825394365D+01  0.2347269535D+00
      0.6401216923D+00  0.8137573261D+00
 S   1 1.00       0.000000000000
      0.1612777588D+00  0.1000000000D+01
 ****
     67 0
 S   6 1.00       0.000000000000
      0.3047524880D+04  0.1834737132D-02
      0.4573695180D+03  0.1403732281D-01
      0.1039486850D+03  0.6884262226D-01
      0.2921015530D+02  0.2321844432D+00
      0.9286662960D+01  0.4679413484D+00
      0.3163926960D+01  0.3623119853D+00
 SP   3 1.00       0.000000000000
      0.7868272350D+01 -0.1193324198D+00  0.6899906659D-01
      0.1881288540D+01 -0.1608541517D+00  0.3164239610D+00
      0.5442492580D+00  0.1143456438D+01  0.7443082909D+00
 SP   1 1.00       0.000000000000
      0.1687144782D+00  0.1000000000D+01  0.1000000000D+01
 D   1 1.00       0.000000000000
      0.8000000000D+00  0.1000000000D+01
 ****
     68 0
 S   3 1.00       0.000000000000
      0.1873113696D+02  0.3349460434D-01
      0.2825394365D+01  0.2347269535D+00
      0.6401216923D+00  0.8137573261D+00
 S   1 1.00       0.000000000000
      0.1612777588D+00  0.1000000000D+01
 ****
     69 0
 S   6 1.00       0.000000000000
      0.3047524880D+04  0.1834737132D-02
      0.4573695180D+03  0.1403732281D-01
      0.1039486850D+03  0.6884262226D-01
      0.2921015530D+02  0.2321844432D+00
      0.9286662960D+01  0.4679413484D+00
      0.3163926960D+01  0.3623119853D+00
 SP   3 1.00       0.000000000000
      0.7868272350D+01 -0.1193324198D+00  0.6899906659D-01
      0.1881288540D+01 -0.1608541517D+00  0.3164239610D+00
      0.5442492580D+00  0.1143456438D+01  0.7443082909D+00
 SP   1 1.00       0.000000000000
      0.1687144782D+00  0.1000000000D+01  0.1000000000D+01
 D   1 1.00       0.000000000000
      0.8000000000D+00  0.1000000000D+01
 ****
     70 0
 S   3 1.00       0.000000000000
      0.1873113696D+02  0.3349460434D-01
      0.2825394365D+01  0.2347269535D+00
      0.6401216923D+00  0.8137573261D+00
 S   1 1.00       0.000000000000
      0.1612777588D+00  0.1000000000D+01
 ****
     71 0
 S   3 1.00       0.000000000000
      0.1873113696D+02  0.3349460434D-01
      0.2825394365D+01  0.2347269535D+00
      0.6401216923D+00  0.8137573261D+00
 S   1 1.00       0.000000000000
      0.1612777588D+00  0.1000000000D+01
 ****
     72 0
 S   3 1.00       0.000000000000
      0.1873113696D+02  0.3349460434D-01
      0.2825394365D+01  0.2347269535D+00
      0.6401216923D+00  0.8137573261D+00
 S   1 1.00       0.000000000000
      0.1612777588D+00  0.1000000000D+01
 ****
     73 0
 S   6 1.00       0.000000000000
      0.3047524880D+04  0.1834737132D-02
      0.4573695180D+03  0.1403732281D-01
      0.1039486850D+03  0.6884262226D-01
      0.2921015530D+02  0.2321844432D+00
      0.9286662960D+01  0.4679413484D+00
      0.3163926960D+01  0.3623119853D+00
 SP   3 1.00       0.000000000000
      0.7868272350D+01 -0.1193324198D+00  0.6899906659D-01
      0.1881288540D+01 -0.1608541517D+00  0.3164239610D+00
      0.5442492580D+00  0.1143456438D+01  0.7443082909D+00
 SP   1 1.00       0.000000000000
      0.1687144782D+00  0.1000000000D+01  0.1000000000D+01
 D   1 1.00       0.000000000000
      0.8000000000D+00  0.1000000000D+01
 ****
     74 0
 S   3 1.00       0.000000000000
      0.1873113696D+02  0.3349460434D-01
      0.2825394365D+01  0.2347269535D+00
      0.6401216923D+00  0.8137573261D+00
 S   1 1.00       0.000000000000
      0.1612777588D+00  0.1000000000D+01
 ****
     75 0
 S   3 1.00       0.000000000000
      0.1873113696D+02  0.3349460434D-01
      0.2825394365D+01  0.2347269535D+00
      0.6401216923D+00  0.8137573261D+00
 S   1 1.00       0.000000000000
      0.1612777588D+00  0.1000000000D+01
 ****
     76 0
 S   3 1.00       0.000000000000
      0.1873113696D+02  0.3349460434D-01
      0.2825394365D+01  0.2347269535D+00
      0.6401216923D+00  0.8137573261D+00
 S   1 1.00       0.000000000000
      0.1612777588D+00  0.1000000000D+01
 ****

 AO basis set (Overlap normalization):
 Atom C1       Shell     1 S   6     bf    1 -     1          3.322851497488         -2.359801253208          0.108363793960
      0.3047524880D+04  0.1834737132D-02
      0.4573695180D+03  0.1403732281D-01
      0.1039486850D+03  0.6884262226D-01
      0.2921015530D+02  0.2321844432D+00
      0.9286662960D+01  0.4679413484D+00
      0.3163926960D+01  0.3623119853D+00
 Atom C1       Shell     2 SP   3    bf    2 -     5          3.322851497488         -2.359801253208          0.108363793960
      0.7868272350D+01 -0.1193324198D+00  0.6899906659D-01
      0.1881288540D+01 -0.1608541517D+00  0.3164239610D+00
      0.5442492580D+00  0.1143456438D+01  0.7443082909D+00
 Atom C1       Shell     3 SP   1    bf    6 -     9          3.322851497488         -2.359801253208          0.108363793960
      0.1687144782D+00  0.1000000000D+01  0.1000000000D+01
 Atom C1       Shell     4 D   1     bf   10 -    15          3.322851497488         -2.359801253208          0.108363793960
      0.8000000000D+00  0.1000000000D+01
 Atom H2       Shell     5 S   3     bf   16 -    16          3.559299946078         -2.287258918851         -1.949711898494
      0.1873113696D+02  0.3349460434D-01
      0.2825394365D+01  0.2347269535D+00
      0.6401216923D+00  0.8137573261D+00
 Atom H2       Shell     6 S   1     bf   17 -    17          3.559299946078         -2.287258918851         -1.949711898494
      0.1612777588D+00  0.1000000000D+01
 Atom C3       Shell     7 S   6     bf   18 -    18          5.946112887938         -2.380415255140          1.354823315067
      0.3047524880D+04  0.1834737132D-02
      0.4573695180D+03  0.1403732281D-01
      0.1039486850D+03  0.6884262226D-01
      0.2921015530D+02  0.2321844432D+00
      0.9286662960D+01  0.4679413484D+00
      0.3163926960D+01  0.3623119853D+00
 Atom C3       Shell     8 SP   3    bf   19 -    22          5.946112887938         -2.380415255140          1.354823315067
      0.7868272350D+01 -0.1193324198D+00  0.6899906659D-01
      0.1881288540D+01 -0.1608541517D+00  0.3164239610D+00
      0.5442492580D+00  0.1143456438D+01  0.7443082909D+00
 Atom C3       Shell     9 SP   1    bf   23 -    26          5.946112887938         -2.380415255140          1.354823315067
      0.1687144782D+00  0.1000000000D+01  0.1000000000D+01
 Atom C3       Shell    10 D   1     bf   27 -    32          5.946112887938         -2.380415255140          1.354823315067
      0.8000000000D+00  0.1000000000D+01
 Atom H4       Shell    11 S   3     bf   33 -    33          7.040976726734         -3.985876367616          0.646904807016
      0.1873113696D+02  0.3349460434D-01
      0.2825394365D+01  0.2347269535D+00
      0.6401216923D+00  0.8137573261D+00
 Atom H4       Shell    12 S   1     bf   34 -    34          7.040976726734         -3.985876367616          0.646904807016
      0.1612777588D+00  0.1000000000D+01
 Atom H5       Shell    13 S   3     bf   35 -    35          5.674647322777         -2.697360178839          3.393891159420
      0.1873113696D+02  0.3349460434D-01
      0.2825394365D+01  0.2347269535D+00
      0.6401216923D+00  0.8137573261D+00
 Atom H5       Shell    14 S   1     bf   36 -    36          5.674647322777         -2.697360178839          3.393891159420
      0.1612777588D+00  0.1000000000D+01
 Atom C6       Shell    15 S   6     bf   37 -    37          7.380162347517          0.065849415724          0.925298637303
      0.3047524880D+04  0.1834737132D-02
      0.4573695180D+03  0.1403732281D-01
      0.1039486850D+03  0.6884262226D-01
      0.2921015530D+02  0.2321844432D+00
      0.9286662960D+01  0.4679413484D+00
      0.3163926960D+01  0.3623119853D+00
 Atom C6       Shell    16 SP   3    bf   38 -    41          7.380162347517          0.065849415724          0.925298637303
      0.7868272350D+01 -0.1193324198D+00  0.6899906659D-01
      0.1881288540D+01 -0.1608541517D+00  0.3164239610D+00
      0.5442492580D+00  0.1143456438D+01  0.7443082909D+00
 Atom C6       Shell    17 SP   1    bf   42 -    45          7.380162347517          0.065849415724          0.925298637303
      0.1687144782D+00  0.1000000000D+01  0.1000000000D+01
 Atom C6       Shell    18 D   1     bf   46 -    51          7.380162347517          0.065849415724          0.925298637303
      0.8000000000D+00  0.1000000000D+01
 Atom C7       Shell    19 S   6     bf   52 -    52          5.997087399996          2.521424049148          1.603490468270
      0.3047524880D+04  0.1834737132D-02
      0.4573695180D+03  0.1403732281D-01
      0.1039486850D+03  0.6884262226D-01
      0.2921015530D+02  0.2321844432D+00
      0.9286662960D+01  0.4679413484D+00
      0.3163926960D+01  0.3623119853D+00
 Atom C7       Shell    20 SP   3    bf   53 -    56          5.997087399996          2.521424049148          1.603490468270
      0.7868272350D+01 -0.1193324198D+00  0.6899906659D-01
      0.1881288540D+01 -0.1608541517D+00  0.3164239610D+00
      0.5442492580D+00  0.1143456438D+01  0.7443082909D+00
 Atom C7       Shell    21 SP   1    bf   57 -    60          5.997087399996          2.521424049148          1.603490468270
      0.1687144782D+00  0.1000000000D+01  0.1000000000D+01
 Atom C7       Shell    22 D   1     bf   61 -    66          5.997087399996          2.521424049148          1.603490468270
      0.8000000000D+00  0.1000000000D+01
 Atom C8       Shell    23 S   6     bf   67 -    67          3.295707168959          2.405964125689          0.428071875211
      0.3047524880D+04  0.1834737132D-02
      0.4573695180D+03  0.1403732281D-01
      0.1039486850D+03  0.6884262226D-01
      0.2921015530D+02  0.2321844432D+00
      0.9286662960D+01  0.4679413484D+00
      0.3163926960D+01  0.3623119853D+00
 Atom C8       Shell    24 SP   3    bf   68 -    71          3.295707168959          2.405964125689          0.428071875211
      0.7868272350D+01 -0.1193324198D+00  0.6899906659D-01
      0.1881288540D+01 -0.1608541517D+00  0.3164239610D+00
      0.5442492580D+00  0.1143456438D+01  0.7443082909D+00
 Atom C8       Shell    25 SP   1    bf   72 -    75          3.295707168959          2.405964125689          0.428071875211
      0.1687144782D+00  0.1000000000D+01  0.1000000000D+01
 Atom C8       Shell    26 D   1     bf   76 -    81          3.295707168959          2.405964125689          0.428071875211
      0.8000000000D+00  0.1000000000D+01
 Atom H9       Shell    27 S   3     bf   82 -    82          3.475644566970          2.619408975858         -1.628961519898
      0.1873113696D+02  0.3349460434D-01
      0.2825394365D+01  0.2347269535D+00
      0.6401216923D+00  0.8137573261D+00
 Atom H9       Shell    28 S   1     bf   83 -    83          3.475644566970          2.619408975858         -1.628961519898
      0.1612777588D+00  0.1000000000D+01
 Atom H10      Shell    29 S   3     bf   84 -    84          2.190339835475          4.025300911344          1.091596993641
      0.1873113696D+02  0.3349460434D-01
      0.2825394365D+01  0.2347269535D+00
      0.6401216923D+00  0.8137573261D+00
 Atom H10      Shell    30 S   1     bf   85 -    85          2.190339835475          4.025300911344          1.091596993641
      0.1612777588D+00  0.1000000000D+01
 Atom C11      Shell    31 S   6     bf   86 -    86          1.829803125082         -0.041397134352          0.968935890807
      0.3047524880D+04  0.1834737132D-02
      0.4573695180D+03  0.1403732281D-01
      0.1039486850D+03  0.6884262226D-01
      0.2921015530D+02  0.2321844432D+00
      0.9286662960D+01  0.4679413484D+00
      0.3163926960D+01  0.3623119853D+00
 Atom C11      Shell    32 SP   3    bf   87 -    90          1.829803125082         -0.041397134352          0.968935890807
      0.7868272350D+01 -0.1193324198D+00  0.6899906659D-01
      0.1881288540D+01 -0.1608541517D+00  0.3164239610D+00
      0.5442492580D+00  0.1143456438D+01  0.7443082909D+00
 Atom C11      Shell    33 SP   1    bf   91 -    94          1.829803125082         -0.041397134352          0.968935890807
      0.1687144782D+00  0.1000000000D+01  0.1000000000D+01
 Atom C11      Shell    34 D   1     bf   95 -   100          1.829803125082         -0.041397134352          0.968935890807
      0.8000000000D+00  0.1000000000D+01
 Atom H12      Shell    35 S   3     bf  101 -   101          1.422896295943         -0.212418880056          3.000372869857
      0.1873113696D+02  0.3349460434D-01
      0.2825394365D+01  0.2347269535D+00
      0.6401216923D+00  0.8137573261D+00
 Atom H12      Shell    36 S   1     bf  102 -   102          1.422896295943         -0.212418880056          3.000372869857
      0.1612777588D+00  0.1000000000D+01
 Atom H13      Shell    37 S   3     bf  103 -   103          0.000000000000          0.000000000000          0.000000000000
      0.1873113696D+02  0.3349460434D-01
      0.2825394365D+01  0.2347269535D+00
      0.6401216923D+00  0.8137573261D+00
 Atom H13      Shell    38 S   1     bf  104 -   104          0.000000000000          0.000000000000          0.000000000000
      0.1612777588D+00  0.1000000000D+01
 Atom C14      Shell    39 S   6     bf  105 -   105          9.740511980352          0.000000000000          0.000000000000
      0.3047524880D+04  0.1834737132D-02
      0.4573695180D+03  0.1403732281D-01
      0.1039486850D+03  0.6884262226D-01
      0.2921015530D+02  0.2321844432D+00
      0.9286662960D+01  0.4679413484D+00
      0.3163926960D+01  0.3623119853D+00
 Atom C14      Shell    40 SP   3    bf  106 -   109          9.740511980352          0.000000000000          0.000000000000
      0.7868272350D+01 -0.1193324198D+00  0.6899906659D-01
      0.1881288540D+01 -0.1608541517D+00  0.3164239610D+00
      0.5442492580D+00  0.1143456438D+01  0.7443082909D+00
 Atom C14      Shell    41 SP   1    bf  110 -   113          9.740511980352          0.000000000000          0.000000000000
      0.1687144782D+00  0.1000000000D+01  0.1000000000D+01
 Atom C14      Shell    42 D   1     bf  114 -   119          9.740511980352          0.000000000000          0.000000000000
      0.8000000000D+00  0.1000000000D+01
 Atom H15      Shell    43 S   3     bf  120 -   120         10.591152394740         -1.820428779552         -0.439451465832
      0.1873113696D+02  0.3349460434D-01
      0.2825394365D+01  0.2347269535D+00
      0.6401216923D+00  0.8137573261D+00
 Atom H15      Shell    44 S   1     bf  121 -   121         10.591152394740         -1.820428779552         -0.439451465832
      0.1612777588D+00  0.1000000000D+01
 Atom C16      Shell    45 S   6     bf  122 -   122         11.345599758533          2.285957672333         -0.499038385844
      0.3047524880D+04  0.1834737132D-02
      0.4573695180D+03  0.1403732281D-01
      0.1039486850D+03  0.6884262226D-01
      0.2921015530D+02  0.2321844432D+00
      0.9286662960D+01  0.4679413484D+00
      0.3163926960D+01  0.3623119853D+00
 Atom C16      Shell    46 SP   3    bf  123 -   126         11.345599758533          2.285957672333         -0.499038385844
      0.7868272350D+01 -0.1193324198D+00  0.6899906659D-01
      0.1881288540D+01 -0.1608541517D+00  0.3164239610D+00
      0.5442492580D+00  0.1143456438D+01  0.7443082909D+00
 Atom C16      Shell    47 SP   1    bf  127 -   130         11.345599758533          2.285957672333         -0.499038385844
      0.1687144782D+00  0.1000000000D+01  0.1000000000D+01
 Atom C16      Shell    48 D   1     bf  131 -   136         11.345599758533          2.285957672333         -0.499038385844
      0.8000000000D+00  0.1000000000D+01
 Atom H17      Shell    49 S   3     bf  137 -   137         13.297509030575          1.933832378622          0.106485122725
      0.1873113696D+02  0.3349460434D-01
      0.2825394365D+01  0.2347269535D+00
      0.6401216923D+00  0.8137573261D+00
 Atom H17      Shell    50 S   1     bf  138 -   138         13.297509030575          1.933832378622          0.106485122725
      0.1612777588D+00  0.1000000000D+01
 Atom C18      Shell    51 S   6     bf  139 -   139         10.327844645015          4.676111820071          0.810352341407
      0.3047524880D+04  0.1834737132D-02
      0.4573695180D+03  0.1403732281D-01
      0.1039486850D+03  0.6884262226D-01
      0.2921015530D+02  0.2321844432D+00
      0.9286662960D+01  0.4679413484D+00
      0.3163926960D+01  0.3623119853D+00
 Atom C18      Shell    52 SP   3    bf  140 -   143         10.327844645015          4.676111820071          0.810352341407
      0.7868272350D+01 -0.1193324198D+00  0.6899906659D-01
      0.1881288540D+01 -0.1608541517D+00  0.3164239610D+00
      0.5442492580D+00  0.1143456438D+01  0.7443082909D+00
 Atom C18      Shell    53 SP   1    bf  144 -   147         10.327844645015          4.676111820071          0.810352341407
      0.1687144782D+00  0.1000000000D+01  0.1000000000D+01
 Atom C18      Shell    54 D   1     bf  148 -   153         10.327844645015          4.676111820071          0.810352341407
      0.8000000000D+00  0.1000000000D+01
 Atom H19      Shell    55 S   3     bf  154 -   154         10.774986521420          4.414971000405          2.821480622679
      0.1873113696D+02  0.3349460434D-01
      0.2825394365D+01  0.2347269535D+00
      0.6401216923D+00  0.8137573261D+00
 Atom H19      Shell    56 S   1     bf  155 -   155         10.774986521420          4.414971000405          2.821480622679
      0.1612777588D+00  0.1000000000D+01
 Atom C20      Shell    57 S   6     bf  156 -   156          7.419134112864          4.869396353758          0.479461843559
      0.3047524880D+04  0.1834737132D-02
      0.4573695180D+03  0.1403732281D-01
      0.1039486850D+03  0.6884262226D-01
      0.2921015530D+02  0.2321844432D+00
      0.9286662960D+01  0.4679413484D+00
      0.3163926960D+01  0.3623119853D+00
 Atom C20      Shell    58 SP   3    bf  157 -   160          7.419134112864          4.869396353758          0.479461843559
      0.7868272350D+01 -0.1193324198D+00  0.6899906659D-01
      0.1881288540D+01 -0.1608541517D+00  0.3164239610D+00
      0.5442492580D+00  0.1143456438D+01  0.7443082909D+00
 Atom C20      Shell    59 SP   1    bf  161 -   164          7.419134112864          4.869396353758          0.479461843559
      0.1687144782D+00  0.1000000000D+01  0.1000000000D+01
 Atom C20      Shell    60 D   1     bf  165 -   170          7.419134112864          4.869396353758          0.479461843559
      0.8000000000D+00  0.1000000000D+01
 Atom H21      Shell    61 S   3     bf  171 -   171          7.082665634800          4.816856411469         -1.570975462483
      0.1873113696D+02  0.3349460434D-01
      0.2825394365D+01  0.2347269535D+00
      0.6401216923D+00  0.8137573261D+00
 Atom H21      Shell    62 S   1     bf  172 -   172          7.082665634800          4.816856411469         -1.570975462483
      0.1612777588D+00  0.1000000000D+01
 Atom C22      Shell    63 S   6     bf  173 -   173          6.370285710116          7.424067904338          1.445888820569
      0.3047524880D+04  0.1834737132D-02
      0.4573695180D+03  0.1403732281D-01
      0.1039486850D+03  0.6884262226D-01
      0.2921015530D+02  0.2321844432D+00
      0.9286662960D+01  0.4679413484D+00
      0.3163926960D+01  0.3623119853D+00
 Atom C22      Shell    64 SP   3    bf  174 -   177          6.370285710116          7.424067904338          1.445888820569
      0.7868272350D+01 -0.1193324198D+00  0.6899906659D-01
      0.1881288540D+01 -0.1608541517D+00  0.3164239610D+00
      0.5442492580D+00  0.1143456438D+01  0.7443082909D+00
 Atom C22      Shell    65 SP   1    bf  178 -   181          6.370285710116          7.424067904338          1.445888820569
      0.1687144782D+00  0.1000000000D+01  0.1000000000D+01
 Atom C22      Shell    66 D   1     bf  182 -   187          6.370285710116          7.424067904338          1.445888820569
      0.8000000000D+00  0.1000000000D+01
 Atom H23      Shell    67 S   3     bf  188 -   188          6.380956899102          7.455504896956          3.514278827229
      0.1873113696D+02  0.3349460434D-01
      0.2825394365D+01  0.2347269535D+00
      0.6401216923D+00  0.8137573261D+00
 Atom H23      Shell    68 S   1     bf  189 -   189          6.380956899102          7.455504896956          3.514278827229
      0.1612777588D+00  0.1000000000D+01
 Atom H24      Shell    69 S   3     bf  190 -   190          4.384734720874          7.608111620543          0.885405120240
      0.1873113696D+02  0.3349460434D-01
      0.2825394365D+01  0.2347269535D+00
      0.6401216923D+00  0.8137573261D+00
 Atom H24      Shell    70 S   1     bf  191 -   191          4.384734720874          7.608111620543          0.885405120240
      0.1612777588D+00  0.1000000000D+01
 Atom C25      Shell    71 S   6     bf  192 -   192          7.824906312638          9.761442870459          0.488745633413
      0.3047524880D+04  0.1834737132D-02
      0.4573695180D+03  0.1403732281D-01
      0.1039486850D+03  0.6884262226D-01
      0.2921015530D+02  0.2321844432D+00
      0.9286662960D+01  0.4679413484D+00
      0.3163926960D+01  0.3623119853D+00
 Atom C25      Shell    72 SP   3    bf  193 -   196          7.824906312638          9.761442870459          0.488745633413
      0.7868272350D+01 -0.1193324198D+00  0.6899906659D-01
      0.1881288540D+01 -0.1608541517D+00  0.3164239610D+00
      0.5442492580D+00  0.1143456438D+01  0.7443082909D+00
 Atom C25      Shell    73 SP   1    bf  197 -   200          7.824906312638          9.761442870459          0.488745633413
      0.1687144782D+00  0.1000000000D+01  0.1000000000D+01
 Atom C25      Shell    74 D   1     bf  201 -   206          7.824906312638          9.761442870459          0.488745633413
      0.8000000000D+00  0.1000000000D+01
 Atom H26      Shell    75 S   3     bf  207 -   207          7.583853697504          9.939567000655         -1.566595700916
      0.1873113696D+02  0.3349460434D-01
      0.2825394365D+01  0.2347269535D+00
      0.6401216923D+00  0.8137573261D+00
 Atom H26      Shell    76 S   1     bf  208 -   208          7.583853697504          9.939567000655         -1.566595700916
      0.1612777588D+00  0.1000000000D+01
 Atom H27      Shell    77 S   3     bf  209 -   209          6.980336227711         11.453426832477          1.333497056459
      0.1873113696D+02  0.3349460434D-01
      0.2825394365D+01  0.2347269535D+00
      0.6401216923D+00  0.8137573261D+00
 Atom H27      Shell    78 S   1     bf  210 -   210          6.980336227711         11.453426832477          1.333497056459
      0.1612777588D+00  0.1000000000D+01
 Atom C28      Shell    79 S   6     bf  211 -   211         10.667997994551          9.576995036320          1.091170444658
      0.3047524880D+04  0.1834737132D-02
      0.4573695180D+03  0.1403732281D-01
      0.1039486850D+03  0.6884262226D-01
      0.2921015530D+02  0.2321844432D+00
      0.9286662960D+01  0.4679413484D+00
      0.3163926960D+01  0.3623119853D+00
 Atom C28      Shell    80 SP   3    bf  212 -   215         10.667997994551          9.576995036320          1.091170444658
      0.7868272350D+01 -0.1193324198D+00  0.6899906659D-01
      0.1881288540D+01 -0.1608541517D+00  0.3164239610D+00
      0.5442492580D+00  0.1143456438D+01  0.7443082909D+00
 Atom C28      Shell    81 SP   1    bf  216 -   219         10.667997994551          9.576995036320          1.091170444658
      0.1687144782D+00  0.1000000000D+01  0.1000000000D+01
 Atom C28      Shell    82 D   1     bf  220 -   225         10.667997994551          9.576995036320          1.091170444658
      0.8000000000D+00  0.1000000000D+01
 Atom C29      Shell    83 S   6     bf  226 -   226         11.629304796398          7.088076317561         -0.145629061020
      0.3047524880D+04  0.1834737132D-02
      0.4573695180D+03  0.1403732281D-01
      0.1039486850D+03  0.6884262226D-01
      0.2921015530D+02  0.2321844432D+00
      0.9286662960D+01  0.4679413484D+00
      0.3163926960D+01  0.3623119853D+00
 Atom C29      Shell    84 SP   3    bf  227 -   230         11.629304796398          7.088076317561         -0.145629061020
      0.7868272350D+01 -0.1193324198D+00  0.6899906659D-01
      0.1881288540D+01 -0.1608541517D+00  0.3164239610D+00
      0.5442492580D+00  0.1143456438D+01  0.7443082909D+00
 Atom C29      Shell    85 SP   1    bf  231 -   234         11.629304796398          7.088076317561         -0.145629061020
      0.1687144782D+00  0.1000000000D+01  0.1000000000D+01
 Atom C29      Shell    86 D   1     bf  235 -   240         11.629304796398          7.088076317561         -0.145629061020
      0.8000000000D+00  0.1000000000D+01
 Atom H30      Shell    87 S   3     bf  241 -   241         11.134913776238          7.248638202353         -2.154723467850
      0.1873113696D+02  0.3349460434D-01
      0.2825394365D+01  0.2347269535D+00
      0.6401216923D+00  0.8137573261D+00
 Atom H30      Shell    88 S   1     bf  242 -   242         11.134913776238          7.248638202353         -2.154723467850
      0.1612777588D+00  0.1000000000D+01
 Atom C31      Shell    89 S   6     bf  243 -   243         14.526052700723          7.271826748271          0.000000000000
      0.3047524880D+04  0.1834737132D-02
      0.4573695180D+03  0.1403732281D-01
      0.1039486850D+03  0.6884262226D-01
      0.2921015530D+02  0.2321844432D+00
      0.9286662960D+01  0.4679413484D+00
      0.3163926960D+01  0.3623119853D+00
 Atom C31      Shell    90 SP   3    bf  244 -   247         14.526052700723          7.271826748271          0.000000000000
      0.7868272350D+01 -0.1193324198D+00  0.6899906659D-01
      0.1881288540D+01 -0.1608541517D+00  0.3164239610D+00
      0.5442492580D+00  0.1143456438D+01  0.7443082909D+00
 Atom C31      Shell    91 SP   1    bf  248 -   251         14.526052700723          7.271826748271          0.000000000000
      0.1687144782D+00  0.1000000000D+01  0.1000000000D+01
 Atom C31      Shell    92 D   1     bf  252 -   257         14.526052700723          7.271826748271          0.000000000000
      0.8000000000D+00  0.1000000000D+01
 Atom H32      Shell    93 S   3     bf  258 -   258         15.443301728310          6.128765746812         -1.456942754686
      0.1873113696D+02  0.3349460434D-01
      0.2825394365D+01  0.2347269535D+00
      0.6401216923D+00  0.8137573261D+00
 Atom H32      Shell    94 S   1     bf  259 -   259         15.443301728310          6.128765746812         -1.456942754686
      0.1612777588D+00  0.1000000000D+01
 Atom H33      Shell    95 S   3     bf  260 -   260         15.219714869164          6.593436590545          1.833092136724
      0.1873113696D+02  0.3349460434D-01
      0.2825394365D+01  0.2347269535D+00
      0.6401216923D+00  0.8137573261D+00
 Atom H33      Shell    96 S   1     bf  261 -   261         15.219714869164          6.593436590545          1.833092136724
      0.1612777588D+00  0.1000000000D+01
 Atom C34      Shell    97 S   6     bf  262 -   262         15.055237226161         10.145116915191         -0.325712270298
      0.3047524880D+04  0.1834737132D-02
      0.4573695180D+03  0.1403732281D-01
      0.1039486850D+03  0.6884262226D-01
      0.2921015530D+02  0.2321844432D+00
      0.9286662960D+01  0.4679413484D+00
      0.3163926960D+01  0.3623119853D+00
 Atom C34      Shell    98 SP   3    bf  263 -   266         15.055237226161         10.145116915191         -0.325712270298
      0.7868272350D+01 -0.1193324198D+00  0.6899906659D-01
      0.1881288540D+01 -0.1608541517D+00  0.3164239610D+00
      0.5442492580D+00  0.1143456438D+01  0.7443082909D+00
 Atom C34      Shell    99 SP   1    bf  267 -   270         15.055237226161         10.145116915191         -0.325712270298
      0.1687144782D+00  0.1000000000D+01  0.1000000000D+01
 Atom C34      Shell   100 D   1     bf  271 -   276         15.055237226161         10.145116915191         -0.325712270298
      0.8000000000D+00  0.1000000000D+01
 Atom H35      Shell   101 S   3     bf  277 -   277         16.262726210243         10.845886664871          1.200979123219
      0.1873113696D+02  0.3349460434D-01
      0.2825394365D+01  0.2347269535D+00
      0.6401216923D+00  0.8137573261D+00
 Atom H35      Shell   102 S   1     bf  278 -   278         16.262726210243         10.845886664871          1.200979123219
      0.1612777588D+00  0.1000000000D+01
 Atom H36      Shell   103 S   3     bf  279 -   279         16.061347053564         10.546286516893         -2.089668379608
      0.1873113696D+02  0.3349460434D-01
      0.2825394365D+01  0.2347269535D+00
      0.6401216923D+00  0.8137573261D+00
 Atom H36      Shell   104 S   1     bf  280 -   280         16.061347053564         10.546286516893         -2.089668379608
      0.1612777588D+00  0.1000000000D+01
 Atom C37      Shell   105 S   6     bf  281 -   281         12.430853319491         11.494598541399         -0.319622212095
      0.3047524880D+04  0.1834737132D-02
      0.4573695180D+03  0.1403732281D-01
      0.1039486850D+03  0.6884262226D-01
      0.2921015530D+02  0.2321844432D+00
      0.9286662960D+01  0.4679413484D+00
      0.3163926960D+01  0.3623119853D+00
 Atom C37      Shell   106 SP   3    bf  282 -   285         12.430853319491         11.494598541399         -0.319622212095
      0.7868272350D+01 -0.1193324198D+00  0.6899906659D-01
      0.1881288540D+01 -0.1608541517D+00  0.3164239610D+00
      0.5442492580D+00  0.1143456438D+01  0.7443082909D+00
[...]
 **** Fit      -0.002274
 **** Fit      -0.002124
 **** Fit      -0.001919
 **** Fit      -0.001689
 **** Fit      -0.001465
 **** Fit      -0.001268
 **** Fit      -0.001104
 **** Fit      -0.000970
 **** Fit      -0.002262
 **** Fit      -0.002171
 **** Fit      -0.002032
 **** Fit      -0.001861
 **** Fit      -0.001675
 **** Fit      -0.001493
 **** Fit      -0.001324
 **** Fit      -0.002002
 **** Fit      -0.001872
 **** Fit      -0.001722
 **** Fit      -0.008822
 **** Fit      -0.008190
 **** Fit      -0.007547
 **** Fit      -0.006901
 **** Fit      -0.006243
 **** Fit      -0.008857
 **** Fit      -0.008343
 **** Fit      -0.007812
 **** Fit      -0.007287
 **** Fit      -0.006764
 **** Fit      -0.006219
 **** Fit      -0.005621
 **** Fit      -0.004952
 **** Fit      -0.003442
 **** Fit      -0.002672
 **** Fit      -0.008304
 **** Fit      -0.007876
 **** Fit      -0.007453
 **** Fit      -0.007048
 **** Fit      -0.006646
 **** Fit      -0.006206
 **** Fit      -0.005685
 **** Fit      -0.005060
 **** Fit      -0.004335
 **** Fit      -0.003544
 **** Fit      -0.002742
 **** Fit      -0.001981
 **** Fit      -0.008103
 **** Fit      -0.007780
 **** Fit      -0.007448
 **** Fit      -0.007135
 **** Fit      -0.006844
 **** Fit      -0.006546
 **** Fit      -0.006192
 **** Fit      -0.005732
 **** Fit      -0.005138
 **** Fit      -0.004418
 **** Fit      -0.003611
 **** Fit      -0.002780
 **** Fit      -0.001987
 **** Fit      -0.001283
 **** Fit      -0.007535
 **** Fit      -0.007297
 **** Fit      -0.007066
 **** Fit      -0.006859
 **** Fit      -0.006668
 **** Fit      -0.006454
 **** Fit      -0.006161
 **** Fit      -0.005739
 **** Fit      -0.005163
 **** Fit      -0.004444
 **** Fit      -0.003625
 **** Fit      -0.002773
 **** Fit      -0.001957
 **** Fit      -0.001232
 **** Fit      -0.006991
 **** Fit      -0.006843
 **** Fit      -0.006715
 **** Fit      -0.006610
 **** Fit      -0.006505
 **** Fit      -0.006353
 **** Fit      -0.006097
 **** Fit      -0.005693
 **** Fit      -0.005122
 **** Fit      -0.004400
 **** Fit      -0.003573
 **** Fit      -0.002709
 **** Fit      -0.001879
 **** Fit      -0.001143
 **** Fit      -0.000532
 **** Fit      -0.006394
 **** Fit      -0.006367
 **** Fit      -0.006360
 **** Fit      -0.006334
 **** Fit      -0.006233
 **** Fit      -0.006000
 **** Fit      -0.005600
 **** Fit      -0.005022
 **** Fit      -0.004289
 **** Fit      -0.003450
 **** Fit      -0.002577
 **** Fit      -0.001742
 **** Fit      -0.001005
 **** Fit      -0.005902
 **** Fit      -0.005924
 **** Fit      -0.005994
 **** Fit      -0.006086
 **** Fit      -0.006143
 **** Fit      -0.006096
 **** Fit      -0.005885
 **** Fit      -0.005479
 **** Fit      -0.004880
 **** Fit      -0.004120
 **** Fit      -0.003257
 **** Fit      -0.002369
 **** Fit      -0.001533
 **** Fit      -0.000804
 **** Fit      -0.005304
 **** Fit      -0.005322
 **** Fit      -0.005413
 **** Fit      -0.005576
 **** Fit      -0.005772
 **** Fit      -0.005926
 **** Fit      -0.005947
 **** Fit      -0.005765
 **** Fit      -0.005349
 **** Fit      -0.004710
 **** Fit      -0.003897
 **** Fit      -0.002988
 **** Fit      -0.002076
 **** Fit      -0.001240
 **** Fit      -0.000533
 **** Fit       0.000026
 **** Fit      -0.004701
 **** Fit      -0.004674
 **** Fit      -0.004716
 **** Fit      -0.004858
 **** Fit      -0.005104
 **** Fit      -0.005408
 **** Fit      -0.005673
 **** Fit      -0.005781
 **** Fit      -0.005637
 **** Fit      -0.005203
 **** Fit      -0.004501
 **** Fit      -0.003606
 **** Fit      -0.002631
 **** Fit      -0.001688
 **** Fit      -0.000861
 **** Fit      -0.000190
 **** Fit       0.000319
 **** Fit      -0.004093
 **** Fit      -0.004057
 **** Fit      -0.004105
 **** Fit      -0.004279
 **** Fit      -0.004591
 **** Fit      -0.004994
 **** Fit      -0.005371
 **** Fit      -0.005572
 **** Fit      -0.005467
 **** Fit      -0.005006
 **** Fit      -0.004221
 **** Fit      -0.003227
 **** Fit      -0.002177
 **** Fit      -0.001211
 **** Fit      -0.000408
 **** Fit       0.000207
 **** Fit       0.000647
 **** Fit       0.000938
 **** Fit      -0.003533
 **** Fit      -0.003483
 **** Fit      -0.003528
 **** Fit      -0.003717
 **** Fit      -0.004072
 **** Fit      -0.004546
 **** Fit      -0.005012
 **** Fit      -0.005285
 **** Fit      -0.005209
 **** Fit      -0.004714
 **** Fit      -0.003847
 **** Fit      -0.002762
 **** Fit      -0.001655
 **** Fit      -0.000685
 **** Fit       0.000073
 **** Fit       0.000617
 **** Fit       0.000978
 **** Fit       0.001192
 **** Fit      -0.003042
 **** Fit      -0.002984
 **** Fit      -0.003025
 **** Fit      -0.003218
 **** Fit      -0.003588
 **** Fit      -0.004092
 **** Fit      -0.004594
 **** Fit      -0.004899
 **** Fit      -0.004831
 **** Fit      -0.004310
 **** Fit      -0.003393
 **** Fit      -0.002261
 **** Fit      -0.001138
 **** Fit      -0.000193
 **** Fit       0.000509
 **** Fit       0.000981
 **** Fit       0.001265
 **** Fit       0.001406
 **** Fit      -0.002630
 **** Fit      -0.002572
 **** Fit      -0.002614
 **** Fit      -0.002804
 **** Fit      -0.003164
 **** Fit      -0.003648
 **** Fit      -0.004128
 **** Fit      -0.004415
 **** Fit      -0.004336
 **** Fit      -0.003814
 **** Fit      -0.002909
 **** Fit      -0.001802
 **** Fit      -0.000718
 **** Fit       0.000178
 **** Fit       0.000825
 **** Fit       0.001239
 **** Fit       0.001464
 **** Fit       0.001549
 **** Fit      -0.002292
 **** Fit      -0.002242
 **** Fit      -0.002286
 **** Fit      -0.002465
 **** Fit      -0.002790
 **** Fit      -0.003216
 **** Fit      -0.003627
 **** Fit      -0.003860
 **** Fit      -0.003765
 **** Fit      -0.003276
 **** Fit      -0.002447
 **** Fit      -0.001438
 **** Fit      -0.000446
 **** Fit       0.000379
 **** Fit       0.000977
 **** Fit       0.001353
 **** Fit       0.001544
 **** Fit       0.001594
 **** Fit      -0.001966
 **** Fit      -0.002011
 **** Fit      -0.002168
 **** Fit      -0.002442
 **** Fit      -0.002787
 **** Fit      -0.003108
 **** Fit      -0.003274
 **** Fit      -0.003170
 **** Fit      -0.002745
 **** Fit      -0.002041
 **** Fit      -0.001180
 **** Fit      -0.000320
 **** Fit       0.000415
 **** Fit       0.000963
 **** Fit       0.001313
 **** Fit       0.001489
 **** Fit       0.001524
 **** Fit      -0.001719
 **** Fit      -0.001755
 **** Fit      -0.001883
 **** Fit      -0.002097
 **** Fit      -0.002358
 **** Fit      -0.002592
 **** Fit      -0.002701
 **** Fit      -0.002603
 **** Fit      -0.002261
 **** Fit      -0.001702
 **** Fit      -0.001013
 **** Fit      -0.000307
 **** Fit       0.000320
 **** Fit       0.000808
 **** Fit       0.001133
 **** Fit       0.001302
 **** Fit       0.001339
 **** Fit       0.001279
 **** Fit      -0.001592
 **** Fit      -0.001748
 **** Fit      -0.001936
 **** Fit      -0.002100
 **** Fit      -0.002172
 **** Fit      -0.002096
 **** Fit      -0.001844
 **** Fit      -0.001432
 **** Fit      -0.000916
 **** Fit      -0.000370
 **** Fit       0.000136
 **** Fit       0.000550
 **** Fit       0.000841
 **** Fit       0.001004
 **** Fit       0.001050
 **** Fit       0.001010
 **** Fit      -0.001497
 **** Fit      -0.001223
 **** Fit      -0.000867
 **** Fit      -0.000476
 **** Fit      -0.000097
 **** Fit       0.000231
 **** Fit       0.000478
 **** Fit       0.000630
 **** Fit       0.000691
 **** Fit       0.000680
 **** Fit       0.000625
 **** Fit      -0.000591
 **** Fit      -0.000333
 **** Fit      -0.000095
 **** Fit       0.000099
 **** Fit       0.000235
 **** Fit       0.000308
 **** Fit       0.000330
 **** Fit      -0.000529
 **** Fit      -0.000376
 **** Fit      -0.000236
 **** Fit      -0.000122
 **** Fit      -0.000042
 **** Fit       0.000007
 **** Fit      -0.000571
 **** Fit      -0.000481
 **** Fit      -0.000392
 **** Fit      -0.000314
 **** Fit      -0.000940
 **** Fit      -0.000648
 **** Fit      -0.000378
 **** Fit      -0.000158
 **** Fit      -0.000004
 **** Fit      -0.001139
 **** Fit      -0.000813
 **** Fit      -0.000473
 **** Fit      -0.000164
 **** Fit       0.000076
 **** Fit       0.000230
 **** Fit       0.000304
 **** Fit      -0.001406
 **** Fit      -0.001099
 **** Fit      -0.000729
 **** Fit      -0.000344
 **** Fit      -0.000001
 **** Fit       0.000255
 **** Fit       0.000405
 **** Fit       0.000461
 **** Fit       0.000451
 **** Fit      -0.001438
 **** Fit      -0.001111
 **** Fit      -0.000713
 **** Fit      -0.000297
 **** Fit       0.000070
 **** Fit       0.000335
 **** Fit       0.000478
 **** Fit       0.000518
 **** Fit       0.000491
 **** Fit       0.000431
 **** Fit      -0.001734
 **** Fit      -0.001512
 **** Fit      -0.001188
 **** Fit      -0.000787
 **** Fit      -0.000364
 **** Fit       0.000009
 **** Fit       0.000275
 **** Fit       0.000415
 **** Fit       0.000449
 **** Fit       0.000418
 **** Fit       0.000360
 **** Fit      -0.001816
 **** Fit      -0.001621
 **** Fit      -0.001326
 **** Fit      -0.000952
 **** Fit      -0.000553
 **** Fit      -0.000195
 **** Fit       0.000065
 **** Fit       0.000208
 **** Fit       0.000252
 **** Fit       0.000237
 **** Fit       0.000196
 **** Fit      -0.001747
 **** Fit      -0.001501
 **** Fit      -0.001181
 **** Fit      -0.000831
 **** Fit      -0.000509
 **** Fit      -0.000262
 **** Fit      -0.000112
 **** Fit      -0.000043
 **** Fit      -0.000027
 **** Fit      -0.000035
 **** Fit      -0.001862
 **** Fit      -0.001676
 **** Fit      -0.001424
 **** Fit      -0.001138
 **** Fit      -0.000863
 **** Fit      -0.000637
 **** Fit      -0.000478
 **** Fit      -0.000381
 **** Fit      -0.000327
 **** Fit      -0.001814
 **** Fit      -0.001628
 **** Fit      -0.001408
 **** Fit      -0.001183
 **** Fit      -0.000982
 **** Fit      -0.000820
 **** Fit      -0.000700
 **** Fit      -0.000612
 **** Fit      -0.001760
 **** Fit      -0.001596
 **** Fit      -0.001416
 **** Fit      -0.001242
 **** Fit      -0.001086
 **** Fit      -0.006495
 **** Fit      -0.006090
 **** Fit      -0.006601
 **** Fit      -0.006298
 **** Fit      -0.005967
 **** Fit      -0.005585
 **** Fit      -0.006337
 **** Fit      -0.006107
 **** Fit      -0.005840
 **** Fit      -0.005508
 **** Fit      -0.006079
 **** Fit      -0.005916
 **** Fit      -0.005702
 **** Fit      -0.005408
 **** Fit      -0.005540
 **** Fit      -0.005501
 **** Fit      -0.004255
 **** Fit      -0.003633
 **** Fit      -0.002943
 **** Fit      -0.005102
 **** Fit      -0.005170
 **** Fit      -0.005240
 **** Fit      -0.005266
 **** Fit      -0.005194
 **** Fit      -0.004981
 **** Fit      -0.004608
 **** Fit      -0.004081
 **** Fit      -0.003435
 **** Fit      -0.002722
 **** Fit      -0.002004
 **** Fit      -0.001334
 **** Fit      -0.004569
 **** Fit      -0.004649
 **** Fit      -0.004775
 **** Fit      -0.004913
 **** Fit      -0.005005
 **** Fit      -0.004986
 **** Fit      -0.004800
 **** Fit      -0.004424
 **** Fit      -0.003872
 **** Fit      -0.003191
 **** Fit      -0.002448
 **** Fit      -0.001717
 **** Fit      -0.001053
 **** Fit      -0.000491
 **** Fit      -0.004035
 **** Fit      -0.004078
 **** Fit      -0.004188
 **** Fit      -0.004361
 **** Fit      -0.004558
 **** Fit      -0.004713
 **** Fit      -0.004743
 **** Fit      -0.004581
 **** Fit      -0.004199
 **** Fit      -0.003617
 **** Fit      -0.002897
 **** Fit      -0.002124
 **** Fit      -0.001384
 **** Fit      -0.000734
 **** Fit      -0.000205
 **** Fit      -0.003559
 **** Fit      -0.003609
 **** Fit      -0.003737
 **** Fit      -0.003941
 **** Fit      -0.004181
 **** Fit      -0.004382
 **** Fit      -0.004450
 **** Fit      -0.004306
 **** Fit      -0.003917
 **** Fit      -0.003309
 **** Fit      -0.002558
 **** Fit      -0.001766
 **** Fit      -0.001029
 **** Fit      -0.000404
 **** Fit       0.000084
 **** Fit       0.000440
 **** Fit      -0.003128
 **** Fit      -0.003179
 **** Fit      -0.003314
 **** Fit      -0.003531
 **** Fit      -0.003790
 **** Fit      -0.004012
 **** Fit      -0.004098
 **** Fit      -0.003964
 **** Fit      -0.003573
 **** Fit      -0.002955
 **** Fit      -0.002195
 **** Fit      -0.001408
 **** Fit      -0.000691
 **** Fit      -0.000102
 **** Fit       0.000341
 **** Fit       0.000648
 **** Fit      -0.002750
 **** Fit      -0.002799
 **** Fit      -0.002931
 **** Fit      -0.003142
 **** Fit      -0.003395
 **** Fit      -0.003611
 **** Fit      -0.003694
 **** Fit      -0.003562
 **** Fit      -0.003180
 **** Fit      -0.002578
 **** Fit      -0.001844
 **** Fit      -0.001090
 **** Fit      -0.000412
 **** Fit       0.000134
 **** Fit       0.000533
 **** Fit       0.000796
 **** Fit      -0.002466
 **** Fit      -0.002586
 **** Fit      -0.002777
 **** Fit      -0.003002
 **** Fit      -0.003189
 **** Fit      -0.003254
 **** Fit      -0.003124
 **** Fit      -0.002766
 **** Fit      -0.002211
 **** Fit      -0.001536
 **** Fit      -0.000843
 **** Fit      -0.000222
 **** Fit       0.000276
 **** Fit       0.000635
 **** Fit       0.000864
 **** Fit      -0.002169
 **** Fit      -0.002271
 **** Fit      -0.002431
 **** Fit      -0.002615
 **** Fit      -0.002763
 **** Fit      -0.002804
 **** Fit      -0.002679
 **** Fit      -0.002362
 **** Fit      -0.001877
 **** Fit      -0.001288
 **** Fit      -0.000680
 **** Fit      -0.000129
 **** Fit       0.000317
 **** Fit       0.000640
 **** Fit      -0.002098
 **** Fit      -0.002238
 **** Fit      -0.002346
 **** Fit      -0.002367
 **** Fit      -0.002255
 **** Fit      -0.001991
 **** Fit      -0.001590
 **** Fit      -0.001103
 **** Fit      -0.000594
 **** Fit      -0.000123
 **** Fit       0.000266
 **** Fit      -0.001665
 **** Fit      -0.001355
 **** Fit      -0.000974
 **** Fit      -0.000569
 **** Fit      -0.000185
 **** Fit      -0.000610
 **** Fit      -0.000367
 **** Fit      -0.000172
 **** Fit      -0.000865
 **** Fit      -0.000584
 **** Fit      -0.000330
 **** Fit      -0.000129
 **** Fit       0.000003
 **** Fit      -0.001181
 **** Fit      -0.000911
 **** Fit      -0.000630
 **** Fit      -0.000374
 **** Fit      -0.000173
 **** Fit      -0.000040
 **** Fit       0.000029
 **** Fit      -0.001265
 **** Fit      -0.001013
 **** Fit      -0.000746
 **** Fit      -0.000499
 **** Fit      -0.000303
 **** Fit      -0.000169
 **** Fit      -0.000095
 **** Fit      -0.001151
 **** Fit      -0.000912
 **** Fit      -0.000686
 **** Fit      -0.000499
 **** Fit      -0.000364
 **** Fit      -0.000279
 **** Fit      -0.001299
 **** Fit      -0.001096
 **** Fit      -0.000897
 **** Fit      -0.000723
 **** Fit      -0.000588
 **** Fit      -0.003390
 **** Fit      -0.002858
 **** Fit      -0.002281
 **** Fit      -0.004079
 **** Fit      -0.004151
 **** Fit      -0.004180
 **** Fit      -0.004119
 **** Fit      -0.003609
 **** Fit      -0.003157
 **** Fit      -0.002613
 **** Fit      -0.002029
 **** Fit      -0.001455
 **** Fit      -0.003623
 **** Fit      -0.003720
 **** Fit      -0.003820
 **** Fit      -0.003876
 **** Fit      -0.003839
 **** Fit      -0.003669
 **** Fit      -0.003349
 **** Fit      -0.002893
 **** Fit      -0.002343
 **** Fit      -0.001758
 **** Fit      -0.001194
 **** Fit      -0.000691
 **** Fit      -0.003257
 **** Fit      -0.003365
 **** Fit      -0.003478
 **** Fit      -0.003550
 **** Fit      -0.003527
 **** Fit      -0.003368
 **** Fit      -0.003054
 **** Fit      -0.002603
 **** Fit      -0.002061
 **** Fit      -0.001488
 **** Fit      -0.000943
 **** Fit      -0.000468
 **** Fit      -0.003020
 **** Fit      -0.003133
 **** Fit      -0.003206
 **** Fit      -0.003188
 **** Fit      -0.003037
 **** Fit      -0.002736
 **** Fit      -0.002303
 **** Fit      -0.001784
 **** Fit      -0.001239
 **** Fit      -0.000726
 **** Fit      -0.000284
 **** Fit      -0.002790
 **** Fit      -0.002411
 **** Fit      -0.002010
 **** Fit      -0.001531
 **** Fit      -0.001030
 **** Fit      -0.000560
 **** Fit      -0.000157
 **** Fit      -0.002095
 **** Fit      -0.001740
 **** Fit      -0.001316
 **** Fit      -0.000872
 **** Fit      -0.000453
 -----------------------------------------------------------------
 Leave Link  602 at Fri Apr 28 12:39:32 2017, MaxMem=    33554432 cpu:        39.8
 (Enter /home/michal/g09/l9999.exe)

 Test job not archived.
 1\1\GINC-LINUX\SP\RHF\6-31G(d)\C27H46O3\MICHAL\28-Apr-2017\0\\#P HF/6-
 31G* SCF(Conver=6) NoSymm Test Pop=chelpg IOp(6/33=2) GFInput GFPrint\
 \MEP - Input generated by R.E.D.-III.x MOLECULE\\0,1\C,0,1.75837728,-1
 .24875304,0.05734365\H,0,1.88350041,-1.21036529,-1.0317431\C,0,3.14654
 742,-1.2596615,0.71694162\H,0,3.72592441,-2.10923493,0.34232728\H,0,3.
 00289403,-1.42738153,1.79596985\C,0,3.90541371,0.03484601,0.48964695\C
 ,0,3.17352197,1.33428014,0.84853061\C,0,1.74401312,1.27318138,0.226525
 88\H,0,1.83923189,1.38613153,-0.86200931\H,0,1.15907792,2.1300975,0.57
 764825\C,0,0.96829011,-0.02190642,0.51273879\H,0,0.75296429,-0.1124072
 3,1.58772894\H,0,0.,0.,0.\C,0,5.15445694,0.,0.\H,0,5.60459646,-0.96332
 942,-0.2325477\C,0,6.00383281,1.2096767,-0.26407974\H,0,7.03673871,1.0
 2334002,0.0563495\C,0,5.46526,2.4744918,0.42881999\H,0,5.70187729,2.33
 630203,1.49306324\C,0,3.92603668,2.57677357,0.25372028\H,0,3.74798523,
 2.54897063,-0.83132441\C,0,3.37101001,3.92864753,0.76513141\H,0,3.3766
 5696,3.94528327,1.85967626\H,0,2.32030168,4.02603927,0.46853621\C,0,4.
 14076208,5.16553309,0.25863305\H,0,4.01320253,5.25979232,-0.82900674\H
 ,0,3.69383484,6.06089244,0.70565625\C,0,5.6452614,5.0679275,0.57742253
 \C,0,6.15396305,3.75084844,-0.07706358\H,0,5.89234259,3.83581413,-1.14
 023055\C,0,7.68685602,3.84808498,0.\H,0,8.1722433,3.24320315,-0.770980
 9\H,0,8.05392623,3.48909637,0.97003058\C,0,7.96688841,5.36856465,-0.17
 235951\H,0,8.60586406,5.73939603,0.63553078\H,0,8.4992988,5.58085446,-
 1.10580488\C,0,6.57812426,6.08267957,-0.16913679\H,0,6.220043,6.063757
 17,-1.20961502\C,0,5.8718332,5.08808542,2.10661306\H,0,5.46981746,4.19
 66438,2.59532037\H,0,6.93200453,5.14616032,2.36645956\H,0,5.37465441,5
 .95105458,2.55936384\C,0,6.6657522,7.6000563,0.16994802\H,0,7.41947138
 ,7.96813227,-0.54311903\C,0,7.1889703,7.97567212,1.57052974\H,0,6.4206
 4739,7.86026797,2.34122163\H,0,7.51030862,9.0221338,1.58834254\H,0,8.0
 526294,7.37347927,1.86703728\C,0,3.06510672,1.41862458,2.39592653\H,0,
 2.38355359,2.21706028,2.7038621\H,0,2.68519043,0.48875163,2.82573676\H
 ,0,4.04186433,1.60768817,2.85196034\O,0,6.06213162,1.50566296,-1.68690
 918\O,0,6.79705376,0.42792033,-2.3318099\H,0,6.08043662,-0.02649086,-2
 .80502663\O,0,1.05391514,-2.47210417,0.28460974\H,0,0.88368394,-2.5605
 1448,1.23296115\C,0,5.34902076,8.3454428,-0.14784584\H,0,4.96248786,7.
 9840007,-1.1097282\H,0,4.59406299,8.07117202,0.60001598\C,0,5.43139658
 ,9.88543079,-0.18475934\H,0,4.4223765,10.2725634,-0.37595242\H,0,5.701
 42775,10.26168195,0.81013047\C,0,6.41113779,10.49079216,-1.20803869\H,
 0,7.43784744,10.20377576,-0.94332081\H,0,6.37586422,11.5860296,-1.1103
 1838\C,0,6.17266127,10.13092651,-2.68982002\H,0,6.22331463,9.03712562,
 -2.79116646\C,0,4.79229646,10.58590054,-3.18992499\H,0,4.68026575,11.6
 731531,-3.08678814\H,0,4.65863785,10.33775019,-4.24900163\H,0,3.975235
 18,10.11294317,-2.63561026\C,0,7.28638678,10.72558023,-3.56667677\H,0,
 7.28349195,11.82186899,-3.51216769\H,0,7.1581493,10.44515215,-4.618385
 61\H,0,8.27568811,10.37954994,-3.24570066\\Version=EM64L-G09RevD.01\HF
 =-1273.6766297\RMSD=5.611e-07\Dipole=-0.5256845,0.1666149,0.83553\Quad
 rupole=-8.8526038,1.4210146,7.4315892,-4.3099893,6.3528993,0.8635132\P
 G=C01 [X(C27H46O3)]\\@


 MISERY NO LONGER LOVES COMPANY.  NOWADAYS IT INSISTS ON IT.

                                              -- BAKER'S LAW
 Job cpu time:       0 days  0 hours 12 minutes 16.6 seconds.
 File lengths (MBytes):  RWF=    159 Int=      0 D2E=      0 Chk=     11 Scr=      1
 Normal termination of Gaussian 09 at Fri Apr 28 12:39:32 2017.
