 Entering Gaussian System, Link 0=/home/michal/g09/g09
 Input=JOB2-gau_m1-8-2.com
 Output=JOB2-gau_m1-8-2.log
 Initial command:
 /home/michal/g09/l1.exe "/home/michal/gauss_scratch/Gau-15055.inp" -scrdir="/home/michal/gauss_scratch/"
 Entering Link 1 = /home/michal/g09/l1.exe PID=     15056.
  
 Copyright (c) 1988,1990,1992,1993,1995,1998,2003,2009,2013,
            Gaussian, Inc.  All Rights Reserved.
  
 This is part of the Gaussian(R) 09 program.  It is based on
 the Gaussian(R) 03 system (copyright 2003, Gaussian, Inc.),
 the Gaussian(R) 98 system (copyright 1998, Gaussian, Inc.),
 the Gaussian(R) 94 system (copyright 1995, Gaussian, Inc.),
 the Gaussian 92(TM) system (copyright 1992, Gaussian, Inc.),
 the Gaussian 90(TM) system (copyright 1990, Gaussian, Inc.),
 the Gaussian 88(TM) system (copyright 1988, Gaussian, Inc.),
 the Gaussian 86(TM) system (copyright 1986, Carnegie Mellon
 University), and the Gaussian 82(TM) system (copyright 1983,
 Carnegie Mellon University). Gaussian is a federally registered
 trademark of Gaussian, Inc.
  
 This software contains proprietary and confidential information,
 including trade secrets, belonging to Gaussian, Inc.
  
 This software is provided under written license and may be
 used, copied, transmitted, or stored only in accord with that
 written license.
  
 The following legend is applicable only to US Government
 contracts under FAR:
  
                    RESTRICTED RIGHTS LEGEND
  
 Use, reproduction and disclosure by the US Government is
 subject to restrictions as set forth in subparagraphs (a)
 and (c) of the Commercial Computer Software - Restricted
 Rights clause in FAR 52.227-19.
  
 Gaussian, Inc.
 340 Quinnipiac St., Bldg. 40, Wallingford CT 06492
  
  
 ---------------------------------------------------------------
 Warning -- This program may not be used in any manner that
 competes with the business of Gaussian, Inc. or will provide
 assistance to any competitor of Gaussian, Inc.  The licensee
 of this program is prohibited from giving any competitor of
 Gaussian, Inc. access to this program.  By using this program,
 the user acknowledges that Gaussian, Inc. is engaged in the
 business of creating and licensing software in the field of
 computational chemistry and represents and warrants to the
 licensee that it is not a competitor of Gaussian, Inc. and that
 it will not use this program in any manner prohibited above.
 ---------------------------------------------------------------
  

 Cite this work as:
 Gaussian 09, Revision D.01,
 M. J. Frisch, G. W. Trucks, H. B. Schlegel, G. E. Scuseria, 
 M. A. Robb, J. R. Cheeseman, G. Scalmani, V. Barone, B. Mennucci, 
 G. A. Petersson, H. Nakatsuji, M. Caricato, X. Li, H. P. Hratchian, 
 A. F. Izmaylov, J. Bloino, G. Zheng, J. L. Sonnenberg, M. Hada, 
 M. Ehara, K. Toyota, R. Fukuda, J. Hasegawa, M. Ishida, T. Nakajima, 
 Y. Honda, O. Kitao, H. Nakai, T. Vreven, J. A. Montgomery, Jr., 
 J. E. Peralta, F. Ogliaro, M. Bearpark, J. J. Heyd, E. Brothers, 
 K. N. Kudin, V. N. Staroverov, T. Keith, R. Kobayashi, J. Normand, 
 K. Raghavachari, A. Rendell, J. C. Burant, S. S. Iyengar, J. Tomasi, 
 M. Cossi, N. Rega, J. M. Millam, M. Klene, J. E. Knox, J. B. Cross, 
 V. Bakken, C. Adamo, J. Jaramillo, R. Gomperts, R. E. Stratmann, 
 O. Yazyev, A. J. Austin, R. Cammi, C. Pomelli, J. W. Ochterski, 
 R. L. Martin, K. Morokuma, V. G. Zakrzewski, G. A. Voth, 
 P. Salvador, J. J. Dannenberg, S. Dapprich, A. D. Daniels, 
 O. Farkas, J. B. Foresman, J. V. Ortiz, J. Cioslowski, 
 and D. J. Fox, Gaussian, Inc., Wallingford CT, 2013.
 
 ******************************************
 Gaussian 09:  EM64L-G09RevD.01 24-Apr-2013
                28-Apr-2017 
 ******************************************
 %Mem=256MB
 %NProc=12
 Will use up to   12 processors via shared memory.
 ----------------------------------------------------------------------
 #P HF/6-31G* SCF(Conver=6) NoSymm Test Pop=chelpg IOp(6/33=2) GFInput 
 GFPrint
 ----------------------------------------------------------------------
 1/38=1/1;
 2/12=2,15=1,17=6,18=5,40=1/2;
 3/5=1,6=6,7=1,11=9,16=1,24=110,25=1,30=1/1,2,3;
 4//1;
 5/5=2,6=6,38=5/2;
 6/7=2,8=2,9=2,10=2,15=8,20=3,28=1,33=2/1,2;
 99/5=1,9=1/99;
 Leave Link    1 at Fri Apr 28 12:19:07 2017, MaxMem=    33554432 cpu:         0.6
 (Enter /home/michal/g09/l101.exe)
 ----------------------------------------------
 MEP - Input generated by R.E.D.-III.x MOLECULE
 ----------------------------------------------
 Symbolic Z-matrix:
 Charge =  0 Multiplicity = 1
 C                     7.51675   2.15056  -0.05702 
 H                     7.41558   2.06719   1.03204 
 C                     6.76301   0.98497  -0.71688 
 H                     7.15409   0.03397  -0.34213 
 H                     6.98252   1.01278  -1.79581 
 C                     5.26443   1.06257  -0.48983 
 C                     4.58121   2.38827  -0.84855 
 C                     5.41805   3.54901  -0.2267 
 H                     5.27117   3.53193   0.86183 
 H                     5.02396   4.50862  -0.57826 
 C                     6.92636   3.48491  -0.51267 
 H                     7.12048   3.6148   -1.58766 
 H                     7.44032   4.30587   0. 
 C                     4.60706   0.        0. 
 H                     5.16447  -0.90553   0.23238 
 C                     3.12981  -0.04435   0.26512 
 H                     2.71743  -1.0099   -0.05414 
 C                     2.36902   1.10026  -0.42831 
 H                     2.35431   0.82591  -1.49234 
 C                     3.12963   2.44253  -0.25371 
 H                     3.25095   2.57605   0.83129 
 C                     2.30544   3.64966  -0.76492 
 H                     2.2884    3.6544   -1.85941 
 H                     2.80187   4.58067  -0.46796 
 C                     0.84897   3.68629  -0.25858 
 H                     0.84025   3.84454   0.82907 
 H                     0.34574   4.55141  -0.70565 
 C                     0.10431   2.37559  -0.57769 
 C                     0.92431   1.22678   0.0774 
 H                     0.99694   1.49216   1.14053 
 C                     0.        0.        0. 
 H                     0.23718  -0.73751   0.77184 
 H                     0.09934  -0.50472  -0.96954 
 C                    -1.4245    0.60229   0.16989 
 H                    -2.08381   0.27302  -0.63962 
 H                    -1.89664   0.27406   1.10216 
 C                    -1.2561    2.1547    0.16828 
 H                    -1.04318   2.44164   1.20912 
 C                    -0.03572   2.19721  -2.10704 
 H                     0.93065   2.04575  -2.59519 
 H                    -0.66455   1.34188  -2.36748 
 H                    -0.48522   3.08587  -2.55992 
 C                    -2.5689    2.91953  -0.1705 
 H                    -3.2963    2.50261   0.54568 
 C                    -3.17144   2.68753  -1.57082 
 H                    -2.64748   3.25938  -2.34279 
 H                    -4.21997   3.00119  -1.58967 
 H                    -3.14959   1.63392  -1.86377 
 C                     4.57021   2.52523  -2.39598 
 H                     4.27674   3.53314  -2.70391 
 H                     5.55595   2.33266  -2.82603 
 H                     3.87612   1.81243  -2.85192 
 O                     2.85143   0.07099   1.68801 
 O                     3.34809  -1.13472   2.33381 
 H                     4.12267  -0.78567   2.80517 
 O                     8.92601   2.06658  -0.28382 
 H                     9.09377   2.16006  -1.23213 
 C                    -2.47168   4.42876   0.14971 
 H                    -1.937     4.55452   1.10196 
 H                    -1.85622   4.9218   -0.61328 
 C                    -3.82777   5.14611   0.25945 
 H                    -4.33122   5.15585  -0.71467 
 H                    -4.47858   4.56377   0.92727 
 C                    -3.74289   6.58063   0.81238 
 H                    -3.30604   6.54016   1.82075 
 H                    -4.76419   6.96929   0.93998 
 C                    -2.94132   7.60096  -0.02374 
 H                    -1.91515   7.22258  -0.13661 
 C                    -3.52886   7.79818  -1.4302 
 H                    -4.56554   8.15486  -1.37255 
 H                    -2.95357   8.54146  -1.99397 
 H                    -3.52816   6.87088  -2.01226 
 C                    -2.85671   8.94458   0.7181 
 H                    -3.85566   9.37731   0.85843 
 H                    -2.25585   9.67125   0.15932 
 H                    -2.40377   8.82596   1.70916 
 
 NAtoms=     76 NQM=       76 NQMF=       0 NMMI=      0 NMMIF=      0
                NMic=       0 NMicF=      0.
                    Isotopes and Nuclear Properties:
 (Nuclear quadrupole moments (NQMom) in fm**2, nuclear magnetic moments (NMagM)
  in nuclear magnetons)

  Atom         1           2           3           4           5           6           7           8           9          10
 IAtWgt=          12           1          12           1           1          12          12          12           1           1
 AtmWgt=  12.0000000   1.0078250  12.0000000   1.0078250   1.0078250  12.0000000  12.0000000  12.0000000   1.0078250   1.0078250
 NucSpn=           0           1           0           1           1           0           0           0           1           1
 AtZEff=   0.0000000   0.0000000   0.0000000   0.0000000   0.0000000   0.0000000   0.0000000   0.0000000   0.0000000   0.0000000
 NQMom=    0.0000000   0.0000000   0.0000000   0.0000000   0.0000000   0.0000000   0.0000000   0.0000000   0.0000000   0.0000000
 NMagM=    0.0000000   2.7928460   0.0000000   2.7928460   2.7928460   0.0000000   0.0000000   0.0000000   2.7928460   2.7928460
 AtZNuc=   6.0000000   1.0000000   6.0000000   1.0000000   1.0000000   6.0000000   6.0000000   6.0000000   1.0000000   1.0000000

  Atom        11          12          13          14          15          16          17          18          19          20
 IAtWgt=          12           1           1          12           1          12           1          12           1          12
 AtmWgt=  12.0000000   1.0078250   1.0078250  12.0000000   1.0078250  12.0000000   1.0078250  12.0000000   1.0078250  12.0000000
 NucSpn=           0           1           1           0           1           0           1           0           1           0
 AtZEff=   0.0000000   0.0000000   0.0000000   0.0000000   0.0000000   0.0000000   0.0000000   0.0000000   0.0000000   0.0000000
 NQMom=    0.0000000   0.0000000   0.0000000   0.0000000   0.0000000   0.0000000   0.0000000   0.0000000   0.0000000   0.0000000
 NMagM=    0.0000000   2.7928460   2.7928460   0.0000000   2.7928460   0.0000000   2.7928460   0.0000000   2.7928460   0.0000000
 AtZNuc=   6.0000000   1.0000000   1.0000000   6.0000000   1.0000000   6.0000000   1.0000000   6.0000000   1.0000000   6.0000000

  Atom        21          22          23          24          25          26          27          28          29          30
 IAtWgt=           1          12           1           1          12           1           1          12          12           1
 AtmWgt=   1.0078250  12.0000000   1.0078250   1.0078250  12.0000000   1.0078250   1.0078250  12.0000000  12.0000000   1.0078250
 NucSpn=           1           0           1           1           0           1           1           0           0           1
 AtZEff=   0.0000000   0.0000000   0.0000000   0.0000000   0.0000000   0.0000000   0.0000000   0.0000000   0.0000000   0.0000000
 NQMom=    0.0000000   0.0000000   0.0000000   0.0000000   0.0000000   0.0000000   0.0000000   0.0000000   0.0000000   0.0000000
 NMagM=    2.7928460   0.0000000   2.7928460   2.7928460   0.0000000   2.7928460   2.7928460   0.0000000   0.0000000   2.7928460
 AtZNuc=   1.0000000   6.0000000   1.0000000   1.0000000   6.0000000   1.0000000   1.0000000   6.0000000   6.0000000   1.0000000

  Atom        31          32          33          34          35          36          37          38          39          40
 IAtWgt=          12           1           1          12           1           1          12           1          12           1
 AtmWgt=  12.0000000   1.0078250   1.0078250  12.0000000   1.0078250   1.0078250  12.0000000   1.0078250  12.0000000   1.0078250
 NucSpn=           0           1           1           0           1           1           0           1           0           1
 AtZEff=   0.0000000   0.0000000   0.0000000   0.0000000   0.0000000   0.0000000   0.0000000   0.0000000   0.0000000   0.0000000
 NQMom=    0.0000000   0.0000000   0.0000000   0.0000000   0.0000000   0.0000000   0.0000000   0.0000000   0.0000000   0.0000000
 NMagM=    0.0000000   2.7928460   2.7928460   0.0000000   2.7928460   2.7928460   0.0000000   2.7928460   0.0000000   2.7928460
 AtZNuc=   6.0000000   1.0000000   1.0000000   6.0000000   1.0000000   1.0000000   6.0000000   1.0000000   6.0000000   1.0000000

  Atom        41          42          43          44          45          46          47          48          49          50
 IAtWgt=           1           1          12           1          12           1           1           1          12           1
 AtmWgt=   1.0078250   1.0078250  12.0000000   1.0078250  12.0000000   1.0078250   1.0078250   1.0078250  12.0000000   1.0078250
 NucSpn=           1           1           0           1           0           1           1           1           0           1
 AtZEff=   0.0000000   0.0000000   0.0000000   0.0000000   0.0000000   0.0000000   0.0000000   0.0000000   0.0000000   0.0000000
 NQMom=    0.0000000   0.0000000   0.0000000   0.0000000   0.0000000   0.0000000   0.0000000   0.0000000   0.0000000   0.0000000
 NMagM=    2.7928460   2.7928460   0.0000000   2.7928460   0.0000000   2.7928460   2.7928460   2.7928460   0.0000000   2.7928460
 AtZNuc=   1.0000000   1.0000000   6.0000000   1.0000000   6.0000000   1.0000000   1.0000000   1.0000000   6.0000000   1.0000000

  Atom        51          52          53          54          55          56          57          58          59          60
 IAtWgt=           1           1          16          16           1          16           1          12           1           1
 AtmWgt=   1.0078250   1.0078250  15.9949146  15.9949146   1.0078250  15.9949146   1.0078250  12.0000000   1.0078250   1.0078250
 NucSpn=           1           1           0           0           1           0           1           0           1           1
 AtZEff=   0.0000000   0.0000000   0.0000000   0.0000000   0.0000000   0.0000000   0.0000000   0.0000000   0.0000000   0.0000000
 NQMom=    0.0000000   0.0000000   0.0000000   0.0000000   0.0000000   0.0000000   0.0000000   0.0000000   0.0000000   0.0000000
 NMagM=    2.7928460   2.7928460   0.0000000   0.0000000   2.7928460   0.0000000   2.7928460   0.0000000   2.7928460   2.7928460
 AtZNuc=   1.0000000   1.0000000   8.0000000   8.0000000   1.0000000   8.0000000   1.0000000   6.0000000   1.0000000   1.0000000

  Atom        61          62          63          64          65          66          67          68          69          70
 IAtWgt=          12           1           1          12           1           1          12           1          12           1
 AtmWgt=  12.0000000   1.0078250   1.0078250  12.0000000   1.0078250   1.0078250  12.0000000   1.0078250  12.0000000   1.0078250
 NucSpn=           0           1           1           0           1           1           0           1           0           1
 AtZEff=   0.0000000   0.0000000   0.0000000   0.0000000   0.0000000   0.0000000   0.0000000   0.0000000   0.0000000   0.0000000
 NQMom=    0.0000000   0.0000000   0.0000000   0.0000000   0.0000000   0.0000000   0.0000000   0.0000000   0.0000000   0.0000000
 NMagM=    0.0000000   2.7928460   2.7928460   0.0000000   2.7928460   2.7928460   0.0000000   2.7928460   0.0000000   2.7928460
 AtZNuc=   6.0000000   1.0000000   1.0000000   6.0000000   1.0000000   1.0000000   6.0000000   1.0000000   6.0000000   1.0000000

  Atom        71          72          73          74          75          76
 IAtWgt=           1           1          12           1           1           1
 AtmWgt=   1.0078250   1.0078250  12.0000000   1.0078250   1.0078250   1.0078250
 NucSpn=           1           1           0           1           1           1
 AtZEff=   0.0000000   0.0000000   0.0000000   0.0000000   0.0000000   0.0000000
 NQMom=    0.0000000   0.0000000   0.0000000   0.0000000   0.0000000   0.0000000
 NMagM=    2.7928460   2.7928460   0.0000000   2.7928460   2.7928460   2.7928460
 AtZNuc=   1.0000000   1.0000000   6.0000000   1.0000000   1.0000000   1.0000000
 Leave Link  101 at Fri Apr 28 12:19:07 2017, MaxMem=    33554432 cpu:         1.0
 (Enter /home/michal/g09/l202.exe)
 Symmetry turned off by external request.
 Stoichiometry    C27H46O3
 Framework group  C1[X(C27H46O3)]
 Deg. of freedom   222
 Full point group                 C1      NOp   1
                          Input orientation:                          
 ---------------------------------------------------------------------
 Center     Atomic      Atomic             Coordinates (Angstroms)
 Number     Number       Type             X           Y           Z
 ---------------------------------------------------------------------
      1          6           0        7.516748    2.150557   -0.057022
      2          1           0        7.415576    2.067190    1.032037
      3          6           0        6.763009    0.984975   -0.716884
      4          1           0        7.154093    0.033972   -0.342130
      5          1           0        6.982516    1.012776   -1.795809
      6          6           0        5.264428    1.062571   -0.489825
      7          6           0        4.581212    2.388270   -0.848553
      8          6           0        5.418050    3.549008   -0.226702
      9          1           0        5.271168    3.531927    0.861826
     10          1           0        5.023959    4.508624   -0.578264
     11          6           0        6.926357    3.484913   -0.512665
     12          1           0        7.120477    3.614801   -1.587656
     13          1           0        7.440318    4.305873    0.000000
     14          6           0        4.607056    0.000000    0.000000
     15          1           0        5.164473   -0.905527    0.232376
     16          6           0        3.129813   -0.044354    0.265119
     17          1           0        2.717427   -1.009900   -0.054136
     18          6           0        2.369022    1.100261   -0.428315
     19          1           0        2.354309    0.825906   -1.492342
     20          6           0        3.129628    2.442533   -0.253709
     21          1           0        3.250949    2.576049    0.831289
     22          6           0        2.305444    3.649661   -0.764922
     23          1           0        2.288400    3.654401   -1.859412
     24          1           0        2.801873    4.580674   -0.467964
     25          6           0        0.848968    3.686295   -0.258576
     26          1           0        0.840252    3.844537    0.829071
     27          1           0        0.345736    4.551410   -0.705652
     28          6           0        0.104312    2.375589   -0.577691
     29          6           0        0.924307    1.226784    0.077398
     30          1           0        0.996938    1.492155    1.140534
     31          6           0        0.000000    0.000000    0.000000
     32          1           0        0.237178   -0.737507    0.771837
     33          1           0        0.099342   -0.504716   -0.969537
     34          6           0       -1.424501    0.602292    0.169887
     35          1           0       -2.083809    0.273017   -0.639617
     36          1           0       -1.896637    0.274058    1.102163
     37          6           0       -1.256097    2.154696    0.168282
     38          1           0       -1.043180    2.441640    1.209124
     39          6           0       -0.035722    2.197212   -2.107038
     40          1           0        0.930654    2.045747   -2.595189
     41          1           0       -0.664551    1.341880   -2.367478
     42          1           0       -0.485219    3.085873   -2.559915
     43          6           0       -2.568904    2.919533   -0.170498
     44          1           0       -3.296301    2.502606    0.545677
     45          6           0       -3.171438    2.687526   -1.570822
     46          1           0       -2.647477    3.259385   -2.342795
     47          1           0       -4.219970    3.001185   -1.589672
     48          1           0       -3.149593    1.633917   -1.863766
     49          6           0        4.570208    2.525235   -2.395976
     50          1           0        4.276737    3.533142   -2.703913
     51          1           0        5.555948    2.332662   -2.826033
     52          1           0        3.876125    1.812435   -2.851922
     53          8           0        2.851433    0.070987    1.688011
     54          8           0        3.348087   -1.134716    2.333813
     55          1           0        4.122666   -0.785671    2.805171
     56          8           0        8.926013    2.066578   -0.283821
     57          1           0        9.093773    2.160059   -1.232127
     58          6           0       -2.471681    4.428762    0.149713
     59          1           0       -1.937001    4.554516    1.101956
     60          1           0       -1.856217    4.921803   -0.613280
     61          6           0       -3.827767    5.146113    0.259452
     62          1           0       -4.331217    5.155850   -0.714666
     63          1           0       -4.478583    4.563768    0.927267
     64          6           0       -3.742887    6.580627    0.812378
     65          1           0       -3.306043    6.540161    1.820752
     66          1           0       -4.764192    6.969285    0.939976
     67          6           0       -2.941320    7.600963   -0.023737
     68          1           0       -1.915148    7.222579   -0.136612
     69          6           0       -3.528857    7.798179   -1.430204
     70          1           0       -4.565545    8.154859   -1.372549
     71          1           0       -2.953574    8.541459   -1.993970
     72          1           0       -3.528159    6.870881   -2.012260
     73          6           0       -2.856707    8.944579    0.718104
     74          1           0       -3.855660    9.377308    0.858431
     75          1           0       -2.255854    9.671252    0.159323
     76          1           0       -2.403768    8.825962    1.709165
 ---------------------------------------------------------------------
 Rotational constants (GHZ):      0.2435407      0.0683607      0.0586219
 Leave Link  202 at Fri Apr 28 12:19:07 2017, MaxMem=    33554432 cpu:         0.0
 (Enter /home/michal/g09/l301.exe)
 Standard basis: 6-31G(d) (6D, 7F)
 Ernie: Thresh=  0.10000D-02 Tol=  0.10000D-05 Strict=F.
 AO basis set in the form of general basis input (Overlap normalization):
      1 0
 S   6 1.00       0.000000000000
      0.3047524880D+04  0.1834737132D-02
      0.4573695180D+03  0.1403732281D-01
      0.1039486850D+03  0.6884262226D-01
      0.2921015530D+02  0.2321844432D+00
      0.9286662960D+01  0.4679413484D+00
      0.3163926960D+01  0.3623119853D+00
 SP   3 1.00       0.000000000000
      0.7868272350D+01 -0.1193324198D+00  0.6899906659D-01
      0.1881288540D+01 -0.1608541517D+00  0.3164239610D+00
      0.5442492580D+00  0.1143456438D+01  0.7443082909D+00
 SP   1 1.00       0.000000000000
      0.1687144782D+00  0.1000000000D+01  0.1000000000D+01
 D   1 1.00       0.000000000000
      0.8000000000D+00  0.1000000000D+01
 ****
      2 0
 S   3 1.00       0.000000000000
      0.1873113696D+02  0.3349460434D-01
      0.2825394365D+01  0.2347269535D+00
      0.6401216923D+00  0.8137573261D+00
 S   1 1.00       0.000000000000
      0.1612777588D+00  0.1000000000D+01
 ****
      3 0
 S   6 1.00       0.000000000000
      0.3047524880D+04  0.1834737132D-02
      0.4573695180D+03  0.1403732281D-01
      0.1039486850D+03  0.6884262226D-01
      0.2921015530D+02  0.2321844432D+00
      0.9286662960D+01  0.4679413484D+00
      0.3163926960D+01  0.3623119853D+00
 SP   3 1.00       0.000000000000
      0.7868272350D+01 -0.1193324198D+00  0.6899906659D-01
      0.1881288540D+01 -0.1608541517D+00  0.3164239610D+00
      0.5442492580D+00  0.1143456438D+01  0.7443082909D+00
 SP   1 1.00       0.000000000000
      0.1687144782D+00  0.1000000000D+01  0.1000000000D+01
 D   1 1.00       0.000000000000
      0.8000000000D+00  0.1000000000D+01
 ****
      4 0
 S   3 1.00       0.000000000000
      0.1873113696D+02  0.3349460434D-01
      0.2825394365D+01  0.2347269535D+00
      0.6401216923D+00  0.8137573261D+00
 S   1 1.00       0.000000000000
      0.1612777588D+00  0.1000000000D+01
 ****
      5 0
 S   3 1.00       0.000000000000
      0.1873113696D+02  0.3349460434D-01
      0.2825394365D+01  0.2347269535D+00
      0.6401216923D+00  0.8137573261D+00
 S   1 1.00       0.000000000000
      0.1612777588D+00  0.1000000000D+01
 ****
      6 0
 S   6 1.00       0.000000000000
      0.3047524880D+04  0.1834737132D-02
      0.4573695180D+03  0.1403732281D-01
      0.1039486850D+03  0.6884262226D-01
      0.2921015530D+02  0.2321844432D+00
      0.9286662960D+01  0.4679413484D+00
      0.3163926960D+01  0.3623119853D+00
 SP   3 1.00       0.000000000000
      0.7868272350D+01 -0.1193324198D+00  0.6899906659D-01
      0.1881288540D+01 -0.1608541517D+00  0.3164239610D+00
      0.5442492580D+00  0.1143456438D+01  0.7443082909D+00
 SP   1 1.00       0.000000000000
      0.1687144782D+00  0.1000000000D+01  0.1000000000D+01
 D   1 1.00       0.000000000000
      0.8000000000D+00  0.1000000000D+01
 ****
      7 0
 S   6 1.00       0.000000000000
      0.3047524880D+04  0.1834737132D-02
      0.4573695180D+03  0.1403732281D-01
      0.1039486850D+03  0.6884262226D-01
      0.2921015530D+02  0.2321844432D+00
      0.9286662960D+01  0.4679413484D+00
      0.3163926960D+01  0.3623119853D+00
 SP   3 1.00       0.000000000000
      0.7868272350D+01 -0.1193324198D+00  0.6899906659D-01
      0.1881288540D+01 -0.1608541517D+00  0.3164239610D+00
      0.5442492580D+00  0.1143456438D+01  0.7443082909D+00
 SP   1 1.00       0.000000000000
      0.1687144782D+00  0.1000000000D+01  0.1000000000D+01
 D   1 1.00       0.000000000000
      0.8000000000D+00  0.1000000000D+01
 ****
      8 0
 S   6 1.00       0.000000000000
      0.3047524880D+04  0.1834737132D-02
      0.4573695180D+03  0.1403732281D-01
      0.1039486850D+03  0.6884262226D-01
      0.2921015530D+02  0.2321844432D+00
      0.9286662960D+01  0.4679413484D+00
      0.3163926960D+01  0.3623119853D+00
 SP   3 1.00       0.000000000000
      0.7868272350D+01 -0.1193324198D+00  0.6899906659D-01
      0.1881288540D+01 -0.1608541517D+00  0.3164239610D+00
      0.5442492580D+00  0.1143456438D+01  0.7443082909D+00
 SP   1 1.00       0.000000000000
      0.1687144782D+00  0.1000000000D+01  0.1000000000D+01
 D   1 1.00       0.000000000000
      0.8000000000D+00  0.1000000000D+01
 ****
      9 0
 S   3 1.00       0.000000000000
      0.1873113696D+02  0.3349460434D-01
      0.2825394365D+01  0.2347269535D+00
      0.6401216923D+00  0.8137573261D+00
 S   1 1.00       0.000000000000
      0.1612777588D+00  0.1000000000D+01
 ****
     10 0
 S   3 1.00       0.000000000000
      0.1873113696D+02  0.3349460434D-01
      0.2825394365D+01  0.2347269535D+00
      0.6401216923D+00  0.8137573261D+00
 S   1 1.00       0.000000000000
      0.1612777588D+00  0.1000000000D+01
 ****
     11 0
 S   6 1.00       0.000000000000
      0.3047524880D+04  0.1834737132D-02
      0.4573695180D+03  0.1403732281D-01
      0.1039486850D+03  0.6884262226D-01
      0.2921015530D+02  0.2321844432D+00
      0.9286662960D+01  0.4679413484D+00
      0.3163926960D+01  0.3623119853D+00
 SP   3 1.00       0.000000000000
      0.7868272350D+01 -0.1193324198D+00  0.6899906659D-01
      0.1881288540D+01 -0.1608541517D+00  0.3164239610D+00
      0.5442492580D+00  0.1143456438D+01  0.7443082909D+00
 SP   1 1.00       0.000000000000
      0.1687144782D+00  0.1000000000D+01  0.1000000000D+01
 D   1 1.00       0.000000000000
      0.8000000000D+00  0.1000000000D+01
 ****
     12 0
 S   3 1.00       0.000000000000
      0.1873113696D+02  0.3349460434D-01
      0.2825394365D+01  0.2347269535D+00
      0.6401216923D+00  0.8137573261D+00
 S   1 1.00       0.000000000000
      0.1612777588D+00  0.1000000000D+01
 ****
     13 0
 S   3 1.00       0.000000000000
      0.1873113696D+02  0.3349460434D-01
      0.2825394365D+01  0.2347269535D+00
      0.6401216923D+00  0.8137573261D+00
 S   1 1.00       0.000000000000
      0.1612777588D+00  0.1000000000D+01
 ****
     14 0
 S   6 1.00       0.000000000000
      0.3047524880D+04  0.1834737132D-02
      0.4573695180D+03  0.1403732281D-01
      0.1039486850D+03  0.6884262226D-01
      0.2921015530D+02  0.2321844432D+00
      0.9286662960D+01  0.4679413484D+00
      0.3163926960D+01  0.3623119853D+00
 SP   3 1.00       0.000000000000
      0.7868272350D+01 -0.1193324198D+00  0.6899906659D-01
      0.1881288540D+01 -0.1608541517D+00  0.3164239610D+00
      0.5442492580D+00  0.1143456438D+01  0.7443082909D+00
 SP   1 1.00       0.000000000000
      0.1687144782D+00  0.1000000000D+01  0.1000000000D+01
 D   1 1.00       0.000000000000
      0.8000000000D+00  0.1000000000D+01
 ****
     15 0
 S   3 1.00       0.000000000000
      0.1873113696D+02  0.3349460434D-01
      0.2825394365D+01  0.2347269535D+00
      0.6401216923D+00  0.8137573261D+00
 S   1 1.00       0.000000000000
      0.1612777588D+00  0.1000000000D+01
 ****
     16 0
 S   6 1.00       0.000000000000
      0.3047524880D+04  0.1834737132D-02
      0.4573695180D+03  0.1403732281D-01
      0.1039486850D+03  0.6884262226D-01
      0.2921015530D+02  0.2321844432D+00
      0.9286662960D+01  0.4679413484D+00
      0.3163926960D+01  0.3623119853D+00
 SP   3 1.00       0.000000000000
      0.7868272350D+01 -0.1193324198D+00  0.6899906659D-01
      0.1881288540D+01 -0.1608541517D+00  0.3164239610D+00
      0.5442492580D+00  0.1143456438D+01  0.7443082909D+00
 SP   1 1.00       0.000000000000
      0.1687144782D+00  0.1000000000D+01  0.1000000000D+01
 D   1 1.00       0.000000000000
      0.8000000000D+00  0.1000000000D+01
 ****
     17 0
 S   3 1.00       0.000000000000
      0.1873113696D+02  0.3349460434D-01
      0.2825394365D+01  0.2347269535D+00
      0.6401216923D+00  0.8137573261D+00
 S   1 1.00       0.000000000000
      0.1612777588D+00  0.1000000000D+01
 ****
     18 0
 S   6 1.00       0.000000000000
      0.3047524880D+04  0.1834737132D-02
      0.4573695180D+03  0.1403732281D-01
      0.1039486850D+03  0.6884262226D-01
      0.2921015530D+02  0.2321844432D+00
      0.9286662960D+01  0.4679413484D+00
      0.3163926960D+01  0.3623119853D+00
 SP   3 1.00       0.000000000000
      0.7868272350D+01 -0.1193324198D+00  0.6899906659D-01
      0.1881288540D+01 -0.1608541517D+00  0.3164239610D+00
      0.5442492580D+00  0.1143456438D+01  0.7443082909D+00
 SP   1 1.00       0.000000000000
      0.1687144782D+00  0.1000000000D+01  0.1000000000D+01
 D   1 1.00       0.000000000000
      0.8000000000D+00  0.1000000000D+01
 ****
     19 0
 S   3 1.00       0.000000000000
      0.1873113696D+02  0.3349460434D-01
      0.2825394365D+01  0.2347269535D+00
      0.6401216923D+00  0.8137573261D+00
 S   1 1.00       0.000000000000
      0.1612777588D+00  0.1000000000D+01
 ****
     20 0
 S   6 1.00       0.000000000000
      0.3047524880D+04  0.1834737132D-02
      0.4573695180D+03  0.1403732281D-01
      0.1039486850D+03  0.6884262226D-01
      0.2921015530D+02  0.2321844432D+00
      0.9286662960D+01  0.4679413484D+00
      0.3163926960D+01  0.3623119853D+00
 SP   3 1.00       0.000000000000
      0.7868272350D+01 -0.1193324198D+00  0.6899906659D-01
      0.1881288540D+01 -0.1608541517D+00  0.3164239610D+00
      0.5442492580D+00  0.1143456438D+01  0.7443082909D+00
 SP   1 1.00       0.000000000000
      0.1687144782D+00  0.1000000000D+01  0.1000000000D+01
 D   1 1.00       0.000000000000
      0.8000000000D+00  0.1000000000D+01
 ****
     21 0
 S   3 1.00       0.000000000000
      0.1873113696D+02  0.3349460434D-01
      0.2825394365D+01  0.2347269535D+00
      0.6401216923D+00  0.8137573261D+00
 S   1 1.00       0.000000000000
      0.1612777588D+00  0.1000000000D+01
 ****
     22 0
 S   6 1.00       0.000000000000
      0.3047524880D+04  0.1834737132D-02
      0.4573695180D+03  0.1403732281D-01
      0.1039486850D+03  0.6884262226D-01
      0.2921015530D+02  0.2321844432D+00
      0.9286662960D+01  0.4679413484D+00
      0.3163926960D+01  0.3623119853D+00
 SP   3 1.00       0.000000000000
      0.7868272350D+01 -0.1193324198D+00  0.6899906659D-01
      0.1881288540D+01 -0.1608541517D+00  0.3164239610D+00
      0.5442492580D+00  0.1143456438D+01  0.7443082909D+00
 SP   1 1.00       0.000000000000
      0.1687144782D+00  0.1000000000D+01  0.1000000000D+01
 D   1 1.00       0.000000000000
      0.8000000000D+00  0.1000000000D+01
 ****
     23 0
 S   3 1.00       0.000000000000
      0.1873113696D+02  0.3349460434D-01
      0.2825394365D+01  0.2347269535D+00
      0.6401216923D+00  0.8137573261D+00
 S   1 1.00       0.000000000000
      0.1612777588D+00  0.1000000000D+01
 ****
     24 0
 S   3 1.00       0.000000000000
      0.1873113696D+02  0.3349460434D-01
      0.2825394365D+01  0.2347269535D+00
      0.6401216923D+00  0.8137573261D+00
 S   1 1.00       0.000000000000
      0.1612777588D+00  0.1000000000D+01
 ****
     25 0
 S   6 1.00       0.000000000000
      0.3047524880D+04  0.1834737132D-02
      0.4573695180D+03  0.1403732281D-01
      0.1039486850D+03  0.6884262226D-01
      0.2921015530D+02  0.2321844432D+00
      0.9286662960D+01  0.4679413484D+00
      0.3163926960D+01  0.3623119853D+00
 SP   3 1.00       0.000000000000
      0.7868272350D+01 -0.1193324198D+00  0.6899906659D-01
      0.1881288540D+01 -0.1608541517D+00  0.3164239610D+00
      0.5442492580D+00  0.1143456438D+01  0.7443082909D+00
 SP   1 1.00       0.000000000000
      0.1687144782D+00  0.1000000000D+01  0.1000000000D+01
 D   1 1.00       0.000000000000
      0.8000000000D+00  0.1000000000D+01
 ****
     26 0
 S   3 1.00       0.000000000000
      0.1873113696D+02  0.3349460434D-01
      0.2825394365D+01  0.2347269535D+00
      0.6401216923D+00  0.8137573261D+00
 S   1 1.00       0.000000000000
      0.1612777588D+00  0.1000000000D+01
 ****
     27 0
 S   3 1.00       0.000000000000
      0.1873113696D+02  0.3349460434D-01
      0.2825394365D+01  0.2347269535D+00
      0.6401216923D+00  0.8137573261D+00
 S   1 1.00       0.000000000000
      0.1612777588D+00  0.1000000000D+01
 ****
     28 0
 S   6 1.00       0.000000000000
      0.3047524880D+04  0.1834737132D-02
      0.4573695180D+03  0.1403732281D-01
      0.1039486850D+03  0.6884262226D-01
      0.2921015530D+02  0.2321844432D+00
      0.9286662960D+01  0.4679413484D+00
      0.3163926960D+01  0.3623119853D+00
 SP   3 1.00       0.000000000000
      0.7868272350D+01 -0.1193324198D+00  0.6899906659D-01
      0.1881288540D+01 -0.1608541517D+00  0.3164239610D+00
      0.5442492580D+00  0.1143456438D+01  0.7443082909D+00
 SP   1 1.00       0.000000000000
      0.1687144782D+00  0.1000000000D+01  0.1000000000D+01
 D   1 1.00       0.000000000000
      0.8000000000D+00  0.1000000000D+01
 ****
     29 0
 S   6 1.00       0.000000000000
      0.3047524880D+04  0.1834737132D-02
      0.4573695180D+03  0.1403732281D-01
      0.1039486850D+03  0.6884262226D-01
      0.2921015530D+02  0.2321844432D+00
      0.9286662960D+01  0.4679413484D+00
      0.3163926960D+01  0.3623119853D+00
 SP   3 1.00       0.000000000000
      0.7868272350D+01 -0.1193324198D+00  0.6899906659D-01
      0.1881288540D+01 -0.1608541517D+00  0.3164239610D+00
      0.5442492580D+00  0.1143456438D+01  0.7443082909D+00
 SP   1 1.00       0.000000000000
      0.1687144782D+00  0.1000000000D+01  0.1000000000D+01
 D   1 1.00       0.000000000000
      0.8000000000D+00  0.1000000000D+01
 ****
     30 0
 S   3 1.00       0.000000000000
      0.1873113696D+02  0.3349460434D-01
      0.2825394365D+01  0.2347269535D+00
      0.6401216923D+00  0.8137573261D+00
 S   1 1.00       0.000000000000
      0.1612777588D+00  0.1000000000D+01
 ****
     31 0
 S   6 1.00       0.000000000000
      0.3047524880D+04  0.1834737132D-02
      0.4573695180D+03  0.1403732281D-01
      0.1039486850D+03  0.6884262226D-01
      0.2921015530D+02  0.2321844432D+00
      0.9286662960D+01  0.4679413484D+00
      0.3163926960D+01  0.3623119853D+00
 SP   3 1.00       0.000000000000
      0.7868272350D+01 -0.1193324198D+00  0.6899906659D-01
      0.1881288540D+01 -0.1608541517D+00  0.3164239610D+00
      0.5442492580D+00  0.1143456438D+01  0.7443082909D+00
 SP   1 1.00       0.000000000000
      0.1687144782D+00  0.1000000000D+01  0.1000000000D+01
 D   1 1.00       0.000000000000
      0.8000000000D+00  0.1000000000D+01
 ****
     32 0
 S   3 1.00       0.000000000000
      0.1873113696D+02  0.3349460434D-01
      0.2825394365D+01  0.2347269535D+00
      0.6401216923D+00  0.8137573261D+00
 S   1 1.00       0.000000000000
      0.1612777588D+00  0.1000000000D+01
 ****
     33 0
 S   3 1.00       0.000000000000
      0.1873113696D+02  0.3349460434D-01
      0.2825394365D+01  0.2347269535D+00
      0.6401216923D+00  0.8137573261D+00
 S   1 1.00       0.000000000000
      0.1612777588D+00  0.1000000000D+01
 ****
     34 0
 S   6 1.00       0.000000000000
      0.3047524880D+04  0.1834737132D-02
      0.4573695180D+03  0.1403732281D-01
      0.1039486850D+03  0.6884262226D-01
      0.2921015530D+02  0.2321844432D+00
      0.9286662960D+01  0.4679413484D+00
      0.3163926960D+01  0.3623119853D+00
 SP   3 1.00       0.000000000000
      0.7868272350D+01 -0.1193324198D+00  0.6899906659D-01
      0.1881288540D+01 -0.1608541517D+00  0.3164239610D+00
      0.5442492580D+00  0.1143456438D+01  0.7443082909D+00
 SP   1 1.00       0.000000000000
      0.1687144782D+00  0.1000000000D+01  0.1000000000D+01
 D   1 1.00       0.000000000000
      0.8000000000D+00  0.1000000000D+01
 ****
     35 0
 S   3 1.00       0.000000000000
      0.1873113696D+02  0.3349460434D-01
      0.2825394365D+01  0.2347269535D+00
      0.6401216923D+00  0.8137573261D+00
 S   1 1.00       0.000000000000
      0.1612777588D+00  0.1000000000D+01
 ****
     36 0
 S   3 1.00       0.000000000000
      0.1873113696D+02  0.3349460434D-01
      0.2825394365D+01  0.2347269535D+00
      0.6401216923D+00  0.8137573261D+00
 S   1 1.00       0.000000000000
      0.1612777588D+00  0.1000000000D+01
 ****
     37 0
 S   6 1.00       0.000000000000
      0.3047524880D+04  0.1834737132D-02
      0.4573695180D+03  0.1403732281D-01
      0.1039486850D+03  0.6884262226D-01
      0.2921015530D+02  0.2321844432D+00
      0.9286662960D+01  0.4679413484D+00
      0.3163926960D+01  0.3623119853D+00
 SP   3 1.00       0.000000000000
      0.7868272350D+01 -0.1193324198D+00  0.6899906659D-01
      0.1881288540D+01 -0.1608541517D+00  0.3164239610D+00
      0.5442492580D+00  0.1143456438D+01  0.7443082909D+00
 SP   1 1.00       0.000000000000
      0.1687144782D+00  0.1000000000D+01  0.1000000000D+01
 D   1 1.00       0.000000000000
      0.8000000000D+00  0.1000000000D+01
 ****
     38 0
 S   3 1.00       0.000000000000
      0.1873113696D+02  0.3349460434D-01
      0.2825394365D+01  0.2347269535D+00
      0.6401216923D+00  0.8137573261D+00
 S   1 1.00       0.000000000000
      0.1612777588D+00  0.1000000000D+01
 ****
     39 0
 S   6 1.00       0.000000000000
      0.3047524880D+04  0.1834737132D-02
      0.4573695180D+03  0.1403732281D-01
      0.1039486850D+03  0.6884262226D-01
      0.2921015530D+02  0.2321844432D+00
      0.9286662960D+01  0.4679413484D+00
      0.3163926960D+01  0.3623119853D+00
 SP   3 1.00       0.000000000000
      0.7868272350D+01 -0.1193324198D+00  0.6899906659D-01
      0.1881288540D+01 -0.1608541517D+00  0.3164239610D+00
      0.5442492580D+00  0.1143456438D+01  0.7443082909D+00
 SP   1 1.00       0.000000000000
      0.1687144782D+00  0.1000000000D+01  0.1000000000D+01
 D   1 1.00       0.000000000000
      0.8000000000D+00  0.1000000000D+01
 ****
     40 0
 S   3 1.00       0.000000000000
      0.1873113696D+02  0.3349460434D-01
      0.2825394365D+01  0.2347269535D+00
      0.6401216923D+00  0.8137573261D+00
 S   1 1.00       0.000000000000
      0.1612777588D+00  0.1000000000D+01
 ****
     41 0
 S   3 1.00       0.000000000000
      0.1873113696D+02  0.3349460434D-01
      0.2825394365D+01  0.2347269535D+00
      0.6401216923D+00  0.8137573261D+00
 S   1 1.00       0.000000000000
      0.1612777588D+00  0.1000000000D+01
 ****
     42 0
 S   3 1.00       0.000000000000
      0.1873113696D+02  0.3349460434D-01
      0.2825394365D+01  0.2347269535D+00
      0.6401216923D+00  0.8137573261D+00
 S   1 1.00       0.000000000000
      0.1612777588D+00  0.1000000000D+01
 ****
     43 0
 S   6 1.00       0.000000000000
      0.3047524880D+04  0.1834737132D-02
      0.4573695180D+03  0.1403732281D-01
      0.1039486850D+03  0.6884262226D-01
      0.2921015530D+02  0.2321844432D+00
      0.9286662960D+01  0.4679413484D+00
      0.3163926960D+01  0.3623119853D+00
 SP   3 1.00       0.000000000000
      0.7868272350D+01 -0.1193324198D+00  0.6899906659D-01
      0.1881288540D+01 -0.1608541517D+00  0.3164239610D+00
      0.5442492580D+00  0.1143456438D+01  0.7443082909D+00
 SP   1 1.00       0.000000000000
      0.1687144782D+00  0.1000000000D+01  0.1000000000D+01
 D   1 1.00       0.000000000000
      0.8000000000D+00  0.1000000000D+01
 ****
     44 0
 S   3 1.00       0.000000000000
      0.1873113696D+02  0.3349460434D-01
      0.2825394365D+01  0.2347269535D+00
      0.6401216923D+00  0.8137573261D+00
 S   1 1.00       0.000000000000
      0.1612777588D+00  0.1000000000D+01
 ****
     45 0
 S   6 1.00       0.000000000000
      0.3047524880D+04  0.1834737132D-02
      0.4573695180D+03  0.1403732281D-01
      0.1039486850D+03  0.6884262226D-01
      0.2921015530D+02  0.2321844432D+00
      0.9286662960D+01  0.4679413484D+00
      0.3163926960D+01  0.3623119853D+00
 SP   3 1.00       0.000000000000
      0.7868272350D+01 -0.1193324198D+00  0.6899906659D-01
      0.1881288540D+01 -0.1608541517D+00  0.3164239610D+00
      0.5442492580D+00  0.1143456438D+01  0.7443082909D+00
 SP   1 1.00       0.000000000000
      0.1687144782D+00  0.1000000000D+01  0.1000000000D+01
 D   1 1.00       0.000000000000
      0.8000000000D+00  0.1000000000D+01
 ****
     46 0
 S   3 1.00       0.000000000000
      0.1873113696D+02  0.3349460434D-01
      0.2825394365D+01  0.2347269535D+00
      0.6401216923D+00  0.8137573261D+00
 S   1 1.00       0.000000000000
      0.1612777588D+00  0.1000000000D+01
 ****
     47 0
 S   3 1.00       0.000000000000
      0.1873113696D+02  0.3349460434D-01
      0.2825394365D+01  0.2347269535D+00
      0.6401216923D+00  0.8137573261D+00
 S   1 1.00       0.000000000000
      0.1612777588D+00  0.1000000000D+01
 ****
     48 0
 S   3 1.00       0.000000000000
      0.1873113696D+02  0.3349460434D-01
      0.2825394365D+01  0.2347269535D+00
      0.6401216923D+00  0.8137573261D+00
 S   1 1.00       0.000000000000
      0.1612777588D+00  0.1000000000D+01
 ****
     49 0
 S   6 1.00       0.000000000000
      0.3047524880D+04  0.1834737132D-02
      0.4573695180D+03  0.1403732281D-01
      0.1039486850D+03  0.6884262226D-01
      0.2921015530D+02  0.2321844432D+00
      0.9286662960D+01  0.4679413484D+00
      0.3163926960D+01  0.3623119853D+00
 SP   3 1.00       0.000000000000
      0.7868272350D+01 -0.1193324198D+00  0.6899906659D-01
      0.1881288540D+01 -0.1608541517D+00  0.3164239610D+00
      0.5442492580D+00  0.1143456438D+01  0.7443082909D+00
 SP   1 1.00       0.000000000000
      0.1687144782D+00  0.1000000000D+01  0.1000000000D+01
 D   1 1.00       0.000000000000
      0.8000000000D+00  0.1000000000D+01
 ****
     50 0
 S   3 1.00       0.000000000000
      0.1873113696D+02  0.3349460434D-01
      0.2825394365D+01  0.2347269535D+00
      0.6401216923D+00  0.8137573261D+00
 S   1 1.00       0.000000000000
      0.1612777588D+00  0.1000000000D+01
 ****
     51 0
 S   3 1.00       0.000000000000
      0.1873113696D+02  0.3349460434D-01
      0.2825394365D+01  0.2347269535D+00
      0.6401216923D+00  0.8137573261D+00
 S   1 1.00       0.000000000000
      0.1612777588D+00  0.1000000000D+01
 ****
     52 0
 S   3 1.00       0.000000000000
      0.1873113696D+02  0.3349460434D-01
      0.2825394365D+01  0.2347269535D+00
      0.6401216923D+00  0.8137573261D+00
 S   1 1.00       0.000000000000
      0.1612777588D+00  0.1000000000D+01
 ****
     53 0
 S   6 1.00       0.000000000000
      0.5484671660D+04  0.1831074430D-02
      0.8252349460D+03  0.1395017220D-01
      0.1880469580D+03  0.6844507810D-01
      0.5296450000D+02  0.2327143360D+00
      0.1689757040D+02  0.4701928980D+00
      0.5799635340D+01  0.3585208530D+00
 SP   3 1.00       0.000000000000
      0.1553961625D+02 -0.1107775495D+00  0.7087426823D-01
      0.3599933586D+01 -0.1480262627D+00  0.3397528391D+00
      0.1013761750D+01  0.1130767015D+01  0.7271585773D+00
 SP   1 1.00       0.000000000000
      0.2700058226D+00  0.1000000000D+01  0.1000000000D+01
 D   1 1.00       0.000000000000
      0.8000000000D+00  0.1000000000D+01
 ****
     54 0
 S   6 1.00       0.000000000000
      0.5484671660D+04  0.1831074430D-02
      0.8252349460D+03  0.1395017220D-01
      0.1880469580D+03  0.6844507810D-01
      0.5296450000D+02  0.2327143360D+00
      0.1689757040D+02  0.4701928980D+00
      0.5799635340D+01  0.3585208530D+00
 SP   3 1.00       0.000000000000
      0.1553961625D+02 -0.1107775495D+00  0.7087426823D-01
      0.3599933586D+01 -0.1480262627D+00  0.3397528391D+00
      0.1013761750D+01  0.1130767015D+01  0.7271585773D+00
 SP   1 1.00       0.000000000000
      0.2700058226D+00  0.1000000000D+01  0.1000000000D+01
 D   1 1.00       0.000000000000
      0.8000000000D+00  0.1000000000D+01
 ****
     55 0
 S   3 1.00       0.000000000000
      0.1873113696D+02  0.3349460434D-01
      0.2825394365D+01  0.2347269535D+00
      0.6401216923D+00  0.8137573261D+00
 S   1 1.00       0.000000000000
      0.1612777588D+00  0.1000000000D+01
 ****
     56 0
 S   6 1.00       0.000000000000
      0.5484671660D+04  0.1831074430D-02
      0.8252349460D+03  0.1395017220D-01
      0.1880469580D+03  0.6844507810D-01
      0.5296450000D+02  0.2327143360D+00
      0.1689757040D+02  0.4701928980D+00
      0.5799635340D+01  0.3585208530D+00
 SP   3 1.00       0.000000000000
      0.1553961625D+02 -0.1107775495D+00  0.7087426823D-01
      0.3599933586D+01 -0.1480262627D+00  0.3397528391D+00
      0.1013761750D+01  0.1130767015D+01  0.7271585773D+00
 SP   1 1.00       0.000000000000
      0.2700058226D+00  0.1000000000D+01  0.1000000000D+01
 D   1 1.00       0.000000000000
      0.8000000000D+00  0.1000000000D+01
 ****
     57 0
 S   3 1.00       0.000000000000
      0.1873113696D+02  0.3349460434D-01
      0.2825394365D+01  0.2347269535D+00
      0.6401216923D+00  0.8137573261D+00
 S   1 1.00       0.000000000000
      0.1612777588D+00  0.1000000000D+01
 ****
     58 0
 S   6 1.00       0.000000000000
      0.3047524880D+04  0.1834737132D-02
      0.4573695180D+03  0.1403732281D-01
      0.1039486850D+03  0.6884262226D-01
      0.2921015530D+02  0.2321844432D+00
      0.9286662960D+01  0.4679413484D+00
      0.3163926960D+01  0.3623119853D+00
 SP   3 1.00       0.000000000000
      0.7868272350D+01 -0.1193324198D+00  0.6899906659D-01
      0.1881288540D+01 -0.1608541517D+00  0.3164239610D+00
      0.5442492580D+00  0.1143456438D+01  0.7443082909D+00
 SP   1 1.00       0.000000000000
      0.1687144782D+00  0.1000000000D+01  0.1000000000D+01
 D   1 1.00       0.000000000000
      0.8000000000D+00  0.1000000000D+01
 ****
     59 0
 S   3 1.00       0.000000000000
      0.1873113696D+02  0.3349460434D-01
      0.2825394365D+01  0.2347269535D+00
      0.6401216923D+00  0.8137573261D+00
 S   1 1.00       0.000000000000
      0.1612777588D+00  0.1000000000D+01
 ****
     60 0
 S   3 1.00       0.000000000000
      0.1873113696D+02  0.3349460434D-01
      0.2825394365D+01  0.2347269535D+00
      0.6401216923D+00  0.8137573261D+00
 S   1 1.00       0.000000000000
      0.1612777588D+00  0.1000000000D+01
 ****
     61 0
 S   6 1.00       0.000000000000
      0.3047524880D+04  0.1834737132D-02
      0.4573695180D+03  0.1403732281D-01
      0.1039486850D+03  0.6884262226D-01
      0.2921015530D+02  0.2321844432D+00
      0.9286662960D+01  0.4679413484D+00
      0.3163926960D+01  0.3623119853D+00
 SP   3 1.00       0.000000000000
      0.7868272350D+01 -0.1193324198D+00  0.6899906659D-01
      0.1881288540D+01 -0.1608541517D+00  0.3164239610D+00
      0.5442492580D+00  0.1143456438D+01  0.7443082909D+00
 SP   1 1.00       0.000000000000
      0.1687144782D+00  0.1000000000D+01  0.1000000000D+01
 D   1 1.00       0.000000000000
      0.8000000000D+00  0.1000000000D+01
 ****
     62 0
 S   3 1.00       0.000000000000
      0.1873113696D+02  0.3349460434D-01
      0.2825394365D+01  0.2347269535D+00
      0.6401216923D+00  0.8137573261D+00
 S   1 1.00       0.000000000000
      0.1612777588D+00  0.1000000000D+01
 ****
     63 0
 S   3 1.00       0.000000000000
      0.1873113696D+02  0.3349460434D-01
      0.2825394365D+01  0.2347269535D+00
      0.6401216923D+00  0.8137573261D+00
 S   1 1.00       0.000000000000
      0.1612777588D+00  0.1000000000D+01
 ****
     64 0
 S   6 1.00       0.000000000000
      0.3047524880D+04  0.1834737132D-02
      0.4573695180D+03  0.1403732281D-01
      0.1039486850D+03  0.6884262226D-01
      0.2921015530D+02  0.2321844432D+00
      0.9286662960D+01  0.4679413484D+00
      0.3163926960D+01  0.3623119853D+00
 SP   3 1.00       0.000000000000
      0.7868272350D+01 -0.1193324198D+00  0.6899906659D-01
      0.1881288540D+01 -0.1608541517D+00  0.3164239610D+00
      0.5442492580D+00  0.1143456438D+01  0.7443082909D+00
 SP   1 1.00       0.000000000000
      0.1687144782D+00  0.1000000000D+01  0.1000000000D+01
 D   1 1.00       0.000000000000
      0.8000000000D+00  0.1000000000D+01
 ****
     65 0
 S   3 1.00       0.000000000000
      0.1873113696D+02  0.3349460434D-01
      0.2825394365D+01  0.2347269535D+00
      0.6401216923D+00  0.8137573261D+00
 S   1 1.00       0.000000000000
      0.1612777588D+00  0.1000000000D+01
 ****
     66 0
 S   3 1.00       0.000000000000
      0.1873113696D+02  0.3349460434D-01
      0.2825394365D+01  0.2347269535D+00
      0.6401216923D+00  0.8137573261D+00
 S   1 1.00       0.000000000000
      0.1612777588D+00  0.1000000000D+01
 ****
     67 0
 S   6 1.00       0.000000000000
      0.3047524880D+04  0.1834737132D-02
      0.4573695180D+03  0.1403732281D-01
      0.1039486850D+03  0.6884262226D-01
      0.2921015530D+02  0.2321844432D+00
      0.9286662960D+01  0.4679413484D+00
      0.3163926960D+01  0.3623119853D+00
 SP   3 1.00       0.000000000000
      0.7868272350D+01 -0.1193324198D+00  0.6899906659D-01
      0.1881288540D+01 -0.1608541517D+00  0.3164239610D+00
      0.5442492580D+00  0.1143456438D+01  0.7443082909D+00
 SP   1 1.00       0.000000000000
      0.1687144782D+00  0.1000000000D+01  0.1000000000D+01
 D   1 1.00       0.000000000000
      0.8000000000D+00  0.1000000000D+01
 ****
     68 0
 S   3 1.00       0.000000000000
      0.1873113696D+02  0.3349460434D-01
      0.2825394365D+01  0.2347269535D+00
      0.6401216923D+00  0.8137573261D+00
 S   1 1.00       0.000000000000
      0.1612777588D+00  0.1000000000D+01
 ****
     69 0
 S   6 1.00       0.000000000000
      0.3047524880D+04  0.1834737132D-02
      0.4573695180D+03  0.1403732281D-01
      0.1039486850D+03  0.6884262226D-01
      0.2921015530D+02  0.2321844432D+00
      0.9286662960D+01  0.4679413484D+00
      0.3163926960D+01  0.3623119853D+00
 SP   3 1.00       0.000000000000
      0.7868272350D+01 -0.1193324198D+00  0.6899906659D-01
      0.1881288540D+01 -0.1608541517D+00  0.3164239610D+00
      0.5442492580D+00  0.1143456438D+01  0.7443082909D+00
 SP   1 1.00       0.000000000000
      0.1687144782D+00  0.1000000000D+01  0.1000000000D+01
 D   1 1.00       0.000000000000
      0.8000000000D+00  0.1000000000D+01
 ****
     70 0
 S   3 1.00       0.000000000000
      0.1873113696D+02  0.3349460434D-01
      0.2825394365D+01  0.2347269535D+00
      0.6401216923D+00  0.8137573261D+00
 S   1 1.00       0.000000000000
      0.1612777588D+00  0.1000000000D+01
 ****
     71 0
 S   3 1.00       0.000000000000
      0.1873113696D+02  0.3349460434D-01
      0.2825394365D+01  0.2347269535D+00
      0.6401216923D+00  0.8137573261D+00
 S   1 1.00       0.000000000000
      0.1612777588D+00  0.1000000000D+01
 ****
     72 0
 S   3 1.00       0.000000000000
      0.1873113696D+02  0.3349460434D-01
      0.2825394365D+01  0.2347269535D+00
      0.6401216923D+00  0.8137573261D+00
 S   1 1.00       0.000000000000
      0.1612777588D+00  0.1000000000D+01
 ****
     73 0
 S   6 1.00       0.000000000000
      0.3047524880D+04  0.1834737132D-02
      0.4573695180D+03  0.1403732281D-01
      0.1039486850D+03  0.6884262226D-01
      0.2921015530D+02  0.2321844432D+00
      0.9286662960D+01  0.4679413484D+00
      0.3163926960D+01  0.3623119853D+00
 SP   3 1.00       0.000000000000
      0.7868272350D+01 -0.1193324198D+00  0.6899906659D-01
      0.1881288540D+01 -0.1608541517D+00  0.3164239610D+00
      0.5442492580D+00  0.1143456438D+01  0.7443082909D+00
 SP   1 1.00       0.000000000000
      0.1687144782D+00  0.1000000000D+01  0.1000000000D+01
 D   1 1.00       0.000000000000
      0.8000000000D+00  0.1000000000D+01
 ****
     74 0
 S   3 1.00       0.000000000000
      0.1873113696D+02  0.3349460434D-01
      0.2825394365D+01  0.2347269535D+00
      0.6401216923D+00  0.8137573261D+00
 S   1 1.00       0.000000000000
      0.1612777588D+00  0.1000000000D+01
 ****
     75 0
 S   3 1.00       0.000000000000
      0.1873113696D+02  0.3349460434D-01
      0.2825394365D+01  0.2347269535D+00
      0.6401216923D+00  0.8137573261D+00
 S   1 1.00       0.000000000000
      0.1612777588D+00  0.1000000000D+01
 ****
     76 0
 S   3 1.00       0.000000000000
      0.1873113696D+02  0.3349460434D-01
      0.2825394365D+01  0.2347269535D+00
      0.6401216923D+00  0.8137573261D+00
 S   1 1.00       0.000000000000
      0.1612777588D+00  0.1000000000D+01
 ****

 AO basis set (Overlap normalization):
 Atom C1       Shell     1 S   6     bf    1 -     1         14.204595470067          4.063963536393         -0.107755377734
      0.3047524880D+04  0.1834737132D-02
      0.4573695180D+03  0.1403732281D-01
      0.1039486850D+03  0.6884262226D-01
      0.2921015530D+02  0.2321844432D+00
      0.9286662960D+01  0.4679413484D+00
      0.3163926960D+01  0.3623119853D+00
 Atom C1       Shell     2 SP   3    bf    2 -     5         14.204595470067          4.063963536393         -0.107755377734
      0.7868272350D+01 -0.1193324198D+00  0.6899906659D-01
      0.1881288540D+01 -0.1608541517D+00  0.3164239610D+00
      0.5442492580D+00  0.1143456438D+01  0.7443082909D+00
 Atom C1       Shell     3 SP   1    bf    6 -     9         14.204595470067          4.063963536393         -0.107755377734
      0.1687144782D+00  0.1000000000D+01  0.1000000000D+01
 Atom C1       Shell     4 D   1     bf   10 -    15         14.204595470067          4.063963536393         -0.107755377734
      0.8000000000D+00  0.1000000000D+01
 Atom H2       Shell     5 S   3     bf   16 -    16         14.013408400106          3.906422681181          1.950268139382
      0.1873113696D+02  0.3349460434D-01
      0.2825394365D+01  0.2347269535D+00
      0.6401216923D+00  0.8137573261D+00
 Atom H2       Shell     6 S   1     bf   17 -    17         14.013408400106          3.906422681181          1.950268139382
      0.1612777588D+00  0.1000000000D+01
 Atom C3       Shell     7 S   6     bf   18 -    18         12.780234145042          1.861332128465         -1.354713843232
      0.3047524880D+04  0.1834737132D-02
      0.4573695180D+03  0.1403732281D-01
      0.1039486850D+03  0.6884262226D-01
      0.2921015530D+02  0.2321844432D+00
      0.9286662960D+01  0.4679413484D+00
      0.3163926960D+01  0.3623119853D+00
 Atom C3       Shell     8 SP   3    bf   19 -    22         12.780234145042          1.861332128465         -1.354713843232
      0.7868272350D+01 -0.1193324198D+00  0.6899906659D-01
      0.1881288540D+01 -0.1608541517D+00  0.3164239610D+00
      0.5442492580D+00  0.1143456438D+01  0.7443082909D+00
 Atom C3       Shell     9 SP   1    bf   23 -    26         12.780234145042          1.861332128465         -1.354713843232
      0.1687144782D+00  0.1000000000D+01  0.1000000000D+01
 Atom C3       Shell    10 D   1     bf   27 -    32         12.780234145042          1.861332128465         -1.354713843232
      0.8000000000D+00  0.1000000000D+01
 Atom H4       Shell    11 S   3     bf   33 -    33         13.519276026763          0.064198229721         -0.646532776632
      0.1873113696D+02  0.3349460434D-01
      0.2825394365D+01  0.2347269535D+00
      0.6401216923D+00  0.8137573261D+00
 Atom H4       Shell    12 S   1     bf   34 -    34         13.519276026763          0.064198229721         -0.646532776632
      0.1612777588D+00  0.1000000000D+01
 Atom H5       Shell    13 S   3     bf   35 -    35         13.195042939595          1.913869803083         -3.393587329252
      0.1873113696D+02  0.3349460434D-01
      0.2825394365D+01  0.2347269535D+00
      0.6401216923D+00  0.8137573261D+00
 Atom H5       Shell    14 S   1     bf   36 -    36         13.195042939595          1.913869803083         -3.393587329252
      0.1612777588D+00  0.1000000000D+01
 Atom C6       Shell    15 S   6     bf   37 -    37          9.948328054466          2.007967959979         -0.925635651061
      0.3047524880D+04  0.1834737132D-02
      0.4573695180D+03  0.1403732281D-01
      0.1039486850D+03  0.6884262226D-01
      0.2921015530D+02  0.2321844432D+00
      0.9286662960D+01  0.4679413484D+00
      0.3163926960D+01  0.3623119853D+00
 Atom C6       Shell    16 SP   3    bf   38 -    41          9.948328054466          2.007967959979         -0.925635651061
      0.7868272350D+01 -0.1193324198D+00  0.6899906659D-01
      0.1881288540D+01 -0.1608541517D+00  0.3164239610D+00
      0.5442492580D+00  0.1143456438D+01  0.7443082909D+00
 Atom C6       Shell    17 SP   1    bf   42 -    45          9.948328054466          2.007967959979         -0.925635651061
      0.1687144782D+00  0.1000000000D+01  0.1000000000D+01
 Atom C6       Shell    18 D   1     bf   46 -    51          9.948328054466          2.007967959979         -0.925635651061
      0.8000000000D+00  0.1000000000D+01
 Atom C7       Shell    19 S   6     bf   52 -    52          8.657235110723          4.513175607777         -1.603532325704
      0.3047524880D+04  0.1834737132D-02
      0.4573695180D+03  0.1403732281D-01
      0.1039486850D+03  0.6884262226D-01
      0.2921015530D+02  0.2321844432D+00
      0.9286662960D+01  0.4679413484D+00
      0.3163926960D+01  0.3623119853D+00
 Atom C7       Shell    20 SP   3    bf   53 -    56          8.657235110723          4.513175607777         -1.603532325704
      0.7868272350D+01 -0.1193324198D+00  0.6899906659D-01
      0.1881288540D+01 -0.1608541517D+00  0.3164239610D+00
      0.5442492580D+00  0.1143456438D+01  0.7443082909D+00
 Atom C7       Shell    21 SP   1    bf   57 -    60          8.657235110723          4.513175607777         -1.603532325704
      0.1687144782D+00  0.1000000000D+01  0.1000000000D+01
 Atom C7       Shell    22 D   1     bf   61 -    66          8.657235110723          4.513175607777         -1.603532325704
      0.8000000000D+00  0.1000000000D+01
 Atom C8       Shell    23 S   6     bf   67 -    67         10.238631260096          6.706653182317         -0.428404278038
      0.3047524880D+04  0.1834737132D-02
      0.4573695180D+03  0.1403732281D-01
      0.1039486850D+03  0.6884262226D-01
      0.2921015530D+02  0.2321844432D+00
      0.9286662960D+01  0.4679413484D+00
      0.3163926960D+01  0.3623119853D+00
 Atom C8       Shell    24 SP   3    bf   68 -    71         10.238631260096          6.706653182317         -0.428404278038
      0.7868272350D+01 -0.1193324198D+00  0.6899906659D-01
      0.1881288540D+01 -0.1608541517D+00  0.3164239610D+00
      0.5442492580D+00  0.1143456438D+01  0.7443082909D+00
 Atom C8       Shell    25 SP   1    bf   72 -    75         10.238631260096          6.706653182317         -0.428404278038
      0.1687144782D+00  0.1000000000D+01  0.1000000000D+01
 Atom C8       Shell    26 D   1     bf   76 -    81         10.238631260096          6.706653182317         -0.428404278038
      0.8000000000D+00  0.1000000000D+01
 Atom H9       Shell    27 S   3     bf   82 -    82          9.961063807047          6.674374524577          1.628615548837
      0.1873113696D+02  0.3349460434D-01
      0.2825394365D+01  0.2347269535D+00
      0.6401216923D+00  0.8137573261D+00
 Atom H9       Shell    28 S   1     bf   83 -    83          9.961063807047          6.674374524577          1.628615548837
      0.1612777588D+00  0.1000000000D+01
 Atom H10      Shell    29 S   3     bf   84 -    84          9.493905686880          8.520063915854         -1.092759987795
      0.1873113696D+02  0.3349460434D-01
      0.2825394365D+01  0.2347269535D+00
      0.6401216923D+00  0.8137573261D+00
 Atom H10      Shell    30 S   1     bf   85 -    85          9.493905686880          8.520063915854         -1.092759987795
      0.1612777588D+00  0.1000000000D+01
 Atom C11      Shell    31 S   6     bf   86 -    86         13.088916959321          6.585531053549         -0.968797373882
      0.3047524880D+04  0.1834737132D-02
      0.4573695180D+03  0.1403732281D-01
      0.1039486850D+03  0.6884262226D-01
      0.2921015530D+02  0.2321844432D+00
      0.9286662960D+01  0.4679413484D+00
      0.3163926960D+01  0.3623119853D+00
 Atom C11      Shell    32 SP   3    bf   87 -    90         13.088916959321          6.585531053549         -0.968797373882
      0.7868272350D+01 -0.1193324198D+00  0.6899906659D-01
      0.1881288540D+01 -0.1608541517D+00  0.3164239610D+00
      0.5442492580D+00  0.1143456438D+01  0.7443082909D+00
 Atom C11      Shell    33 SP   1    bf   91 -    94         13.088916959321          6.585531053549         -0.968797373882
      0.1687144782D+00  0.1000000000D+01  0.1000000000D+01
 Atom C11      Shell    34 D   1     bf   95 -   100         13.088916959321          6.585531053549         -0.968797373882
      0.8000000000D+00  0.1000000000D+01
 Atom H12      Shell    35 S   3     bf  101 -   101         13.455750615134          6.830983593628         -3.000235713534
      0.1873113696D+02  0.3349460434D-01
      0.2825394365D+01  0.2347269535D+00
      0.6401216923D+00  0.8137573261D+00
 Atom H12      Shell    36 S   1     bf  102 -   102         13.455750615134          6.830983593628         -3.000235713534
      0.1612777588D+00  0.1000000000D+01
 Atom H13      Shell    37 S   3     bf  103 -   103         14.060163361579          8.136919844815          0.000000000000
      0.1873113696D+02  0.3349460434D-01
      0.2825394365D+01  0.2347269535D+00
      0.6401216923D+00  0.8137573261D+00
 Atom H13      Shell    38 S   1     bf  104 -   104         14.060163361579          8.136919844815          0.000000000000
      0.1612777588D+00  0.1000000000D+01
 Atom C14      Shell    39 S   6     bf  105 -   105          8.706073608642          0.000000000000          0.000000000000
      0.3047524880D+04  0.1834737132D-02
      0.4573695180D+03  0.1403732281D-01
      0.1039486850D+03  0.6884262226D-01
      0.2921015530D+02  0.2321844432D+00
      0.9286662960D+01  0.4679413484D+00
      0.3163926960D+01  0.3623119853D+00
 Atom C14      Shell    40 SP   3    bf  106 -   109          8.706073608642          0.000000000000          0.000000000000
      0.7868272350D+01 -0.1193324198D+00  0.6899906659D-01
      0.1881288540D+01 -0.1608541517D+00  0.3164239610D+00
      0.5442492580D+00  0.1143456438D+01  0.7443082909D+00
 Atom C14      Shell    41 SP   1    bf  110 -   113          8.706073608642          0.000000000000          0.000000000000
      0.1687144782D+00  0.1000000000D+01  0.1000000000D+01
 Atom C14      Shell    42 D   1     bf  114 -   119          8.706073608642          0.000000000000          0.000000000000
      0.8000000000D+00  0.1000000000D+01
 Atom H15      Shell    43 S   3     bf  120 -   120          9.759440403265         -1.711197336735          0.439126319554
      0.1873113696D+02  0.3349460434D-01
      0.2825394365D+01  0.2347269535D+00
      0.6401216923D+00  0.8137573261D+00
 Atom H15      Shell    44 S   1     bf  121 -   121          9.759440403265         -1.711197336735          0.439126319554
      0.1612777588D+00  0.1000000000D+01
 Atom C16      Shell    45 S   6     bf  122 -   122          5.914490002960         -0.083816081419          0.501003077412
      0.3047524880D+04  0.1834737132D-02
      0.4573695180D+03  0.1403732281D-01
      0.1039486850D+03  0.6884262226D-01
      0.2921015530D+02  0.2321844432D+00
      0.9286662960D+01  0.4679413484D+00
      0.3163926960D+01  0.3623119853D+00
 Atom C16      Shell    46 SP   3    bf  123 -   126          5.914490002960         -0.083816081419          0.501003077412
      0.7868272350D+01 -0.1193324198D+00  0.6899906659D-01
      0.1881288540D+01 -0.1608541517D+00  0.3164239610D+00
      0.5442492580D+00  0.1143456438D+01  0.7443082909D+00
 Atom C16      Shell    47 SP   1    bf  127 -   130          5.914490002960         -0.083816081419          0.501003077412
      0.1687144782D+00  0.1000000000D+01  0.1000000000D+01
 Atom C16      Shell    48 D   1     bf  131 -   136          5.914490002960         -0.083816081419          0.501003077412
      0.8000000000D+00  0.1000000000D+01
 Atom H17      Shell    49 S   3     bf  137 -   137          5.135192381472         -1.908434402704         -0.102302384005
      0.1873113696D+02  0.3349460434D-01
      0.2825394365D+01  0.2347269535D+00
      0.6401216923D+00  0.8137573261D+00
 Atom H17      Shell    50 S   1     bf  138 -   138          5.135192381472         -1.908434402704         -0.102302384005
      0.1612777588D+00  0.1000000000D+01
 Atom C18      Shell    51 S   6     bf  139 -   139          4.476802404836          2.079191700133         -0.809397765148
      0.3047524880D+04  0.1834737132D-02
      0.4573695180D+03  0.1403732281D-01
      0.1039486850D+03  0.6884262226D-01
      0.2921015530D+02  0.2321844432D+00
      0.9286662960D+01  0.4679413484D+00
      0.3163926960D+01  0.3623119853D+00
 Atom C18      Shell    52 SP   3    bf  140 -   143          4.476802404836          2.079191700133         -0.809397765148
      0.7868272350D+01 -0.1193324198D+00  0.6899906659D-01
      0.1881288540D+01 -0.1608541517D+00  0.3164239610D+00
      0.5442492580D+00  0.1143456438D+01  0.7443082909D+00
 Atom C18      Shell    53 SP   1    bf  144 -   147          4.476802404836          2.079191700133         -0.809397765148
      0.1687144782D+00  0.1000000000D+01  0.1000000000D+01
 Atom C18      Shell    54 D   1     bf  148 -   153          4.476802404836          2.079191700133         -0.809397765148
      0.8000000000D+00  0.1000000000D+01
 Atom H19      Shell    55 S   3     bf  154 -   154          4.448998939832          1.560735773562         -2.820118205726
      0.1873113696D+02  0.3349460434D-01
      0.2825394365D+01  0.2347269535D+00
      0.6401216923D+00  0.8137573261D+00
 Atom H19      Shell    56 S   1     bf  155 -   155          4.448998939832          1.560735773562         -2.820118205726
      0.1612777588D+00  0.1000000000D+01
 Atom C20      Shell    57 S   6     bf  156 -   156          5.914140592598          4.615719007453         -0.479439677072
      0.3047524880D+04  0.1834737132D-02
      0.4573695180D+03  0.1403732281D-01
      0.1039486850D+03  0.6884262226D-01
      0.2921015530D+02  0.2321844432D+00
      0.9286662960D+01  0.4679413484D+00
      0.3163926960D+01  0.3623119853D+00
 Atom C20      Shell    58 SP   3    bf  157 -   160          5.914140592598          4.615719007453         -0.479439677072
      0.7868272350D+01 -0.1193324198D+00  0.6899906659D-01
      0.1881288540D+01 -0.1608541517D+00  0.3164239610D+00
      0.5442492580D+00  0.1143456438D+01  0.7443082909D+00
 Atom C20      Shell    59 SP   1    bf  161 -   164          5.914140592598          4.615719007453         -0.479439677072
      0.1687144782D+00  0.1000000000D+01  0.1000000000D+01
 Atom C20      Shell    60 D   1     bf  165 -   170          5.914140592598          4.615719007453         -0.479439677072
      0.8000000000D+00  0.1000000000D+01
 Atom H21      Shell    61 S   3     bf  171 -   171          6.143403508746          4.868027303867          1.570908112643
      0.1873113696D+02  0.3349460434D-01
      0.2825394365D+01  0.2347269535D+00
      0.6401216923D+00  0.8137573261D+00
 Atom H21      Shell    62 S   1     bf  172 -   172          6.143403508746          4.868027303867          1.570908112643
      0.1612777588D+00  0.1000000000D+01
 Atom C22      Shell    63 S   6     bf  173 -   173          4.356656962122          6.896860523764         -1.445493187505
      0.3047524880D+04  0.1834737132D-02
      0.4573695180D+03  0.1403732281D-01
      0.1039486850D+03  0.6884262226D-01
      0.2921015530D+02  0.2321844432D+00
      0.9286662960D+01  0.4679413484D+00
      0.3163926960D+01  0.3623119853D+00
 Atom C22      Shell    64 SP   3    bf  174 -   177          4.356656962122          6.896860523764         -1.445493187505
      0.7868272350D+01 -0.1193324198D+00  0.6899906659D-01
      0.1881288540D+01 -0.1608541517D+00  0.3164239610D+00
      0.5442492580D+00  0.1143456438D+01  0.7443082909D+00
 Atom C22      Shell    65 SP   1    bf  178 -   181          4.356656962122          6.896860523764         -1.445493187505
      0.1687144782D+00  0.1000000000D+01  0.1000000000D+01
 Atom C22      Shell    66 D   1     bf  182 -   187          4.356656962122          6.896860523764         -1.445493187505
      0.8000000000D+00  0.1000000000D+01
 Atom H23      Shell    67 S   3     bf  188 -   188          4.324449622646          6.905816124880         -3.513778673413
      0.1873113696D+02  0.3349460434D-01
      0.2825394365D+01  0.2347269535D+00
      0.6401216923D+00  0.8137573261D+00
 Atom H23      Shell    68 S   1     bf  189 -   189          4.324449622646          6.905816124880         -3.513778673413
      0.1612777588D+00  0.1000000000D+01
 Atom H24      Shell    69 S   3     bf  190 -   190          5.294773309428          8.656220006537         -0.884323365413
      0.1873113696D+02  0.3349460434D-01
      0.2825394365D+01  0.2347269535D+00
      0.6401216923D+00  0.8137573261D+00
 Atom H24      Shell    70 S   1     bf  191 -   191          5.294773309428          8.656220006537         -0.884323365413
      0.1612777588D+00  0.1000000000D+01
 Atom C25      Shell    71 S   6     bf  192 -   192          1.604316694330          6.966087125752         -0.488638561530
      0.3047524880D+04  0.1834737132D-02
      0.4573695180D+03  0.1403732281D-01
      0.1039486850D+03  0.6884262226D-01
      0.2921015530D+02  0.2321844432D+00
      0.9286662960D+01  0.4679413484D+00
      0.3163926960D+01  0.3623119853D+00
 Atom C25      Shell    72 SP   3    bf  193 -   196          1.604316694330          6.966087125752         -0.488638561530
      0.7868272350D+01 -0.1193324198D+00  0.6899906659D-01
      0.1881288540D+01 -0.1608541517D+00  0.3164239610D+00
      0.5442492580D+00  0.1143456438D+01  0.7443082909D+00
 Atom C25      Shell    73 SP   1    bf  197 -   200          1.604316694330          6.966087125752         -0.488638561530
      0.1687144782D+00  0.1000000000D+01  0.1000000000D+01
 Atom C25      Shell    74 D   1     bf  201 -   206          1.604316694330          6.966087125752         -0.488638561530
      0.8000000000D+00  0.1000000000D+01
 Atom H26      Shell    75 S   3     bf  207 -   207          1.587845727972          7.265122075540          1.566717078026
      0.1873113696D+02  0.3349460434D-01
      0.2825394365D+01  0.2347269535D+00
      0.6401216923D+00  0.8137573261D+00
 Atom H26      Shell    76 S   1     bf  208 -   208          1.587845727972          7.265122075540          1.566717078026
      0.1612777588D+00  0.1000000000D+01
 Atom H27      Shell    77 S   3     bf  209 -   209          0.653346599944          8.600917908251         -1.333488288130
      0.1873113696D+02  0.3349460434D-01
      0.2825394365D+01  0.2347269535D+00
      0.6401216923D+00  0.8137573261D+00
 Atom H27      Shell    78 S   1     bf  210 -   210          0.653346599944          8.600917908251         -1.333488288130
      0.1612777588D+00  0.1000000000D+01
 Atom C28      Shell    79 S   6     bf  211 -   211          0.197121849367          4.489212576501         -1.091677099131
      0.3047524880D+04  0.1834737132D-02
      0.4573695180D+03  0.1403732281D-01
      0.1039486850D+03  0.6884262226D-01
      0.2921015530D+02  0.2321844432D+00
      0.9286662960D+01  0.4679413484D+00
      0.3163926960D+01  0.3623119853D+00
 Atom C28      Shell    80 SP   3    bf  212 -   215          0.197121849367          4.489212576501         -1.091677099131
      0.7868272350D+01 -0.1193324198D+00  0.6899906659D-01
      0.1881288540D+01 -0.1608541517D+00  0.3164239610D+00
      0.5442492580D+00  0.1143456438D+01  0.7443082909D+00
 Atom C28      Shell    81 SP   1    bf  216 -   219          0.197121849367          4.489212576501         -1.091677099131
      0.1687144782D+00  0.1000000000D+01  0.1000000000D+01
 Atom C28      Shell    82 D   1     bf  220 -   225          0.197121849367          4.489212576501         -1.091677099131
      0.8000000000D+00  0.1000000000D+01
 Atom C29      Shell    83 S   6     bf  226 -   226          1.746687395065          2.318286124357          0.146260097267
      0.3047524880D+04  0.1834737132D-02
      0.4573695180D+03  0.1403732281D-01
      0.1039486850D+03  0.6884262226D-01
      0.2921015530D+02  0.2321844432D+00
      0.9286662960D+01  0.4679413484D+00
      0.3163926960D+01  0.3623119853D+00
 Atom C29      Shell    84 SP   3    bf  227 -   230          1.746687395065          2.318286124357          0.146260097267
      0.7868272350D+01 -0.1193324198D+00  0.6899906659D-01
      0.1881288540D+01 -0.1608541517D+00  0.3164239610D+00
      0.5442492580D+00  0.1143456438D+01  0.7443082909D+00
 Atom C29      Shell    85 SP   1    bf  231 -   234          1.746687395065          2.318286124357          0.146260097267
      0.1687144782D+00  0.1000000000D+01  0.1000000000D+01
 Atom C29      Shell    86 D   1     bf  235 -   240          1.746687395065          2.318286124357          0.146260097267
      0.8000000000D+00  0.1000000000D+01
 Atom H30      Shell    87 S   3     bf  241 -   241          1.883940471768          2.819765204885          2.155296470608
      0.1873113696D+02  0.3349460434D-01
      0.2825394365D+01  0.2347269535D+00
      0.6401216923D+00  0.8137573261D+00
 Atom H30      Shell    88 S   1     bf  242 -   242          1.883940471768          2.819765204885          2.155296470608
      0.1612777588D+00  0.1000000000D+01
 Atom C31      Shell    89 S   6     bf  243 -   243          0.000000000000          0.000000000000          0.000000000000
      0.3047524880D+04  0.1834737132D-02
      0.4573695180D+03  0.1403732281D-01
      0.1039486850D+03  0.6884262226D-01
      0.2921015530D+02  0.2321844432D+00
      0.9286662960D+01  0.4679413484D+00
      0.3163926960D+01  0.3623119853D+00
 Atom C31      Shell    90 SP   3    bf  244 -   247          0.000000000000          0.000000000000          0.000000000000
      0.7868272350D+01 -0.1193324198D+00  0.6899906659D-01
      0.1881288540D+01 -0.1608541517D+00  0.3164239610D+00
      0.5442492580D+00  0.1143456438D+01  0.7443082909D+00
 Atom C31      Shell    91 SP   1    bf  248 -   251          0.000000000000          0.000000000000          0.000000000000
      0.1687144782D+00  0.1000000000D+01  0.1000000000D+01
 Atom C31      Shell    92 D   1     bf  252 -   257          0.000000000000          0.000000000000          0.000000000000
      0.8000000000D+00  0.1000000000D+01
 Atom H32      Shell    93 S   3     bf  258 -   258          0.448201237978         -1.393686647929          1.458561135043
      0.1873113696D+02  0.3349460434D-01
      0.2825394365D+01  0.2347269535D+00
      0.6401216923D+00  0.8137573261D+00
 Atom H32      Shell    94 S   1     bf  259 -   259          0.448201237978         -1.393686647929          1.458561135043
      0.1612777588D+00  0.1000000000D+01
 Atom H33      Shell    95 S   3     bf  260 -   260          0.187728342014         -0.953775336139         -1.832158649809
      0.1873113696D+02  0.3349460434D-01
      0.2825394365D+01  0.2347269535D+00
      0.6401216923D+00  0.8137573261D+00
 Atom H33      Shell    96 S   1     bf  261 -   261          0.187728342014         -0.953775336139         -1.832158649809
      0.1612777588D+00  0.1000000000D+01
 Atom C34      Shell    97 S   6     bf  262 -   262         -2.691916841611          1.138167555638          0.321040583839
      0.3047524880D+04  0.1834737132D-02
      0.4573695180D+03  0.1403732281D-01
      0.1039486850D+03  0.6884262226D-01
      0.2921015530D+02  0.2321844432D+00
      0.9286662960D+01  0.4679413484D+00
      0.3163926960D+01  0.3623119853D+00
 Atom C34      Shell    98 SP   3    bf  263 -   266         -2.691916841611          1.138167555638          0.321040583839
      0.7868272350D+01 -0.1193324198D+00  0.6899906659D-01
      0.1881288540D+01 -0.1608541517D+00  0.3164239610D+00
      0.5442492580D+00  0.1143456438D+01  0.7443082909D+00
 Atom C34      Shell    99 SP   1    bf  267 -   270         -2.691916841611          1.138167555638          0.321040583839
      0.1687144782D+00  0.1000000000D+01  0.1000000000D+01
 Atom C34      Shell   100 D   1     bf  271 -   276         -2.691916841611          1.138167555638          0.321040583839
      0.8000000000D+00  0.1000000000D+01
 Atom H35      Shell   101 S   3     bf  277 -   277         -3.937828190961          0.515926792704         -1.208700714274
      0.1873113696D+02  0.3349460434D-01
      0.2825394365D+01  0.2347269535D+00
      0.6401216923D+00  0.8137573261D+00
 Atom H35      Shell   102 S   1     bf  278 -   278         -3.937828190961          0.515926792704         -1.208700714274
      0.1612777588D+00  0.1000000000D+01
 Atom H36      Shell   103 S   3     bf  279 -   279         -3.584123596429          0.517894092095          2.082786545053
      0.1873113696D+02  0.3349460434D-01
      0.2825394365D+01  0.2347269535D+00
      0.6401216923D+00  0.8137573261D+00
 Atom H36      Shell   104 S   1     bf  280 -   280         -3.584123596429          0.517894092095          2.082786545053
      0.1612777588D+00  0.1000000000D+01
 Atom C37      Shell   105 S   6     bf  281 -   281         -2.373680157819          4.071785377419          0.318006741916
      0.3047524880D+04  0.1834737132D-02
      0.4573695180D+03  0.1403732281D-01
      0.1039486850D+03  0.6884262226D-01
      0.2921015530D+02  0.2321844432D+00
      0.9286662960D+01  0.4679413484D+00
      0.3163926960D+01  0.3623119853D+00
 Atom C37      Shell   106 SP   3    bf  282 -   285         -2.373680157819          4.071785377419          0.318006741916
      0.7868272350D+01 -0.1193324198D+00  0.6899906659D-01
      0.1881288540D+01 -0.1608541517D+00  0.3164239610D+00
      0.5442492580D+00  0.1143456438D+01  0.7443082909D+00
[...]
 **** Fit       0.002344
 **** Fit      -0.008927
 **** Fit      -0.021218
 **** Fit      -0.032030
 **** Fit      -0.039182
 **** Fit      -0.041719
 **** Fit      -0.040220
 **** Fit      -0.036194
 **** Fit      -0.031163
 **** Fit      -0.026143
 **** Fit      -0.021633
 **** Fit       0.013745
 **** Fit       0.014449
 **** Fit       0.014607
 **** Fit       0.013763
 **** Fit       0.011340
 **** Fit       0.006802
 **** Fit      -0.000013
 **** Fit      -0.008576
 **** Fit      -0.017612
 **** Fit      -0.025471
 **** Fit      -0.030750
 **** Fit      -0.032856
 **** Fit      -0.032133
 **** Fit      -0.029509
 **** Fit      -0.025971
 **** Fit      -0.022249
 **** Fit       0.011777
 **** Fit       0.011996
 **** Fit       0.011669
 **** Fit       0.010480
 **** Fit       0.008086
 **** Fit       0.004230
 **** Fit      -0.001073
 **** Fit      -0.007388
 **** Fit      -0.013869
 **** Fit      -0.019481
 **** Fit      -0.023368
 **** Fit      -0.025150
 **** Fit      -0.024999
 **** Fit      -0.023446
 **** Fit      -0.021105
 **** Fit       0.009908
 **** Fit       0.009314
 **** Fit       0.008029
 **** Fit       0.005864
 **** Fit       0.002720
 **** Fit      -0.001318
 **** Fit      -0.005922
 **** Fit      -0.010542
 **** Fit      -0.014546
 **** Fit      -0.017418
 **** Fit      -0.018914
 **** Fit      -0.019105
 **** Fit      -0.018283
 **** Fit       0.006273
 **** Fit       0.004415
 **** Fit       0.001913
 **** Fit      -0.001134
 **** Fit      -0.004488
 **** Fit      -0.007797
 **** Fit      -0.010676
 **** Fit      -0.012813
 **** Fit      -0.003351
 **** Fit      -0.006468
 **** Fit      -0.009739
 **** Fit      -0.015402
 **** Fit       0.004501
 **** Fit       0.002701
 **** Fit       0.000141
 **** Fit      -0.003198
 **** Fit      -0.007179
 **** Fit      -0.011478
 **** Fit      -0.015611
 **** Fit      -0.019047
 **** Fit      -0.021366
 **** Fit      -0.022383
 **** Fit      -0.022178
 **** Fit       0.007304
 **** Fit       0.006251
 **** Fit       0.004392
 **** Fit       0.001518
 **** Fit      -0.002476
 **** Fit      -0.007472
 **** Fit      -0.013055
 **** Fit      -0.018538
 **** Fit      -0.023126
 **** Fit      -0.026172
 **** Fit      -0.027396
 **** Fit      -0.026940
 **** Fit      -0.025235
 **** Fit      -0.022797
 **** Fit       0.009450
 **** Fit       0.009273
 **** Fit       0.008469
 **** Fit       0.006714
 **** Fit       0.003659
 **** Fit      -0.000938
 **** Fit      -0.007030
 **** Fit      -0.014119
 **** Fit      -0.021269
 **** Fit      -0.027328
 **** Fit      -0.031326
 **** Fit      -0.032835
 **** Fit      -0.032075
 **** Fit      -0.029703
 **** Fit      -0.026470
 **** Fit       0.011224
 **** Fit       0.011454
 **** Fit       0.011062
 **** Fit       0.009618
 **** Fit       0.006602
 **** Fit       0.001569
 **** Fit      -0.005567
 **** Fit      -0.014259
 **** Fit      -0.023295
 **** Fit      -0.031101
 **** Fit      -0.036289
 **** Fit      -0.038210
 **** Fit      -0.037159
 **** Fit      -0.034072
 **** Fit      -0.029990
 **** Fit      -0.025704
 **** Fit       0.011990
 **** Fit       0.012928
 **** Fit       0.013630
 **** Fit       0.013769
 **** Fit       0.012827
 **** Fit       0.010100
 **** Fit       0.004893
 **** Fit      -0.003074
 **** Fit      -0.013244
 **** Fit      -0.024146
 **** Fit      -0.033785
 **** Fit      -0.040319
 **** Fit      -0.042805
 **** Fit      -0.041570
 **** Fit      -0.037841
 **** Fit      -0.032980
 **** Fit      -0.027976
 **** Fit       0.013066
 **** Fit       0.014344
 **** Fit       0.015486
 **** Fit       0.016161
 **** Fit       0.015785
 **** Fit       0.013502
 **** Fit       0.008372
 **** Fit      -0.000100
 **** Fit      -0.011379
 **** Fit      -0.023790
 **** Fit      -0.035000
 **** Fit      -0.042777
 **** Fit      -0.045881
 **** Fit      -0.044620
 **** Fit      -0.040457
 **** Fit      -0.035034
 **** Fit      -0.029512
 **** Fit      -0.024488
 **** Fit       0.013754
 **** Fit       0.015253
 **** Fit       0.016689
 **** Fit       0.017736
 **** Fit       0.017782
 **** Fit       0.015880
 **** Fit       0.010932
 **** Fit       0.002288
 **** Fit      -0.009550
 **** Fit      -0.022784
 **** Fit      -0.034887
 **** Fit      -0.043412
 **** Fit      -0.046944
 **** Fit      -0.045766
 **** Fit      -0.041461
 **** Fit      -0.035817
 **** Fit      -0.030087
 **** Fit      -0.024899
 **** Fit       0.013963
 **** Fit       0.015510
 **** Fit       0.017009
 **** Fit       0.018136
 **** Fit       0.018281
 **** Fit       0.016496
 **** Fit       0.011675
 **** Fit       0.003152
 **** Fit      -0.008583
 **** Fit      -0.021731
 **** Fit      -0.033758
 **** Fit      -0.042243
 **** Fit      -0.045813
 **** Fit      -0.044762
 **** Fit      -0.040635
 **** Fit      -0.035172
 **** Fit      -0.029596
 **** Fit      -0.024531
 **** Fit       0.013679
 **** Fit       0.015098
 **** Fit       0.016422
 **** Fit       0.017327
 **** Fit       0.017239
 **** Fit       0.015296
 **** Fit       0.010541
 **** Fit       0.002442
 **** Fit      -0.008502
 **** Fit      -0.020630
 **** Fit      -0.031625
 **** Fit      -0.039328
 **** Fit      -0.042593
 **** Fit      -0.041725
 **** Fit      -0.038080
 **** Fit      -0.033171
 **** Fit      -0.028091
 **** Fit      -0.023418
 **** Fit       0.012973
 **** Fit       0.014130
 **** Fit       0.015112
 **** Fit       0.015608
 **** Fit       0.015107
 **** Fit       0.012906
 **** Fit       0.008290
 **** Fit       0.000935
 **** Fit      -0.008657
 **** Fit      -0.019076
 **** Fit      -0.028404
 **** Fit      -0.034911
 **** Fit      -0.037732
 **** Fit      -0.037142
 **** Fit      -0.034201
 **** Fit      -0.030110
 **** Fit      -0.025768
 **** Fit       0.012801
 **** Fit       0.013382
 **** Fit       0.013431
 **** Fit       0.012530
 **** Fit       0.010161
 **** Fit       0.005860
 **** Fit      -0.000504
 **** Fit      -0.008458
 **** Fit      -0.016894
 **** Fit      -0.024364
 **** Fit      -0.029603
 **** Fit      -0.031996
 **** Fit      -0.031739
 **** Fit      -0.029585
 **** Fit      -0.026410
 **** Fit      -0.022915
 **** Fit       0.011317
 **** Fit       0.011528
 **** Fit       0.011205
 **** Fit       0.010035
 **** Fit       0.007670
 **** Fit       0.003848
 **** Fit      -0.001430
 **** Fit      -0.007754
 **** Fit      -0.014304
 **** Fit      -0.020065
 **** Fit      -0.024167
 **** Fit      -0.026188
 **** Fit      -0.026238
 **** Fit      -0.024808
 **** Fit      -0.022501
 **** Fit       0.009766
 **** Fit       0.009194
 **** Fit       0.007910
 **** Fit       0.005699
 **** Fit       0.002439
 **** Fit      -0.001803
 **** Fit      -0.006694
 **** Fit      -0.011657
 **** Fit      -0.016009
 **** Fit      -0.019178
 **** Fit      -0.020875
 **** Fit      -0.021148
 **** Fit      -0.020298
 **** Fit       0.006240
 **** Fit       0.004275
 **** Fit       0.001576
 **** Fit      -0.001764
 **** Fit      -0.005492
 **** Fit      -0.009210
 **** Fit      -0.012473
 **** Fit      -0.014909
 **** Fit      -0.016323
 **** Fit       0.001119
 **** Fit      -0.001482
 **** Fit      -0.004307
 **** Fit      -0.000488
 **** Fit      -0.003231
 **** Fit      -0.006407
 **** Fit      -0.009776
 **** Fit      -0.013005
 **** Fit      -0.015734
 **** Fit       0.004574
 **** Fit       0.002860
 **** Fit       0.000405
 **** Fit      -0.002817
 **** Fit      -0.006686
 **** Fit      -0.010901
 **** Fit      -0.015007
 **** Fit      -0.018498
 **** Fit      -0.020956
 **** Fit      -0.022173
 **** Fit      -0.022191
 **** Fit       0.007086
 **** Fit       0.006111
 **** Fit       0.004393
 **** Fit       0.001743
 **** Fit      -0.001930
 **** Fit      -0.006526
 **** Fit      -0.011686
 **** Fit      -0.016814
 **** Fit      -0.021215
 **** Fit      -0.024301
 **** Fit      -0.025778
 **** Fit      -0.025710
 **** Fit      -0.024429
 **** Fit       0.008625
 **** Fit       0.007849
 **** Fit       0.006234
 **** Fit       0.003500
 **** Fit      -0.000538
 **** Fit      -0.005824
 **** Fit      -0.011952
 **** Fit      -0.018177
 **** Fit      -0.023590
 **** Fit      -0.027396
 **** Fit      -0.029188
 **** Fit      -0.029051
 **** Fit      -0.027434
 **** Fit      -0.024918
 **** Fit       0.010072
 **** Fit       0.010128
 **** Fit       0.009614
 **** Fit       0.008195
 **** Fit       0.005496
 **** Fit       0.001227
 **** Fit      -0.004626
 **** Fit      -0.011629
 **** Fit      -0.018900
 **** Fit      -0.025314
 **** Fit      -0.029862
 **** Fit      -0.032008
 **** Fit      -0.031845
 **** Fit      -0.029941
 **** Fit      -0.027019
 **** Fit       0.011096
 **** Fit       0.011398
 **** Fit       0.011147
 **** Fit       0.009961
 **** Fit       0.007384
 **** Fit       0.003023
 **** Fit      -0.003205
 **** Fit      -0.010859
 **** Fit      -0.018952
 **** Fit      -0.026186
 **** Fit      -0.031368
 **** Fit      -0.033846
 **** Fit      -0.033711
 **** Fit      -0.031622
 **** Fit      -0.028420
 **** Fit      -0.024812
 **** Fit       0.011765
 **** Fit       0.012234
 **** Fit       0.012172
 **** Fit       0.011172
 **** Fit       0.008728
 **** Fit       0.004385
 **** Fit      -0.001991
 **** Fit      -0.009962
 **** Fit      -0.018486
 **** Fit      -0.026169
 **** Fit      -0.031721
 **** Fit      -0.034420
 **** Fit      -0.034352
 **** Fit      -0.032219
 **** Fit      -0.028920
 **** Fit      -0.025206
 **** Fit       0.011986
 **** Fit       0.012503
 **** Fit       0.012500
 **** Fit       0.011569
 **** Fit       0.009206
 **** Fit       0.004950
 **** Fit      -0.001340
 **** Fit      -0.009233
 **** Fit      -0.017692
 **** Fit      -0.025334
 **** Fit      -0.030881
 **** Fit      -0.033624
 **** Fit      -0.033641
 **** Fit      -0.031617
 **** Fit      -0.028430
 **** Fit      -0.024817
 **** Fit       0.011746
 **** Fit       0.012186
 **** Fit       0.012104
 **** Fit       0.011121
 **** Fit       0.008776
 **** Fit       0.004667
 **** Fit      -0.001308
 **** Fit      -0.008729
 **** Fit      -0.016633
 **** Fit      -0.023752
 **** Fit      -0.028933
 **** Fit      -0.031544
 **** Fit      -0.031658
 **** Fit      -0.029881
 **** Fit      -0.026999
 **** Fit      -0.023682
 **** Fit       0.011113
 **** Fit       0.011383
 **** Fit       0.011131
 **** Fit       0.010025
 **** Fit       0.007685
 **** Fit       0.003806
 **** Fit      -0.001651
 **** Fit      -0.008289
 **** Fit      -0.015270
 **** Fit      -0.021523
 **** Fit      -0.026091
 **** Fit      -0.028457
 **** Fit      -0.028680
 **** Fit      -0.027249
 **** Fit      -0.024809
 **** Fit       0.010269
 **** Fit       0.009822
 **** Fit       0.008596
 **** Fit       0.006306
 **** Fit       0.002752
 **** Fit      -0.002044
 **** Fit      -0.007723
 **** Fit      -0.013603
 **** Fit      -0.018840
 **** Fit      -0.022695
 **** Fit      -0.024773
 **** Fit      -0.025106
 **** Fit      -0.024057
 **** Fit      -0.022123
 **** Fit       0.009027
 **** Fit       0.008416
 **** Fit       0.007125
 **** Fit       0.004959
 **** Fit       0.001806
 **** Fit      -0.002268
 **** Fit      -0.006957
 **** Fit      -0.011734
 **** Fit      -0.015972
 **** Fit      -0.019131
 **** Fit      -0.020918
 **** Fit      -0.021344
 **** Fit      -0.020657
 **** Fit       0.005803
 **** Fit       0.003826
 **** Fit       0.001111
 **** Fit      -0.002258
 **** Fit      -0.006032
 **** Fit      -0.009819
 **** Fit      -0.013174
 **** Fit      -0.015716
 **** Fit      -0.017233
 **** Fit       0.000685
 **** Fit      -0.002048
 **** Fit      -0.005035
 **** Fit      -0.002971
 **** Fit      -0.005978
 **** Fit      -0.009184
 **** Fit       0.002694
 **** Fit       0.000446
 **** Fit      -0.002479
 **** Fit      -0.005974
 **** Fit      -0.009782
 **** Fit      -0.013521
 **** Fit      -0.016764
 **** Fit      -0.019145
 **** Fit      -0.020464
 **** Fit       0.005444
 **** Fit       0.003861
 **** Fit       0.001496
 **** Fit      -0.001709
 **** Fit      -0.005659
 **** Fit      -0.010063
 **** Fit      -0.014457
 **** Fit      -0.018301
 **** Fit      -0.021128
 **** Fit      -0.022679
 **** Fit      -0.022953
 **** Fit       0.007421
 **** Fit       0.006598
 **** Fit       0.005074
 **** Fit       0.002661
 **** Fit      -0.000746
 **** Fit      -0.005071
 **** Fit      -0.010000
 **** Fit      -0.014992
 **** Fit      -0.019403
 **** Fit      -0.022663
 **** Fit      -0.024447
 **** Fit      -0.024756
 **** Fit      -0.023850
 **** Fit       0.008292
 **** Fit       0.007594
 **** Fit       0.006158
 **** Fit       0.003754
 **** Fit       0.000236
 **** Fit      -0.004342
 **** Fit      -0.009653
 **** Fit      -0.015102
 **** Fit      -0.019958
 **** Fit      -0.023569
 **** Fit      -0.025557
 **** Fit      -0.025916
 **** Fit      -0.024942
 **** Fit       0.008880
 **** Fit       0.008278
 **** Fit       0.006924
 **** Fit       0.004563
 **** Fit       0.001024
 **** Fit      -0.003658
 **** Fit      -0.009151
 **** Fit      -0.014832
 **** Fit      -0.019927
 **** Fit      -0.023738
 **** Fit      -0.025857
 **** Fit      -0.026272
 **** Fit      -0.025296
 **** Fit       0.009105
 **** Fit       0.008546
 **** Fit       0.007241
 **** Fit       0.004935
 **** Fit       0.001453
 **** Fit      -0.003172
 **** Fit      -0.008615
 **** Fit      -0.014257
 **** Fit      -0.019331
 **** Fit      -0.023145
 **** Fit      -0.025294
 **** Fit      -0.025762
 **** Fit      -0.024852
 **** Fit       0.008953
 **** Fit       0.008379
 **** Fit       0.007085
 **** Fit       0.004840
 **** Fit       0.001489
 **** Fit      -0.002925
 **** Fit      -0.008090
 **** Fit      -0.013427
 **** Fit      -0.018226
 **** Fit      -0.021850
 **** Fit      -0.023925
 **** Fit      -0.024435
 **** Fit      -0.023652
 **** Fit       0.008479
 **** Fit       0.007849
 **** Fit       0.006546
 **** Fit       0.004378
 **** Fit       0.001230
 **** Fit      -0.002842
 **** Fit      -0.007545
 **** Fit      -0.012369
 **** Fit      -0.016698
 **** Fit      -0.019983
 **** Fit      -0.021908
 **** Fit      -0.022449
 **** Fit      -0.021835
 **** Fit       0.007083
 **** Fit       0.005779
 **** Fit       0.003721
 **** Fit       0.000837
 **** Fit      -0.002799
 **** Fit      -0.006927
 **** Fit      -0.011118
 **** Fit      -0.014870
 **** Fit      -0.017738
 **** Fit      -0.019466
 **** Fit      -0.020029
 **** Fit       0.004940
 **** Fit       0.003031
 **** Fit       0.000458
 **** Fit      -0.002697
 **** Fit      -0.006210
 **** Fit      -0.009739
 **** Fit      -0.012891
 **** Fit       0.000179
 **** Fit      -0.002494
 **** Fit      -0.005414
 **** Fit       0.000236
 **** Fit      -0.002303
 **** Fit      -0.005290
 **** Fit      -0.008521
 **** Fit      -0.011701
 **** Fit       0.002995
 **** Fit       0.000931
 **** Fit      -0.001764
 **** Fit      -0.005000
 **** Fit      -0.008554
 **** Fit      -0.012090
 **** Fit      -0.015223
 **** Fit      -0.017618
 **** Fit       0.003679
 **** Fit       0.001590
 **** Fit      -0.001199
 **** Fit      -0.004603
 **** Fit      -0.008389
 **** Fit      -0.012189
 **** Fit      -0.015577
 **** Fit      -0.018178
 **** Fit      -0.019761
 **** Fit       0.005575
 **** Fit       0.004184
 **** Fit       0.002104
 **** Fit      -0.000712
 **** Fit      -0.004186
 **** Fit      -0.008079
 **** Fit      -0.012011
 **** Fit      -0.015534
 **** Fit      -0.018250
 **** Fit      -0.019916
 **** Fit       0.005794
 **** Fit       0.004438
 **** Fit       0.002396
 **** Fit      -0.000382
 **** Fit      -0.003819
 **** Fit      -0.007681
 **** Fit      -0.011590
 **** Fit      -0.015102
 **** Fit      -0.017823
 **** Fit      -0.019508
 **** Fit       0.004425
 **** Fit       0.002444
 **** Fit      -0.000234
 **** Fit      -0.003532
 **** Fit      -0.007227
 **** Fit      -0.010961
 **** Fit      -0.014319
 **** Fit      -0.016933
 **** Fit       0.004185
 **** Fit       0.002290
 **** Fit      -0.000232
 **** Fit      -0.003305
 **** Fit      -0.006719
 **** Fit      -0.010155
 **** Fit      -0.013244
 **** Fit       0.002013
 **** Fit      -0.000309
 **** Fit      -0.003092
 **** Fit      -0.006150
 -----------------------------------------------------------------
 Leave Link  602 at Fri Apr 28 12:20:11 2017, MaxMem=    33554432 cpu:        38.4
 (Enter /home/michal/g09/l9999.exe)

 Test job not archived.
 1\1\GINC-LINUX\SP\RHF\6-31G(d)\C27H46O3\MICHAL\28-Apr-2017\0\\#P HF/6-
 31G* SCF(Conver=6) NoSymm Test Pop=chelpg IOp(6/33=2) GFInput GFPrint\
 \MEP - Input generated by R.E.D.-III.x MOLECULE\\0,1\C,0,7.51674818,2.
 15055688,-0.05702169\H,0,7.41557634,2.06718985,1.03203745\C,0,6.763008
 63,0.98497454,-0.71688369\H,0,7.15409275,0.03397224,-0.34213041\H,0,6.
 98251599,1.01277628,-1.79580907\C,0,5.26442847,1.06257088,-0.48982529\
 C,0,4.58121151,2.38826967,-0.84855276\C,0,5.41805031,3.54900801,-0.226
 70178\H,0,5.27116794,3.53192688,0.86182623\H,0,5.02395851,4.50862364,-
 0.57826368\C,0,6.92635654,3.48491294,-0.51266549\H,0,7.12047655,3.6148
 0083,-1.58765636\H,0,7.440318,4.30587253,0.\C,0,4.60705573,0.,0.\H,0,5
 .16447343,-0.90552663,0.23237564\C,0,3.12981331,-0.04435356,0.26511941
 \H,0,2.71742677,-1.00989999,-0.05413609\C,0,2.3690218,1.10026086,-0.42
 831485\H,0,2.35430884,0.8259058,-1.49234228\C,0,3.12962841,2.4425333,-
 0.25370855\H,0,3.25094912,2.5760491,0.83128877\C,0,2.30544357,3.649661
 4,-0.76492205\H,0,2.28840018,3.6544005,-1.85941159\H,0,2.80187336,4.58
 067434,-0.46796377\C,0,0.84896783,3.68629454,-0.25857639\H,0,0.8402517
 7,3.84453702,0.82907097\H,0,0.34573613,4.55140973,-0.70565161\C,0,0.10
 431239,2.37558898,-0.57769064\C,0,0.92430716,1.22678418,0.07739751\H,0
 ,0.99693836,1.49215548,1.14053377\C,0,0.,0.,0.\H,0,0.23717788,-0.73750
 721,0.77183731\H,0,0.09934156,-0.50471617,-0.9695366\C,0,-1.42450104,0
 .60229233,0.16988736\H,0,-2.08380893,0.2730167,-0.63961687\H,0,-1.8966
 3652,0.27405775,1.10216317\C,0,-1.25609744,2.15469602,0.16828192\H,0,-
 1.04318,2.44163973,1.20912438\C,0,-0.03572182,2.19721201,-2.10703802\H
 ,0,0.93065363,2.04574659,-2.59518919\H,0,-0.66455107,1.34187953,-2.367
 47767\H,0,-0.48521852,3.08587311,-2.55991544\C,0,-2.56890352,2.9195327
 8,-0.17049784\H,0,-3.2963012,2.50260597,0.54567725\C,0,-3.17143771,2.6
 8752563,-1.57082243\H,0,-2.64747659,3.25938452,-2.34279455\H,0,-4.2199
 6975,3.00118511,-1.58967245\H,0,-3.14959319,1.63391668,-1.86376593\C,0
 ,4.57020832,2.52523487,-2.39597628\H,0,4.27673675,3.53314242,-2.703913
 27\H,0,5.55594809,2.3326616,-2.82603324\H,0,3.87612493,1.81243485,-2.8
 5192232\O,0,2.85143343,0.07098668,1.68801069\O,0,3.34808745,-1.1347159
 6,2.33381263\H,0,4.12266631,-0.78567098,2.80517089\O,0,8.9260129,2.066
 5778,-0.28382103\H,0,9.09377346,2.16005916,-1.23212694\C,0,-2.4716807,
 4.42876181,0.14971341\H,0,-1.93700075,4.5545158,1.10195649\H,0,-1.8562
 1682,4.92180302,-0.61328025\C,0,-3.82776692,5.14611337,0.25945217\H,0,
 -4.33121668,5.15584977,-0.7146664\H,0,-4.47858281,4.56376775,0.9272665
 5\C,0,-3.74288685,6.58062685,0.81237843\H,0,-3.30604254,6.54016149,1.8
 2075206\H,0,-4.76419158,6.96928528,0.93997601\C,0,-2.94131992,7.600963
 07,-0.02373745\H,0,-1.91514799,7.22257912,-0.13661212\C,0,-3.52885713,
 7.79817876,-1.43020392\H,0,-4.56554477,8.15485945,-1.37254852\H,0,-2.9
 5357367,8.54145902,-1.99396983\H,0,-3.52815917,6.87088103,-2.01225959\
 C,0,-2.85670662,8.9445792,0.71810407\H,0,-3.85566013,9.37730822,0.8584
 307\H,0,-2.25585388,9.67125177,0.15932296\H,0,-2.40376843,8.82596188,1
 .70916487\\Version=EM64L-G09RevD.01\HF=-1273.6783439\RMSD=5.647e-07\Di
 pole=0.1418677,0.505806,-0.8120478\Quadrupole=-5.0354907,1.6573526,3.3
 781382,2.4825152,-8.1076533,-1.7697335\PG=C01 [X(C27H46O3)]\\@


 MISERY NO LONGER LOVES COMPANY.  NOWADAYS IT INSISTS ON IT.

                                              -- BAKER'S LAW
 Job cpu time:       0 days  0 hours 12 minutes 16.3 seconds.
 File lengths (MBytes):  RWF=    159 Int=      0 D2E=      0 Chk=     11 Scr=      1
 Normal termination of Gaussian 09 at Fri Apr 28 12:20:11 2017.
