 Entering Gaussian System, Link 0=/home/michal/g09/g09
 Input=JOB2-gau_m1-19-3.com
 Output=JOB2-gau_m1-19-3.log
 Initial command:
 /home/michal/g09/l1.exe "/home/michal/gauss_scratch/Gau-21099.inp" -scrdir="/home/michal/gauss_scratch/"
 Entering Link 1 = /home/michal/g09/l1.exe PID=     21100.
  
 Copyright (c) 1988,1990,1992,1993,1995,1998,2003,2009,2013,
            Gaussian, Inc.  All Rights Reserved.
  
 This is part of the Gaussian(R) 09 program.  It is based on
 the Gaussian(R) 03 system (copyright 2003, Gaussian, Inc.),
 the Gaussian(R) 98 system (copyright 1998, Gaussian, Inc.),
 the Gaussian(R) 94 system (copyright 1995, Gaussian, Inc.),
 the Gaussian 92(TM) system (copyright 1992, Gaussian, Inc.),
 the Gaussian 90(TM) system (copyright 1990, Gaussian, Inc.),
 the Gaussian 88(TM) system (copyright 1988, Gaussian, Inc.),
 the Gaussian 86(TM) system (copyright 1986, Carnegie Mellon
 University), and the Gaussian 82(TM) system (copyright 1983,
 Carnegie Mellon University). Gaussian is a federally registered
 trademark of Gaussian, Inc.
  
 This software contains proprietary and confidential information,
 including trade secrets, belonging to Gaussian, Inc.
  
 This software is provided under written license and may be
 used, copied, transmitted, or stored only in accord with that
 written license.
  
 The following legend is applicable only to US Government
 contracts under FAR:
  
                    RESTRICTED RIGHTS LEGEND
  
 Use, reproduction and disclosure by the US Government is
 subject to restrictions as set forth in subparagraphs (a)
 and (c) of the Commercial Computer Software - Restricted
 Rights clause in FAR 52.227-19.
  
 Gaussian, Inc.
 340 Quinnipiac St., Bldg. 40, Wallingford CT 06492
  
  
 ---------------------------------------------------------------
 Warning -- This program may not be used in any manner that
 competes with the business of Gaussian, Inc. or will provide
 assistance to any competitor of Gaussian, Inc.  The licensee
 of this program is prohibited from giving any competitor of
 Gaussian, Inc. access to this program.  By using this program,
 the user acknowledges that Gaussian, Inc. is engaged in the
 business of creating and licensing software in the field of
 computational chemistry and represents and warrants to the
 licensee that it is not a competitor of Gaussian, Inc. and that
 it will not use this program in any manner prohibited above.
 ---------------------------------------------------------------
  

 Cite this work as:
 Gaussian 09, Revision D.01,
 M. J. Frisch, G. W. Trucks, H. B. Schlegel, G. E. Scuseria, 
 M. A. Robb, J. R. Cheeseman, G. Scalmani, V. Barone, B. Mennucci, 
 G. A. Petersson, H. Nakatsuji, M. Caricato, X. Li, H. P. Hratchian, 
 A. F. Izmaylov, J. Bloino, G. Zheng, J. L. Sonnenberg, M. Hada, 
 M. Ehara, K. Toyota, R. Fukuda, J. Hasegawa, M. Ishida, T. Nakajima, 
 Y. Honda, O. Kitao, H. Nakai, T. Vreven, J. A. Montgomery, Jr., 
 J. E. Peralta, F. Ogliaro, M. Bearpark, J. J. Heyd, E. Brothers, 
 K. N. Kudin, V. N. Staroverov, T. Keith, R. Kobayashi, J. Normand, 
 K. Raghavachari, A. Rendell, J. C. Burant, S. S. Iyengar, J. Tomasi, 
 M. Cossi, N. Rega, J. M. Millam, M. Klene, J. E. Knox, J. B. Cross, 
 V. Bakken, C. Adamo, J. Jaramillo, R. Gomperts, R. E. Stratmann, 
 O. Yazyev, A. J. Austin, R. Cammi, C. Pomelli, J. W. Ochterski, 
 R. L. Martin, K. Morokuma, V. G. Zakrzewski, G. A. Voth, 
 P. Salvador, J. J. Dannenberg, S. Dapprich, A. D. Daniels, 
 O. Farkas, J. B. Foresman, J. V. Ortiz, J. Cioslowski, 
 and D. J. Fox, Gaussian, Inc., Wallingford CT, 2013.
 
 ******************************************
 Gaussian 09:  EM64L-G09RevD.01 24-Apr-2013
                28-Apr-2017 
 ******************************************
 %Mem=256MB
 %NProc=12
 Will use up to   12 processors via shared memory.
 ----------------------------------------------------------------------
 #P HF/6-31G* SCF(Conver=6) NoSymm Test Pop=chelpg IOp(6/33=2) GFInput 
 GFPrint
 ----------------------------------------------------------------------
 1/38=1/1;
 2/12=2,15=1,17=6,18=5,40=1/2;
 3/5=1,6=6,7=1,11=9,16=1,24=110,25=1,30=1/1,2,3;
 4//1;
 5/5=2,6=6,38=5/2;
 6/7=2,8=2,9=2,10=2,15=8,20=3,28=1,33=2/1,2;
 99/5=1,9=1/99;
 Leave Link    1 at Fri Apr 28 13:05:26 2017, MaxMem=    33554432 cpu:         0.6
 (Enter /home/michal/g09/l101.exe)
 ----------------------------------------------
 MEP - Input generated by R.E.D.-III.x MOLECULE
 ----------------------------------------------
 Symbolic Z-matrix:
 Charge =  0 Multiplicity = 1
 C                    -0.96519   2.0039    1.68673 
 H                    -0.98022   1.02503   2.18154 
 C                     0.38624   2.68086   1.96526 
 H                     0.53969   2.76677   3.04548 
 H                     0.3329    3.70821   1.57179 
 C                     1.54709   1.94044   1.32696 
 C                     1.42487   1.6277   -0.16969 
 C                     0.01316   1.01373  -0.42299 
 H                     0.        0.        0. 
 H                    -0.14558   0.90247  -1.50105 
 C                    -1.15547   1.80624   0.18285 
 H                    -1.24451   2.79065  -0.30005 
 H                    -2.09966   1.28087   0. 
 C                     2.61047   1.59682   2.07009 
 H                     2.62122   1.85254   3.12802 
 C                     3.8161    0.86674   1.55239 
 H                     4.73096   1.29914   1.97695 
 C                     3.90116   0.87724   0.01542 
 H                     4.20828   1.89985  -0.24548 
 C                     2.51096   0.58287  -0.60801 
 H                     2.19364  -0.38129  -0.18434 
 C                     2.59323   0.39457  -2.14201 
 H                     2.74594   1.36283  -2.62939 
 H                     1.6333    0.01911  -2.51496 
 C                     3.70874  -0.56247  -2.60995 
 H                     3.48955  -1.58244  -2.26335 
 H                     3.69728  -0.59559  -3.70415 
 C                     5.0883   -0.14216  -2.06328 
 C                     4.95237  -0.10932  -0.51538 
 H                     4.60084  -1.11202  -0.23601 
 C                     6.39448   0.        0. 
 H                     6.49472  -0.39062   1.01644 
 H                     6.72528   1.04628   0.02317 
 C                     7.21551  -0.81869  -1.03496 
 H                     8.05812  -0.2293   -1.41563 
 H                     7.64821  -1.71668  -0.58305 
 C                     6.24411  -1.19343  -2.20278 
 H                     5.78842  -2.16586  -1.96599 
 C                     5.52379   1.21676  -2.65672 
 H                     4.83871   2.02717  -2.39466 
 H                     6.51922   1.51302  -2.31221 
 H                     5.55869   1.16773  -3.75033 
 C                     6.97805  -1.34271  -3.55859 
 H                     7.43789  -0.3706   -3.78927 
 C                     6.04734  -1.69716  -4.73373 
 H                     5.42342  -2.57028  -4.51231 
 H                     6.63437  -1.92755  -5.63078 
 H                     5.37791  -0.87179  -4.98905 
 C                     1.56296   2.95992  -0.95681 
 H                     1.2854    2.83201  -2.00727 
 H                     0.91748   3.74049  -0.54719 
 H                     2.58907   3.33852  -0.91754 
 O                     3.79461  -0.52945   1.95926 
 O                     3.97424  -0.57054   3.40282 
 H                     3.08476  -0.8336    3.69185 
 O                    -2.04878   2.71603   2.28936 
 H                    -2.11254   3.58967   1.87844 
 C                     8.15869  -2.34939  -3.484 
 H                     8.6844   -2.30263  -4.44679 
 H                     8.88219  -2.00683  -2.73317 
 C                     7.79173  -3.81146  -3.17885 
 H                     7.23233  -3.85855  -2.23599 
 H                     7.11226  -4.19765  -3.94841 
 C                     9.00805  -4.74753  -3.04357 
 H                     8.65406  -5.73654  -2.71649 
 H                     9.6479   -4.37216  -2.23177 
 C                     9.88245  -4.94425  -4.30048 
 H                     10.2543  -3.96052  -4.62074 
 C                     11.10702  -5.81005  -3.96305 
 H                     10.79971  -6.81278  -3.63901 
 H                     11.76275  -5.92894  -4.83322 
 H                     11.69941  -5.36653  -3.1545 
 C                     9.09712  -5.55576  -5.47165 
 H                     8.68365  -6.53424  -5.19415 
 H                     9.74586  -5.70488  -6.34236 
 H                     8.26368  -4.91999  -5.78745 
 
 NAtoms=     76 NQM=       76 NQMF=       0 NMMI=      0 NMMIF=      0
                NMic=       0 NMicF=      0.
                    Isotopes and Nuclear Properties:
 (Nuclear quadrupole moments (NQMom) in fm**2, nuclear magnetic moments (NMagM)
  in nuclear magnetons)

  Atom         1           2           3           4           5           6           7           8           9          10
 IAtWgt=          12           1          12           1           1          12          12          12           1           1
 AtmWgt=  12.0000000   1.0078250  12.0000000   1.0078250   1.0078250  12.0000000  12.0000000  12.0000000   1.0078250   1.0078250
 NucSpn=           0           1           0           1           1           0           0           0           1           1
 AtZEff=   0.0000000   0.0000000   0.0000000   0.0000000   0.0000000   0.0000000   0.0000000   0.0000000   0.0000000   0.0000000
 NQMom=    0.0000000   0.0000000   0.0000000   0.0000000   0.0000000   0.0000000   0.0000000   0.0000000   0.0000000   0.0000000
 NMagM=    0.0000000   2.7928460   0.0000000   2.7928460   2.7928460   0.0000000   0.0000000   0.0000000   2.7928460   2.7928460
 AtZNuc=   6.0000000   1.0000000   6.0000000   1.0000000   1.0000000   6.0000000   6.0000000   6.0000000   1.0000000   1.0000000

  Atom        11          12          13          14          15          16          17          18          19          20
 IAtWgt=          12           1           1          12           1          12           1          12           1          12
 AtmWgt=  12.0000000   1.0078250   1.0078250  12.0000000   1.0078250  12.0000000   1.0078250  12.0000000   1.0078250  12.0000000
 NucSpn=           0           1           1           0           1           0           1           0           1           0
 AtZEff=   0.0000000   0.0000000   0.0000000   0.0000000   0.0000000   0.0000000   0.0000000   0.0000000   0.0000000   0.0000000
 NQMom=    0.0000000   0.0000000   0.0000000   0.0000000   0.0000000   0.0000000   0.0000000   0.0000000   0.0000000   0.0000000
 NMagM=    0.0000000   2.7928460   2.7928460   0.0000000   2.7928460   0.0000000   2.7928460   0.0000000   2.7928460   0.0000000
 AtZNuc=   6.0000000   1.0000000   1.0000000   6.0000000   1.0000000   6.0000000   1.0000000   6.0000000   1.0000000   6.0000000

  Atom        21          22          23          24          25          26          27          28          29          30
 IAtWgt=           1          12           1           1          12           1           1          12          12           1
 AtmWgt=   1.0078250  12.0000000   1.0078250   1.0078250  12.0000000   1.0078250   1.0078250  12.0000000  12.0000000   1.0078250
 NucSpn=           1           0           1           1           0           1           1           0           0           1
 AtZEff=   0.0000000   0.0000000   0.0000000   0.0000000   0.0000000   0.0000000   0.0000000   0.0000000   0.0000000   0.0000000
 NQMom=    0.0000000   0.0000000   0.0000000   0.0000000   0.0000000   0.0000000   0.0000000   0.0000000   0.0000000   0.0000000
 NMagM=    2.7928460   0.0000000   2.7928460   2.7928460   0.0000000   2.7928460   2.7928460   0.0000000   0.0000000   2.7928460
 AtZNuc=   1.0000000   6.0000000   1.0000000   1.0000000   6.0000000   1.0000000   1.0000000   6.0000000   6.0000000   1.0000000

  Atom        31          32          33          34          35          36          37          38          39          40
 IAtWgt=          12           1           1          12           1           1          12           1          12           1
 AtmWgt=  12.0000000   1.0078250   1.0078250  12.0000000   1.0078250   1.0078250  12.0000000   1.0078250  12.0000000   1.0078250
 NucSpn=           0           1           1           0           1           1           0           1           0           1
 AtZEff=   0.0000000   0.0000000   0.0000000   0.0000000   0.0000000   0.0000000   0.0000000   0.0000000   0.0000000   0.0000000
 NQMom=    0.0000000   0.0000000   0.0000000   0.0000000   0.0000000   0.0000000   0.0000000   0.0000000   0.0000000   0.0000000
 NMagM=    0.0000000   2.7928460   2.7928460   0.0000000   2.7928460   2.7928460   0.0000000   2.7928460   0.0000000   2.7928460
 AtZNuc=   6.0000000   1.0000000   1.0000000   6.0000000   1.0000000   1.0000000   6.0000000   1.0000000   6.0000000   1.0000000

  Atom        41          42          43          44          45          46          47          48          49          50
 IAtWgt=           1           1          12           1          12           1           1           1          12           1
 AtmWgt=   1.0078250   1.0078250  12.0000000   1.0078250  12.0000000   1.0078250   1.0078250   1.0078250  12.0000000   1.0078250
 NucSpn=           1           1           0           1           0           1           1           1           0           1
 AtZEff=   0.0000000   0.0000000   0.0000000   0.0000000   0.0000000   0.0000000   0.0000000   0.0000000   0.0000000   0.0000000
 NQMom=    0.0000000   0.0000000   0.0000000   0.0000000   0.0000000   0.0000000   0.0000000   0.0000000   0.0000000   0.0000000
 NMagM=    2.7928460   2.7928460   0.0000000   2.7928460   0.0000000   2.7928460   2.7928460   2.7928460   0.0000000   2.7928460
 AtZNuc=   1.0000000   1.0000000   6.0000000   1.0000000   6.0000000   1.0000000   1.0000000   1.0000000   6.0000000   1.0000000

  Atom        51          52          53          54          55          56          57          58          59          60
 IAtWgt=           1           1          16          16           1          16           1          12           1           1
 AtmWgt=   1.0078250   1.0078250  15.9949146  15.9949146   1.0078250  15.9949146   1.0078250  12.0000000   1.0078250   1.0078250
 NucSpn=           1           1           0           0           1           0           1           0           1           1
 AtZEff=   0.0000000   0.0000000   0.0000000   0.0000000   0.0000000   0.0000000   0.0000000   0.0000000   0.0000000   0.0000000
 NQMom=    0.0000000   0.0000000   0.0000000   0.0000000   0.0000000   0.0000000   0.0000000   0.0000000   0.0000000   0.0000000
 NMagM=    2.7928460   2.7928460   0.0000000   0.0000000   2.7928460   0.0000000   2.7928460   0.0000000   2.7928460   2.7928460
 AtZNuc=   1.0000000   1.0000000   8.0000000   8.0000000   1.0000000   8.0000000   1.0000000   6.0000000   1.0000000   1.0000000

  Atom        61          62          63          64          65          66          67          68          69          70
 IAtWgt=          12           1           1          12           1           1          12           1          12           1
 AtmWgt=  12.0000000   1.0078250   1.0078250  12.0000000   1.0078250   1.0078250  12.0000000   1.0078250  12.0000000   1.0078250
 NucSpn=           0           1           1           0           1           1           0           1           0           1
 AtZEff=   0.0000000   0.0000000   0.0000000   0.0000000   0.0000000   0.0000000   0.0000000   0.0000000   0.0000000   0.0000000
 NQMom=    0.0000000   0.0000000   0.0000000   0.0000000   0.0000000   0.0000000   0.0000000   0.0000000   0.0000000   0.0000000
 NMagM=    0.0000000   2.7928460   2.7928460   0.0000000   2.7928460   2.7928460   0.0000000   2.7928460   0.0000000   2.7928460
 AtZNuc=   6.0000000   1.0000000   1.0000000   6.0000000   1.0000000   1.0000000   6.0000000   1.0000000   6.0000000   1.0000000

  Atom        71          72          73          74          75          76
 IAtWgt=           1           1          12           1           1           1
 AtmWgt=   1.0078250   1.0078250  12.0000000   1.0078250   1.0078250   1.0078250
 NucSpn=           1           1           0           1           1           1
 AtZEff=   0.0000000   0.0000000   0.0000000   0.0000000   0.0000000   0.0000000
 NQMom=    0.0000000   0.0000000   0.0000000   0.0000000   0.0000000   0.0000000
 NMagM=    2.7928460   2.7928460   0.0000000   2.7928460   2.7928460   2.7928460
 AtZNuc=   1.0000000   1.0000000   6.0000000   1.0000000   1.0000000   1.0000000
 Leave Link  101 at Fri Apr 28 13:05:26 2017, MaxMem=    33554432 cpu:         1.0
 (Enter /home/michal/g09/l202.exe)
 Symmetry turned off by external request.
 Stoichiometry    C27H46O3
 Framework group  C1[X(C27H46O3)]
 Deg. of freedom   222
 Full point group                 C1      NOp   1
                          Input orientation:                          
 ---------------------------------------------------------------------
 Center     Atomic      Atomic             Coordinates (Angstroms)
 Number     Number       Type             X           Y           Z
 ---------------------------------------------------------------------
      1          6           0       -0.965187    2.003897    1.686730
      2          1           0       -0.980224    1.025030    2.181544
      3          6           0        0.386244    2.680865    1.965262
      4          1           0        0.539687    2.766771    3.045482
      5          1           0        0.332904    3.708207    1.571792
      6          6           0        1.547095    1.940444    1.326961
      7          6           0        1.424865    1.627695   -0.169689
      8          6           0        0.013161    1.013726   -0.422990
      9          1           0        0.000000    0.000000    0.000000
     10          1           0       -0.145578    0.902474   -1.501049
     11          6           0       -1.155472    1.806242    0.182849
     12          1           0       -1.244514    2.790652   -0.300053
     13          1           0       -2.099661    1.280873    0.000000
     14          6           0        2.610469    1.596825    2.070094
     15          1           0        2.621217    1.852535    3.128021
     16          6           0        3.816096    0.866738    1.552392
     17          1           0        4.730962    1.299139    1.976952
     18          6           0        3.901157    0.877235    0.015420
     19          1           0        4.208284    1.899850   -0.245484
     20          6           0        2.510963    0.582865   -0.608006
     21          1           0        2.193642   -0.381287   -0.184341
     22          6           0        2.593228    0.394566   -2.142012
     23          1           0        2.745940    1.362831   -2.629392
     24          1           0        1.633302    0.019109   -2.514958
     25          6           0        3.708738   -0.562472   -2.609952
     26          1           0        3.489555   -1.582438   -2.263348
     27          1           0        3.697280   -0.595590   -3.704146
     28          6           0        5.088302   -0.142164   -2.063279
     29          6           0        4.952365   -0.109315   -0.515380
     30          1           0        4.600835   -1.112017   -0.236007
     31          6           0        6.394477    0.000000    0.000000
     32          1           0        6.494723   -0.390621    1.016443
     33          1           0        6.725284    1.046282    0.023169
     34          6           0        7.215514   -0.818687   -1.034957
     35          1           0        8.058124   -0.229302   -1.415626
     36          1           0        7.648213   -1.716676   -0.583048
     37          6           0        6.244112   -1.193426   -2.202775
     38          1           0        5.788417   -2.165861   -1.965990
     39          6           0        5.523789    1.216758   -2.656725
     40          1           0        4.838709    2.027170   -2.394663
     41          1           0        6.519220    1.513018   -2.312208
     42          1           0        5.558690    1.167727   -3.750334
     43          6           0        6.978050   -1.342715   -3.558588
     44          1           0        7.437893   -0.370595   -3.789274
     45          6           0        6.047344   -1.697156   -4.733731
     46          1           0        5.423422   -2.570278   -4.512309
     47          1           0        6.634370   -1.927548   -5.630779
     48          1           0        5.377907   -0.871794   -4.989052
     49          6           0        1.562959    2.959924   -0.956808
     50          1           0        1.285405    2.832007   -2.007266
     51          1           0        0.917483    3.740488   -0.547187
     52          1           0        2.589074    3.338524   -0.917544
     53          8           0        3.794614   -0.529448    1.959265
     54          8           0        3.974242   -0.570544    3.402819
     55          1           0        3.084759   -0.833605    3.691853
     56          8           0       -2.048780    2.716034    2.289360
     57          1           0       -2.112537    3.589672    1.878442
     58          6           0        8.158691   -2.349391   -3.484002
     59          1           0        8.684402   -2.302629   -4.446787
     60          1           0        8.882193   -2.006831   -2.733173
     61          6           0        7.791725   -3.811464   -3.178851
     62          1           0        7.232327   -3.858552   -2.235995
     63          1           0        7.112265   -4.197655   -3.948414
     64          6           0        9.008051   -4.747528   -3.043568
     65          1           0        8.654059   -5.736543   -2.716494
     66          1           0        9.647896   -4.372157   -2.231769
     67          6           0        9.882448   -4.944252   -4.300479
     68          1           0       10.254300   -3.960519   -4.620738
     69          6           0       11.107016   -5.810049   -3.963054
     70          1           0       10.799714   -6.812782   -3.639014
     71          1           0       11.762747   -5.928940   -4.833223
     72          1           0       11.699414   -5.366527   -3.154500
     73          6           0        9.097123   -5.555757   -5.471649
     74          1           0        8.683652   -6.534242   -5.194152
     75          1           0        9.745857   -5.704878   -6.342358
     76          1           0        8.263677   -4.919990   -5.787449
 ---------------------------------------------------------------------
 Rotational constants (GHZ):      0.3785936      0.0555846      0.0523574
 Leave Link  202 at Fri Apr 28 13:05:26 2017, MaxMem=    33554432 cpu:         0.0
 (Enter /home/michal/g09/l301.exe)
 Standard basis: 6-31G(d) (6D, 7F)
 Ernie: Thresh=  0.10000D-02 Tol=  0.10000D-05 Strict=F.
 AO basis set in the form of general basis input (Overlap normalization):
      1 0
 S   6 1.00       0.000000000000
      0.3047524880D+04  0.1834737132D-02
      0.4573695180D+03  0.1403732281D-01
      0.1039486850D+03  0.6884262226D-01
      0.2921015530D+02  0.2321844432D+00
      0.9286662960D+01  0.4679413484D+00
      0.3163926960D+01  0.3623119853D+00
 SP   3 1.00       0.000000000000
      0.7868272350D+01 -0.1193324198D+00  0.6899906659D-01
      0.1881288540D+01 -0.1608541517D+00  0.3164239610D+00
      0.5442492580D+00  0.1143456438D+01  0.7443082909D+00
 SP   1 1.00       0.000000000000
      0.1687144782D+00  0.1000000000D+01  0.1000000000D+01
 D   1 1.00       0.000000000000
      0.8000000000D+00  0.1000000000D+01
 ****
      2 0
 S   3 1.00       0.000000000000
      0.1873113696D+02  0.3349460434D-01
      0.2825394365D+01  0.2347269535D+00
      0.6401216923D+00  0.8137573261D+00
 S   1 1.00       0.000000000000
      0.1612777588D+00  0.1000000000D+01
 ****
      3 0
 S   6 1.00       0.000000000000
      0.3047524880D+04  0.1834737132D-02
      0.4573695180D+03  0.1403732281D-01
      0.1039486850D+03  0.6884262226D-01
      0.2921015530D+02  0.2321844432D+00
      0.9286662960D+01  0.4679413484D+00
      0.3163926960D+01  0.3623119853D+00
 SP   3 1.00       0.000000000000
      0.7868272350D+01 -0.1193324198D+00  0.6899906659D-01
      0.1881288540D+01 -0.1608541517D+00  0.3164239610D+00
      0.5442492580D+00  0.1143456438D+01  0.7443082909D+00
 SP   1 1.00       0.000000000000
      0.1687144782D+00  0.1000000000D+01  0.1000000000D+01
 D   1 1.00       0.000000000000
      0.8000000000D+00  0.1000000000D+01
 ****
      4 0
 S   3 1.00       0.000000000000
      0.1873113696D+02  0.3349460434D-01
      0.2825394365D+01  0.2347269535D+00
      0.6401216923D+00  0.8137573261D+00
 S   1 1.00       0.000000000000
      0.1612777588D+00  0.1000000000D+01
 ****
      5 0
 S   3 1.00       0.000000000000
      0.1873113696D+02  0.3349460434D-01
      0.2825394365D+01  0.2347269535D+00
      0.6401216923D+00  0.8137573261D+00
 S   1 1.00       0.000000000000
      0.1612777588D+00  0.1000000000D+01
 ****
      6 0
 S   6 1.00       0.000000000000
      0.3047524880D+04  0.1834737132D-02
      0.4573695180D+03  0.1403732281D-01
      0.1039486850D+03  0.6884262226D-01
      0.2921015530D+02  0.2321844432D+00
      0.9286662960D+01  0.4679413484D+00
      0.3163926960D+01  0.3623119853D+00
 SP   3 1.00       0.000000000000
      0.7868272350D+01 -0.1193324198D+00  0.6899906659D-01
      0.1881288540D+01 -0.1608541517D+00  0.3164239610D+00
      0.5442492580D+00  0.1143456438D+01  0.7443082909D+00
 SP   1 1.00       0.000000000000
      0.1687144782D+00  0.1000000000D+01  0.1000000000D+01
 D   1 1.00       0.000000000000
      0.8000000000D+00  0.1000000000D+01
 ****
      7 0
 S   6 1.00       0.000000000000
      0.3047524880D+04  0.1834737132D-02
      0.4573695180D+03  0.1403732281D-01
      0.1039486850D+03  0.6884262226D-01
      0.2921015530D+02  0.2321844432D+00
      0.9286662960D+01  0.4679413484D+00
      0.3163926960D+01  0.3623119853D+00
 SP   3 1.00       0.000000000000
      0.7868272350D+01 -0.1193324198D+00  0.6899906659D-01
      0.1881288540D+01 -0.1608541517D+00  0.3164239610D+00
      0.5442492580D+00  0.1143456438D+01  0.7443082909D+00
 SP   1 1.00       0.000000000000
      0.1687144782D+00  0.1000000000D+01  0.1000000000D+01
 D   1 1.00       0.000000000000
      0.8000000000D+00  0.1000000000D+01
 ****
      8 0
 S   6 1.00       0.000000000000
      0.3047524880D+04  0.1834737132D-02
      0.4573695180D+03  0.1403732281D-01
      0.1039486850D+03  0.6884262226D-01
      0.2921015530D+02  0.2321844432D+00
      0.9286662960D+01  0.4679413484D+00
      0.3163926960D+01  0.3623119853D+00
 SP   3 1.00       0.000000000000
      0.7868272350D+01 -0.1193324198D+00  0.6899906659D-01
      0.1881288540D+01 -0.1608541517D+00  0.3164239610D+00
      0.5442492580D+00  0.1143456438D+01  0.7443082909D+00
 SP   1 1.00       0.000000000000
      0.1687144782D+00  0.1000000000D+01  0.1000000000D+01
 D   1 1.00       0.000000000000
      0.8000000000D+00  0.1000000000D+01
 ****
      9 0
 S   3 1.00       0.000000000000
      0.1873113696D+02  0.3349460434D-01
      0.2825394365D+01  0.2347269535D+00
      0.6401216923D+00  0.8137573261D+00
 S   1 1.00       0.000000000000
      0.1612777588D+00  0.1000000000D+01
 ****
     10 0
 S   3 1.00       0.000000000000
      0.1873113696D+02  0.3349460434D-01
      0.2825394365D+01  0.2347269535D+00
      0.6401216923D+00  0.8137573261D+00
 S   1 1.00       0.000000000000
      0.1612777588D+00  0.1000000000D+01
 ****
     11 0
 S   6 1.00       0.000000000000
      0.3047524880D+04  0.1834737132D-02
      0.4573695180D+03  0.1403732281D-01
      0.1039486850D+03  0.6884262226D-01
      0.2921015530D+02  0.2321844432D+00
      0.9286662960D+01  0.4679413484D+00
      0.3163926960D+01  0.3623119853D+00
 SP   3 1.00       0.000000000000
      0.7868272350D+01 -0.1193324198D+00  0.6899906659D-01
      0.1881288540D+01 -0.1608541517D+00  0.3164239610D+00
      0.5442492580D+00  0.1143456438D+01  0.7443082909D+00
 SP   1 1.00       0.000000000000
      0.1687144782D+00  0.1000000000D+01  0.1000000000D+01
 D   1 1.00       0.000000000000
      0.8000000000D+00  0.1000000000D+01
 ****
     12 0
 S   3 1.00       0.000000000000
      0.1873113696D+02  0.3349460434D-01
      0.2825394365D+01  0.2347269535D+00
      0.6401216923D+00  0.8137573261D+00
 S   1 1.00       0.000000000000
      0.1612777588D+00  0.1000000000D+01
 ****
     13 0
 S   3 1.00       0.000000000000
      0.1873113696D+02  0.3349460434D-01
      0.2825394365D+01  0.2347269535D+00
      0.6401216923D+00  0.8137573261D+00
 S   1 1.00       0.000000000000
      0.1612777588D+00  0.1000000000D+01
 ****
     14 0
 S   6 1.00       0.000000000000
      0.3047524880D+04  0.1834737132D-02
      0.4573695180D+03  0.1403732281D-01
      0.1039486850D+03  0.6884262226D-01
      0.2921015530D+02  0.2321844432D+00
      0.9286662960D+01  0.4679413484D+00
      0.3163926960D+01  0.3623119853D+00
 SP   3 1.00       0.000000000000
      0.7868272350D+01 -0.1193324198D+00  0.6899906659D-01
      0.1881288540D+01 -0.1608541517D+00  0.3164239610D+00
      0.5442492580D+00  0.1143456438D+01  0.7443082909D+00
 SP   1 1.00       0.000000000000
      0.1687144782D+00  0.1000000000D+01  0.1000000000D+01
 D   1 1.00       0.000000000000
      0.8000000000D+00  0.1000000000D+01
 ****
     15 0
 S   3 1.00       0.000000000000
      0.1873113696D+02  0.3349460434D-01
      0.2825394365D+01  0.2347269535D+00
      0.6401216923D+00  0.8137573261D+00
 S   1 1.00       0.000000000000
      0.1612777588D+00  0.1000000000D+01
 ****
     16 0
 S   6 1.00       0.000000000000
      0.3047524880D+04  0.1834737132D-02
      0.4573695180D+03  0.1403732281D-01
      0.1039486850D+03  0.6884262226D-01
      0.2921015530D+02  0.2321844432D+00
      0.9286662960D+01  0.4679413484D+00
      0.3163926960D+01  0.3623119853D+00
 SP   3 1.00       0.000000000000
      0.7868272350D+01 -0.1193324198D+00  0.6899906659D-01
      0.1881288540D+01 -0.1608541517D+00  0.3164239610D+00
      0.5442492580D+00  0.1143456438D+01  0.7443082909D+00
 SP   1 1.00       0.000000000000
      0.1687144782D+00  0.1000000000D+01  0.1000000000D+01
 D   1 1.00       0.000000000000
      0.8000000000D+00  0.1000000000D+01
 ****
     17 0
 S   3 1.00       0.000000000000
      0.1873113696D+02  0.3349460434D-01
      0.2825394365D+01  0.2347269535D+00
      0.6401216923D+00  0.8137573261D+00
 S   1 1.00       0.000000000000
      0.1612777588D+00  0.1000000000D+01
 ****
     18 0
 S   6 1.00       0.000000000000
      0.3047524880D+04  0.1834737132D-02
      0.4573695180D+03  0.1403732281D-01
      0.1039486850D+03  0.6884262226D-01
      0.2921015530D+02  0.2321844432D+00
      0.9286662960D+01  0.4679413484D+00
      0.3163926960D+01  0.3623119853D+00
 SP   3 1.00       0.000000000000
      0.7868272350D+01 -0.1193324198D+00  0.6899906659D-01
      0.1881288540D+01 -0.1608541517D+00  0.3164239610D+00
      0.5442492580D+00  0.1143456438D+01  0.7443082909D+00
 SP   1 1.00       0.000000000000
      0.1687144782D+00  0.1000000000D+01  0.1000000000D+01
 D   1 1.00       0.000000000000
      0.8000000000D+00  0.1000000000D+01
 ****
     19 0
 S   3 1.00       0.000000000000
      0.1873113696D+02  0.3349460434D-01
      0.2825394365D+01  0.2347269535D+00
      0.6401216923D+00  0.8137573261D+00
 S   1 1.00       0.000000000000
      0.1612777588D+00  0.1000000000D+01
 ****
     20 0
 S   6 1.00       0.000000000000
      0.3047524880D+04  0.1834737132D-02
      0.4573695180D+03  0.1403732281D-01
      0.1039486850D+03  0.6884262226D-01
      0.2921015530D+02  0.2321844432D+00
      0.9286662960D+01  0.4679413484D+00
      0.3163926960D+01  0.3623119853D+00
 SP   3 1.00       0.000000000000
      0.7868272350D+01 -0.1193324198D+00  0.6899906659D-01
      0.1881288540D+01 -0.1608541517D+00  0.3164239610D+00
      0.5442492580D+00  0.1143456438D+01  0.7443082909D+00
 SP   1 1.00       0.000000000000
      0.1687144782D+00  0.1000000000D+01  0.1000000000D+01
 D   1 1.00       0.000000000000
      0.8000000000D+00  0.1000000000D+01
 ****
     21 0
 S   3 1.00       0.000000000000
      0.1873113696D+02  0.3349460434D-01
      0.2825394365D+01  0.2347269535D+00
      0.6401216923D+00  0.8137573261D+00
 S   1 1.00       0.000000000000
      0.1612777588D+00  0.1000000000D+01
 ****
     22 0
 S   6 1.00       0.000000000000
      0.3047524880D+04  0.1834737132D-02
      0.4573695180D+03  0.1403732281D-01
      0.1039486850D+03  0.6884262226D-01
      0.2921015530D+02  0.2321844432D+00
      0.9286662960D+01  0.4679413484D+00
      0.3163926960D+01  0.3623119853D+00
 SP   3 1.00       0.000000000000
      0.7868272350D+01 -0.1193324198D+00  0.6899906659D-01
      0.1881288540D+01 -0.1608541517D+00  0.3164239610D+00
      0.5442492580D+00  0.1143456438D+01  0.7443082909D+00
 SP   1 1.00       0.000000000000
      0.1687144782D+00  0.1000000000D+01  0.1000000000D+01
 D   1 1.00       0.000000000000
      0.8000000000D+00  0.1000000000D+01
 ****
     23 0
 S   3 1.00       0.000000000000
      0.1873113696D+02  0.3349460434D-01
      0.2825394365D+01  0.2347269535D+00
      0.6401216923D+00  0.8137573261D+00
 S   1 1.00       0.000000000000
      0.1612777588D+00  0.1000000000D+01
 ****
     24 0
 S   3 1.00       0.000000000000
      0.1873113696D+02  0.3349460434D-01
      0.2825394365D+01  0.2347269535D+00
      0.6401216923D+00  0.8137573261D+00
 S   1 1.00       0.000000000000
      0.1612777588D+00  0.1000000000D+01
 ****
     25 0
 S   6 1.00       0.000000000000
      0.3047524880D+04  0.1834737132D-02
      0.4573695180D+03  0.1403732281D-01
      0.1039486850D+03  0.6884262226D-01
      0.2921015530D+02  0.2321844432D+00
      0.9286662960D+01  0.4679413484D+00
      0.3163926960D+01  0.3623119853D+00
 SP   3 1.00       0.000000000000
      0.7868272350D+01 -0.1193324198D+00  0.6899906659D-01
      0.1881288540D+01 -0.1608541517D+00  0.3164239610D+00
      0.5442492580D+00  0.1143456438D+01  0.7443082909D+00
 SP   1 1.00       0.000000000000
      0.1687144782D+00  0.1000000000D+01  0.1000000000D+01
 D   1 1.00       0.000000000000
      0.8000000000D+00  0.1000000000D+01
 ****
     26 0
 S   3 1.00       0.000000000000
      0.1873113696D+02  0.3349460434D-01
      0.2825394365D+01  0.2347269535D+00
      0.6401216923D+00  0.8137573261D+00
 S   1 1.00       0.000000000000
      0.1612777588D+00  0.1000000000D+01
 ****
     27 0
 S   3 1.00       0.000000000000
      0.1873113696D+02  0.3349460434D-01
      0.2825394365D+01  0.2347269535D+00
      0.6401216923D+00  0.8137573261D+00
 S   1 1.00       0.000000000000
      0.1612777588D+00  0.1000000000D+01
 ****
     28 0
 S   6 1.00       0.000000000000
      0.3047524880D+04  0.1834737132D-02
      0.4573695180D+03  0.1403732281D-01
      0.1039486850D+03  0.6884262226D-01
      0.2921015530D+02  0.2321844432D+00
      0.9286662960D+01  0.4679413484D+00
      0.3163926960D+01  0.3623119853D+00
 SP   3 1.00       0.000000000000
      0.7868272350D+01 -0.1193324198D+00  0.6899906659D-01
      0.1881288540D+01 -0.1608541517D+00  0.3164239610D+00
      0.5442492580D+00  0.1143456438D+01  0.7443082909D+00
 SP   1 1.00       0.000000000000
      0.1687144782D+00  0.1000000000D+01  0.1000000000D+01
 D   1 1.00       0.000000000000
      0.8000000000D+00  0.1000000000D+01
 ****
     29 0
 S   6 1.00       0.000000000000
      0.3047524880D+04  0.1834737132D-02
      0.4573695180D+03  0.1403732281D-01
      0.1039486850D+03  0.6884262226D-01
      0.2921015530D+02  0.2321844432D+00
      0.9286662960D+01  0.4679413484D+00
      0.3163926960D+01  0.3623119853D+00
 SP   3 1.00       0.000000000000
      0.7868272350D+01 -0.1193324198D+00  0.6899906659D-01
      0.1881288540D+01 -0.1608541517D+00  0.3164239610D+00
      0.5442492580D+00  0.1143456438D+01  0.7443082909D+00
 SP   1 1.00       0.000000000000
      0.1687144782D+00  0.1000000000D+01  0.1000000000D+01
 D   1 1.00       0.000000000000
      0.8000000000D+00  0.1000000000D+01
 ****
     30 0
 S   3 1.00       0.000000000000
      0.1873113696D+02  0.3349460434D-01
      0.2825394365D+01  0.2347269535D+00
      0.6401216923D+00  0.8137573261D+00
 S   1 1.00       0.000000000000
      0.1612777588D+00  0.1000000000D+01
 ****
     31 0
 S   6 1.00       0.000000000000
      0.3047524880D+04  0.1834737132D-02
      0.4573695180D+03  0.1403732281D-01
      0.1039486850D+03  0.6884262226D-01
      0.2921015530D+02  0.2321844432D+00
      0.9286662960D+01  0.4679413484D+00
      0.3163926960D+01  0.3623119853D+00
 SP   3 1.00       0.000000000000
      0.7868272350D+01 -0.1193324198D+00  0.6899906659D-01
      0.1881288540D+01 -0.1608541517D+00  0.3164239610D+00
      0.5442492580D+00  0.1143456438D+01  0.7443082909D+00
 SP   1 1.00       0.000000000000
      0.1687144782D+00  0.1000000000D+01  0.1000000000D+01
 D   1 1.00       0.000000000000
      0.8000000000D+00  0.1000000000D+01
 ****
     32 0
 S   3 1.00       0.000000000000
      0.1873113696D+02  0.3349460434D-01
      0.2825394365D+01  0.2347269535D+00
      0.6401216923D+00  0.8137573261D+00
 S   1 1.00       0.000000000000
      0.1612777588D+00  0.1000000000D+01
 ****
     33 0
 S   3 1.00       0.000000000000
      0.1873113696D+02  0.3349460434D-01
      0.2825394365D+01  0.2347269535D+00
      0.6401216923D+00  0.8137573261D+00
 S   1 1.00       0.000000000000
      0.1612777588D+00  0.1000000000D+01
 ****
     34 0
 S   6 1.00       0.000000000000
      0.3047524880D+04  0.1834737132D-02
      0.4573695180D+03  0.1403732281D-01
      0.1039486850D+03  0.6884262226D-01
      0.2921015530D+02  0.2321844432D+00
      0.9286662960D+01  0.4679413484D+00
      0.3163926960D+01  0.3623119853D+00
 SP   3 1.00       0.000000000000
      0.7868272350D+01 -0.1193324198D+00  0.6899906659D-01
      0.1881288540D+01 -0.1608541517D+00  0.3164239610D+00
      0.5442492580D+00  0.1143456438D+01  0.7443082909D+00
 SP   1 1.00       0.000000000000
      0.1687144782D+00  0.1000000000D+01  0.1000000000D+01
 D   1 1.00       0.000000000000
      0.8000000000D+00  0.1000000000D+01
 ****
     35 0
 S   3 1.00       0.000000000000
      0.1873113696D+02  0.3349460434D-01
      0.2825394365D+01  0.2347269535D+00
      0.6401216923D+00  0.8137573261D+00
 S   1 1.00       0.000000000000
      0.1612777588D+00  0.1000000000D+01
 ****
     36 0
 S   3 1.00       0.000000000000
      0.1873113696D+02  0.3349460434D-01
      0.2825394365D+01  0.2347269535D+00
      0.6401216923D+00  0.8137573261D+00
 S   1 1.00       0.000000000000
      0.1612777588D+00  0.1000000000D+01
 ****
     37 0
 S   6 1.00       0.000000000000
      0.3047524880D+04  0.1834737132D-02
      0.4573695180D+03  0.1403732281D-01
      0.1039486850D+03  0.6884262226D-01
      0.2921015530D+02  0.2321844432D+00
      0.9286662960D+01  0.4679413484D+00
      0.3163926960D+01  0.3623119853D+00
 SP   3 1.00       0.000000000000
      0.7868272350D+01 -0.1193324198D+00  0.6899906659D-01
      0.1881288540D+01 -0.1608541517D+00  0.3164239610D+00
      0.5442492580D+00  0.1143456438D+01  0.7443082909D+00
 SP   1 1.00       0.000000000000
      0.1687144782D+00  0.1000000000D+01  0.1000000000D+01
 D   1 1.00       0.000000000000
      0.8000000000D+00  0.1000000000D+01
 ****
     38 0
 S   3 1.00       0.000000000000
      0.1873113696D+02  0.3349460434D-01
      0.2825394365D+01  0.2347269535D+00
      0.6401216923D+00  0.8137573261D+00
 S   1 1.00       0.000000000000
      0.1612777588D+00  0.1000000000D+01
 ****
     39 0
 S   6 1.00       0.000000000000
      0.3047524880D+04  0.1834737132D-02
      0.4573695180D+03  0.1403732281D-01
      0.1039486850D+03  0.6884262226D-01
      0.2921015530D+02  0.2321844432D+00
      0.9286662960D+01  0.4679413484D+00
      0.3163926960D+01  0.3623119853D+00
 SP   3 1.00       0.000000000000
      0.7868272350D+01 -0.1193324198D+00  0.6899906659D-01
      0.1881288540D+01 -0.1608541517D+00  0.3164239610D+00
      0.5442492580D+00  0.1143456438D+01  0.7443082909D+00
 SP   1 1.00       0.000000000000
      0.1687144782D+00  0.1000000000D+01  0.1000000000D+01
 D   1 1.00       0.000000000000
      0.8000000000D+00  0.1000000000D+01
 ****
     40 0
 S   3 1.00       0.000000000000
      0.1873113696D+02  0.3349460434D-01
      0.2825394365D+01  0.2347269535D+00
      0.6401216923D+00  0.8137573261D+00
 S   1 1.00       0.000000000000
      0.1612777588D+00  0.1000000000D+01
 ****
     41 0
 S   3 1.00       0.000000000000
      0.1873113696D+02  0.3349460434D-01
      0.2825394365D+01  0.2347269535D+00
      0.6401216923D+00  0.8137573261D+00
 S   1 1.00       0.000000000000
      0.1612777588D+00  0.1000000000D+01
 ****
     42 0
 S   3 1.00       0.000000000000
      0.1873113696D+02  0.3349460434D-01
      0.2825394365D+01  0.2347269535D+00
      0.6401216923D+00  0.8137573261D+00
 S   1 1.00       0.000000000000
      0.1612777588D+00  0.1000000000D+01
 ****
     43 0
 S   6 1.00       0.000000000000
      0.3047524880D+04  0.1834737132D-02
      0.4573695180D+03  0.1403732281D-01
      0.1039486850D+03  0.6884262226D-01
      0.2921015530D+02  0.2321844432D+00
      0.9286662960D+01  0.4679413484D+00
      0.3163926960D+01  0.3623119853D+00
 SP   3 1.00       0.000000000000
      0.7868272350D+01 -0.1193324198D+00  0.6899906659D-01
      0.1881288540D+01 -0.1608541517D+00  0.3164239610D+00
      0.5442492580D+00  0.1143456438D+01  0.7443082909D+00
 SP   1 1.00       0.000000000000
      0.1687144782D+00  0.1000000000D+01  0.1000000000D+01
 D   1 1.00       0.000000000000
      0.8000000000D+00  0.1000000000D+01
 ****
     44 0
 S   3 1.00       0.000000000000
      0.1873113696D+02  0.3349460434D-01
      0.2825394365D+01  0.2347269535D+00
      0.6401216923D+00  0.8137573261D+00
 S   1 1.00       0.000000000000
      0.1612777588D+00  0.1000000000D+01
 ****
     45 0
 S   6 1.00       0.000000000000
      0.3047524880D+04  0.1834737132D-02
      0.4573695180D+03  0.1403732281D-01
      0.1039486850D+03  0.6884262226D-01
      0.2921015530D+02  0.2321844432D+00
      0.9286662960D+01  0.4679413484D+00
      0.3163926960D+01  0.3623119853D+00
 SP   3 1.00       0.000000000000
      0.7868272350D+01 -0.1193324198D+00  0.6899906659D-01
      0.1881288540D+01 -0.1608541517D+00  0.3164239610D+00
      0.5442492580D+00  0.1143456438D+01  0.7443082909D+00
 SP   1 1.00       0.000000000000
      0.1687144782D+00  0.1000000000D+01  0.1000000000D+01
 D   1 1.00       0.000000000000
      0.8000000000D+00  0.1000000000D+01
 ****
     46 0
 S   3 1.00       0.000000000000
      0.1873113696D+02  0.3349460434D-01
      0.2825394365D+01  0.2347269535D+00
      0.6401216923D+00  0.8137573261D+00
 S   1 1.00       0.000000000000
      0.1612777588D+00  0.1000000000D+01
 ****
     47 0
 S   3 1.00       0.000000000000
      0.1873113696D+02  0.3349460434D-01
      0.2825394365D+01  0.2347269535D+00
      0.6401216923D+00  0.8137573261D+00
 S   1 1.00       0.000000000000
      0.1612777588D+00  0.1000000000D+01
 ****
     48 0
 S   3 1.00       0.000000000000
      0.1873113696D+02  0.3349460434D-01
      0.2825394365D+01  0.2347269535D+00
      0.6401216923D+00  0.8137573261D+00
 S   1 1.00       0.000000000000
      0.1612777588D+00  0.1000000000D+01
 ****
     49 0
 S   6 1.00       0.000000000000
      0.3047524880D+04  0.1834737132D-02
      0.4573695180D+03  0.1403732281D-01
      0.1039486850D+03  0.6884262226D-01
      0.2921015530D+02  0.2321844432D+00
      0.9286662960D+01  0.4679413484D+00
      0.3163926960D+01  0.3623119853D+00
 SP   3 1.00       0.000000000000
      0.7868272350D+01 -0.1193324198D+00  0.6899906659D-01
      0.1881288540D+01 -0.1608541517D+00  0.3164239610D+00
      0.5442492580D+00  0.1143456438D+01  0.7443082909D+00
 SP   1 1.00       0.000000000000
      0.1687144782D+00  0.1000000000D+01  0.1000000000D+01
 D   1 1.00       0.000000000000
      0.8000000000D+00  0.1000000000D+01
 ****
     50 0
 S   3 1.00       0.000000000000
      0.1873113696D+02  0.3349460434D-01
      0.2825394365D+01  0.2347269535D+00
      0.6401216923D+00  0.8137573261D+00
 S   1 1.00       0.000000000000
      0.1612777588D+00  0.1000000000D+01
 ****
     51 0
 S   3 1.00       0.000000000000
      0.1873113696D+02  0.3349460434D-01
      0.2825394365D+01  0.2347269535D+00
      0.6401216923D+00  0.8137573261D+00
 S   1 1.00       0.000000000000
      0.1612777588D+00  0.1000000000D+01
 ****
     52 0
 S   3 1.00       0.000000000000
      0.1873113696D+02  0.3349460434D-01
      0.2825394365D+01  0.2347269535D+00
      0.6401216923D+00  0.8137573261D+00
 S   1 1.00       0.000000000000
      0.1612777588D+00  0.1000000000D+01
 ****
     53 0
 S   6 1.00       0.000000000000
      0.5484671660D+04  0.1831074430D-02
      0.8252349460D+03  0.1395017220D-01
      0.1880469580D+03  0.6844507810D-01
      0.5296450000D+02  0.2327143360D+00
      0.1689757040D+02  0.4701928980D+00
      0.5799635340D+01  0.3585208530D+00
 SP   3 1.00       0.000000000000
      0.1553961625D+02 -0.1107775495D+00  0.7087426823D-01
      0.3599933586D+01 -0.1480262627D+00  0.3397528391D+00
      0.1013761750D+01  0.1130767015D+01  0.7271585773D+00
 SP   1 1.00       0.000000000000
      0.2700058226D+00  0.1000000000D+01  0.1000000000D+01
 D   1 1.00       0.000000000000
      0.8000000000D+00  0.1000000000D+01
 ****
     54 0
 S   6 1.00       0.000000000000
      0.5484671660D+04  0.1831074430D-02
      0.8252349460D+03  0.1395017220D-01
      0.1880469580D+03  0.6844507810D-01
      0.5296450000D+02  0.2327143360D+00
      0.1689757040D+02  0.4701928980D+00
      0.5799635340D+01  0.3585208530D+00
 SP   3 1.00       0.000000000000
      0.1553961625D+02 -0.1107775495D+00  0.7087426823D-01
      0.3599933586D+01 -0.1480262627D+00  0.3397528391D+00
      0.1013761750D+01  0.1130767015D+01  0.7271585773D+00
 SP   1 1.00       0.000000000000
      0.2700058226D+00  0.1000000000D+01  0.1000000000D+01
 D   1 1.00       0.000000000000
      0.8000000000D+00  0.1000000000D+01
 ****
     55 0
 S   3 1.00       0.000000000000
      0.1873113696D+02  0.3349460434D-01
      0.2825394365D+01  0.2347269535D+00
      0.6401216923D+00  0.8137573261D+00
 S   1 1.00       0.000000000000
      0.1612777588D+00  0.1000000000D+01
 ****
     56 0
 S   6 1.00       0.000000000000
      0.5484671660D+04  0.1831074430D-02
      0.8252349460D+03  0.1395017220D-01
      0.1880469580D+03  0.6844507810D-01
      0.5296450000D+02  0.2327143360D+00
      0.1689757040D+02  0.4701928980D+00
      0.5799635340D+01  0.3585208530D+00
 SP   3 1.00       0.000000000000
      0.1553961625D+02 -0.1107775495D+00  0.7087426823D-01
      0.3599933586D+01 -0.1480262627D+00  0.3397528391D+00
      0.1013761750D+01  0.1130767015D+01  0.7271585773D+00
 SP   1 1.00       0.000000000000
      0.2700058226D+00  0.1000000000D+01  0.1000000000D+01
 D   1 1.00       0.000000000000
      0.8000000000D+00  0.1000000000D+01
 ****
     57 0
 S   3 1.00       0.000000000000
      0.1873113696D+02  0.3349460434D-01
      0.2825394365D+01  0.2347269535D+00
      0.6401216923D+00  0.8137573261D+00
 S   1 1.00       0.000000000000
      0.1612777588D+00  0.1000000000D+01
 ****
     58 0
 S   6 1.00       0.000000000000
      0.3047524880D+04  0.1834737132D-02
      0.4573695180D+03  0.1403732281D-01
      0.1039486850D+03  0.6884262226D-01
      0.2921015530D+02  0.2321844432D+00
      0.9286662960D+01  0.4679413484D+00
      0.3163926960D+01  0.3623119853D+00
 SP   3 1.00       0.000000000000
      0.7868272350D+01 -0.1193324198D+00  0.6899906659D-01
      0.1881288540D+01 -0.1608541517D+00  0.3164239610D+00
      0.5442492580D+00  0.1143456438D+01  0.7443082909D+00
 SP   1 1.00       0.000000000000
      0.1687144782D+00  0.1000000000D+01  0.1000000000D+01
 D   1 1.00       0.000000000000
      0.8000000000D+00  0.1000000000D+01
 ****
     59 0
 S   3 1.00       0.000000000000
      0.1873113696D+02  0.3349460434D-01
      0.2825394365D+01  0.2347269535D+00
      0.6401216923D+00  0.8137573261D+00
 S   1 1.00       0.000000000000
      0.1612777588D+00  0.1000000000D+01
 ****
     60 0
 S   3 1.00       0.000000000000
      0.1873113696D+02  0.3349460434D-01
      0.2825394365D+01  0.2347269535D+00
      0.6401216923D+00  0.8137573261D+00
 S   1 1.00       0.000000000000
      0.1612777588D+00  0.1000000000D+01
 ****
     61 0
 S   6 1.00       0.000000000000
      0.3047524880D+04  0.1834737132D-02
      0.4573695180D+03  0.1403732281D-01
      0.1039486850D+03  0.6884262226D-01
      0.2921015530D+02  0.2321844432D+00
      0.9286662960D+01  0.4679413484D+00
      0.3163926960D+01  0.3623119853D+00
 SP   3 1.00       0.000000000000
      0.7868272350D+01 -0.1193324198D+00  0.6899906659D-01
      0.1881288540D+01 -0.1608541517D+00  0.3164239610D+00
      0.5442492580D+00  0.1143456438D+01  0.7443082909D+00
 SP   1 1.00       0.000000000000
      0.1687144782D+00  0.1000000000D+01  0.1000000000D+01
 D   1 1.00       0.000000000000
      0.8000000000D+00  0.1000000000D+01
 ****
     62 0
 S   3 1.00       0.000000000000
      0.1873113696D+02  0.3349460434D-01
      0.2825394365D+01  0.2347269535D+00
      0.6401216923D+00  0.8137573261D+00
 S   1 1.00       0.000000000000
      0.1612777588D+00  0.1000000000D+01
 ****
     63 0
 S   3 1.00       0.000000000000
      0.1873113696D+02  0.3349460434D-01
      0.2825394365D+01  0.2347269535D+00
      0.6401216923D+00  0.8137573261D+00
 S   1 1.00       0.000000000000
      0.1612777588D+00  0.1000000000D+01
 ****
     64 0
 S   6 1.00       0.000000000000
      0.3047524880D+04  0.1834737132D-02
      0.4573695180D+03  0.1403732281D-01
      0.1039486850D+03  0.6884262226D-01
      0.2921015530D+02  0.2321844432D+00
      0.9286662960D+01  0.4679413484D+00
      0.3163926960D+01  0.3623119853D+00
 SP   3 1.00       0.000000000000
      0.7868272350D+01 -0.1193324198D+00  0.6899906659D-01
      0.1881288540D+01 -0.1608541517D+00  0.3164239610D+00
      0.5442492580D+00  0.1143456438D+01  0.7443082909D+00
 SP   1 1.00       0.000000000000
      0.1687144782D+00  0.1000000000D+01  0.1000000000D+01
 D   1 1.00       0.000000000000
      0.8000000000D+00  0.1000000000D+01
 ****
     65 0
 S   3 1.00       0.000000000000
      0.1873113696D+02  0.3349460434D-01
      0.2825394365D+01  0.2347269535D+00
      0.6401216923D+00  0.8137573261D+00
 S   1 1.00       0.000000000000
      0.1612777588D+00  0.1000000000D+01
 ****
     66 0
 S   3 1.00       0.000000000000
      0.1873113696D+02  0.3349460434D-01
      0.2825394365D+01  0.2347269535D+00
      0.6401216923D+00  0.8137573261D+00
 S   1 1.00       0.000000000000
      0.1612777588D+00  0.1000000000D+01
 ****
     67 0
 S   6 1.00       0.000000000000
      0.3047524880D+04  0.1834737132D-02
      0.4573695180D+03  0.1403732281D-01
      0.1039486850D+03  0.6884262226D-01
      0.2921015530D+02  0.2321844432D+00
      0.9286662960D+01  0.4679413484D+00
      0.3163926960D+01  0.3623119853D+00
 SP   3 1.00       0.000000000000
      0.7868272350D+01 -0.1193324198D+00  0.6899906659D-01
      0.1881288540D+01 -0.1608541517D+00  0.3164239610D+00
      0.5442492580D+00  0.1143456438D+01  0.7443082909D+00
 SP   1 1.00       0.000000000000
      0.1687144782D+00  0.1000000000D+01  0.1000000000D+01
 D   1 1.00       0.000000000000
      0.8000000000D+00  0.1000000000D+01
 ****
     68 0
 S   3 1.00       0.000000000000
      0.1873113696D+02  0.3349460434D-01
      0.2825394365D+01  0.2347269535D+00
      0.6401216923D+00  0.8137573261D+00
 S   1 1.00       0.000000000000
      0.1612777588D+00  0.1000000000D+01
 ****
     69 0
 S   6 1.00       0.000000000000
      0.3047524880D+04  0.1834737132D-02
      0.4573695180D+03  0.1403732281D-01
      0.1039486850D+03  0.6884262226D-01
      0.2921015530D+02  0.2321844432D+00
      0.9286662960D+01  0.4679413484D+00
      0.3163926960D+01  0.3623119853D+00
 SP   3 1.00       0.000000000000
      0.7868272350D+01 -0.1193324198D+00  0.6899906659D-01
      0.1881288540D+01 -0.1608541517D+00  0.3164239610D+00
      0.5442492580D+00  0.1143456438D+01  0.7443082909D+00
 SP   1 1.00       0.000000000000
      0.1687144782D+00  0.1000000000D+01  0.1000000000D+01
 D   1 1.00       0.000000000000
      0.8000000000D+00  0.1000000000D+01
 ****
     70 0
 S   3 1.00       0.000000000000
      0.1873113696D+02  0.3349460434D-01
      0.2825394365D+01  0.2347269535D+00
      0.6401216923D+00  0.8137573261D+00
 S   1 1.00       0.000000000000
      0.1612777588D+00  0.1000000000D+01
 ****
     71 0
 S   3 1.00       0.000000000000
      0.1873113696D+02  0.3349460434D-01
      0.2825394365D+01  0.2347269535D+00
      0.6401216923D+00  0.8137573261D+00
 S   1 1.00       0.000000000000
      0.1612777588D+00  0.1000000000D+01
 ****
     72 0
 S   3 1.00       0.000000000000
      0.1873113696D+02  0.3349460434D-01
      0.2825394365D+01  0.2347269535D+00
      0.6401216923D+00  0.8137573261D+00
 S   1 1.00       0.000000000000
      0.1612777588D+00  0.1000000000D+01
 ****
     73 0
 S   6 1.00       0.000000000000
      0.3047524880D+04  0.1834737132D-02
      0.4573695180D+03  0.1403732281D-01
      0.1039486850D+03  0.6884262226D-01
      0.2921015530D+02  0.2321844432D+00
      0.9286662960D+01  0.4679413484D+00
      0.3163926960D+01  0.3623119853D+00
 SP   3 1.00       0.000000000000
      0.7868272350D+01 -0.1193324198D+00  0.6899906659D-01
      0.1881288540D+01 -0.1608541517D+00  0.3164239610D+00
      0.5442492580D+00  0.1143456438D+01  0.7443082909D+00
 SP   1 1.00       0.000000000000
      0.1687144782D+00  0.1000000000D+01  0.1000000000D+01
 D   1 1.00       0.000000000000
      0.8000000000D+00  0.1000000000D+01
 ****
     74 0
 S   3 1.00       0.000000000000
      0.1873113696D+02  0.3349460434D-01
      0.2825394365D+01  0.2347269535D+00
      0.6401216923D+00  0.8137573261D+00
 S   1 1.00       0.000000000000
      0.1612777588D+00  0.1000000000D+01
 ****
     75 0
 S   3 1.00       0.000000000000
      0.1873113696D+02  0.3349460434D-01
      0.2825394365D+01  0.2347269535D+00
      0.6401216923D+00  0.8137573261D+00
 S   1 1.00       0.000000000000
      0.1612777588D+00  0.1000000000D+01
 ****
     76 0
 S   3 1.00       0.000000000000
      0.1873113696D+02  0.3349460434D-01
      0.2825394365D+01  0.2347269535D+00
      0.6401216923D+00  0.8137573261D+00
 S   1 1.00       0.000000000000
      0.1612777588D+00  0.1000000000D+01
 ****

 AO basis set (Overlap normalization):
 Atom C1       Shell     1 S   6     bf    1 -     1         -1.823939115919          3.786816037182          3.187457079821
      0.3047524880D+04  0.1834737132D-02
      0.4573695180D+03  0.1403732281D-01
      0.1039486850D+03  0.6884262226D-01
      0.2921015530D+02  0.2321844432D+00
      0.9286662960D+01  0.4679413484D+00
      0.3163926960D+01  0.3623119853D+00
 Atom C1       Shell     2 SP   3    bf    2 -     5         -1.823939115919          3.786816037182          3.187457079821
      0.7868272350D+01 -0.1193324198D+00  0.6899906659D-01
      0.1881288540D+01 -0.1608541517D+00  0.3164239610D+00
      0.5442492580D+00  0.1143456438D+01  0.7443082909D+00
 Atom C1       Shell     3 SP   1    bf    6 -     9         -1.823939115919          3.786816037182          3.187457079821
      0.1687144782D+00  0.1000000000D+01  0.1000000000D+01
 Atom C1       Shell     4 D   1     bf   10 -    15         -1.823939115919          3.786816037182          3.187457079821
      0.8000000000D+00  0.1000000000D+01
 Atom H2       Shell     5 S   3     bf   16 -    16         -1.852355419108          1.937025732327          4.122519799771
      0.1873113696D+02  0.3349460434D-01
      0.2825394365D+01  0.2347269535D+00
      0.6401216923D+00  0.8137573261D+00
 Atom H2       Shell     6 S   1     bf   17 -    17         -1.852355419108          1.937025732327          4.122519799771
      0.1612777588D+00  0.1000000000D+01
 Atom C3       Shell     7 S   6     bf   18 -    18          0.729894851347          5.066100082321          3.713807394004
      0.3047524880D+04  0.1834737132D-02
      0.4573695180D+03  0.1403732281D-01
      0.1039486850D+03  0.6884262226D-01
      0.2921015530D+02  0.2321844432D+00
      0.9286662960D+01  0.4679413484D+00
      0.3163926960D+01  0.3623119853D+00
 Atom C3       Shell     8 SP   3    bf   19 -    22          0.729894851347          5.066100082321          3.713807394004
      0.7868272350D+01 -0.1193324198D+00  0.6899906659D-01
      0.1881288540D+01 -0.1608541517D+00  0.3164239610D+00
      0.5442492580D+00  0.1143456438D+01  0.7443082909D+00
 Atom C3       Shell     9 SP   1    bf   23 -    26          0.729894851347          5.066100082321          3.713807394004
      0.1687144782D+00  0.1000000000D+01  0.1000000000D+01
 Atom C3       Shell    10 D   1     bf   27 -    32          0.729894851347          5.066100082321          3.713807394004
      0.8000000000D+00  0.1000000000D+01
 Atom H4       Shell    11 S   3     bf   33 -    33          1.019861118807          5.228438612033          5.755127716318
      0.1873113696D+02  0.3349460434D-01
      0.2825394365D+01  0.2347269535D+00
      0.6401216923D+00  0.8137573261D+00
 Atom H4       Shell    12 S   1     bf   34 -    34          1.019861118807          5.228438612033          5.755127716318
      0.1612777588D+00  0.1000000000D+01
 Atom H5       Shell    13 S   3     bf   35 -    35          0.629097728693          7.007495863022          2.970255491895
      0.1873113696D+02  0.3349460434D-01
      0.2825394365D+01  0.2347269535D+00
      0.6401216923D+00  0.8137573261D+00
 Atom H5       Shell    14 S   1     bf   36 -    36          0.629097728693          7.007495863022          2.970255491895
      0.1612777588D+00  0.1000000000D+01
 Atom C6       Shell    15 S   6     bf   37 -    37          2.923585341331          3.666908095249          2.507592312102
      0.3047524880D+04  0.1834737132D-02
      0.4573695180D+03  0.1403732281D-01
      0.1039486850D+03  0.6884262226D-01
      0.2921015530D+02  0.2321844432D+00
      0.9286662960D+01  0.4679413484D+00
      0.3163926960D+01  0.3623119853D+00
 Atom C6       Shell    16 SP   3    bf   38 -    41          2.923585341331          3.666908095249          2.507592312102
      0.7868272350D+01 -0.1193324198D+00  0.6899906659D-01
      0.1881288540D+01 -0.1608541517D+00  0.3164239610D+00
      0.5442492580D+00  0.1143456438D+01  0.7443082909D+00
 Atom C6       Shell    17 SP   1    bf   42 -    45          2.923585341331          3.666908095249          2.507592312102
      0.1687144782D+00  0.1000000000D+01  0.1000000000D+01
 Atom C6       Shell    18 D   1     bf   46 -    51          2.923585341331          3.666908095249          2.507592312102
      0.8000000000D+00  0.1000000000D+01
 Atom C7       Shell    19 S   6     bf   52 -    52          2.692605060971          3.075897929045         -0.320665851147
      0.3047524880D+04  0.1834737132D-02
      0.4573695180D+03  0.1403732281D-01
      0.1039486850D+03  0.6884262226D-01
      0.2921015530D+02  0.2321844432D+00
      0.9286662960D+01  0.4679413484D+00
      0.3163926960D+01  0.3623119853D+00
 Atom C7       Shell    20 SP   3    bf   53 -    56          2.692605060971          3.075897929045         -0.320665851147
      0.7868272350D+01 -0.1193324198D+00  0.6899906659D-01
      0.1881288540D+01 -0.1608541517D+00  0.3164239610D+00
      0.5442492580D+00  0.1143456438D+01  0.7443082909D+00
 Atom C7       Shell    21 SP   1    bf   57 -    60          2.692605060971          3.075897929045         -0.320665851147
      0.1687144782D+00  0.1000000000D+01  0.1000000000D+01
 Atom C7       Shell    22 D   1     bf   61 -    66          2.692605060971          3.075897929045         -0.320665851147
      0.8000000000D+00  0.1000000000D+01
 Atom C8       Shell    23 S   6     bf   67 -    67          0.024870080923          1.915665118498         -0.799335445922
      0.3047524880D+04  0.1834737132D-02
      0.4573695180D+03  0.1403732281D-01
      0.1039486850D+03  0.6884262226D-01
      0.2921015530D+02  0.2321844432D+00
      0.9286662960D+01  0.4679413484D+00
      0.3163926960D+01  0.3623119853D+00
 Atom C8       Shell    24 SP   3    bf   68 -    71          0.024870080923          1.915665118498         -0.799335445922
      0.7868272350D+01 -0.1193324198D+00  0.6899906659D-01
      0.1881288540D+01 -0.1608541517D+00  0.3164239610D+00
      0.5442492580D+00  0.1143456438D+01  0.7443082909D+00
 Atom C8       Shell    25 SP   1    bf   72 -    75          0.024870080923          1.915665118498         -0.799335445922
      0.1687144782D+00  0.1000000000D+01  0.1000000000D+01
 Atom C8       Shell    26 D   1     bf   76 -    81          0.024870080923          1.915665118498         -0.799335445922
      0.8000000000D+00  0.1000000000D+01
 Atom H9       Shell    27 S   3     bf   82 -    82          0.000000000000          0.000000000000          0.000000000000
      0.1873113696D+02  0.3349460434D-01
      0.2825394365D+01  0.2347269535D+00
      0.6401216923D+00  0.8137573261D+00
 Atom H9       Shell    28 S   1     bf   83 -    83          0.000000000000          0.000000000000          0.000000000000
      0.1612777588D+00  0.1000000000D+01
 Atom H10      Shell    29 S   3     bf   84 -    84         -0.275102683254          1.705429155584         -2.836571862193
      0.1873113696D+02  0.3349460434D-01
      0.2825394365D+01  0.2347269535D+00
      0.6401216923D+00  0.8137573261D+00
 Atom H10      Shell    30 S   1     bf   85 -    85         -0.275102683254          1.705429155584         -2.836571862193
      0.1612777588D+00  0.1000000000D+01
 Atom C11      Shell    31 S   6     bf   86 -    86         -2.183525067300          3.413303408914          0.345534476980
      0.3047524880D+04  0.1834737132D-02
      0.4573695180D+03  0.1403732281D-01
      0.1039486850D+03  0.6884262226D-01
      0.2921015530D+02  0.2321844432D+00
      0.9286662960D+01  0.4679413484D+00
      0.3163926960D+01  0.3623119853D+00
 Atom C11      Shell    32 SP   3    bf   87 -    90         -2.183525067300          3.413303408914          0.345534476980
      0.7868272350D+01 -0.1193324198D+00  0.6899906659D-01
      0.1881288540D+01 -0.1608541517D+00  0.3164239610D+00
      0.5442492580D+00  0.1143456438D+01  0.7443082909D+00
 Atom C11      Shell    33 SP   1    bf   91 -    94         -2.183525067300          3.413303408914          0.345534476980
      0.1687144782D+00  0.1000000000D+01  0.1000000000D+01
 Atom C11      Shell    34 D   1     bf   95 -   100         -2.183525067300          3.413303408914          0.345534476980
      0.8000000000D+00  0.1000000000D+01
 Atom H12      Shell    35 S   3     bf  101 -   101         -2.351790193905          5.273567350785         -0.567018014248
      0.1873113696D+02  0.3349460434D-01
      0.2825394365D+01  0.2347269535D+00
      0.6401216923D+00  0.8137573261D+00
 Atom H12      Shell    36 S   1     bf  102 -   102         -2.351790193905          5.273567350785         -0.567018014248
      0.1612777588D+00  0.1000000000D+01
 Atom H13      Shell    37 S   3     bf  103 -   103         -3.967783581599          2.420499596747          0.000000000000
      0.1873113696D+02  0.3349460434D-01
      0.2825394365D+01  0.2347269535D+00
      0.6401216923D+00  0.8137573261D+00
 Atom H13      Shell    38 S   1     bf  104 -   104         -3.967783581599          2.420499596747          0.000000000000
      0.1612777588D+00  0.1000000000D+01
 Atom C14      Shell    39 S   6     bf  105 -   105          4.933071450593          3.017561270741          3.911910804919
      0.3047524880D+04  0.1834737132D-02
      0.4573695180D+03  0.1403732281D-01
      0.1039486850D+03  0.6884262226D-01
      0.2921015530D+02  0.2321844432D+00
      0.9286662960D+01  0.4679413484D+00
      0.3163926960D+01  0.3623119853D+00
 Atom C14      Shell    40 SP   3    bf  106 -   109          4.933071450593          3.017561270741          3.911910804919
      0.7868272350D+01 -0.1193324198D+00  0.6899906659D-01
      0.1881288540D+01 -0.1608541517D+00  0.3164239610D+00
      0.5442492580D+00  0.1143456438D+01  0.7443082909D+00
 Atom C14      Shell    41 SP   1    bf  110 -   113          4.933071450593          3.017561270741          3.911910804919
      0.1687144782D+00  0.1000000000D+01  0.1000000000D+01
 Atom C14      Shell    42 D   1     bf  114 -   119          4.933071450593          3.017561270741          3.911910804919
      0.8000000000D+00  0.1000000000D+01
 Atom H15      Shell    43 S   3     bf  120 -   120          4.953382964063          3.500784406298          5.911103065710
      0.1873113696D+02  0.3349460434D-01
      0.2825394365D+01  0.2347269535D+00
      0.6401216923D+00  0.8137573261D+00
 Atom H15      Shell    44 S   1     bf  121 -   121          4.953382964063          3.500784406298          5.911103065710
      0.1612777588D+00  0.1000000000D+01
 Atom C16      Shell    45 S   6     bf  122 -   122          7.211377206074          1.637897543451          2.933595012787
      0.3047524880D+04  0.1834737132D-02
      0.4573695180D+03  0.1403732281D-01
      0.1039486850D+03  0.6884262226D-01
      0.2921015530D+02  0.2321844432D+00
      0.9286662960D+01  0.4679413484D+00
      0.3163926960D+01  0.3623119853D+00
 Atom C16      Shell    46 SP   3    bf  123 -   126          7.211377206074          1.637897543451          2.933595012787
      0.7868272350D+01 -0.1193324198D+00  0.6899906659D-01
      0.1881288540D+01 -0.1608541517D+00  0.3164239610D+00
      0.5442492580D+00  0.1143456438D+01  0.7443082909D+00
 Atom C16      Shell    47 SP   1    bf  127 -   130          7.211377206074          1.637897543451          2.933595012787
      0.1687144782D+00  0.1000000000D+01  0.1000000000D+01
 Atom C16      Shell    48 D   1     bf  131 -   136          7.211377206074          1.637897543451          2.933595012787
      0.8000000000D+00  0.1000000000D+01
 Atom H17      Shell    49 S   3     bf  137 -   137          8.940221599123          2.455017825619          3.735898424778
      0.1873113696D+02  0.3349460434D-01
      0.2825394365D+01  0.2347269535D+00
      0.6401216923D+00  0.8137573261D+00
 Atom H17      Shell    50 S   1     bf  138 -   138          8.940221599123          2.455017825619          3.735898424778
      0.1612777588D+00  0.1000000000D+01
 Atom C18      Shell    51 S   6     bf  139 -   139          7.372118784924          1.657734489997          0.029139936017
      0.3047524880D+04  0.1834737132D-02
      0.4573695180D+03  0.1403732281D-01
      0.1039486850D+03  0.6884262226D-01
      0.2921015530D+02  0.2321844432D+00
      0.9286662960D+01  0.4679413484D+00
      0.3163926960D+01  0.3623119853D+00
 Atom C18      Shell    52 SP   3    bf  140 -   143          7.372118784924          1.657734489997          0.029139936017
      0.7868272350D+01 -0.1193324198D+00  0.6899906659D-01
      0.1881288540D+01 -0.1608541517D+00  0.3164239610D+00
      0.5442492580D+00  0.1143456438D+01  0.7443082909D+00
 Atom C18      Shell    53 SP   1    bf  144 -   147          7.372118784924          1.657734489997          0.029139936017
      0.1687144782D+00  0.1000000000D+01  0.1000000000D+01
 Atom C18      Shell    54 D   1     bf  148 -   153          7.372118784924          1.657734489997          0.029139936017
      0.8000000000D+00  0.1000000000D+01
 Atom H19      Shell    55 S   3     bf  154 -   154          7.952503342336          3.590195588850         -0.463896736320
      0.1873113696D+02  0.3349460434D-01
      0.2825394365D+01  0.2347269535D+00
      0.6401216923D+00  0.8137573261D+00
 Atom H19      Shell    56 S   1     bf  155 -   155          7.952503342336          3.590195588850         -0.463896736320
      0.1612777588D+00  0.1000000000D+01
 Atom C20      Shell    57 S   6     bf  156 -   156          4.745031889583          1.101455827157         -1.148964468103
      0.3047524880D+04  0.1834737132D-02
      0.4573695180D+03  0.1403732281D-01
      0.1039486850D+03  0.6884262226D-01
      0.2921015530D+02  0.2321844432D+00
      0.9286662960D+01  0.4679413484D+00
      0.3163926960D+01  0.3623119853D+00
 Atom C20      Shell    58 SP   3    bf  157 -   160          4.745031889583          1.101455827157         -1.148964468103
      0.7868272350D+01 -0.1193324198D+00  0.6899906659D-01
      0.1881288540D+01 -0.1608541517D+00  0.3164239610D+00
      0.5442492580D+00  0.1143456438D+01  0.7443082909D+00
 Atom C20      Shell    59 SP   1    bf  161 -   164          4.745031889583          1.101455827157         -1.148964468103
      0.1687144782D+00  0.1000000000D+01  0.1000000000D+01
 Atom C20      Shell    60 D   1     bf  165 -   170          4.745031889583          1.101455827157         -1.148964468103
      0.8000000000D+00  0.1000000000D+01
 Atom H21      Shell    61 S   3     bf  171 -   171          4.145383123822         -0.720527743468         -0.348353249172
      0.1873113696D+02  0.3349460434D-01
      0.2825394365D+01  0.2347269535D+00
      0.6401216923D+00  0.8137573261D+00
 Atom H21      Shell    62 S   1     bf  172 -   172          4.145383123822         -0.720527743468         -0.348353249172
      0.1612777588D+00  0.1000000000D+01
 Atom C22      Shell    63 S   6     bf  173 -   173          4.900491135871          0.745620755382         -4.047816355711
      0.3047524880D+04  0.1834737132D-02
      0.4573695180D+03  0.1403732281D-01
      0.1039486850D+03  0.6884262226D-01
      0.2921015530D+02  0.2321844432D+00
      0.9286662960D+01  0.4679413484D+00
      0.3163926960D+01  0.3623119853D+00
 Atom C22      Shell    64 SP   3    bf  174 -   177          4.900491135871          0.745620755382         -4.047816355711
      0.7868272350D+01 -0.1193324198D+00  0.6899906659D-01
      0.1881288540D+01 -0.1608541517D+00  0.3164239610D+00
      0.5442492580D+00  0.1143456438D+01  0.7443082909D+00
 Atom C22      Shell    65 SP   1    bf  178 -   181          4.900491135871          0.745620755382         -4.047816355711
      0.1687144782D+00  0.1000000000D+01  0.1000000000D+01
 Atom C22      Shell    66 D   1     bf  182 -   187          4.900491135871          0.745620755382         -4.047816355711
      0.8000000000D+00  0.1000000000D+01
 Atom H23      Shell    67 S   3     bf  188 -   188          5.189073689165          2.575376901872         -4.968831645274
      0.1873113696D+02  0.3349460434D-01
      0.2825394365D+01  0.2347269535D+00
      0.6401216923D+00  0.8137573261D+00
 Atom H23      Shell    68 S   1     bf  189 -   189          5.189073689165          2.575376901872         -4.968831645274
      0.1612777588D+00  0.1000000000D+01
 Atom H24      Shell    69 S   3     bf  190 -   190          3.086493169938          0.036110701084         -4.752581250997
      0.1873113696D+02  0.3349460434D-01
      0.2825394365D+01  0.2347269535D+00
      0.6401216923D+00  0.8137573261D+00
 Atom H24      Shell    70 S   1     bf  191 -   191          3.086493169938          0.036110701084         -4.752581250997
      0.1612777588D+00  0.1000000000D+01
 Atom C25      Shell    71 S   6     bf  192 -   192          7.008499647749         -1.062917942930         -4.932095047998
      0.3047524880D+04  0.1834737132D-02
      0.4573695180D+03  0.1403732281D-01
      0.1039486850D+03  0.6884262226D-01
      0.2921015530D+02  0.2321844432D+00
      0.9286662960D+01  0.4679413484D+00
      0.3163926960D+01  0.3623119853D+00
 Atom C25      Shell    72 SP   3    bf  193 -   196          7.008499647749         -1.062917942930         -4.932095047998
      0.7868272350D+01 -0.1193324198D+00  0.6899906659D-01
      0.1881288540D+01 -0.1608541517D+00  0.3164239610D+00
      0.5442492580D+00  0.1143456438D+01  0.7443082909D+00
 Atom C25      Shell    73 SP   1    bf  197 -   200          7.008499647749         -1.062917942930         -4.932095047998
      0.1687144782D+00  0.1000000000D+01  0.1000000000D+01
 Atom C25      Shell    74 D   1     bf  201 -   206          7.008499647749         -1.062917942930         -4.932095047998
      0.8000000000D+00  0.1000000000D+01
 Atom H26      Shell    75 S   3     bf  207 -   207          6.594302878799         -2.990374196607         -4.277107296497
      0.1873113696D+02  0.3349460434D-01
      0.2825394365D+01  0.2347269535D+00
      0.6401216923D+00  0.8137573261D+00
 Atom H26      Shell    76 S   1     bf  208 -   208          6.594302878799         -2.990374196607         -4.277107296497
      0.1612777588D+00  0.1000000000D+01
 Atom H27      Shell    77 S   3     bf  209 -   209          6.986845767321         -1.125502422122         -6.999821458429
      0.1873113696D+02  0.3349460434D-01
      0.2825394365D+01  0.2347269535D+00
      0.6401216923D+00  0.8137573261D+00
 Atom H27      Shell    78 S   1     bf  210 -   210          6.986845767321         -1.125502422122         -6.999821458429
      0.1612777588D+00  0.1000000000D+01
 Atom C28      Shell    79 S   6     bf  211 -   211          9.615496373243         -0.268651120442         -3.899032189042
      0.3047524880D+04  0.1834737132D-02
      0.4573695180D+03  0.1403732281D-01
      0.1039486850D+03  0.6884262226D-01
      0.2921015530D+02  0.2321844432D+00
      0.9286662960D+01  0.4679413484D+00
      0.3163926960D+01  0.3623119853D+00
 Atom C28      Shell    80 SP   3    bf  212 -   215          9.615496373243         -0.268651120442         -3.899032189042
      0.7868272350D+01 -0.1193324198D+00  0.6899906659D-01
      0.1881288540D+01 -0.1608541517D+00  0.3164239610D+00
      0.5442492580D+00  0.1143456438D+01  0.7443082909D+00
 Atom C28      Shell    81 SP   1    bf  216 -   219          9.615496373243         -0.268651120442         -3.899032189042
      0.1687144782D+00  0.1000000000D+01  0.1000000000D+01
 Atom C28      Shell    82 D   1     bf  220 -   225          9.615496373243         -0.268651120442         -3.899032189042
      0.8000000000D+00  0.1000000000D+01
 Atom C29      Shell    83 S   6     bf  226 -   226          9.358613843547         -0.206575809059         -0.973927375620
      0.3047524880D+04  0.1834737132D-02
      0.4573695180D+03  0.1403732281D-01
      0.1039486850D+03  0.6884262226D-01
      0.2921015530D+02  0.2321844432D+00
      0.9286662960D+01  0.4679413484D+00
      0.3163926960D+01  0.3623119853D+00
 Atom C29      Shell    84 SP   3    bf  227 -   230          9.358613843547         -0.206575809059         -0.973927375620
      0.7868272350D+01 -0.1193324198D+00  0.6899906659D-01
      0.1881288540D+01 -0.1608541517D+00  0.3164239610D+00
      0.5442492580D+00  0.1143456438D+01  0.7443082909D+00
 Atom C29      Shell    85 SP   1    bf  231 -   234          9.358613843547         -0.206575809059         -0.973927375620
      0.1687144782D+00  0.1000000000D+01  0.1000000000D+01
 Atom C29      Shell    86 D   1     bf  235 -   240          9.358613843547         -0.206575809059         -0.973927375620
      0.8000000000D+00  0.1000000000D+01
 Atom H30      Shell    87 S   3     bf  241 -   241          8.694318869588         -2.101407150476         -0.445989275745
      0.1873113696D+02  0.3349460434D-01
      0.2825394365D+01  0.2347269535D+00
      0.6401216923D+00  0.8137573261D+00
 Atom H30      Shell    88 S   1     bf  242 -   242          8.694318869588         -2.101407150476         -0.445989275745
      0.1612777588D+00  0.1000000000D+01
 Atom C31      Shell    89 S   6     bf  243 -   243         12.083810614290          0.000000000000          0.000000000000
      0.3047524880D+04  0.1834737132D-02
      0.4573695180D+03  0.1403732281D-01
      0.1039486850D+03  0.6884262226D-01
      0.2921015530D+02  0.2321844432D+00
      0.9286662960D+01  0.4679413484D+00
      0.3163926960D+01  0.3623119853D+00
 Atom C31      Shell    90 SP   3    bf  244 -   247         12.083810614290          0.000000000000          0.000000000000
      0.7868272350D+01 -0.1193324198D+00  0.6899906659D-01
      0.1881288540D+01 -0.1608541517D+00  0.3164239610D+00
      0.5442492580D+00  0.1143456438D+01  0.7443082909D+00
 Atom C31      Shell    91 SP   1    bf  248 -   251         12.083810614290          0.000000000000          0.000000000000
      0.1687144782D+00  0.1000000000D+01  0.1000000000D+01
 Atom C31      Shell    92 D   1     bf  252 -   257         12.083810614290          0.000000000000          0.000000000000
      0.8000000000D+00  0.1000000000D+01
 Atom H32      Shell    93 S   3     bf  258 -   258         12.273248005721         -0.738166390500          1.920798483949
      0.1873113696D+02  0.3349460434D-01
      0.2825394365D+01  0.2347269535D+00
      0.6401216923D+00  0.8137573261D+00
 Atom H32      Shell    94 S   1     bf  259 -   259         12.273248005721         -0.738166390500          1.920798483949
      0.1612777588D+00  0.1000000000D+01
 Atom H33      Shell    95 S   3     bf  260 -   260         12.708945492796          1.977186362179          0.043783820663
      0.1873113696D+02  0.3349460434D-01
      0.2825394365D+01  0.2347269535D+00
      0.6401216923D+00  0.8137573261D+00
 Atom H33      Shell    96 S   1     bf  261 -   261         12.708945492796          1.977186362179          0.043783820663
      0.1612777588D+00  0.1000000000D+01
 Atom C34      Shell    97 S   6     bf  262 -   262         13.635344536523         -1.547094596499         -1.955786215279
      0.3047524880D+04  0.1834737132D-02
      0.4573695180D+03  0.1403732281D-01
      0.1039486850D+03  0.6884262226D-01
      0.2921015530D+02  0.2321844432D+00
      0.9286662960D+01  0.4679413484D+00
      0.3163926960D+01  0.3623119853D+00
 Atom C34      Shell    98 SP   3    bf  263 -   266         13.635344536523         -1.547094596499         -1.955786215279
      0.7868272350D+01 -0.1193324198D+00  0.6899906659D-01
      0.1881288540D+01 -0.1608541517D+00  0.3164239610D+00
      0.5442492580D+00  0.1143456438D+01  0.7443082909D+00
 Atom C34      Shell    99 SP   1    bf  267 -   270         13.635344536523         -1.547094596499         -1.955786215279
      0.1687144782D+00  0.1000000000D+01  0.1000000000D+01
 Atom C34      Shell   100 D   1     bf  271 -   276         13.635344536523         -1.547094596499         -1.955786215279
      0.8000000000D+00  0.1000000000D+01
 Atom H35      Shell   101 S   3     bf  277 -   277         15.227647221374         -0.433317188038         -2.675146164688
      0.1873113696D+02  0.3349460434D-01
      0.2825394365D+01  0.2347269535D+00
      0.6401216923D+00  0.8137573261D+00
 Atom H35      Shell   102 S   1     bf  278 -   278         15.227647221374         -0.433317188038         -2.675146164688
      0.1612777588D+00  0.1000000000D+01
 Atom H36      Shell   103 S   3     bf  279 -   279         14.453027106702         -3.244048179199         -1.101801136813
      0.1873113696D+02  0.3349460434D-01
      0.2825394365D+01  0.2347269535D+00
      0.6401216923D+00  0.8137573261D+00
 Atom H36      Shell   104 S   1     bf  280 -   280         14.453027106702         -3.244048179199         -1.101801136813
      0.1612777588D+00  0.1000000000D+01
 Atom C37      Shell   105 S   6     bf  281 -   281         11.799661396298         -2.255248356557         -4.162641860312
      0.3047524880D+04  0.1834737132D-02
      0.4573695180D+03  0.1403732281D-01
      0.1039486850D+03  0.6884262226D-01
      0.2921015530D+02  0.2321844432D+00
      0.9286662960D+01  0.4679413484D+00
      0.3163926960D+01  0.3623119853D+00
 Atom C37      Shell   106 SP   3    bf  282 -   285         11.799661396298         -2.255248356557         -4.162641860312
      0.7868272350D+01 -0.1193324198D+00  0.6899906659D-01
      0.1881288540D+01 -0.1608541517D+00  0.3164239610D+00
      0.5442492580D+00  0.1143456438D+01  0.7443082909D+00
[...]
 **** Fit      -0.002974
 **** Fit      -0.004382
 **** Fit      -0.005108
 **** Fit      -0.005128
 **** Fit      -0.004651
 **** Fit      -0.003951
 **** Fit      -0.003250
 **** Fit      -0.002675
 **** Fit      -0.002258
 **** Fit      -0.001977
 **** Fit      -0.001798
 **** Fit      -0.001687
 **** Fit       0.000791
 **** Fit       0.000988
 **** Fit       0.001220
 **** Fit       0.001450
 **** Fit       0.001569
 **** Fit       0.001350
 **** Fit       0.000504
 **** Fit      -0.001059
 **** Fit      -0.002959
 **** Fit      -0.004499
 **** Fit      -0.005192
 **** Fit      -0.005005
 **** Fit      -0.004241
 **** Fit      -0.003305
 **** Fit      -0.002507
 **** Fit      -0.001967
 **** Fit      -0.001656
 **** Fit      -0.001500
 **** Fit      -0.001432
 **** Fit      -0.001412
 **** Fit       0.000818
 **** Fit       0.001000
 **** Fit       0.001204
 **** Fit       0.001392
 **** Fit       0.001451
 **** Fit       0.001163
 **** Fit       0.000259
 **** Fit      -0.001327
 **** Fit      -0.003192
 **** Fit      -0.004622
 **** Fit      -0.005102
 **** Fit      -0.004602
 **** Fit      -0.003503
 **** Fit      -0.002342
 **** Fit      -0.001506
 **** Fit      -0.001074
 **** Fit      -0.000934
 **** Fit      -0.000945
 **** Fit      -0.001017
 **** Fit      -0.001103
 **** Fit       0.000759
 **** Fit       0.000886
 **** Fit       0.001007
 **** Fit       0.001071
 **** Fit       0.000973
 **** Fit       0.000534
 **** Fit      -0.000431
 **** Fit      -0.001910
 **** Fit      -0.003517
 **** Fit      -0.004631
 **** Fit      -0.004797
 **** Fit      -0.003993
 **** Fit      -0.002639
 **** Fit      -0.001347
 **** Fit      -0.000531
 **** Fit      -0.000229
 **** Fit      -0.000256
 **** Fit      -0.000423
 **** Fit      -0.000622
 **** Fit      -0.000806
 **** Fit       0.000640
 **** Fit       0.000694
 **** Fit       0.000710
 **** Fit       0.000632
 **** Fit       0.000370
 **** Fit      -0.000196
 **** Fit      -0.001152
 **** Fit      -0.002416
 **** Fit      -0.003657
 **** Fit      -0.004399
 **** Fit      -0.004293
 **** Fit      -0.003339
 **** Fit      -0.001929
 **** Fit      -0.000648
 **** Fit       0.000113
 **** Fit       0.000334
 **** Fit       0.000217
 **** Fit      -0.000038
 **** Fit      -0.000315
 **** Fit      -0.000563
 **** Fit       0.000481
 **** Fit       0.000406
 **** Fit       0.000221
 **** Fit      -0.000139
 **** Fit      -0.000740
 **** Fit      -0.001593
 **** Fit      -0.002591
 **** Fit      -0.003474
 **** Fit      -0.003912
 **** Fit      -0.003669
 **** Fit      -0.002759
 **** Fit      -0.001499
 **** Fit      -0.000362
 **** Fit       0.000325
 **** Fit       0.000532
 **** Fit       0.000418
 **** Fit       0.000160
 **** Fit      -0.000130
 **** Fit      -0.000399
 **** Fit       0.000291
 **** Fit       0.000159
 **** Fit      -0.000077
 **** Fit      -0.000458
 **** Fit      -0.001008
 **** Fit      -0.001703
 **** Fit      -0.002441
 **** Fit      -0.003036
 **** Fit      -0.003276
 **** Fit      -0.003014
 **** Fit      -0.002272
 **** Fit      -0.001276
 **** Fit      -0.000358
 **** Fit       0.000235
 **** Fit       0.000454
 **** Fit       0.000396
 **** Fit       0.000191
 **** Fit      -0.000064
 **** Fit      -0.000317
 **** Fit      -0.000007
 **** Fit      -0.000249
 **** Fit      -0.000597
 **** Fit      -0.001053
 **** Fit      -0.001583
 **** Fit      -0.002104
 **** Fit      -0.002494
 **** Fit      -0.002621
 **** Fit      -0.002401
 **** Fit      -0.001856
 **** Fit      -0.001133
 **** Fit      -0.000446
 **** Fit       0.000033
 **** Fit       0.000251
 **** Fit       0.000250
 **** Fit       0.000114
 **** Fit      -0.000086
 **** Fit      -0.000609
 **** Fit      -0.000965
 **** Fit      -0.001353
 **** Fit      -0.001714
 **** Fit      -0.001969
 **** Fit      -0.002038
 **** Fit      -0.001876
 **** Fit      -0.001503
 **** Fit      -0.001007
 **** Fit      -0.000521
 **** Fit      -0.000157
 **** Fit       0.000035
 **** Fit       0.000069
 **** Fit      -0.000011
 **** Fit      -0.000157
 **** Fit      -0.001518
 **** Fit      -0.001561
 **** Fit      -0.001455
 **** Fit      -0.001211
 **** Fit      -0.000886
 **** Fit      -0.000557
 **** Fit      -0.000296
 **** Fit      -0.000142
 **** Fit      -0.000098
 **** Fit      -0.000142
 **** Fit      -0.001130
 **** Fit      -0.000980
 **** Fit      -0.000774
 **** Fit      -0.000560
 **** Fit      -0.000382
 **** Fit      -0.000270
 **** Fit      -0.001402
 **** Fit      -0.001737
 **** Fit      -0.002082
 **** Fit      -0.002398
 **** Fit      -0.002648
 **** Fit      -0.000689
 **** Fit      -0.000952
 **** Fit      -0.001298
 **** Fit      -0.001711
 **** Fit      -0.002155
 **** Fit      -0.002572
 **** Fit      -0.002903
 **** Fit      -0.003113
 **** Fit      -0.003190
 **** Fit      -0.000275
 **** Fit      -0.000447
 **** Fit      -0.000716
 **** Fit      -0.001103
 **** Fit      -0.001599
 **** Fit      -0.002160
 **** Fit      -0.002702
 **** Fit      -0.003138
 **** Fit      -0.003407
 **** Fit      -0.003498
 **** Fit      -0.003433
 **** Fit      -0.003256
 **** Fit      -0.003014
 **** Fit       0.000046
 **** Fit      -0.000016
 **** Fit      -0.000152
 **** Fit      -0.000406
 **** Fit      -0.000818
 **** Fit      -0.001396
 **** Fit      -0.002087
 **** Fit      -0.002778
 **** Fit      -0.003335
 **** Fit      -0.003670
 **** Fit      -0.003766
 **** Fit      -0.003659
 **** Fit      -0.003415
 **** Fit      -0.003102
 **** Fit      -0.002776
 **** Fit      -0.002478
 **** Fit       0.000260
 **** Fit       0.000246
 **** Fit       0.000156
 **** Fit      -0.000066
 **** Fit      -0.000486
 **** Fit      -0.001133
 **** Fit      -0.001956
 **** Fit      -0.002804
 **** Fit      -0.003489
 **** Fit      -0.003882
 **** Fit      -0.003961
 **** Fit      -0.003785
 **** Fit      -0.003452
 **** Fit      -0.003058
 **** Fit      -0.002676
 **** Fit      -0.002351
 **** Fit      -0.002094
 **** Fit       0.000435
 **** Fit       0.000460
 **** Fit       0.000413
 **** Fit       0.000223
 **** Fit      -0.000196
 **** Fit      -0.000897
 **** Fit      -0.001832
 **** Fit      -0.002815
 **** Fit      -0.003602
 **** Fit      -0.004021
 **** Fit      -0.004046
 **** Fit      -0.003765
 **** Fit      -0.003319
 **** Fit      -0.002841
 **** Fit      -0.002419
 **** Fit      -0.002092
 **** Fit      -0.001860
 **** Fit      -0.001704
 **** Fit       0.000472
 **** Fit       0.000540
 **** Fit       0.000581
 **** Fit       0.000550
 **** Fit       0.000370
 **** Fit      -0.000057
 **** Fit      -0.000796
 **** Fit      -0.001798
 **** Fit      -0.002853
 **** Fit      -0.003675
 **** Fit      -0.004060
 **** Fit      -0.003981
 **** Fit      -0.003562
 **** Fit      -0.002992
 **** Fit      -0.002442
 **** Fit      -0.002008
 **** Fit      -0.001714
 **** Fit      -0.001536
 **** Fit      -0.001441
 **** Fit       0.000558
 **** Fit       0.000585
 **** Fit       0.000534
 **** Fit       0.000328
 **** Fit      -0.000125
 **** Fit      -0.000884
 **** Fit      -0.001888
 **** Fit      -0.002920
 **** Fit      -0.003682
 **** Fit      -0.003966
 **** Fit      -0.003749
 **** Fit      -0.003184
 **** Fit      -0.002505
 **** Fit      -0.001911
 **** Fit      -0.001499
 **** Fit      -0.001266
 **** Fit      -0.001165
 **** Fit      -0.001144
 **** Fit       0.000498
 **** Fit       0.000485
 **** Fit       0.000384
 **** Fit       0.000128
 **** Fit      -0.000358
 **** Fit      -0.001105
 **** Fit      -0.002042
 **** Fit      -0.002956
 **** Fit      -0.003580
 **** Fit      -0.003722
 **** Fit      -0.003372
 **** Fit      -0.002699
 **** Fit      -0.001958
 **** Fit      -0.001361
 **** Fit      -0.000993
 **** Fit      -0.000831
 **** Fit      -0.000807
 **** Fit      -0.000858
 **** Fit      -0.000938
 **** Fit       0.000385
 **** Fit       0.000322
 **** Fit       0.000165
 **** Fit      -0.000138
 **** Fit      -0.000635
 **** Fit      -0.001331
 **** Fit      -0.002142
 **** Fit      -0.002884
 **** Fit      -0.003336
 **** Fit      -0.003347
 **** Fit      -0.002917
 **** Fit      -0.002211
 **** Fit      -0.001476
 **** Fit      -0.000911
 **** Fit      -0.000593
 **** Fit      -0.000488
 **** Fit      -0.000520
 **** Fit      -0.000621
 **** Fit       0.000147
 **** Fit      -0.000050
 **** Fit      -0.000374
 **** Fit      -0.000847
 **** Fit      -0.001454
 **** Fit      -0.002112
 **** Fit      -0.002672
 **** Fit      -0.002968
 **** Fit      -0.002893
 **** Fit      -0.002456
 **** Fit      -0.001799
 **** Fit      -0.001132
 **** Fit      -0.000629
 **** Fit      -0.000353
 **** Fit      -0.000279
 **** Fit      -0.000336
 **** Fit      -0.000459
 **** Fit      -0.000001
 **** Fit      -0.000214
 **** Fit      -0.000528
 **** Fit      -0.000947
 **** Fit      -0.001446
 **** Fit      -0.001950
 **** Fit      -0.002351
 **** Fit      -0.002532
 **** Fit      -0.002421
 **** Fit      -0.002034
 **** Fit      -0.001482
 **** Fit      -0.000925
 **** Fit      -0.000499
 **** Fit      -0.000262
 **** Fit      -0.000197
 **** Fit      -0.000253
 **** Fit      -0.000374
 **** Fit      -0.000311
 **** Fit      -0.000592
 **** Fit      -0.000942
 **** Fit      -0.001333
 **** Fit      -0.001706
 **** Fit      -0.001984
 **** Fit      -0.002090
 **** Fit      -0.001981
 **** Fit      -0.001672
 **** Fit      -0.001243
 **** Fit      -0.000807
 **** Fit      -0.000466
 **** Fit      -0.000267
 **** Fit      -0.000205
 **** Fit      -0.000248
 **** Fit      -0.001162
 **** Fit      -0.001433
 **** Fit      -0.001625
 **** Fit      -0.001688
 **** Fit      -0.001599
 **** Fit      -0.001371
 **** Fit      -0.001058
 **** Fit      -0.000736
 **** Fit      -0.000476
 **** Fit      -0.000315
 **** Fit      -0.000259
 **** Fit      -0.001285
 **** Fit      -0.001127
 **** Fit      -0.000910
 **** Fit      -0.000683
 **** Fit      -0.000494
 **** Fit      -0.000373
 **** Fit      -0.001223
 **** Fit      -0.001542
 **** Fit      -0.001877
 **** Fit      -0.002190
 **** Fit      -0.000800
 **** Fit      -0.001111
 **** Fit      -0.001487
 **** Fit      -0.001894
 **** Fit      -0.002281
 **** Fit      -0.002596
 **** Fit      -0.002801
 **** Fit      -0.000381
 **** Fit      -0.000621
 **** Fit      -0.000960
 **** Fit      -0.001391
 **** Fit      -0.001874
 **** Fit      -0.002342
 **** Fit      -0.002721
 **** Fit      -0.002961
 **** Fit      -0.003046
 **** Fit      -0.002994
 **** Fit      -0.002842
 **** Fit      -0.000057
 **** Fit      -0.000197
 **** Fit      -0.000435
 **** Fit      -0.000795
 **** Fit      -0.001275
 **** Fit      -0.001830
 **** Fit      -0.002376
 **** Fit      -0.002815
 **** Fit      -0.003080
 **** Fit      -0.003152
 **** Fit      -0.003059
 **** Fit      -0.002854
 **** Fit      -0.002597
 **** Fit      -0.002336
 **** Fit       0.000081
 **** Fit      -0.000046
 **** Fit      -0.000281
 **** Fit      -0.000657
 **** Fit      -0.001176
 **** Fit      -0.001789
 **** Fit      -0.002394
 **** Fit      -0.002874
 **** Fit      -0.003143
 **** Fit      -0.003182
 **** Fit      -0.003032
 **** Fit      -0.002764
 **** Fit      -0.002457
 **** Fit      -0.002167
 **** Fit      -0.001928
 **** Fit       0.000163
 **** Fit       0.000040
 **** Fit      -0.000198
 **** Fit      -0.000587
 **** Fit      -0.001130
 **** Fit      -0.001774
 **** Fit      -0.002405
 **** Fit      -0.002890
 **** Fit      -0.003134
 **** Fit      -0.003118
 **** Fit      -0.002898
 **** Fit      -0.002565
 **** Fit      -0.002214
 **** Fit      -0.001909
 **** Fit      -0.001679
 **** Fit      -0.001524
 **** Fit       0.000178
 **** Fit       0.000045
 **** Fit      -0.000204
 **** Fit      -0.000602
 **** Fit      -0.001149
 **** Fit      -0.001788
 **** Fit      -0.002401
 **** Fit      -0.002849
 **** Fit      -0.003038
 **** Fit      -0.002954
 **** Fit      -0.002663
 **** Fit      -0.002274
 **** Fit      -0.001895
 **** Fit      -0.001593
 **** Fit      -0.001387
 **** Fit      -0.001269
 **** Fit       0.000133
 **** Fit      -0.000019
 **** Fit      -0.000282
 **** Fit      -0.000682
 **** Fit      -0.001211
 **** Fit      -0.001808
 **** Fit      -0.002359
 **** Fit      -0.002736
 **** Fit      -0.002852
 **** Fit      -0.002701
 **** Fit      -0.002357
 **** Fit      -0.001936
 **** Fit      -0.001551
 **** Fit      -0.001266
 **** Fit      -0.001094
 **** Fit      -0.001017
 **** Fit       0.000050
 **** Fit      -0.000122
 **** Fit      -0.000395
 **** Fit      -0.000782
 **** Fit      -0.001268
 **** Fit      -0.001793
 **** Fit      -0.002255
 **** Fit      -0.002544
 **** Fit      -0.002590
 **** Fit      -0.002393
 **** Fit      -0.002027
 **** Fit      -0.001606
 **** Fit      -0.001238
 **** Fit      -0.000981
 **** Fit      -0.000843
 **** Fit      -0.000801
 **** Fit      -0.000228
 **** Fit      -0.000498
 **** Fit      -0.000856
 **** Fit      -0.001282
 **** Fit      -0.001719
 **** Fit      -0.002083
 **** Fit      -0.002288
 **** Fit      -0.002281
 **** Fit      -0.002067
 **** Fit      -0.001715
 **** Fit      -0.001326
 **** Fit      -0.000994
 **** Fit      -0.000770
 **** Fit      -0.000660
 **** Fit      -0.000642
 **** Fit      -0.000563
 **** Fit      -0.000880
 **** Fit      -0.001236
 **** Fit      -0.001584
 **** Fit      -0.001858
 **** Fit      -0.001995
 **** Fit      -0.001958
 **** Fit      -0.001756
 **** Fit      -0.001447
 **** Fit      -0.001112
 **** Fit      -0.000828
 **** Fit      -0.000638
 **** Fit      -0.000550
 **** Fit      -0.000544
 **** Fit      -0.001138
 **** Fit      -0.001407
 **** Fit      -0.001697
 **** Fit      -0.001651
 **** Fit      -0.001480
 **** Fit      -0.001227
 **** Fit      -0.000956
 **** Fit      -0.000725
 **** Fit      -0.000570
 **** Fit      -0.000499
 **** Fit      -0.001377
 **** Fit      -0.001243
 **** Fit      -0.001050
 **** Fit      -0.000843
 **** Fit      -0.000664
 **** Fit      -0.000543
 **** Fit      -0.001001
 **** Fit      -0.001322
 **** Fit      -0.001665
 **** Fit      -0.001991
 **** Fit      -0.002258
 **** Fit      -0.000621
 **** Fit      -0.000910
 **** Fit      -0.001262
 **** Fit      -0.001645
 **** Fit      -0.002011
 **** Fit      -0.002306
 **** Fit      -0.002493
 **** Fit      -0.000311
 **** Fit      -0.000530
 **** Fit      -0.000832
 **** Fit      -0.001207
 **** Fit      -0.001620
 **** Fit      -0.002013
 **** Fit      -0.002325
 **** Fit      -0.002511
 **** Fit      -0.002557
 **** Fit      -0.002484
 **** Fit      -0.002328
 **** Fit      -0.002136
 **** Fit      -0.000251
 **** Fit      -0.000475
 **** Fit      -0.000785
 **** Fit      -0.001173
 **** Fit      -0.001599
 **** Fit      -0.002001
 **** Fit      -0.002310
 **** Fit      -0.002478
 **** Fit      -0.002494
 **** Fit      -0.002383
 **** Fit      -0.002193
 **** Fit      -0.001975
 **** Fit      -0.001770
 **** Fit      -0.000234
 **** Fit      -0.000461
 **** Fit      -0.000775
 **** Fit      -0.001161
 **** Fit      -0.001581
 **** Fit      -0.001968
 **** Fit      -0.002254
 **** Fit      -0.002390
 **** Fit      -0.002369
 **** Fit      -0.002221
 **** Fit      -0.002001
 **** Fit      -0.001766
 **** Fit      -0.001560
 **** Fit      -0.000483
 **** Fit      -0.000791
 **** Fit      -0.001162
 **** Fit      -0.001555
 **** Fit      -0.001907
 **** Fit      -0.002153
 **** Fit      -0.002249
 **** Fit      -0.002190
 **** Fit      -0.002013
 **** Fit      -0.001775
 **** Fit      -0.001536
 **** Fit      -0.001338
 **** Fit      -0.001199
 **** Fit      -0.000523
 **** Fit      -0.000816
 **** Fit      -0.001158
 **** Fit      -0.001508
 **** Fit      -0.001810
 **** Fit      -0.002007
 **** Fit      -0.002062
 **** Fit      -0.001976
 **** Fit      -0.001784
 **** Fit      -0.001544
 **** Fit      -0.001313
 **** Fit      -0.001131
 **** Fit      -0.000829
 **** Fit      -0.001131
 **** Fit      -0.001430
 **** Fit      -0.001677
 **** Fit      -0.001847
 **** Fit      -0.001746
 **** Fit      -0.001557
 **** Fit      -0.001330
 **** Fit      -0.001120
 **** Fit      -0.000959
 **** Fit      -0.001521
 **** Fit      -0.001349
 **** Fit      -0.001149
 **** Fit      -0.000966
 -----------------------------------------------------------------
 Leave Link  602 at Fri Apr 28 13:06:28 2017, MaxMem=    33554432 cpu:        38.7
 (Enter /home/michal/g09/l9999.exe)

 Test job not archived.
 1\1\GINC-LINUX\SP\RHF\6-31G(d)\C27H46O3\MICHAL\28-Apr-2017\0\\#P HF/6-
 31G* SCF(Conver=6) NoSymm Test Pop=chelpg IOp(6/33=2) GFInput GFPrint\
 \MEP - Input generated by R.E.D.-III.x MOLECULE\\0,1\C,0,-0.96518701,2
 .00389674,1.68672964\H,0,-0.98022427,1.02502987,2.18154352\C,0,0.38624
 372,2.6808647,1.96526223\H,0,0.53968726,2.76677055,3.04548242\H,0,0.33
 290418,3.7082071,1.57179151\C,0,1.54709473,1.94044419,1.3269607\C,0,1.
 42486523,1.62769508,-0.16968906\C,0,0.01316068,1.01372632,-0.4229901\H
 ,0,0.,0.,0.\H,0,-0.14557807,0.90247424,-1.50104918\C,0,-1.1554717,1.80
 624237,0.18284897\H,0,-1.24451377,2.79065165,-0.30005301\H,0,-2.099660
 64,1.28087322,0.\C,0,2.61046898,1.59682465,2.07009404\H,0,2.62121737,1
 .85253532,3.12802102\C,0,3.81609646,0.86673805,1.55239162\H,0,4.730961
 51,1.29913948,1.9769523\C,0,3.90115724,0.87723531,0.01542019\H,0,4.208
 28352,1.89984968,-0.24548358\C,0,2.51096273,0.58286532,-0.60800581\H,0
 ,2.19364227,-0.38128686,-0.1843406\C,0,2.59322822,0.39456551,-2.142012
 16\H,0,2.74593953,1.36283076,-2.62939246\H,0,1.63330184,0.01910896,-2.
 51495768\C,0,3.70873828,-0.56247195,-2.60995229\H,0,3.48955479,-1.5824
 3787,-2.2633477\H,0,3.69727954,-0.59559023,-3.70414598\C,0,5.08830153,
 -0.14216405,-2.06327897\C,0,4.95236515,-0.10931521,-0.51538017\H,0,4.6
 0083539,-1.11201677,-0.23600736\C,0,6.39447717,0.,0.\H,0,6.49472312,-0
 .39062083,1.01644278\H,0,6.7252843,1.04628196,0.0231694\C,0,7.21551356
 ,-0.8186872,-1.03495749\H,0,8.05812385,-0.22930158,-1.41562638\H,0,7.6
 4821254,-1.71667636,-0.58304805\C,0,6.24411188,-1.19342603,-2.2027752\
 H,0,5.78841729,-2.16586068,-1.96599039\C,0,5.52378934,1.2167581,-2.656
 7246\H,0,4.83870854,2.02716952,-2.39466252\H,0,6.51922027,1.51301768,-
 2.31220772\H,0,5.55869013,1.16772658,-3.75033377\C,0,6.9780498,-1.3427
 1459,-3.55858793\H,0,7.43789337,-0.37059528,-3.78927358\C,0,6.04734393
 ,-1.6971556,-4.73373135\H,0,5.42342219,-2.57027796,-4.51230891\H,0,6.6
 3437028,-1.92754783,-5.63077934\H,0,5.37790677,-0.87179367,-4.98905194
 \C,0,1.56295932,2.95992393,-0.95680753\H,0,1.28540477,2.83200729,-2.00
 726613\H,0,0.91748313,3.74048817,-0.54718707\H,0,2.58907434,3.33852359
 ,-0.91754405\O,0,3.79461407,-0.52944793,1.95926478\O,0,3.97424224,-0.5
 7054381,3.40281928\H,0,3.08475885,-0.83360472,3.69185306\O,0,-2.048779
 79,2.71603424,2.28935992\H,0,-2.11253748,3.58967239,1.87844212\C,0,8.1
 5869121,-2.34939101,-3.48400234\H,0,8.68440208,-2.30262901,-4.44678717
 \H,0,8.88219343,-2.00683125,-2.7331728\C,0,7.79172503,-3.81146411,-3.1
 7885147\H,0,7.23232715,-3.85855237,-2.23599453\H,0,7.11226457,-4.19765
 481,-3.94841441\C,0,9.00805126,-4.74752762,-3.04356796\H,0,8.65405909,
 -5.73654255,-2.71649418\H,0,9.64789591,-4.37215724,-2.23176869\C,0,9.8
 8244824,-4.94425178,-4.30047889\H,0,10.25430022,-3.96051907,-4.6207379
 8\C,0,11.10701611,-5.81004932,-3.96305383\H,0,10.79971373,-6.81278228,
 -3.63901419\H,0,11.76274746,-5.92894046,-4.83322313\H,0,11.69941426,-5
 .36652666,-3.15450039\C,0,9.09712266,-5.55575715,-5.47164861\H,0,8.683
 65183,-6.5342422,-5.1941515\H,0,9.74585738,-5.70487776,-6.3423579\H,0,
 8.26367677,-4.9199898,-5.78744905\\Version=EM64L-G09RevD.01\HF=-1273.6
 828186\RMSD=5.553e-07\Dipole=-0.297191,0.6882438,-0.7049045\Quadrupole
 =-7.723608,7.4119621,0.3116459,5.1794839,-1.4038713,-2.0801239\PG=C01 
 [X(C27H46O3)]\\@


 NOTHING RESEMBLES A NEW PHENOMENON AS MUCH AS A MISTAKE.

                               -- ENRICO FERMI (?)
 Job cpu time:       0 days  0 hours 12 minutes 25.5 seconds.
 File lengths (MBytes):  RWF=    159 Int=      0 D2E=      0 Chk=     11 Scr=      1
 Normal termination of Gaussian 09 at Fri Apr 28 13:06:29 2017.
