 Entering Gaussian System, Link 0=/home/michal/g09/g09
 Input=JOB2-gau_m1-21-1.com
 Output=JOB2-gau_m1-21-1.log
 Initial command:
 /home/michal/g09/l1.exe "/home/michal/gauss_scratch/Gau-21851.inp" -scrdir="/home/michal/gauss_scratch/"
 Entering Link 1 = /home/michal/g09/l1.exe PID=     21852.
  
 Copyright (c) 1988,1990,1992,1993,1995,1998,2003,2009,2013,
            Gaussian, Inc.  All Rights Reserved.
  
 This is part of the Gaussian(R) 09 program.  It is based on
 the Gaussian(R) 03 system (copyright 2003, Gaussian, Inc.),
 the Gaussian(R) 98 system (copyright 1998, Gaussian, Inc.),
 the Gaussian(R) 94 system (copyright 1995, Gaussian, Inc.),
 the Gaussian 92(TM) system (copyright 1992, Gaussian, Inc.),
 the Gaussian 90(TM) system (copyright 1990, Gaussian, Inc.),
 the Gaussian 88(TM) system (copyright 1988, Gaussian, Inc.),
 the Gaussian 86(TM) system (copyright 1986, Carnegie Mellon
 University), and the Gaussian 82(TM) system (copyright 1983,
 Carnegie Mellon University). Gaussian is a federally registered
 trademark of Gaussian, Inc.
  
 This software contains proprietary and confidential information,
 including trade secrets, belonging to Gaussian, Inc.
  
 This software is provided under written license and may be
 used, copied, transmitted, or stored only in accord with that
 written license.
  
 The following legend is applicable only to US Government
 contracts under FAR:
  
                    RESTRICTED RIGHTS LEGEND
  
 Use, reproduction and disclosure by the US Government is
 subject to restrictions as set forth in subparagraphs (a)
 and (c) of the Commercial Computer Software - Restricted
 Rights clause in FAR 52.227-19.
  
 Gaussian, Inc.
 340 Quinnipiac St., Bldg. 40, Wallingford CT 06492
  
  
 ---------------------------------------------------------------
 Warning -- This program may not be used in any manner that
 competes with the business of Gaussian, Inc. or will provide
 assistance to any competitor of Gaussian, Inc.  The licensee
 of this program is prohibited from giving any competitor of
 Gaussian, Inc. access to this program.  By using this program,
 the user acknowledges that Gaussian, Inc. is engaged in the
 business of creating and licensing software in the field of
 computational chemistry and represents and warrants to the
 licensee that it is not a competitor of Gaussian, Inc. and that
 it will not use this program in any manner prohibited above.
 ---------------------------------------------------------------
  

 Cite this work as:
 Gaussian 09, Revision D.01,
 M. J. Frisch, G. W. Trucks, H. B. Schlegel, G. E. Scuseria, 
 M. A. Robb, J. R. Cheeseman, G. Scalmani, V. Barone, B. Mennucci, 
 G. A. Petersson, H. Nakatsuji, M. Caricato, X. Li, H. P. Hratchian, 
 A. F. Izmaylov, J. Bloino, G. Zheng, J. L. Sonnenberg, M. Hada, 
 M. Ehara, K. Toyota, R. Fukuda, J. Hasegawa, M. Ishida, T. Nakajima, 
 Y. Honda, O. Kitao, H. Nakai, T. Vreven, J. A. Montgomery, Jr., 
 J. E. Peralta, F. Ogliaro, M. Bearpark, J. J. Heyd, E. Brothers, 
 K. N. Kudin, V. N. Staroverov, T. Keith, R. Kobayashi, J. Normand, 
 K. Raghavachari, A. Rendell, J. C. Burant, S. S. Iyengar, J. Tomasi, 
 M. Cossi, N. Rega, J. M. Millam, M. Klene, J. E. Knox, J. B. Cross, 
 V. Bakken, C. Adamo, J. Jaramillo, R. Gomperts, R. E. Stratmann, 
 O. Yazyev, A. J. Austin, R. Cammi, C. Pomelli, J. W. Ochterski, 
 R. L. Martin, K. Morokuma, V. G. Zakrzewski, G. A. Voth, 
 P. Salvador, J. J. Dannenberg, S. Dapprich, A. D. Daniels, 
 O. Farkas, J. B. Foresman, J. V. Ortiz, J. Cioslowski, 
 and D. J. Fox, Gaussian, Inc., Wallingford CT, 2013.
 
 ******************************************
 Gaussian 09:  EM64L-G09RevD.01 24-Apr-2013
                28-Apr-2017 
 ******************************************
 %Mem=256MB
 %NProc=12
 Will use up to   12 processors via shared memory.
 ----------------------------------------------------------------------
 #P HF/6-31G* SCF(Conver=6) NoSymm Test Pop=chelpg IOp(6/33=2) GFInput 
 GFPrint
 ----------------------------------------------------------------------
 1/38=1/1;
 2/12=2,15=1,17=6,18=5,40=1/2;
 3/5=1,6=6,7=1,11=9,16=1,24=110,25=1,30=1/1,2,3;
 4//1;
 5/5=2,6=6,38=5/2;
 6/7=2,8=2,9=2,10=2,15=8,20=3,28=1,33=2/1,2;
 99/5=1,9=1/99;
 Leave Link    1 at Fri Apr 28 13:11:31 2017, MaxMem=    33554432 cpu:         0.6
 (Enter /home/michal/g09/l101.exe)
 ----------------------------------------------
 MEP - Input generated by R.E.D.-III.x MOLECULE
 ----------------------------------------------
 Symbolic Z-matrix:
 Charge =  0 Multiplicity = 1
 C                     1.75846  -1.24886   0.05267 
 H                     1.88358  -1.20653  -1.03627 
 C                     3.14666  -1.26233   0.71225 
 H                     3.72583  -2.11071   0.33461 
 H                     3.00279  -1.43387   1.79064 
 C                     3.90565   0.03286   0.48956 
 C                     3.17367   1.33102   0.85225 
 C                     1.74428   1.27231   0.22993 
 H                     1.8396    1.38828  -0.85828 
 H                     1.1596    2.12848   0.58345 
 C                     0.96845  -0.02351   0.51235 
 H                     0.75356  -0.11737   1.58713 
 H                     0.        0.        0. 
 C                     5.1548    0.        0. 
 H                     5.60539  -0.96242  -0.2354 
 C                     6.00345   1.21079  -0.26145 
 H                     7.03665   1.02387   0.05764 
 C                     5.46464   2.47415   0.43401 
 H                     5.7034    2.3371    1.49806 
 C                     3.92616   2.57523   0.26129 
 H                     3.74652   2.55195  -0.82359 
 C                     3.37566   3.92505   0.77973 
 H                     3.38259   3.93556   1.87444 
 H                     2.32476   4.02759   0.48541 
 C                     4.14683   5.16401   0.2805 
 H                     4.02247   5.26255  -0.80733 
 H                     3.69329   6.05409   0.7277 
 C                     5.65384   5.06553   0.59607 
 C                     6.15239   3.7524   -0.06953 
 H                     5.88593   3.84766  -1.13119 
 C                     7.68243   3.84143   0. 
 H                     8.16394   3.22514  -0.7643 
 H                     8.05163   3.49469   0.97366 
 C                     7.96575   5.35597  -0.19643 
 H                     8.64479   5.73197   0.57832 
 H                     8.45896   5.54012  -1.15522 
 C                     6.58833   6.10112  -0.1232 
 H                     6.20069   6.19801  -1.14975 
 C                     5.90144   5.09277   2.1219 
 H                     5.43366   4.24988   2.63739 
 H                     6.9685    5.06498   2.36248 
 H                     5.49235   6.00669   2.56499 
 C                     6.71678   7.53913   0.44327 
 H                     7.1684    7.46578   1.4445 
 C                     5.36254   8.25792   0.58193 
 H                     4.81683   8.24851  -0.36985 
 H                     5.49595   9.30362   0.87526 
 H                     4.72305   7.7956    1.33739 
 C                     3.06518   1.41052   2.39995 
 H                     2.38359   2.20788   2.71053 
 H                     2.6854    0.47933   2.82703 
 H                     4.04205   1.59801   2.85632 
 O                     6.06028   1.51064  -1.68348 
 O                     6.79516   0.43515  -2.33217 
 H                     6.07842  -0.01759  -2.80681 
 O                     1.05394  -2.47295   0.27559 
 H                     0.88403  -2.56488   1.22366 
 C                     7.67979   8.38237  -0.43198 
 H                     8.54534   7.77258  -0.70773 
 H                     7.17021   8.63097  -1.37602 
 C                     8.18812   9.67489   0.22777 
 H                     7.33904   10.28256   0.56325 
 H                     8.74684   9.41655   1.1377 
 C                     9.05505   10.55874  -0.68861 
 H                     9.28731   11.49294  -0.15586 
 H                     8.45274   10.85058  -1.56116 
 C                     10.38207   9.95346  -1.1943 
 H                     10.1531   9.0307   -1.7462 
 C                     11.06307   10.91902  -2.17758 
 H                     11.32298   11.86325  -1.68176 
 H                     11.98766   10.4904  -2.58087 
 H                     10.40704   11.157   -3.02282 
 C                     11.33726   9.59188  -0.04587 
 H                     11.58026   10.47979   0.55243 
 H                     12.27839   9.18512  -0.43308 
 H                     10.90848   8.84343   0.62838 
 
 NAtoms=     76 NQM=       76 NQMF=       0 NMMI=      0 NMMIF=      0
                NMic=       0 NMicF=      0.
                    Isotopes and Nuclear Properties:
 (Nuclear quadrupole moments (NQMom) in fm**2, nuclear magnetic moments (NMagM)
  in nuclear magnetons)

  Atom         1           2           3           4           5           6           7           8           9          10
 IAtWgt=          12           1          12           1           1          12          12          12           1           1
 AtmWgt=  12.0000000   1.0078250  12.0000000   1.0078250   1.0078250  12.0000000  12.0000000  12.0000000   1.0078250   1.0078250
 NucSpn=           0           1           0           1           1           0           0           0           1           1
 AtZEff=   0.0000000   0.0000000   0.0000000   0.0000000   0.0000000   0.0000000   0.0000000   0.0000000   0.0000000   0.0000000
 NQMom=    0.0000000   0.0000000   0.0000000   0.0000000   0.0000000   0.0000000   0.0000000   0.0000000   0.0000000   0.0000000
 NMagM=    0.0000000   2.7928460   0.0000000   2.7928460   2.7928460   0.0000000   0.0000000   0.0000000   2.7928460   2.7928460
 AtZNuc=   6.0000000   1.0000000   6.0000000   1.0000000   1.0000000   6.0000000   6.0000000   6.0000000   1.0000000   1.0000000

  Atom        11          12          13          14          15          16          17          18          19          20
 IAtWgt=          12           1           1          12           1          12           1          12           1          12
 AtmWgt=  12.0000000   1.0078250   1.0078250  12.0000000   1.0078250  12.0000000   1.0078250  12.0000000   1.0078250  12.0000000
 NucSpn=           0           1           1           0           1           0           1           0           1           0
 AtZEff=   0.0000000   0.0000000   0.0000000   0.0000000   0.0000000   0.0000000   0.0000000   0.0000000   0.0000000   0.0000000
 NQMom=    0.0000000   0.0000000   0.0000000   0.0000000   0.0000000   0.0000000   0.0000000   0.0000000   0.0000000   0.0000000
 NMagM=    0.0000000   2.7928460   2.7928460   0.0000000   2.7928460   0.0000000   2.7928460   0.0000000   2.7928460   0.0000000
 AtZNuc=   6.0000000   1.0000000   1.0000000   6.0000000   1.0000000   6.0000000   1.0000000   6.0000000   1.0000000   6.0000000

  Atom        21          22          23          24          25          26          27          28          29          30
 IAtWgt=           1          12           1           1          12           1           1          12          12           1
 AtmWgt=   1.0078250  12.0000000   1.0078250   1.0078250  12.0000000   1.0078250   1.0078250  12.0000000  12.0000000   1.0078250
 NucSpn=           1           0           1           1           0           1           1           0           0           1
 AtZEff=   0.0000000   0.0000000   0.0000000   0.0000000   0.0000000   0.0000000   0.0000000   0.0000000   0.0000000   0.0000000
 NQMom=    0.0000000   0.0000000   0.0000000   0.0000000   0.0000000   0.0000000   0.0000000   0.0000000   0.0000000   0.0000000
 NMagM=    2.7928460   0.0000000   2.7928460   2.7928460   0.0000000   2.7928460   2.7928460   0.0000000   0.0000000   2.7928460
 AtZNuc=   1.0000000   6.0000000   1.0000000   1.0000000   6.0000000   1.0000000   1.0000000   6.0000000   6.0000000   1.0000000

  Atom        31          32          33          34          35          36          37          38          39          40
 IAtWgt=          12           1           1          12           1           1          12           1          12           1
 AtmWgt=  12.0000000   1.0078250   1.0078250  12.0000000   1.0078250   1.0078250  12.0000000   1.0078250  12.0000000   1.0078250
 NucSpn=           0           1           1           0           1           1           0           1           0           1
 AtZEff=   0.0000000   0.0000000   0.0000000   0.0000000   0.0000000   0.0000000   0.0000000   0.0000000   0.0000000   0.0000000
 NQMom=    0.0000000   0.0000000   0.0000000   0.0000000   0.0000000   0.0000000   0.0000000   0.0000000   0.0000000   0.0000000
 NMagM=    0.0000000   2.7928460   2.7928460   0.0000000   2.7928460   2.7928460   0.0000000   2.7928460   0.0000000   2.7928460
 AtZNuc=   6.0000000   1.0000000   1.0000000   6.0000000   1.0000000   1.0000000   6.0000000   1.0000000   6.0000000   1.0000000

  Atom        41          42          43          44          45          46          47          48          49          50
 IAtWgt=           1           1          12           1          12           1           1           1          12           1
 AtmWgt=   1.0078250   1.0078250  12.0000000   1.0078250  12.0000000   1.0078250   1.0078250   1.0078250  12.0000000   1.0078250
 NucSpn=           1           1           0           1           0           1           1           1           0           1
 AtZEff=   0.0000000   0.0000000   0.0000000   0.0000000   0.0000000   0.0000000   0.0000000   0.0000000   0.0000000   0.0000000
 NQMom=    0.0000000   0.0000000   0.0000000   0.0000000   0.0000000   0.0000000   0.0000000   0.0000000   0.0000000   0.0000000
 NMagM=    2.7928460   2.7928460   0.0000000   2.7928460   0.0000000   2.7928460   2.7928460   2.7928460   0.0000000   2.7928460
 AtZNuc=   1.0000000   1.0000000   6.0000000   1.0000000   6.0000000   1.0000000   1.0000000   1.0000000   6.0000000   1.0000000

  Atom        51          52          53          54          55          56          57          58          59          60
 IAtWgt=           1           1          16          16           1          16           1          12           1           1
 AtmWgt=   1.0078250   1.0078250  15.9949146  15.9949146   1.0078250  15.9949146   1.0078250  12.0000000   1.0078250   1.0078250
 NucSpn=           1           1           0           0           1           0           1           0           1           1
 AtZEff=   0.0000000   0.0000000   0.0000000   0.0000000   0.0000000   0.0000000   0.0000000   0.0000000   0.0000000   0.0000000
 NQMom=    0.0000000   0.0000000   0.0000000   0.0000000   0.0000000   0.0000000   0.0000000   0.0000000   0.0000000   0.0000000
 NMagM=    2.7928460   2.7928460   0.0000000   0.0000000   2.7928460   0.0000000   2.7928460   0.0000000   2.7928460   2.7928460
 AtZNuc=   1.0000000   1.0000000   8.0000000   8.0000000   1.0000000   8.0000000   1.0000000   6.0000000   1.0000000   1.0000000

  Atom        61          62          63          64          65          66          67          68          69          70
 IAtWgt=          12           1           1          12           1           1          12           1          12           1
 AtmWgt=  12.0000000   1.0078250   1.0078250  12.0000000   1.0078250   1.0078250  12.0000000   1.0078250  12.0000000   1.0078250
 NucSpn=           0           1           1           0           1           1           0           1           0           1
 AtZEff=   0.0000000   0.0000000   0.0000000   0.0000000   0.0000000   0.0000000   0.0000000   0.0000000   0.0000000   0.0000000
 NQMom=    0.0000000   0.0000000   0.0000000   0.0000000   0.0000000   0.0000000   0.0000000   0.0000000   0.0000000   0.0000000
 NMagM=    0.0000000   2.7928460   2.7928460   0.0000000   2.7928460   2.7928460   0.0000000   2.7928460   0.0000000   2.7928460
 AtZNuc=   6.0000000   1.0000000   1.0000000   6.0000000   1.0000000   1.0000000   6.0000000   1.0000000   6.0000000   1.0000000

  Atom        71          72          73          74          75          76
 IAtWgt=           1           1          12           1           1           1
 AtmWgt=   1.0078250   1.0078250  12.0000000   1.0078250   1.0078250   1.0078250
 NucSpn=           1           1           0           1           1           1
 AtZEff=   0.0000000   0.0000000   0.0000000   0.0000000   0.0000000   0.0000000
 NQMom=    0.0000000   0.0000000   0.0000000   0.0000000   0.0000000   0.0000000
 NMagM=    2.7928460   2.7928460   0.0000000   2.7928460   2.7928460   2.7928460
 AtZNuc=   1.0000000   1.0000000   6.0000000   1.0000000   1.0000000   1.0000000
 Leave Link  101 at Fri Apr 28 13:11:32 2017, MaxMem=    33554432 cpu:         1.0
 (Enter /home/michal/g09/l202.exe)
 Symmetry turned off by external request.
 Stoichiometry    C27H46O3
 Framework group  C1[X(C27H46O3)]
 Deg. of freedom   222
 Full point group                 C1      NOp   1
                          Input orientation:                          
 ---------------------------------------------------------------------
 Center     Atomic      Atomic             Coordinates (Angstroms)
 Number     Number       Type             X           Y           Z
 ---------------------------------------------------------------------
      1          6           0        1.758462   -1.248860    0.052671
      2          1           0        1.883580   -1.206527   -1.036271
      3          6           0        3.146662   -1.262326    0.712247
      4          1           0        3.725835   -2.110706    0.334609
      5          1           0        3.002789   -1.433871    1.790639
      6          6           0        3.905654    0.032861    0.489558
      7          6           0        3.173670    1.331024    0.852248
      8          6           0        1.744279    1.272307    0.229934
      9          1           0        1.839602    1.388284   -0.858281
     10          1           0        1.159600    2.128475    0.583448
     11          6           0        0.968452   -0.023508    0.512345
     12          1           0        0.753555   -0.117372    1.587129
     13          1           0        0.000000    0.000000    0.000000
     14          6           0        5.154803    0.000000    0.000000
     15          1           0        5.605391   -0.962424   -0.235399
     16          6           0        6.003449    1.210786   -0.261452
     17          1           0        7.036646    1.023872    0.057643
     18          6           0        5.464639    2.474151    0.434012
     19          1           0        5.703402    2.337101    1.498061
     20          6           0        3.926158    2.575226    0.261295
     21          1           0        3.746523    2.551948   -0.823587
     22          6           0        3.375656    3.925049    0.779732
     23          1           0        3.382592    3.935561    1.874436
     24          1           0        2.324759    4.027595    0.485408
     25          6           0        4.146825    5.164008    0.280502
     26          1           0        4.022470    5.262546   -0.807333
     27          1           0        3.693289    6.054086    0.727697
     28          6           0        5.653837    5.065526    0.596066
     29          6           0        6.152392    3.752398   -0.069528
     30          1           0        5.885926    3.847661   -1.131194
     31          6           0        7.682427    3.841427    0.000000
     32          1           0        8.163938    3.225140   -0.764299
     33          1           0        8.051627    3.494694    0.973658
     34          6           0        7.965754    5.355973   -0.196429
     35          1           0        8.644792    5.731970    0.578321
     36          1           0        8.458962    5.540116   -1.155222
     37          6           0        6.588325    6.101118   -0.123196
     38          1           0        6.200689    6.198012   -1.149746
     39          6           0        5.901437    5.092766    2.121901
     40          1           0        5.433663    4.249881    2.637393
     41          1           0        6.968499    5.064980    2.362484
     42          1           0        5.492345    6.006695    2.564988
     43          6           0        6.716783    7.539127    0.443275
     44          1           0        7.168397    7.465783    1.444501
     45          6           0        5.362537    8.257918    0.581927
     46          1           0        4.816831    8.248513   -0.369848
     47          1           0        5.495949    9.303619    0.875260
     48          1           0        4.723047    7.795595    1.337386
     49          6           0        3.065183    1.410517    2.399946
     50          1           0        2.383591    2.207884    2.710528
     51          1           0        2.685400    0.479330    2.827034
     52          1           0        4.042053    1.598007    2.856319
     53          8           0        6.060282    1.510637   -1.683478
     54          8           0        6.795161    0.435147   -2.332170
     55          1           0        6.078422   -0.017589   -2.806807
     56          8           0        1.053942   -2.472949    0.275587
     57          1           0        0.884029   -2.564877    1.223658
     58          6           0        7.679786    8.382374   -0.431981
     59          1           0        8.545343    7.772579   -0.707727
     60          1           0        7.170210    8.630968   -1.376021
     61          6           0        8.188125    9.674892    0.227767
     62          1           0        7.339043   10.282560    0.563249
     63          1           0        8.746837    9.416554    1.137700
     64          6           0        9.055050   10.558738   -0.688615
     65          1           0        9.287309   11.492944   -0.155855
     66          1           0        8.452740   10.850584   -1.561162
     67          6           0       10.382070    9.953460   -1.194298
     68          1           0       10.153100    9.030698   -1.746204
     69          6           0       11.063075   10.919018   -2.177577
     70          1           0       11.322979   11.863246   -1.681759
     71          1           0       11.987663   10.490404   -2.580866
     72          1           0       10.407041   11.157003   -3.022821
     73          6           0       11.337259    9.591882   -0.045875
     74          1           0       11.580257   10.479787    0.552428
     75          1           0       12.278385    9.185124   -0.433085
     76          1           0       10.908484    8.843430    0.628377
 ---------------------------------------------------------------------
 Rotational constants (GHZ):      0.3963117      0.0547471      0.0507446
 Leave Link  202 at Fri Apr 28 13:11:32 2017, MaxMem=    33554432 cpu:         0.0
 (Enter /home/michal/g09/l301.exe)
 Standard basis: 6-31G(d) (6D, 7F)
 Ernie: Thresh=  0.10000D-02 Tol=  0.10000D-05 Strict=F.
 AO basis set in the form of general basis input (Overlap normalization):
      1 0
 S   6 1.00       0.000000000000
      0.3047524880D+04  0.1834737132D-02
      0.4573695180D+03  0.1403732281D-01
      0.1039486850D+03  0.6884262226D-01
      0.2921015530D+02  0.2321844432D+00
      0.9286662960D+01  0.4679413484D+00
      0.3163926960D+01  0.3623119853D+00
 SP   3 1.00       0.000000000000
      0.7868272350D+01 -0.1193324198D+00  0.6899906659D-01
      0.1881288540D+01 -0.1608541517D+00  0.3164239610D+00
      0.5442492580D+00  0.1143456438D+01  0.7443082909D+00
 SP   1 1.00       0.000000000000
      0.1687144782D+00  0.1000000000D+01  0.1000000000D+01
 D   1 1.00       0.000000000000
      0.8000000000D+00  0.1000000000D+01
 ****
      2 0
 S   3 1.00       0.000000000000
      0.1873113696D+02  0.3349460434D-01
      0.2825394365D+01  0.2347269535D+00
      0.6401216923D+00  0.8137573261D+00
 S   1 1.00       0.000000000000
      0.1612777588D+00  0.1000000000D+01
 ****
      3 0
 S   6 1.00       0.000000000000
      0.3047524880D+04  0.1834737132D-02
      0.4573695180D+03  0.1403732281D-01
      0.1039486850D+03  0.6884262226D-01
      0.2921015530D+02  0.2321844432D+00
      0.9286662960D+01  0.4679413484D+00
      0.3163926960D+01  0.3623119853D+00
 SP   3 1.00       0.000000000000
      0.7868272350D+01 -0.1193324198D+00  0.6899906659D-01
      0.1881288540D+01 -0.1608541517D+00  0.3164239610D+00
      0.5442492580D+00  0.1143456438D+01  0.7443082909D+00
 SP   1 1.00       0.000000000000
      0.1687144782D+00  0.1000000000D+01  0.1000000000D+01
 D   1 1.00       0.000000000000
      0.8000000000D+00  0.1000000000D+01
 ****
      4 0
 S   3 1.00       0.000000000000
      0.1873113696D+02  0.3349460434D-01
      0.2825394365D+01  0.2347269535D+00
      0.6401216923D+00  0.8137573261D+00
 S   1 1.00       0.000000000000
      0.1612777588D+00  0.1000000000D+01
 ****
      5 0
 S   3 1.00       0.000000000000
      0.1873113696D+02  0.3349460434D-01
      0.2825394365D+01  0.2347269535D+00
      0.6401216923D+00  0.8137573261D+00
 S   1 1.00       0.000000000000
      0.1612777588D+00  0.1000000000D+01
 ****
      6 0
 S   6 1.00       0.000000000000
      0.3047524880D+04  0.1834737132D-02
      0.4573695180D+03  0.1403732281D-01
      0.1039486850D+03  0.6884262226D-01
      0.2921015530D+02  0.2321844432D+00
      0.9286662960D+01  0.4679413484D+00
      0.3163926960D+01  0.3623119853D+00
 SP   3 1.00       0.000000000000
      0.7868272350D+01 -0.1193324198D+00  0.6899906659D-01
      0.1881288540D+01 -0.1608541517D+00  0.3164239610D+00
      0.5442492580D+00  0.1143456438D+01  0.7443082909D+00
 SP   1 1.00       0.000000000000
      0.1687144782D+00  0.1000000000D+01  0.1000000000D+01
 D   1 1.00       0.000000000000
      0.8000000000D+00  0.1000000000D+01
 ****
      7 0
 S   6 1.00       0.000000000000
      0.3047524880D+04  0.1834737132D-02
      0.4573695180D+03  0.1403732281D-01
      0.1039486850D+03  0.6884262226D-01
      0.2921015530D+02  0.2321844432D+00
      0.9286662960D+01  0.4679413484D+00
      0.3163926960D+01  0.3623119853D+00
 SP   3 1.00       0.000000000000
      0.7868272350D+01 -0.1193324198D+00  0.6899906659D-01
      0.1881288540D+01 -0.1608541517D+00  0.3164239610D+00
      0.5442492580D+00  0.1143456438D+01  0.7443082909D+00
 SP   1 1.00       0.000000000000
      0.1687144782D+00  0.1000000000D+01  0.1000000000D+01
 D   1 1.00       0.000000000000
      0.8000000000D+00  0.1000000000D+01
 ****
      8 0
 S   6 1.00       0.000000000000
      0.3047524880D+04  0.1834737132D-02
      0.4573695180D+03  0.1403732281D-01
      0.1039486850D+03  0.6884262226D-01
      0.2921015530D+02  0.2321844432D+00
      0.9286662960D+01  0.4679413484D+00
      0.3163926960D+01  0.3623119853D+00
 SP   3 1.00       0.000000000000
      0.7868272350D+01 -0.1193324198D+00  0.6899906659D-01
      0.1881288540D+01 -0.1608541517D+00  0.3164239610D+00
      0.5442492580D+00  0.1143456438D+01  0.7443082909D+00
 SP   1 1.00       0.000000000000
      0.1687144782D+00  0.1000000000D+01  0.1000000000D+01
 D   1 1.00       0.000000000000
      0.8000000000D+00  0.1000000000D+01
 ****
      9 0
 S   3 1.00       0.000000000000
      0.1873113696D+02  0.3349460434D-01
      0.2825394365D+01  0.2347269535D+00
      0.6401216923D+00  0.8137573261D+00
 S   1 1.00       0.000000000000
      0.1612777588D+00  0.1000000000D+01
 ****
     10 0
 S   3 1.00       0.000000000000
      0.1873113696D+02  0.3349460434D-01
      0.2825394365D+01  0.2347269535D+00
      0.6401216923D+00  0.8137573261D+00
 S   1 1.00       0.000000000000
      0.1612777588D+00  0.1000000000D+01
 ****
     11 0
 S   6 1.00       0.000000000000
      0.3047524880D+04  0.1834737132D-02
      0.4573695180D+03  0.1403732281D-01
      0.1039486850D+03  0.6884262226D-01
      0.2921015530D+02  0.2321844432D+00
      0.9286662960D+01  0.4679413484D+00
      0.3163926960D+01  0.3623119853D+00
 SP   3 1.00       0.000000000000
      0.7868272350D+01 -0.1193324198D+00  0.6899906659D-01
      0.1881288540D+01 -0.1608541517D+00  0.3164239610D+00
      0.5442492580D+00  0.1143456438D+01  0.7443082909D+00
 SP   1 1.00       0.000000000000
      0.1687144782D+00  0.1000000000D+01  0.1000000000D+01
 D   1 1.00       0.000000000000
      0.8000000000D+00  0.1000000000D+01
 ****
     12 0
 S   3 1.00       0.000000000000
      0.1873113696D+02  0.3349460434D-01
      0.2825394365D+01  0.2347269535D+00
      0.6401216923D+00  0.8137573261D+00
 S   1 1.00       0.000000000000
      0.1612777588D+00  0.1000000000D+01
 ****
     13 0
 S   3 1.00       0.000000000000
      0.1873113696D+02  0.3349460434D-01
      0.2825394365D+01  0.2347269535D+00
      0.6401216923D+00  0.8137573261D+00
 S   1 1.00       0.000000000000
      0.1612777588D+00  0.1000000000D+01
 ****
     14 0
 S   6 1.00       0.000000000000
      0.3047524880D+04  0.1834737132D-02
      0.4573695180D+03  0.1403732281D-01
      0.1039486850D+03  0.6884262226D-01
      0.2921015530D+02  0.2321844432D+00
      0.9286662960D+01  0.4679413484D+00
      0.3163926960D+01  0.3623119853D+00
 SP   3 1.00       0.000000000000
      0.7868272350D+01 -0.1193324198D+00  0.6899906659D-01
      0.1881288540D+01 -0.1608541517D+00  0.3164239610D+00
      0.5442492580D+00  0.1143456438D+01  0.7443082909D+00
 SP   1 1.00       0.000000000000
      0.1687144782D+00  0.1000000000D+01  0.1000000000D+01
 D   1 1.00       0.000000000000
      0.8000000000D+00  0.1000000000D+01
 ****
     15 0
 S   3 1.00       0.000000000000
      0.1873113696D+02  0.3349460434D-01
      0.2825394365D+01  0.2347269535D+00
      0.6401216923D+00  0.8137573261D+00
 S   1 1.00       0.000000000000
      0.1612777588D+00  0.1000000000D+01
 ****
     16 0
 S   6 1.00       0.000000000000
      0.3047524880D+04  0.1834737132D-02
      0.4573695180D+03  0.1403732281D-01
      0.1039486850D+03  0.6884262226D-01
      0.2921015530D+02  0.2321844432D+00
      0.9286662960D+01  0.4679413484D+00
      0.3163926960D+01  0.3623119853D+00
 SP   3 1.00       0.000000000000
      0.7868272350D+01 -0.1193324198D+00  0.6899906659D-01
      0.1881288540D+01 -0.1608541517D+00  0.3164239610D+00
      0.5442492580D+00  0.1143456438D+01  0.7443082909D+00
 SP   1 1.00       0.000000000000
      0.1687144782D+00  0.1000000000D+01  0.1000000000D+01
 D   1 1.00       0.000000000000
      0.8000000000D+00  0.1000000000D+01
 ****
     17 0
 S   3 1.00       0.000000000000
      0.1873113696D+02  0.3349460434D-01
      0.2825394365D+01  0.2347269535D+00
      0.6401216923D+00  0.8137573261D+00
 S   1 1.00       0.000000000000
      0.1612777588D+00  0.1000000000D+01
 ****
     18 0
 S   6 1.00       0.000000000000
      0.3047524880D+04  0.1834737132D-02
      0.4573695180D+03  0.1403732281D-01
      0.1039486850D+03  0.6884262226D-01
      0.2921015530D+02  0.2321844432D+00
      0.9286662960D+01  0.4679413484D+00
      0.3163926960D+01  0.3623119853D+00
 SP   3 1.00       0.000000000000
      0.7868272350D+01 -0.1193324198D+00  0.6899906659D-01
      0.1881288540D+01 -0.1608541517D+00  0.3164239610D+00
      0.5442492580D+00  0.1143456438D+01  0.7443082909D+00
 SP   1 1.00       0.000000000000
      0.1687144782D+00  0.1000000000D+01  0.1000000000D+01
 D   1 1.00       0.000000000000
      0.8000000000D+00  0.1000000000D+01
 ****
     19 0
 S   3 1.00       0.000000000000
      0.1873113696D+02  0.3349460434D-01
      0.2825394365D+01  0.2347269535D+00
      0.6401216923D+00  0.8137573261D+00
 S   1 1.00       0.000000000000
      0.1612777588D+00  0.1000000000D+01
 ****
     20 0
 S   6 1.00       0.000000000000
      0.3047524880D+04  0.1834737132D-02
      0.4573695180D+03  0.1403732281D-01
      0.1039486850D+03  0.6884262226D-01
      0.2921015530D+02  0.2321844432D+00
      0.9286662960D+01  0.4679413484D+00
      0.3163926960D+01  0.3623119853D+00
 SP   3 1.00       0.000000000000
      0.7868272350D+01 -0.1193324198D+00  0.6899906659D-01
      0.1881288540D+01 -0.1608541517D+00  0.3164239610D+00
      0.5442492580D+00  0.1143456438D+01  0.7443082909D+00
 SP   1 1.00       0.000000000000
      0.1687144782D+00  0.1000000000D+01  0.1000000000D+01
 D   1 1.00       0.000000000000
      0.8000000000D+00  0.1000000000D+01
 ****
     21 0
 S   3 1.00       0.000000000000
      0.1873113696D+02  0.3349460434D-01
      0.2825394365D+01  0.2347269535D+00
      0.6401216923D+00  0.8137573261D+00
 S   1 1.00       0.000000000000
      0.1612777588D+00  0.1000000000D+01
 ****
     22 0
 S   6 1.00       0.000000000000
      0.3047524880D+04  0.1834737132D-02
      0.4573695180D+03  0.1403732281D-01
      0.1039486850D+03  0.6884262226D-01
      0.2921015530D+02  0.2321844432D+00
      0.9286662960D+01  0.4679413484D+00
      0.3163926960D+01  0.3623119853D+00
 SP   3 1.00       0.000000000000
      0.7868272350D+01 -0.1193324198D+00  0.6899906659D-01
      0.1881288540D+01 -0.1608541517D+00  0.3164239610D+00
      0.5442492580D+00  0.1143456438D+01  0.7443082909D+00
 SP   1 1.00       0.000000000000
      0.1687144782D+00  0.1000000000D+01  0.1000000000D+01
 D   1 1.00       0.000000000000
      0.8000000000D+00  0.1000000000D+01
 ****
     23 0
 S   3 1.00       0.000000000000
      0.1873113696D+02  0.3349460434D-01
      0.2825394365D+01  0.2347269535D+00
      0.6401216923D+00  0.8137573261D+00
 S   1 1.00       0.000000000000
      0.1612777588D+00  0.1000000000D+01
 ****
     24 0
 S   3 1.00       0.000000000000
      0.1873113696D+02  0.3349460434D-01
      0.2825394365D+01  0.2347269535D+00
      0.6401216923D+00  0.8137573261D+00
 S   1 1.00       0.000000000000
      0.1612777588D+00  0.1000000000D+01
 ****
     25 0
 S   6 1.00       0.000000000000
      0.3047524880D+04  0.1834737132D-02
      0.4573695180D+03  0.1403732281D-01
      0.1039486850D+03  0.6884262226D-01
      0.2921015530D+02  0.2321844432D+00
      0.9286662960D+01  0.4679413484D+00
      0.3163926960D+01  0.3623119853D+00
 SP   3 1.00       0.000000000000
      0.7868272350D+01 -0.1193324198D+00  0.6899906659D-01
      0.1881288540D+01 -0.1608541517D+00  0.3164239610D+00
      0.5442492580D+00  0.1143456438D+01  0.7443082909D+00
 SP   1 1.00       0.000000000000
      0.1687144782D+00  0.1000000000D+01  0.1000000000D+01
 D   1 1.00       0.000000000000
      0.8000000000D+00  0.1000000000D+01
 ****
     26 0
 S   3 1.00       0.000000000000
      0.1873113696D+02  0.3349460434D-01
      0.2825394365D+01  0.2347269535D+00
      0.6401216923D+00  0.8137573261D+00
 S   1 1.00       0.000000000000
      0.1612777588D+00  0.1000000000D+01
 ****
     27 0
 S   3 1.00       0.000000000000
      0.1873113696D+02  0.3349460434D-01
      0.2825394365D+01  0.2347269535D+00
      0.6401216923D+00  0.8137573261D+00
 S   1 1.00       0.000000000000
      0.1612777588D+00  0.1000000000D+01
 ****
     28 0
 S   6 1.00       0.000000000000
      0.3047524880D+04  0.1834737132D-02
      0.4573695180D+03  0.1403732281D-01
      0.1039486850D+03  0.6884262226D-01
      0.2921015530D+02  0.2321844432D+00
      0.9286662960D+01  0.4679413484D+00
      0.3163926960D+01  0.3623119853D+00
 SP   3 1.00       0.000000000000
      0.7868272350D+01 -0.1193324198D+00  0.6899906659D-01
      0.1881288540D+01 -0.1608541517D+00  0.3164239610D+00
      0.5442492580D+00  0.1143456438D+01  0.7443082909D+00
 SP   1 1.00       0.000000000000
      0.1687144782D+00  0.1000000000D+01  0.1000000000D+01
 D   1 1.00       0.000000000000
      0.8000000000D+00  0.1000000000D+01
 ****
     29 0
 S   6 1.00       0.000000000000
      0.3047524880D+04  0.1834737132D-02
      0.4573695180D+03  0.1403732281D-01
      0.1039486850D+03  0.6884262226D-01
      0.2921015530D+02  0.2321844432D+00
      0.9286662960D+01  0.4679413484D+00
      0.3163926960D+01  0.3623119853D+00
 SP   3 1.00       0.000000000000
      0.7868272350D+01 -0.1193324198D+00  0.6899906659D-01
      0.1881288540D+01 -0.1608541517D+00  0.3164239610D+00
      0.5442492580D+00  0.1143456438D+01  0.7443082909D+00
 SP   1 1.00       0.000000000000
      0.1687144782D+00  0.1000000000D+01  0.1000000000D+01
 D   1 1.00       0.000000000000
      0.8000000000D+00  0.1000000000D+01
 ****
     30 0
 S   3 1.00       0.000000000000
      0.1873113696D+02  0.3349460434D-01
      0.2825394365D+01  0.2347269535D+00
      0.6401216923D+00  0.8137573261D+00
 S   1 1.00       0.000000000000
      0.1612777588D+00  0.1000000000D+01
 ****
     31 0
 S   6 1.00       0.000000000000
      0.3047524880D+04  0.1834737132D-02
      0.4573695180D+03  0.1403732281D-01
      0.1039486850D+03  0.6884262226D-01
      0.2921015530D+02  0.2321844432D+00
      0.9286662960D+01  0.4679413484D+00
      0.3163926960D+01  0.3623119853D+00
 SP   3 1.00       0.000000000000
      0.7868272350D+01 -0.1193324198D+00  0.6899906659D-01
      0.1881288540D+01 -0.1608541517D+00  0.3164239610D+00
      0.5442492580D+00  0.1143456438D+01  0.7443082909D+00
 SP   1 1.00       0.000000000000
      0.1687144782D+00  0.1000000000D+01  0.1000000000D+01
 D   1 1.00       0.000000000000
      0.8000000000D+00  0.1000000000D+01
 ****
     32 0
 S   3 1.00       0.000000000000
      0.1873113696D+02  0.3349460434D-01
      0.2825394365D+01  0.2347269535D+00
      0.6401216923D+00  0.8137573261D+00
 S   1 1.00       0.000000000000
      0.1612777588D+00  0.1000000000D+01
 ****
     33 0
 S   3 1.00       0.000000000000
      0.1873113696D+02  0.3349460434D-01
      0.2825394365D+01  0.2347269535D+00
      0.6401216923D+00  0.8137573261D+00
 S   1 1.00       0.000000000000
      0.1612777588D+00  0.1000000000D+01
 ****
     34 0
 S   6 1.00       0.000000000000
      0.3047524880D+04  0.1834737132D-02
      0.4573695180D+03  0.1403732281D-01
      0.1039486850D+03  0.6884262226D-01
      0.2921015530D+02  0.2321844432D+00
      0.9286662960D+01  0.4679413484D+00
      0.3163926960D+01  0.3623119853D+00
 SP   3 1.00       0.000000000000
      0.7868272350D+01 -0.1193324198D+00  0.6899906659D-01
      0.1881288540D+01 -0.1608541517D+00  0.3164239610D+00
      0.5442492580D+00  0.1143456438D+01  0.7443082909D+00
 SP   1 1.00       0.000000000000
      0.1687144782D+00  0.1000000000D+01  0.1000000000D+01
 D   1 1.00       0.000000000000
      0.8000000000D+00  0.1000000000D+01
 ****
     35 0
 S   3 1.00       0.000000000000
      0.1873113696D+02  0.3349460434D-01
      0.2825394365D+01  0.2347269535D+00
      0.6401216923D+00  0.8137573261D+00
 S   1 1.00       0.000000000000
      0.1612777588D+00  0.1000000000D+01
 ****
     36 0
 S   3 1.00       0.000000000000
      0.1873113696D+02  0.3349460434D-01
      0.2825394365D+01  0.2347269535D+00
      0.6401216923D+00  0.8137573261D+00
 S   1 1.00       0.000000000000
      0.1612777588D+00  0.1000000000D+01
 ****
     37 0
 S   6 1.00       0.000000000000
      0.3047524880D+04  0.1834737132D-02
      0.4573695180D+03  0.1403732281D-01
      0.1039486850D+03  0.6884262226D-01
      0.2921015530D+02  0.2321844432D+00
      0.9286662960D+01  0.4679413484D+00
      0.3163926960D+01  0.3623119853D+00
 SP   3 1.00       0.000000000000
      0.7868272350D+01 -0.1193324198D+00  0.6899906659D-01
      0.1881288540D+01 -0.1608541517D+00  0.3164239610D+00
      0.5442492580D+00  0.1143456438D+01  0.7443082909D+00
 SP   1 1.00       0.000000000000
      0.1687144782D+00  0.1000000000D+01  0.1000000000D+01
 D   1 1.00       0.000000000000
      0.8000000000D+00  0.1000000000D+01
 ****
     38 0
 S   3 1.00       0.000000000000
      0.1873113696D+02  0.3349460434D-01
      0.2825394365D+01  0.2347269535D+00
      0.6401216923D+00  0.8137573261D+00
 S   1 1.00       0.000000000000
      0.1612777588D+00  0.1000000000D+01
 ****
     39 0
 S   6 1.00       0.000000000000
      0.3047524880D+04  0.1834737132D-02
      0.4573695180D+03  0.1403732281D-01
      0.1039486850D+03  0.6884262226D-01
      0.2921015530D+02  0.2321844432D+00
      0.9286662960D+01  0.4679413484D+00
      0.3163926960D+01  0.3623119853D+00
 SP   3 1.00       0.000000000000
      0.7868272350D+01 -0.1193324198D+00  0.6899906659D-01
      0.1881288540D+01 -0.1608541517D+00  0.3164239610D+00
      0.5442492580D+00  0.1143456438D+01  0.7443082909D+00
 SP   1 1.00       0.000000000000
      0.1687144782D+00  0.1000000000D+01  0.1000000000D+01
 D   1 1.00       0.000000000000
      0.8000000000D+00  0.1000000000D+01
 ****
     40 0
 S   3 1.00       0.000000000000
      0.1873113696D+02  0.3349460434D-01
      0.2825394365D+01  0.2347269535D+00
      0.6401216923D+00  0.8137573261D+00
 S   1 1.00       0.000000000000
      0.1612777588D+00  0.1000000000D+01
 ****
     41 0
 S   3 1.00       0.000000000000
      0.1873113696D+02  0.3349460434D-01
      0.2825394365D+01  0.2347269535D+00
      0.6401216923D+00  0.8137573261D+00
 S   1 1.00       0.000000000000
      0.1612777588D+00  0.1000000000D+01
 ****
     42 0
 S   3 1.00       0.000000000000
      0.1873113696D+02  0.3349460434D-01
      0.2825394365D+01  0.2347269535D+00
      0.6401216923D+00  0.8137573261D+00
 S   1 1.00       0.000000000000
      0.1612777588D+00  0.1000000000D+01
 ****
     43 0
 S   6 1.00       0.000000000000
      0.3047524880D+04  0.1834737132D-02
      0.4573695180D+03  0.1403732281D-01
      0.1039486850D+03  0.6884262226D-01
      0.2921015530D+02  0.2321844432D+00
      0.9286662960D+01  0.4679413484D+00
      0.3163926960D+01  0.3623119853D+00
 SP   3 1.00       0.000000000000
      0.7868272350D+01 -0.1193324198D+00  0.6899906659D-01
      0.1881288540D+01 -0.1608541517D+00  0.3164239610D+00
      0.5442492580D+00  0.1143456438D+01  0.7443082909D+00
 SP   1 1.00       0.000000000000
      0.1687144782D+00  0.1000000000D+01  0.1000000000D+01
 D   1 1.00       0.000000000000
      0.8000000000D+00  0.1000000000D+01
 ****
     44 0
 S   3 1.00       0.000000000000
      0.1873113696D+02  0.3349460434D-01
      0.2825394365D+01  0.2347269535D+00
      0.6401216923D+00  0.8137573261D+00
 S   1 1.00       0.000000000000
      0.1612777588D+00  0.1000000000D+01
 ****
     45 0
 S   6 1.00       0.000000000000
      0.3047524880D+04  0.1834737132D-02
      0.4573695180D+03  0.1403732281D-01
      0.1039486850D+03  0.6884262226D-01
      0.2921015530D+02  0.2321844432D+00
      0.9286662960D+01  0.4679413484D+00
      0.3163926960D+01  0.3623119853D+00
 SP   3 1.00       0.000000000000
      0.7868272350D+01 -0.1193324198D+00  0.6899906659D-01
      0.1881288540D+01 -0.1608541517D+00  0.3164239610D+00
      0.5442492580D+00  0.1143456438D+01  0.7443082909D+00
 SP   1 1.00       0.000000000000
      0.1687144782D+00  0.1000000000D+01  0.1000000000D+01
 D   1 1.00       0.000000000000
      0.8000000000D+00  0.1000000000D+01
 ****
     46 0
 S   3 1.00       0.000000000000
      0.1873113696D+02  0.3349460434D-01
      0.2825394365D+01  0.2347269535D+00
      0.6401216923D+00  0.8137573261D+00
 S   1 1.00       0.000000000000
      0.1612777588D+00  0.1000000000D+01
 ****
     47 0
 S   3 1.00       0.000000000000
      0.1873113696D+02  0.3349460434D-01
      0.2825394365D+01  0.2347269535D+00
      0.6401216923D+00  0.8137573261D+00
 S   1 1.00       0.000000000000
      0.1612777588D+00  0.1000000000D+01
 ****
     48 0
 S   3 1.00       0.000000000000
      0.1873113696D+02  0.3349460434D-01
      0.2825394365D+01  0.2347269535D+00
      0.6401216923D+00  0.8137573261D+00
 S   1 1.00       0.000000000000
      0.1612777588D+00  0.1000000000D+01
 ****
     49 0
 S   6 1.00       0.000000000000
      0.3047524880D+04  0.1834737132D-02
      0.4573695180D+03  0.1403732281D-01
      0.1039486850D+03  0.6884262226D-01
      0.2921015530D+02  0.2321844432D+00
      0.9286662960D+01  0.4679413484D+00
      0.3163926960D+01  0.3623119853D+00
 SP   3 1.00       0.000000000000
      0.7868272350D+01 -0.1193324198D+00  0.6899906659D-01
      0.1881288540D+01 -0.1608541517D+00  0.3164239610D+00
      0.5442492580D+00  0.1143456438D+01  0.7443082909D+00
 SP   1 1.00       0.000000000000
      0.1687144782D+00  0.1000000000D+01  0.1000000000D+01
 D   1 1.00       0.000000000000
      0.8000000000D+00  0.1000000000D+01
 ****
     50 0
 S   3 1.00       0.000000000000
      0.1873113696D+02  0.3349460434D-01
      0.2825394365D+01  0.2347269535D+00
      0.6401216923D+00  0.8137573261D+00
 S   1 1.00       0.000000000000
      0.1612777588D+00  0.1000000000D+01
 ****
     51 0
 S   3 1.00       0.000000000000
      0.1873113696D+02  0.3349460434D-01
      0.2825394365D+01  0.2347269535D+00
      0.6401216923D+00  0.8137573261D+00
 S   1 1.00       0.000000000000
      0.1612777588D+00  0.1000000000D+01
 ****
     52 0
 S   3 1.00       0.000000000000
      0.1873113696D+02  0.3349460434D-01
      0.2825394365D+01  0.2347269535D+00
      0.6401216923D+00  0.8137573261D+00
 S   1 1.00       0.000000000000
      0.1612777588D+00  0.1000000000D+01
 ****
     53 0
 S   6 1.00       0.000000000000
      0.5484671660D+04  0.1831074430D-02
      0.8252349460D+03  0.1395017220D-01
      0.1880469580D+03  0.6844507810D-01
      0.5296450000D+02  0.2327143360D+00
      0.1689757040D+02  0.4701928980D+00
      0.5799635340D+01  0.3585208530D+00
 SP   3 1.00       0.000000000000
      0.1553961625D+02 -0.1107775495D+00  0.7087426823D-01
      0.3599933586D+01 -0.1480262627D+00  0.3397528391D+00
      0.1013761750D+01  0.1130767015D+01  0.7271585773D+00
 SP   1 1.00       0.000000000000
      0.2700058226D+00  0.1000000000D+01  0.1000000000D+01
 D   1 1.00       0.000000000000
      0.8000000000D+00  0.1000000000D+01
 ****
     54 0
 S   6 1.00       0.000000000000
      0.5484671660D+04  0.1831074430D-02
      0.8252349460D+03  0.1395017220D-01
      0.1880469580D+03  0.6844507810D-01
      0.5296450000D+02  0.2327143360D+00
      0.1689757040D+02  0.4701928980D+00
      0.5799635340D+01  0.3585208530D+00
 SP   3 1.00       0.000000000000
      0.1553961625D+02 -0.1107775495D+00  0.7087426823D-01
      0.3599933586D+01 -0.1480262627D+00  0.3397528391D+00
      0.1013761750D+01  0.1130767015D+01  0.7271585773D+00
 SP   1 1.00       0.000000000000
      0.2700058226D+00  0.1000000000D+01  0.1000000000D+01
 D   1 1.00       0.000000000000
      0.8000000000D+00  0.1000000000D+01
 ****
     55 0
 S   3 1.00       0.000000000000
      0.1873113696D+02  0.3349460434D-01
      0.2825394365D+01  0.2347269535D+00
      0.6401216923D+00  0.8137573261D+00
 S   1 1.00       0.000000000000
      0.1612777588D+00  0.1000000000D+01
 ****
     56 0
 S   6 1.00       0.000000000000
      0.5484671660D+04  0.1831074430D-02
      0.8252349460D+03  0.1395017220D-01
      0.1880469580D+03  0.6844507810D-01
      0.5296450000D+02  0.2327143360D+00
      0.1689757040D+02  0.4701928980D+00
      0.5799635340D+01  0.3585208530D+00
 SP   3 1.00       0.000000000000
      0.1553961625D+02 -0.1107775495D+00  0.7087426823D-01
      0.3599933586D+01 -0.1480262627D+00  0.3397528391D+00
      0.1013761750D+01  0.1130767015D+01  0.7271585773D+00
 SP   1 1.00       0.000000000000
      0.2700058226D+00  0.1000000000D+01  0.1000000000D+01
 D   1 1.00       0.000000000000
      0.8000000000D+00  0.1000000000D+01
 ****
     57 0
 S   3 1.00       0.000000000000
      0.1873113696D+02  0.3349460434D-01
      0.2825394365D+01  0.2347269535D+00
      0.6401216923D+00  0.8137573261D+00
 S   1 1.00       0.000000000000
      0.1612777588D+00  0.1000000000D+01
 ****
     58 0
 S   6 1.00       0.000000000000
      0.3047524880D+04  0.1834737132D-02
      0.4573695180D+03  0.1403732281D-01
      0.1039486850D+03  0.6884262226D-01
      0.2921015530D+02  0.2321844432D+00
      0.9286662960D+01  0.4679413484D+00
      0.3163926960D+01  0.3623119853D+00
 SP   3 1.00       0.000000000000
      0.7868272350D+01 -0.1193324198D+00  0.6899906659D-01
      0.1881288540D+01 -0.1608541517D+00  0.3164239610D+00
      0.5442492580D+00  0.1143456438D+01  0.7443082909D+00
 SP   1 1.00       0.000000000000
      0.1687144782D+00  0.1000000000D+01  0.1000000000D+01
 D   1 1.00       0.000000000000
      0.8000000000D+00  0.1000000000D+01
 ****
     59 0
 S   3 1.00       0.000000000000
      0.1873113696D+02  0.3349460434D-01
      0.2825394365D+01  0.2347269535D+00
      0.6401216923D+00  0.8137573261D+00
 S   1 1.00       0.000000000000
      0.1612777588D+00  0.1000000000D+01
 ****
     60 0
 S   3 1.00       0.000000000000
      0.1873113696D+02  0.3349460434D-01
      0.2825394365D+01  0.2347269535D+00
      0.6401216923D+00  0.8137573261D+00
 S   1 1.00       0.000000000000
      0.1612777588D+00  0.1000000000D+01
 ****
     61 0
 S   6 1.00       0.000000000000
      0.3047524880D+04  0.1834737132D-02
      0.4573695180D+03  0.1403732281D-01
      0.1039486850D+03  0.6884262226D-01
      0.2921015530D+02  0.2321844432D+00
      0.9286662960D+01  0.4679413484D+00
      0.3163926960D+01  0.3623119853D+00
 SP   3 1.00       0.000000000000
      0.7868272350D+01 -0.1193324198D+00  0.6899906659D-01
      0.1881288540D+01 -0.1608541517D+00  0.3164239610D+00
      0.5442492580D+00  0.1143456438D+01  0.7443082909D+00
 SP   1 1.00       0.000000000000
      0.1687144782D+00  0.1000000000D+01  0.1000000000D+01
 D   1 1.00       0.000000000000
      0.8000000000D+00  0.1000000000D+01
 ****
     62 0
 S   3 1.00       0.000000000000
      0.1873113696D+02  0.3349460434D-01
      0.2825394365D+01  0.2347269535D+00
      0.6401216923D+00  0.8137573261D+00
 S   1 1.00       0.000000000000
      0.1612777588D+00  0.1000000000D+01
 ****
     63 0
 S   3 1.00       0.000000000000
      0.1873113696D+02  0.3349460434D-01
      0.2825394365D+01  0.2347269535D+00
      0.6401216923D+00  0.8137573261D+00
 S   1 1.00       0.000000000000
      0.1612777588D+00  0.1000000000D+01
 ****
     64 0
 S   6 1.00       0.000000000000
      0.3047524880D+04  0.1834737132D-02
      0.4573695180D+03  0.1403732281D-01
      0.1039486850D+03  0.6884262226D-01
      0.2921015530D+02  0.2321844432D+00
      0.9286662960D+01  0.4679413484D+00
      0.3163926960D+01  0.3623119853D+00
 SP   3 1.00       0.000000000000
      0.7868272350D+01 -0.1193324198D+00  0.6899906659D-01
      0.1881288540D+01 -0.1608541517D+00  0.3164239610D+00
      0.5442492580D+00  0.1143456438D+01  0.7443082909D+00
 SP   1 1.00       0.000000000000
      0.1687144782D+00  0.1000000000D+01  0.1000000000D+01
 D   1 1.00       0.000000000000
      0.8000000000D+00  0.1000000000D+01
 ****
     65 0
 S   3 1.00       0.000000000000
      0.1873113696D+02  0.3349460434D-01
      0.2825394365D+01  0.2347269535D+00
      0.6401216923D+00  0.8137573261D+00
 S   1 1.00       0.000000000000
      0.1612777588D+00  0.1000000000D+01
 ****
     66 0
 S   3 1.00       0.000000000000
      0.1873113696D+02  0.3349460434D-01
      0.2825394365D+01  0.2347269535D+00
      0.6401216923D+00  0.8137573261D+00
 S   1 1.00       0.000000000000
      0.1612777588D+00  0.1000000000D+01
 ****
     67 0
 S   6 1.00       0.000000000000
      0.3047524880D+04  0.1834737132D-02
      0.4573695180D+03  0.1403732281D-01
      0.1039486850D+03  0.6884262226D-01
      0.2921015530D+02  0.2321844432D+00
      0.9286662960D+01  0.4679413484D+00
      0.3163926960D+01  0.3623119853D+00
 SP   3 1.00       0.000000000000
      0.7868272350D+01 -0.1193324198D+00  0.6899906659D-01
      0.1881288540D+01 -0.1608541517D+00  0.3164239610D+00
      0.5442492580D+00  0.1143456438D+01  0.7443082909D+00
 SP   1 1.00       0.000000000000
      0.1687144782D+00  0.1000000000D+01  0.1000000000D+01
 D   1 1.00       0.000000000000
      0.8000000000D+00  0.1000000000D+01
 ****
     68 0
 S   3 1.00       0.000000000000
      0.1873113696D+02  0.3349460434D-01
      0.2825394365D+01  0.2347269535D+00
      0.6401216923D+00  0.8137573261D+00
 S   1 1.00       0.000000000000
      0.1612777588D+00  0.1000000000D+01
 ****
     69 0
 S   6 1.00       0.000000000000
      0.3047524880D+04  0.1834737132D-02
      0.4573695180D+03  0.1403732281D-01
      0.1039486850D+03  0.6884262226D-01
      0.2921015530D+02  0.2321844432D+00
      0.9286662960D+01  0.4679413484D+00
      0.3163926960D+01  0.3623119853D+00
 SP   3 1.00       0.000000000000
      0.7868272350D+01 -0.1193324198D+00  0.6899906659D-01
      0.1881288540D+01 -0.1608541517D+00  0.3164239610D+00
      0.5442492580D+00  0.1143456438D+01  0.7443082909D+00
 SP   1 1.00       0.000000000000
      0.1687144782D+00  0.1000000000D+01  0.1000000000D+01
 D   1 1.00       0.000000000000
      0.8000000000D+00  0.1000000000D+01
 ****
     70 0
 S   3 1.00       0.000000000000
      0.1873113696D+02  0.3349460434D-01
      0.2825394365D+01  0.2347269535D+00
      0.6401216923D+00  0.8137573261D+00
 S   1 1.00       0.000000000000
      0.1612777588D+00  0.1000000000D+01
 ****
     71 0
 S   3 1.00       0.000000000000
      0.1873113696D+02  0.3349460434D-01
      0.2825394365D+01  0.2347269535D+00
      0.6401216923D+00  0.8137573261D+00
 S   1 1.00       0.000000000000
      0.1612777588D+00  0.1000000000D+01
 ****
     72 0
 S   3 1.00       0.000000000000
      0.1873113696D+02  0.3349460434D-01
      0.2825394365D+01  0.2347269535D+00
      0.6401216923D+00  0.8137573261D+00
 S   1 1.00       0.000000000000
      0.1612777588D+00  0.1000000000D+01
 ****
     73 0
 S   6 1.00       0.000000000000
      0.3047524880D+04  0.1834737132D-02
      0.4573695180D+03  0.1403732281D-01
      0.1039486850D+03  0.6884262226D-01
      0.2921015530D+02  0.2321844432D+00
      0.9286662960D+01  0.4679413484D+00
      0.3163926960D+01  0.3623119853D+00
 SP   3 1.00       0.000000000000
      0.7868272350D+01 -0.1193324198D+00  0.6899906659D-01
      0.1881288540D+01 -0.1608541517D+00  0.3164239610D+00
      0.5442492580D+00  0.1143456438D+01  0.7443082909D+00
 SP   1 1.00       0.000000000000
      0.1687144782D+00  0.1000000000D+01  0.1000000000D+01
 D   1 1.00       0.000000000000
      0.8000000000D+00  0.1000000000D+01
 ****
     74 0
 S   3 1.00       0.000000000000
      0.1873113696D+02  0.3349460434D-01
      0.2825394365D+01  0.2347269535D+00
      0.6401216923D+00  0.8137573261D+00
 S   1 1.00       0.000000000000
      0.1612777588D+00  0.1000000000D+01
 ****
     75 0
 S   3 1.00       0.000000000000
      0.1873113696D+02  0.3349460434D-01
      0.2825394365D+01  0.2347269535D+00
      0.6401216923D+00  0.8137573261D+00
 S   1 1.00       0.000000000000
      0.1612777588D+00  0.1000000000D+01
 ****
     76 0
 S   3 1.00       0.000000000000
      0.1873113696D+02  0.3349460434D-01
      0.2825394365D+01  0.2347269535D+00
      0.6401216923D+00  0.8137573261D+00
 S   1 1.00       0.000000000000
      0.1612777588D+00  0.1000000000D+01
 ****

 AO basis set (Overlap normalization):
 Atom C1       Shell     1 S   6     bf    1 -     1          3.323011387216         -2.360002773603          0.099533179330
      0.3047524880D+04  0.1834737132D-02
      0.4573695180D+03  0.1403732281D-01
      0.1039486850D+03  0.6884262226D-01
      0.2921015530D+02  0.2321844432D+00
      0.9286662960D+01  0.4679413484D+00
      0.3163926960D+01  0.3623119853D+00
 Atom C1       Shell     2 SP   3    bf    2 -     5          3.323011387216         -2.360002773603          0.099533179330
      0.7868272350D+01 -0.1193324198D+00  0.6899906659D-01
      0.1881288540D+01 -0.1608541517D+00  0.3164239610D+00
      0.5442492580D+00  0.1143456438D+01  0.7443082909D+00
 Atom C1       Shell     3 SP   1    bf    6 -     9          3.323011387216         -2.360002773603          0.099533179330
      0.1687144782D+00  0.1000000000D+01  0.1000000000D+01
 Atom C1       Shell     4 D   1     bf   10 -    15          3.323011387216         -2.360002773603          0.099533179330
      0.8000000000D+00  0.1000000000D+01
 Atom H2       Shell     5 S   3     bf   16 -    16          3.559449669079         -2.280005186192         -1.958268238273
      0.1873113696D+02  0.3349460434D-01
      0.2825394365D+01  0.2347269535D+00
      0.6401216923D+00  0.8137573261D+00
 Atom H2       Shell     6 S   1     bf   17 -    17          3.559449669079         -2.280005186192         -1.958268238273
      0.1612777588D+00  0.1000000000D+01
 Atom C3       Shell     7 S   6     bf   18 -    18          5.946329450553         -2.385451072928          1.345952392579
      0.3047524880D+04  0.1834737132D-02
      0.4573695180D+03  0.1403732281D-01
      0.1039486850D+03  0.6884262226D-01
      0.2921015530D+02  0.2321844432D+00
      0.9286662960D+01  0.4679413484D+00
      0.3163926960D+01  0.3623119853D+00
 Atom C3       Shell     8 SP   3    bf   19 -    22          5.946329450553         -2.385451072928          1.345952392579
      0.7868272350D+01 -0.1193324198D+00  0.6899906659D-01
      0.1881288540D+01 -0.1608541517D+00  0.3164239610D+00
      0.5442492580D+00  0.1143456438D+01  0.7443082909D+00
 Atom C3       Shell     9 SP   1    bf   23 -    26          5.946329450553         -2.385451072928          1.345952392579
      0.1687144782D+00  0.1000000000D+01  0.1000000000D+01
 Atom C3       Shell    10 D   1     bf   27 -    32          5.946329450553         -2.385451072928          1.345952392579
      0.8000000000D+00  0.1000000000D+01
 Atom H4       Shell    11 S   3     bf   33 -    33          7.040807407272         -3.988656532703          0.632318804681
      0.1873113696D+02  0.3349460434D-01
      0.2825394365D+01  0.2347269535D+00
      0.6401216923D+00  0.8137573261D+00
 Atom H4       Shell    12 S   1     bf   34 -    34          7.040807407272         -3.988656532703          0.632318804681
      0.1612777588D+00  0.1000000000D+01
 Atom H5       Shell    13 S   3     bf   35 -    35          5.674447994465         -2.709623745551          3.383816538077
      0.1873113696D+02  0.3349460434D-01
      0.2825394365D+01  0.2347269535D+00
      0.6401216923D+00  0.8137573261D+00
 Atom H5       Shell    14 S   1     bf   36 -    36          5.674447994465         -2.709623745551          3.383816538077
      0.1612777588D+00  0.1000000000D+01
 Atom C6       Shell    15 S   6     bf   37 -    37          7.380615503844          0.062097666843          0.925131018595
      0.3047524880D+04  0.1834737132D-02
      0.4573695180D+03  0.1403732281D-01
      0.1039486850D+03  0.6884262226D-01
      0.2921015530D+02  0.2321844432D+00
      0.9286662960D+01  0.4679413484D+00
      0.3163926960D+01  0.3623119853D+00
 Atom C6       Shell    16 SP   3    bf   38 -    41          7.380615503844          0.062097666843          0.925131018595
      0.7868272350D+01 -0.1193324198D+00  0.6899906659D-01
      0.1881288540D+01 -0.1608541517D+00  0.3164239610D+00
      0.5442492580D+00  0.1143456438D+01  0.7443082909D+00
 Atom C6       Shell    17 SP   1    bf   42 -    45          7.380615503844          0.062097666843          0.925131018595
      0.1687144782D+00  0.1000000000D+01  0.1000000000D+01
 Atom C6       Shell    18 D   1     bf   46 -    51          7.380615503844          0.062097666843          0.925131018595
      0.8000000000D+00  0.1000000000D+01
 Atom C7       Shell    19 S   6     bf   52 -    52          5.997367703073          2.515270118202          1.610516073190
      0.3047524880D+04  0.1834737132D-02
      0.4573695180D+03  0.1403732281D-01
      0.1039486850D+03  0.6884262226D-01
      0.2921015530D+02  0.2321844432D+00
      0.9286662960D+01  0.4679413484D+00
      0.3163926960D+01  0.3623119853D+00
 Atom C7       Shell    20 SP   3    bf   53 -    56          5.997367703073          2.515270118202          1.610516073190
      0.7868272350D+01 -0.1193324198D+00  0.6899906659D-01
      0.1881288540D+01 -0.1608541517D+00  0.3164239610D+00
      0.5442492580D+00  0.1143456438D+01  0.7443082909D+00
 Atom C7       Shell    21 SP   1    bf   57 -    60          5.997367703073          2.515270118202          1.610516073190
      0.1687144782D+00  0.1000000000D+01  0.1000000000D+01
 Atom C7       Shell    22 D   1     bf   61 -    66          5.997367703073          2.515270118202          1.610516073190
      0.8000000000D+00  0.1000000000D+01
 Atom C8       Shell    23 S   6     bf   67 -    67          3.296209703830          2.404311409008          0.434512005180
      0.3047524880D+04  0.1834737132D-02
      0.4573695180D+03  0.1403732281D-01
      0.1039486850D+03  0.6884262226D-01
      0.2921015530D+02  0.2321844432D+00
      0.9286662960D+01  0.4679413484D+00
      0.3163926960D+01  0.3623119853D+00
 Atom C8       Shell    24 SP   3    bf   68 -    71          3.296209703830          2.404311409008          0.434512005180
      0.7868272350D+01 -0.1193324198D+00  0.6899906659D-01
      0.1881288540D+01 -0.1608541517D+00  0.3164239610D+00
      0.5442492580D+00  0.1143456438D+01  0.7443082909D+00
 Atom C8       Shell    25 SP   1    bf   72 -    75          3.296209703830          2.404311409008          0.434512005180
      0.1687144782D+00  0.1000000000D+01  0.1000000000D+01
 Atom C8       Shell    26 D   1     bf   76 -    81          3.296209703830          2.404311409008          0.434512005180
      0.8000000000D+00  0.1000000000D+01
 Atom H9       Shell    27 S   3     bf   82 -    82          3.476343557769          2.623476857023         -1.621915657114
      0.1873113696D+02  0.3349460434D-01
      0.2825394365D+01  0.2347269535D+00
      0.6401216923D+00  0.8137573261D+00
 Atom H9       Shell    28 S   1     bf   83 -    83          3.476343557769          2.623476857023         -1.621915657114
      0.1612777588D+00  0.1000000000D+01
 Atom H10      Shell    29 S   3     bf   84 -    84          2.191327103996          4.022235322023          1.102557499698
      0.1873113696D+02  0.3349460434D-01
      0.2825394365D+01  0.2347269535D+00
      0.6401216923D+00  0.8137573261D+00
 Atom H10      Shell    30 S   1     bf   85 -    85          2.191327103996          4.022235322023          1.102557499698
      0.1612777588D+00  0.1000000000D+01
 Atom C11      Shell    31 S   6     bf   86 -    86          1.830109714250         -0.044423492959          0.968192510341
      0.3047524880D+04  0.1834737132D-02
      0.4573695180D+03  0.1403732281D-01
      0.1039486850D+03  0.6884262226D-01
      0.2921015530D+02  0.2321844432D+00
      0.9286662960D+01  0.4679413484D+00
      0.3163926960D+01  0.3623119853D+00
 Atom C11      Shell    32 SP   3    bf   87 -    90          1.830109714250         -0.044423492959          0.968192510341
      0.7868272350D+01 -0.1193324198D+00  0.6899906659D-01
      0.1881288540D+01 -0.1608541517D+00  0.3164239610D+00
      0.5442492580D+00  0.1143456438D+01  0.7443082909D+00
 Atom C11      Shell    33 SP   1    bf   91 -    94          1.830109714250         -0.044423492959          0.968192510341
      0.1687144782D+00  0.1000000000D+01  0.1000000000D+01
 Atom C11      Shell    34 D   1     bf   95 -   100          1.830109714250         -0.044423492959          0.968192510341
      0.8000000000D+00  0.1000000000D+01
 Atom H12      Shell    35 S   3     bf  101 -   101          1.424013067395         -0.221800538827          2.999239676684
      0.1873113696D+02  0.3349460434D-01
      0.2825394365D+01  0.2347269535D+00
      0.6401216923D+00  0.8137573261D+00
 Atom H12      Shell    36 S   1     bf  102 -   102          1.424013067395         -0.221800538827          2.999239676684
      0.1612777588D+00  0.1000000000D+01
 Atom H13      Shell    37 S   3     bf  103 -   103          0.000000000000          0.000000000000          0.000000000000
      0.1873113696D+02  0.3349460434D-01
      0.2825394365D+01  0.2347269535D+00
      0.6401216923D+00  0.8137573261D+00
 Atom H13      Shell    38 S   1     bf  104 -   104          0.000000000000          0.000000000000          0.000000000000
      0.1612777588D+00  0.1000000000D+01
 Atom C14      Shell    39 S   6     bf  105 -   105          9.741166014566          0.000000000000          0.000000000000
      0.3047524880D+04  0.1834737132D-02
      0.4573695180D+03  0.1403732281D-01
      0.1039486850D+03  0.6884262226D-01
      0.2921015530D+02  0.2321844432D+00
      0.9286662960D+01  0.4679413484D+00
      0.3163926960D+01  0.3623119853D+00
 Atom C14      Shell    40 SP   3    bf  106 -   109          9.741166014566          0.000000000000          0.000000000000
      0.7868272350D+01 -0.1193324198D+00  0.6899906659D-01
      0.1881288540D+01 -0.1608541517D+00  0.3164239610D+00
      0.5442492580D+00  0.1143456438D+01  0.7443082909D+00
 Atom C14      Shell    41 SP   1    bf  110 -   113          9.741166014566          0.000000000000          0.000000000000
      0.1687144782D+00  0.1000000000D+01  0.1000000000D+01
 Atom C14      Shell    42 D   1     bf  114 -   119          9.741166014566          0.000000000000          0.000000000000
      0.8000000000D+00  0.1000000000D+01
 Atom H15      Shell    43 S   3     bf  120 -   120         10.592653744358         -1.818718086073         -0.444839207318
      0.1873113696D+02  0.3349460434D-01
      0.2825394365D+01  0.2347269535D+00
      0.6401216923D+00  0.8137573261D+00
 Atom H15      Shell    44 S   1     bf  121 -   121         10.592653744358         -1.818718086073         -0.444839207318
      0.1612777588D+00  0.1000000000D+01
 Atom C16      Shell    45 S   6     bf  122 -   122         11.344874462746          2.288054058916         -0.494073319402
      0.3047524880D+04  0.1834737132D-02
      0.4573695180D+03  0.1403732281D-01
      0.1039486850D+03  0.6884262226D-01
      0.2921015530D+02  0.2321844432D+00
      0.9286662960D+01  0.4679413484D+00
      0.3163926960D+01  0.3623119853D+00
 Atom C16      Shell    46 SP   3    bf  123 -   126         11.344874462746          2.288054058916         -0.494073319402
      0.7868272350D+01 -0.1193324198D+00  0.6899906659D-01
      0.1881288540D+01 -0.1608541517D+00  0.3164239610D+00
      0.5442492580D+00  0.1143456438D+01  0.7443082909D+00
 Atom C16      Shell    47 SP   1    bf  127 -   130         11.344874462746          2.288054058916         -0.494073319402
      0.1687144782D+00  0.1000000000D+01  0.1000000000D+01
 Atom C16      Shell    48 D   1     bf  131 -   136         11.344874462746          2.288054058916         -0.494073319402
      0.8000000000D+00  0.1000000000D+01
 Atom H17      Shell    49 S   3     bf  137 -   137         13.297333512812          1.934836900342          0.108928784279
      0.1873113696D+02  0.3349460434D-01
      0.2825394365D+01  0.2347269535D+00
      0.6401216923D+00  0.8137573261D+00
 Atom H17      Shell    50 S   1     bf  138 -   138         13.297333512812          1.934836900342          0.108928784279
      0.1612777588D+00  0.1000000000D+01
 Atom C18      Shell    51 S   6     bf  139 -   139         10.326670766038          4.675468273837          0.820162986906
      0.3047524880D+04  0.1834737132D-02
      0.4573695180D+03  0.1403732281D-01
      0.1039486850D+03  0.6884262226D-01
      0.2921015530D+02  0.2321844432D+00
      0.9286662960D+01  0.4679413484D+00
      0.3163926960D+01  0.3623119853D+00
 Atom C18      Shell    52 SP   3    bf  140 -   143         10.326670766038          4.675468273837          0.820162986906
      0.7868272350D+01 -0.1193324198D+00  0.6899906659D-01
      0.1881288540D+01 -0.1608541517D+00  0.3164239610D+00
      0.5442492580D+00  0.1143456438D+01  0.7443082909D+00
 Atom C18      Shell    53 SP   1    bf  144 -   147         10.326670766038          4.675468273837          0.820162986906
      0.1687144782D+00  0.1000000000D+01  0.1000000000D+01
 Atom C18      Shell    54 D   1     bf  148 -   153         10.326670766038          4.675468273837          0.820162986906
      0.8000000000D+00  0.1000000000D+01
 Atom H19      Shell    55 S   3     bf  154 -   154         10.777867295526          4.416481269530          2.830924075494
      0.1873113696D+02  0.3349460434D-01
      0.2825394365D+01  0.2347269535D+00
      0.6401216923D+00  0.8137573261D+00
 Atom H19      Shell    56 S   1     bf  155 -   155         10.777867295526          4.416481269530          2.830924075494
      0.1612777588D+00  0.1000000000D+01
 Atom C20      Shell    57 S   6     bf  156 -   156          7.419363922459          4.866471926978          0.493775498564
      0.3047524880D+04  0.1834737132D-02
      0.4573695180D+03  0.1403732281D-01
      0.1039486850D+03  0.6884262226D-01
      0.2921015530D+02  0.2321844432D+00
      0.9286662960D+01  0.4679413484D+00
      0.3163926960D+01  0.3623119853D+00
 Atom C20      Shell    58 SP   3    bf  157 -   160          7.419363922459          4.866471926978          0.493775498564
      0.7868272350D+01 -0.1193324198D+00  0.6899906659D-01
      0.1881288540D+01 -0.1608541517D+00  0.3164239610D+00
      0.5442492580D+00  0.1143456438D+01  0.7443082909D+00
 Atom C20      Shell    59 SP   1    bf  161 -   164          7.419363922459          4.866471926978          0.493775498564
      0.1687144782D+00  0.1000000000D+01  0.1000000000D+01
 Atom C20      Shell    60 D   1     bf  165 -   170          7.419363922459          4.866471926978          0.493775498564
      0.8000000000D+00  0.1000000000D+01
 Atom H21      Shell    61 S   3     bf  171 -   171          7.079901740256          4.822483448975         -1.556352988434
      0.1873113696D+02  0.3349460434D-01
      0.2825394365D+01  0.2347269535D+00
      0.6401216923D+00  0.8137573261D+00
 Atom H21      Shell    62 S   1     bf  172 -   172          7.079901740256          4.822483448975         -1.556352988434
      0.1612777588D+00  0.1000000000D+01
 Atom C22      Shell    63 S   6     bf  173 -   173          6.379065302140          7.417266968958          1.473480522862
      0.3047524880D+04  0.1834737132D-02
      0.4573695180D+03  0.1403732281D-01
      0.1039486850D+03  0.6884262226D-01
      0.2921015530D+02  0.2321844432D+00
      0.9286662960D+01  0.4679413484D+00
      0.3163926960D+01  0.3623119853D+00
 Atom C22      Shell    64 SP   3    bf  174 -   177          6.379065302140          7.417266968958          1.473480522862
      0.7868272350D+01 -0.1193324198D+00  0.6899906659D-01
      0.1881288540D+01 -0.1608541517D+00  0.3164239610D+00
      0.5442492580D+00  0.1143456438D+01  0.7443082909D+00
 Atom C22      Shell    65 SP   1    bf  178 -   181          6.379065302140          7.417266968958          1.473480522862
      0.1687144782D+00  0.1000000000D+01  0.1000000000D+01
 Atom C22      Shell    66 D   1     bf  182 -   187          6.379065302140          7.417266968958          1.473480522862
      0.8000000000D+00  0.1000000000D+01
 Atom H23      Shell    67 S   3     bf  188 -   188          6.392172045756          7.437132091320          3.542170693622
      0.1873113696D+02  0.3349460434D-01
      0.2825394365D+01  0.2347269535D+00
      0.6401216923D+00  0.8137573261D+00
 Atom H23      Shell    68 S   1     bf  189 -   189          6.392172045756          7.437132091320          3.542170693622
      0.1612777588D+00  0.1000000000D+01
 Atom H24      Shell    69 S   3     bf  190 -   190          4.393158269598          7.611051051748          0.917288428376
      0.1873113696D+02  0.3349460434D-01
      0.2825394365D+01  0.2347269535D+00
      0.6401216923D+00  0.8137573261D+00
 Atom H24      Shell    70 S   1     bf  191 -   191          4.393158269598          7.611051051748          0.917288428376
      0.1612777588D+00  0.1000000000D+01
 Atom C25      Shell    71 S   6     bf  192 -   192          7.836364081230          9.758560338907          0.530071373912
      0.3047524880D+04  0.1834737132D-02
      0.4573695180D+03  0.1403732281D-01
      0.1039486850D+03  0.6884262226D-01
      0.2921015530D+02  0.2321844432D+00
      0.9286662960D+01  0.4679413484D+00
      0.3163926960D+01  0.3623119853D+00
 Atom C25      Shell    72 SP   3    bf  193 -   196          7.836364081230          9.758560338907          0.530071373912
      0.7868272350D+01 -0.1193324198D+00  0.6899906659D-01
      0.1881288540D+01 -0.1608541517D+00  0.3164239610D+00
      0.5442492580D+00  0.1143456438D+01  0.7443082909D+00
 Atom C25      Shell    73 SP   1    bf  197 -   200          7.836364081230          9.758560338907          0.530071373912
      0.1687144782D+00  0.1000000000D+01  0.1000000000D+01
 Atom C25      Shell    74 D   1     bf  201 -   206          7.836364081230          9.758560338907          0.530071373912
      0.8000000000D+00  0.1000000000D+01
 Atom H26      Shell    75 S   3     bf  207 -   207          7.601365827372          9.944770682816         -1.525638664883
      0.1873113696D+02  0.3349460434D-01
      0.2825394365D+01  0.2347269535D+00
      0.6401216923D+00  0.8137573261D+00
 Atom H26      Shell    76 S   1     bf  208 -   208          7.601365827372          9.944770682816         -1.525638664883
      0.1612777588D+00  0.1000000000D+01
 Atom H27      Shell    77 S   3     bf  209 -   209          6.979303851428         11.440565129649          1.375148963688
      0.1873113696D+02  0.3349460434D-01
      0.2825394365D+01  0.2347269535D+00
      0.6401216923D+00  0.8137573261D+00
 Atom H27      Shell    78 S   1     bf  210 -   210          6.979303851428         11.440565129649          1.375148963688
      0.1612777588D+00  0.1000000000D+01
 Atom C28      Shell    79 S   6     bf  211 -   211         10.684203681154          9.572457709388          1.126402366399
      0.3047524880D+04  0.1834737132D-02
      0.4573695180D+03  0.1403732281D-01
      0.1039486850D+03  0.6884262226D-01
      0.2921015530D+02  0.2321844432D+00
      0.9286662960D+01  0.4679413484D+00
      0.3163926960D+01  0.3623119853D+00
 Atom C28      Shell    80 SP   3    bf  212 -   215         10.684203681154          9.572457709388          1.126402366399
      0.7868272350D+01 -0.1193324198D+00  0.6899906659D-01
      0.1881288540D+01 -0.1608541517D+00  0.3164239610D+00
      0.5442492580D+00  0.1143456438D+01  0.7443082909D+00
 Atom C28      Shell    81 SP   1    bf  216 -   219         10.684203681154          9.572457709388          1.126402366399
      0.1687144782D+00  0.1000000000D+01  0.1000000000D+01
 Atom C28      Shell    82 D   1     bf  220 -   225         10.684203681154          9.572457709388          1.126402366399
      0.8000000000D+00  0.1000000000D+01
 Atom C29      Shell    83 S   6     bf  226 -   226         11.626336773636          7.091005449759         -0.131389350999
      0.3047524880D+04  0.1834737132D-02
      0.4573695180D+03  0.1403732281D-01
      0.1039486850D+03  0.6884262226D-01
      0.2921015530D+02  0.2321844432D+00
      0.9286662960D+01  0.4679413484D+00
      0.3163926960D+01  0.3623119853D+00
 Atom C29      Shell    84 SP   3    bf  227 -   230         11.626336773636          7.091005449759         -0.131389350999
      0.7868272350D+01 -0.1193324198D+00  0.6899906659D-01
      0.1881288540D+01 -0.1608541517D+00  0.3164239610D+00
      0.5442492580D+00  0.1143456438D+01  0.7443082909D+00
 Atom C29      Shell    85 SP   1    bf  231 -   234         11.626336773636          7.091005449759         -0.131389350999
      0.1687144782D+00  0.1000000000D+01  0.1000000000D+01
 Atom C29      Shell    86 D   1     bf  235 -   240         11.626336773636          7.091005449759         -0.131389350999
      0.8000000000D+00  0.1000000000D+01
 Atom H30      Shell    87 S   3     bf  241 -   241         11.122787913869          7.271025164240         -2.137647600157
      0.1873113696D+02  0.3349460434D-01
      0.2825394365D+01  0.2347269535D+00
      0.6401216923D+00  0.8137573261D+00
 Atom H30      Shell    88 S   1     bf  242 -   242         11.122787913869          7.271025164240         -2.137647600157
      0.1612777588D+00  0.1000000000D+01
 Atom C31      Shell    89 S   6     bf  243 -   243         14.517682593455          7.259244384760          0.000000000000
      0.3047524880D+04  0.1834737132D-02
      0.4573695180D+03  0.1403732281D-01
      0.1039486850D+03  0.6884262226D-01
      0.2921015530D+02  0.2321844432D+00
      0.9286662960D+01  0.4679413484D+00
      0.3163926960D+01  0.3623119853D+00
 Atom C31      Shell    90 SP   3    bf  244 -   247         14.517682593455          7.259244384760          0.000000000000
      0.7868272350D+01 -0.1193324198D+00  0.6899906659D-01
      0.1881288540D+01 -0.1608541517D+00  0.3164239610D+00
      0.5442492580D+00  0.1143456438D+01  0.7443082909D+00
 Atom C31      Shell    91 SP   1    bf  248 -   251         14.517682593455          7.259244384760          0.000000000000
      0.1687144782D+00  0.1000000000D+01  0.1000000000D+01
 Atom C31      Shell    92 D   1     bf  252 -   257         14.517682593455          7.259244384760          0.000000000000
      0.8000000000D+00  0.1000000000D+01
 Atom H32      Shell    93 S   3     bf  258 -   258         15.427606456735          6.094630641016         -1.444315547974
      0.1873113696D+02  0.3349460434D-01
      0.2825394365D+01  0.2347269535D+00
      0.6401216923D+00  0.8137573261D+00
 Atom H32      Shell    94 S   1     bf  259 -   259         15.427606456735          6.094630641016         -1.444315547974
      0.1612777588D+00  0.1000000000D+01
 Atom H33      Shell    95 S   3     bf  260 -   260         15.215369236052          6.604013671170          1.839947647395
      0.1873113696D+02  0.3349460434D-01
      0.2825394365D+01  0.2347269535D+00
      0.6401216923D+00  0.8137573261D+00
 Atom H33      Shell    96 S   1     bf  261 -   261         15.215369236052          6.604013671170          1.839947647395
      0.1612777588D+00  0.1000000000D+01
 Atom C34      Shell    97 S   6     bf  262 -   262         15.053092746048         10.121322617561         -0.371196561022
      0.3047524880D+04  0.1834737132D-02
      0.4573695180D+03  0.1403732281D-01
      0.1039486850D+03  0.6884262226D-01
      0.2921015530D+02  0.2321844432D+00
      0.9286662960D+01  0.4679413484D+00
      0.3163926960D+01  0.3623119853D+00
 Atom C34      Shell    98 SP   3    bf  263 -   266         15.053092746048         10.121322617561         -0.371196561022
      0.7868272350D+01 -0.1193324198D+00  0.6899906659D-01
      0.1881288540D+01 -0.1608541517D+00  0.3164239610D+00
      0.5442492580D+00  0.1143456438D+01  0.7443082909D+00
 Atom C34      Shell    99 SP   1    bf  267 -   270         15.053092746048         10.121322617561         -0.371196561022
      0.1687144782D+00  0.1000000000D+01  0.1000000000D+01
 Atom C34      Shell   100 D   1     bf  271 -   276         15.053092746048         10.121322617561         -0.371196561022
      0.8000000000D+00  0.1000000000D+01
 Atom H35      Shell   101 S   3     bf  277 -   277         16.336290225035         10.831853634197          1.092868363588
      0.1873113696D+02  0.3349460434D-01
      0.2825394365D+01  0.2347269535D+00
      0.6401216923D+00  0.8137573261D+00
 Atom H35      Shell   102 S   1     bf  278 -   278         16.336290225035         10.831853634197          1.092868363588
      0.1612777588D+00  0.1000000000D+01
 Atom H36      Shell   103 S   3     bf  279 -   279         15.985121586281         10.469301096247         -2.183052503486
      0.1873113696D+02  0.3349460434D-01
      0.2825394365D+01  0.2347269535D+00
      0.6401216923D+00  0.8137573261D+00
 Atom H36      Shell   104 S   1     bf  280 -   280         15.985121586281         10.469301096247         -2.183052503486
      0.1612777588D+00  0.1000000000D+01
 Atom C37      Shell   105 S   6     bf  281 -   281         12.450130850410         11.529442388981         -0.232807532146
      0.3047524880D+04  0.1834737132D-02
      0.4573695180D+03  0.1403732281D-01
      0.1039486850D+03  0.6884262226D-01
      0.2921015530D+02  0.2321844432D+00
      0.9286662960D+01  0.4679413484D+00
      0.3163926960D+01  0.3623119853D+00
 Atom C37      Shell   106 SP   3    bf  282 -   285         12.450130850410         11.529442388981         -0.232807532146
      0.7868272350D+01 -0.1193324198D+00  0.6899906659D-01
      0.1881288540D+01 -0.1608541517D+00  0.3164239610D+00
      0.5442492580D+00  0.1143456438D+01  0.7443082909D+00
[...]
 **** Fit       0.001871
 **** Fit       0.002337
 **** Fit       0.002597
 **** Fit       0.002372
 **** Fit       0.001546
 **** Fit       0.000332
 **** Fit      -0.000868
 **** Fit      -0.001747
 **** Fit      -0.002226
 **** Fit      -0.002376
 **** Fit      -0.002312
 **** Fit      -0.000145
 **** Fit       0.000143
 **** Fit       0.000421
 **** Fit       0.000663
 **** Fit       0.000858
 **** Fit       0.001030
 **** Fit       0.001233
 **** Fit       0.001536
 **** Fit       0.001971
 **** Fit       0.002460
 **** Fit       0.002755
 **** Fit       0.002514
 **** Fit       0.001585
 **** Fit       0.000219
 **** Fit      -0.001102
 **** Fit      -0.002032
 **** Fit      -0.002499
 **** Fit      -0.002607
 **** Fit      -0.002493
 **** Fit      -0.000309
 **** Fit       0.000012
 **** Fit       0.000356
 **** Fit       0.000681
 **** Fit       0.000938
 **** Fit       0.001097
 **** Fit       0.001176
 **** Fit       0.001243
 **** Fit       0.001391
 **** Fit       0.001670
 **** Fit       0.002016
 **** Fit       0.002195
 **** Fit       0.001881
 **** Fit       0.000935
 **** Fit      -0.000387
 **** Fit      -0.001618
 **** Fit      -0.002434
 **** Fit      -0.002791
 **** Fit      -0.002807
 **** Fit      -0.002624
 **** Fit      -0.000249
 **** Fit       0.000119
 **** Fit       0.000519
 **** Fit       0.000890
 **** Fit       0.001157
 **** Fit       0.001260
 **** Fit       0.001209
 **** Fit       0.001083
 **** Fit       0.000996
 **** Fit       0.001014
 **** Fit       0.001089
 **** Fit       0.001035
 **** Fit       0.000615
 **** Fit      -0.000252
 **** Fit      -0.001343
 **** Fit      -0.002290
 **** Fit      -0.002857
 **** Fit      -0.003031
 **** Fit      -0.002926
 **** Fit      -0.002669
 **** Fit      -0.000581
 **** Fit      -0.000262
 **** Fit       0.000134
 **** Fit       0.000572
 **** Fit       0.000975
 **** Fit       0.001239
 **** Fit       0.001276
 **** Fit       0.001082
 **** Fit       0.000751
 **** Fit       0.000421
 **** Fit       0.000169
 **** Fit      -0.000032
 **** Fit      -0.000309
 **** Fit      -0.000798
 **** Fit      -0.001513
 **** Fit      -0.002285
 **** Fit      -0.002876
 **** Fit      -0.003152
 **** Fit      -0.003131
 **** Fit      -0.002913
 **** Fit      -0.002599
 **** Fit      -0.002261
 **** Fit      -0.000674
 **** Fit      -0.000368
 **** Fit       0.000020
 **** Fit       0.000453
 **** Fit       0.000849
 **** Fit       0.001084
 **** Fit       0.001048
 **** Fit       0.000731
 **** Fit       0.000243
 **** Fit      -0.000260
 **** Fit      -0.000688
 **** Fit      -0.001056
 **** Fit      -0.001441
 **** Fit      -0.001908
 **** Fit      -0.002434
 **** Fit      -0.002901
 **** Fit      -0.003178
 **** Fit      -0.003210
 **** Fit      -0.003037
 **** Fit      -0.002745
 **** Fit      -0.002409
 **** Fit      -0.002078
 **** Fit      -0.000830
 **** Fit      -0.000572
 **** Fit      -0.000240
 **** Fit       0.000132
 **** Fit       0.000462
 **** Fit       0.000625
 **** Fit       0.000516
 **** Fit       0.000128
 **** Fit      -0.000424
 **** Fit      -0.000979
 **** Fit      -0.001446
 **** Fit      -0.001833
 **** Fit      -0.002191
 **** Fit      -0.002549
 **** Fit      -0.002876
 **** Fit      -0.003097
 **** Fit      -0.003146
 **** Fit      -0.003017
 **** Fit      -0.002760
 **** Fit      -0.002442
 **** Fit      -0.002119
 **** Fit      -0.001821
 **** Fit      -0.001034
 **** Fit      -0.000852
 **** Fit      -0.000615
 **** Fit      -0.000357
 **** Fit      -0.000147
 **** Fit      -0.000087
 **** Fit      -0.000260
 **** Fit      -0.000658
 **** Fit      -0.001171
 **** Fit      -0.001660
 **** Fit      -0.002046
 **** Fit      -0.002339
 **** Fit      -0.002577
 **** Fit      -0.002779
 **** Fit      -0.002922
 **** Fit      -0.002959
 **** Fit      -0.002863
 **** Fit      -0.002649
 **** Fit      -0.002364
 **** Fit      -0.002061
 **** Fit      -0.001777
 **** Fit      -0.001528
 **** Fit      -0.001254
 **** Fit      -0.001161
 **** Fit      -0.001039
 **** Fit      -0.000915
 **** Fit      -0.000842
 **** Fit      -0.000889
 **** Fit      -0.001102
 **** Fit      -0.001456
 **** Fit      -0.001860
 **** Fit      -0.002209
 **** Fit      -0.002451
 **** Fit      -0.002598
 **** Fit      -0.002686
 **** Fit      -0.002731
 **** Fit      -0.002722
 **** Fit      -0.002633
 **** Fit      -0.002455
 **** Fit      -0.002208
 **** Fit      -0.001932
 **** Fit      -0.001666
 **** Fit      -0.001432
 **** Fit      -0.001236
 **** Fit      -0.001448
 **** Fit      -0.001430
 **** Fit      -0.001426
 **** Fit      -0.001467
 **** Fit      -0.001590
 **** Fit      -0.001807
 **** Fit      -0.002085
 **** Fit      -0.002354
 **** Fit      -0.002547
 **** Fit      -0.002638
 **** Fit      -0.002645
 **** Fit      -0.002600
 **** Fit      -0.002520
 **** Fit      -0.002403
 **** Fit      -0.002238
 **** Fit      -0.002023
 **** Fit      -0.001778
 **** Fit      -0.001531
 **** Fit      -0.001308
 **** Fit      -0.001122
 **** Fit      -0.001671
 **** Fit      -0.001730
 **** Fit      -0.001806
 **** Fit      -0.001915
 **** Fit      -0.002067
 **** Fit      -0.002256
 **** Fit      -0.002446
 **** Fit      -0.002589
 **** Fit      -0.002648
 **** Fit      -0.002618
 **** Fit      -0.002520
 **** Fit      -0.002383
 **** Fit      -0.002048
 **** Fit      -0.001848
 **** Fit      -0.001629
 **** Fit      -0.001404
 **** Fit      -0.001193
 **** Fit      -0.001012
 **** Fit      -0.001913
 **** Fit      -0.002027
 **** Fit      -0.002158
 **** Fit      -0.002301
 **** Fit      -0.002440
 **** Fit      -0.002545
 **** Fit      -0.002586
 **** Fit      -0.002548
 **** Fit      -0.002437
 **** Fit      -0.002277
 **** Fit      -0.002093
 **** Fit      -0.002225
 **** Fit      -0.002336
 **** Fit      -0.002418
 **** Fit      -0.002451
 **** Fit      -0.002419
 **** Fit      -0.002319
 **** Fit      -0.002164
 **** Fit      -0.001977
 **** Fit      -0.001779
 **** Fit      -0.002249
 **** Fit      -0.002169
 **** Fit      -0.002035
 **** Fit      -0.001863
 **** Fit      -0.001674
 **** Fit      -0.000742
 **** Fit      -0.000874
 **** Fit      -0.000282
 **** Fit      -0.000274
 **** Fit      -0.000331
 **** Fit      -0.000460
 **** Fit      -0.000653
 **** Fit      -0.000878
 **** Fit      -0.001095
 **** Fit      -0.000019
 **** Fit       0.000070
 **** Fit       0.000103
 **** Fit       0.000047
 **** Fit      -0.000117
 **** Fit      -0.000382
 **** Fit      -0.000703
 **** Fit      -0.001021
 **** Fit      -0.001279
 **** Fit      -0.001446
 **** Fit       0.000148
 **** Fit       0.000302
 **** Fit       0.000434
 **** Fit       0.000505
 **** Fit       0.000462
 **** Fit       0.000265
 **** Fit      -0.000082
 **** Fit      -0.000518
 **** Fit      -0.000953
 **** Fit      -0.001305
 **** Fit      -0.001534
 **** Fit       0.000404
 **** Fit       0.000587
 **** Fit       0.000759
 **** Fit       0.000871
 **** Fit       0.000846
 **** Fit       0.000621
 **** Fit       0.000189
 **** Fit      -0.000368
 **** Fit      -0.000924
 **** Fit      -0.001370
 **** Fit      -0.001652
 **** Fit      -0.001776
 **** Fit       0.000431
 **** Fit       0.000598
 **** Fit       0.000783
 **** Fit       0.000970
 **** Fit       0.001104
 **** Fit       0.001089
 **** Fit       0.000835
 **** Fit       0.000329
 **** Fit      -0.000332
 **** Fit      -0.000985
 **** Fit      -0.001495
 **** Fit      -0.001806
 **** Fit      -0.001929
 **** Fit       0.000116
 **** Fit       0.000294
 **** Fit       0.000442
 **** Fit       0.000568
 **** Fit       0.000694
 **** Fit       0.000838
 **** Fit       0.000992
 **** Fit       0.001102
 **** Fit       0.001065
 **** Fit       0.000778
 **** Fit       0.000224
 **** Fit      -0.000489
 **** Fit      -0.001177
 **** Fit      -0.001695
 **** Fit      -0.001991
 **** Fit      -0.002086
 **** Fit       0.000038
 **** Fit       0.000258
 **** Fit       0.000434
 **** Fit       0.000553
 **** Fit       0.000622
 **** Fit       0.000669
 **** Fit       0.000722
 **** Fit       0.000786
 **** Fit       0.000814
 **** Fit       0.000713
 **** Fit       0.000388
 **** Fit      -0.000174
 **** Fit      -0.000861
 **** Fit      -0.001499
 **** Fit      -0.001954
 **** Fit      -0.002185
 **** Fit      -0.002223
 **** Fit      -0.000148
 **** Fit       0.000109
 **** Fit       0.000339
 **** Fit       0.000504
 **** Fit       0.000580
 **** Fit       0.000572
 **** Fit       0.000513
 **** Fit       0.000444
 **** Fit       0.000379
 **** Fit       0.000288
 **** Fit       0.000099
 **** Fit      -0.000258
 **** Fit      -0.000781
 **** Fit      -0.001370
 **** Fit      -0.001882
 **** Fit      -0.002214
 **** Fit      -0.002345
 **** Fit      -0.002310
 **** Fit      -0.000422
 **** Fit      -0.000166
 **** Fit       0.000097
 **** Fit       0.000324
 **** Fit       0.000467
 **** Fit       0.000491
 **** Fit       0.000401
 **** Fit       0.000234
 **** Fit       0.000042
 **** Fit      -0.000148
 **** Fit      -0.000352
 **** Fit      -0.000615
 **** Fit      -0.000976
 **** Fit      -0.001420
 **** Fit      -0.001867
 **** Fit      -0.002216
 **** Fit      -0.002403
 **** Fit      -0.002423
 **** Fit      -0.002316
 **** Fit      -0.000512
 **** Fit      -0.000271
 **** Fit      -0.000025
 **** Fit       0.000179
 **** Fit       0.000286
 **** Fit       0.000257
 **** Fit       0.000096
 **** Fit      -0.000154
 **** Fit      -0.000433
 **** Fit      -0.000705
 **** Fit      -0.000972
 **** Fit      -0.001259
 **** Fit      -0.001583
 **** Fit      -0.001921
 **** Fit      -0.002217
 **** Fit      -0.002407
 **** Fit      -0.002460
 **** Fit      -0.002388
 **** Fit      -0.002226
 **** Fit      -0.000666
 **** Fit      -0.000465
 **** Fit      -0.000263
 **** Fit      -0.000106
 **** Fit      -0.000048
 **** Fit      -0.000124
 **** Fit      -0.000331
 **** Fit      -0.000620
 **** Fit      -0.000928
 **** Fit      -0.001217
 **** Fit      -0.001481
 **** Fit      -0.001735
 **** Fit      -0.001983
 **** Fit      -0.002205
 **** Fit      -0.002362
 **** Fit      -0.002422
 **** Fit      -0.002375
 **** Fit      -0.002239
 **** Fit      -0.002047
 **** Fit      -0.000869
 **** Fit      -0.000727
 **** Fit      -0.000590
 **** Fit      -0.000498
 **** Fit      -0.000496
 **** Fit      -0.000609
 **** Fit      -0.000829
 **** Fit      -0.001107
 **** Fit      -0.001388
 **** Fit      -0.001635
 **** Fit      -0.001843
 **** Fit      -0.002021
 **** Fit      -0.002170
 **** Fit      -0.002278
 **** Fit      -0.002323
 **** Fit      -0.002287
 **** Fit      -0.002174
 **** Fit      -0.002005
 **** Fit      -0.001807
 **** Fit      -0.001017
 **** Fit      -0.000953
 **** Fit      -0.000931
 **** Fit      -0.000979
 **** Fit      -0.001112
 **** Fit      -0.001315
 **** Fit      -0.001546
 **** Fit      -0.001760
 **** Fit      -0.001929
 **** Fit      -0.002052
 **** Fit      -0.002136
 **** Fit      -0.002187
 **** Fit      -0.002197
 **** Fit      -0.002155
 **** Fit      -0.002056
 **** Fit      -0.001908
 **** Fit      -0.001730
 **** Fit      -0.001289
 **** Fit      -0.001290
 **** Fit      -0.001324
 **** Fit      -0.001407
 **** Fit      -0.001540
 **** Fit      -0.001706
 **** Fit      -0.001871
 **** Fit      -0.002003
 **** Fit      -0.002085
 **** Fit      -0.001553
 **** Fit      -0.001622
 **** Fit      -0.001718
 **** Fit      -0.001833
 **** Fit      -0.001952
 **** Fit      -0.002048
 **** Fit      -0.002102
 **** Fit      -0.001801
 **** Fit      -0.001890
 **** Fit      -0.001977
 **** Fit      -0.002046
 **** Fit      -0.002082
 **** Fit      -0.000173
 **** Fit      -0.000230
 **** Fit      -0.000355
 **** Fit      -0.000540
 **** Fit      -0.000758
 **** Fit      -0.000975
 **** Fit       0.000065
 **** Fit       0.000078
 **** Fit       0.000016
 **** Fit      -0.000137
 **** Fit      -0.000372
 **** Fit      -0.000655
 **** Fit      -0.000937
 **** Fit      -0.001173
 **** Fit       0.000191
 **** Fit       0.000266
 **** Fit       0.000285
 **** Fit       0.000216
 **** Fit       0.000036
 **** Fit      -0.000248
 **** Fit      -0.000593
 **** Fit      -0.000937
 **** Fit      -0.001221
 **** Fit      -0.001414
 **** Fit       0.000313
 **** Fit       0.000383
 **** Fit       0.000397
 **** Fit       0.000315
 **** Fit       0.000108
 **** Fit      -0.000217
 **** Fit      -0.000610
 **** Fit      -0.000997
 **** Fit      -0.001311
 **** Fit      -0.001517
 **** Fit       0.000274
 **** Fit       0.000338
 **** Fit       0.000379
 **** Fit       0.000367
 **** Fit       0.000261
 **** Fit       0.000030
 **** Fit      -0.000320
 **** Fit      -0.000734
 **** Fit      -0.001132
 **** Fit      -0.001446
 **** Fit      -0.001640
 **** Fit       0.000239
 **** Fit       0.000250
 **** Fit       0.000239
 **** Fit       0.000181
 **** Fit       0.000039
 **** Fit      -0.000212
 **** Fit      -0.000565
 **** Fit      -0.000965
 **** Fit      -0.001334
 **** Fit      -0.001611
 **** Fit      -0.001768
 **** Fit      -0.000029
 **** Fit       0.000080
 **** Fit       0.000137
 **** Fit       0.000143
 **** Fit       0.000111
 **** Fit       0.000055
 **** Fit      -0.000022
 **** Fit      -0.000137
 **** Fit      -0.000316
 **** Fit      -0.000577
 **** Fit      -0.000908
 **** Fit      -0.001258
 **** Fit      -0.001565
 **** Fit      -0.001776
 **** Fit      -0.001875
 **** Fit      -0.000214
 **** Fit      -0.000075
 **** Fit       0.000012
 **** Fit       0.000034
 **** Fit      -0.000010
 **** Fit      -0.000102
 **** Fit      -0.000223
 **** Fit      -0.000362
 **** Fit      -0.000526
 **** Fit      -0.000730
 **** Fit      -0.000983
 **** Fit      -0.001268
 **** Fit      -0.001546
 **** Fit      -0.001768
 **** Fit      -0.001900
 **** Fit      -0.001934
 **** Fit      -0.000319
 **** Fit      -0.000202
 **** Fit      -0.000144
 **** Fit      -0.000158
 **** Fit      -0.000245
 **** Fit      -0.000384
 **** Fit      -0.000550
 **** Fit      -0.000729
 **** Fit      -0.000917
 **** Fit      -0.001122
 **** Fit      -0.001344
 **** Fit      -0.001568
 **** Fit      -0.001762
 **** Fit      -0.001896
 **** Fit      -0.001950
 **** Fit      -0.000493
 **** Fit      -0.000409
 **** Fit      -0.000383
 **** Fit      -0.000429
 **** Fit      -0.000544
 **** Fit      -0.000707
 **** Fit      -0.000891
 **** Fit      -0.001076
 **** Fit      -0.001258
 **** Fit      -0.001435
 **** Fit      -0.001607
 **** Fit      -0.001759
 **** Fit      -0.001872
 **** Fit      -0.001927
 **** Fit      -0.000718
 **** Fit      -0.000672
 **** Fit      -0.000679
 **** Fit      -0.000748
 **** Fit      -0.000875
 **** Fit      -0.001036
 **** Fit      -0.001207
 **** Fit      -0.001753
 **** Fit      -0.001834
 **** Fit      -0.000962
 **** Fit      -0.000955
 **** Fit      -0.000989
 **** Fit      -0.001071
 **** Fit      -0.001191
 **** Fit      -0.001330
 **** Fit      -0.001466
 **** Fit      -0.001214
 **** Fit      -0.001267
 **** Fit      -0.001348
 **** Fit      -0.001449
 **** Fit      -0.001553
 **** Fit      -0.000393
 **** Fit      -0.000554
 **** Fit      -0.000094
 **** Fit      -0.000166
 **** Fit      -0.000301
 **** Fit      -0.000492
 **** Fit      -0.000714
 **** Fit      -0.000933
 **** Fit      -0.000011
 **** Fit      -0.000036
 **** Fit      -0.000122
 **** Fit      -0.000277
 **** Fit      -0.000492
 **** Fit      -0.000739
 **** Fit      -0.000980
 **** Fit      -0.000021
 **** Fit      -0.000066
 **** Fit      -0.000170
 **** Fit      -0.000341
 **** Fit      -0.000569
 **** Fit      -0.000826
 **** Fit      -0.001071
 **** Fit      -0.001269
 **** Fit      -0.000116
 **** Fit      -0.000188
 **** Fit      -0.000312
 **** Fit      -0.000494
 **** Fit      -0.000723
 **** Fit      -0.000971
 **** Fit      -0.001200
 **** Fit      -0.001376
 **** Fit      -0.000287
 **** Fit      -0.000388
 **** Fit      -0.000529
 **** Fit      -0.000713
 **** Fit      -0.000929
 **** Fit      -0.001149
 **** Fit      -0.001343
 **** Fit      -0.000633
 **** Fit      -0.000783
 **** Fit      -0.000957
 **** Fit      -0.001146
 **** Fit      -0.001325
 **** Fit      -0.001471
 **** Fit      -0.001031
 **** Fit      -0.001183
 **** Fit      -0.001334
 **** Fit      -0.001465
 -----------------------------------------------------------------
 Leave Link  602 at Fri Apr 28 13:12:32 2017, MaxMem=    33554432 cpu:        39.0
 (Enter /home/michal/g09/l9999.exe)

 Test job not archived.
 1\1\GINC-LINUX\SP\RHF\6-31G(d)\C27H46O3\MICHAL\28-Apr-2017\0\\#P HF/6-
 31G* SCF(Conver=6) NoSymm Test Pop=chelpg IOp(6/33=2) GFInput GFPrint\
 \MEP - Input generated by R.E.D.-III.x MOLECULE\\0,1\C,0,1.75846189,-1
 .24885968,0.05267069\H,0,1.88357964,-1.20652678,-1.03627092\C,0,3.1466
 6202,-1.26232634,0.71224733\H,0,3.72583481,-2.11070613,0.3346087\H,0,3
 .00278855,-1.43387113,1.79063859\C,0,3.90565351,0.03286067,0.48955825\
 C,0,3.1736703,1.33102362,0.8522484\C,0,1.74427905,1.2723068,0.22993385
 \H,0,1.83960178,1.38828416,-0.8582808\H,0,1.15960036,2.12847526,0.5834
 483\C,0,0.96845235,-0.0235079,0.51234541\H,0,0.75355526,-0.11737179,1.
 58712928\H,0,0.,0.,0.\C,0,5.15480304,0.,0.\H,0,5.60539094,-0.96242416,
 -0.23539877\C,0,6.003449,1.21078606,-0.26145234\H,0,7.03664583,1.02387
 159,0.05764263\C,0,5.46463881,2.47415125,0.43401156\H,0,5.70340173,2.3
 3710123,1.4980605\C,0,3.92615829,2.57522603,0.26129474\H,0,3.74652264,
 2.55194833,-0.82358653\C,0,3.37565597,3.92504863,0.77973231\H,0,3.3825
 9176,3.9355608,1.874436\H,0,2.32475923,4.02759475,0.48540813\C,0,4.146
 82527,5.16400772,0.28050169\H,0,4.02246955,5.26254599,-0.80733321\H,0,
 3.69328853,6.05408632,0.72769749\C,0,5.65383708,5.06552645,0.59606646\
 C,0,6.15239244,3.75239847,-0.06952825\H,0,5.88592586,3.8476608,-1.1311
 9439\C,0,7.68242675,3.84142668,0.\H,0,8.16393772,3.22513963,-0.7642988
 7\H,0,8.05162662,3.49469352,0.97365836\C,0,7.9657536,5.35597325,-0.196
 42876\H,0,8.64479246,5.73197007,0.57832103\H,0,8.45896202,5.54011553,-
 1.15522163\C,0,6.58832549,6.10111814,-0.12319644\H,0,6.20068896,6.1980
 1207,-1.14974605\C,0,5.90143715,5.09276572,2.12190062\H,0,5.43366264,4
 .24988056,2.63739297\H,0,6.96849928,5.06498009,2.36248351\H,0,5.492345
 34,6.00669472,2.5649875\C,0,6.71678288,7.53912743,0.44327496\H,0,7.168
 3966,7.46578296,1.4445012\C,0,5.36253728,8.25791751,0.58192703\H,0,4.8
 1683087,8.24851271,-0.3698479\H,0,5.49594871,9.30361862,0.87526037\H,0
 ,4.72304665,7.79559546,1.33738597\C,0,3.0651831,1.41051713,2.39994556\
 H,0,2.38359107,2.20788407,2.71052792\H,0,2.68539967,0.4793298,2.827033
 5\H,0,4.04205265,1.59800682,2.85631881\O,0,6.06028228,1.51063727,-1.68
 347755\O,0,6.79516146,0.43514658,-2.33216995\H,0,6.07842169,-0.0175893
 2,-2.8068069\O,0,1.05394164,-2.47294931,0.27558666\H,0,0.88402866,-2.5
 6487688,1.22365763\C,0,7.6797861,8.38237438,-0.43198062\H,0,8.54534262
 ,7.77257886,-0.70772732\H,0,7.17021037,8.63096785,-1.37602087\C,0,8.18
 812488,9.67489249,0.22776676\H,0,7.33904286,10.28256023,0.56324923\H,0
 ,8.74683697,9.41655364,1.1376995\C,0,9.05504985,10.55873771,-0.6886148
 1\H,0,9.28730923,11.49294359,-0.1558551\H,0,8.45273987,10.85058396,-1.
 56116194\C,0,10.38207019,9.95345965,-1.1942977\H,0,10.15310009,9.03069
 845,-1.74620352\C,0,11.06307485,10.91901807,-2.17757692\H,0,11.3229792
 1,11.86324647,-1.68175942\H,0,11.98766326,10.49040414,-2.58086595\H,0,
 10.40704105,11.15700338,-3.02282062\C,0,11.33725858,9.59188223,-0.0458
 7456\H,0,11.58025665,10.47978683,0.55242783\H,0,12.2783851,9.18512437,
 -0.43308489\H,0,10.90848403,8.84342979,0.62837723\\Version=EM64L-G09Re
 vD.01\HF=-1273.683092\RMSD=5.513e-07\Dipole=-0.5324651,0.1417772,0.841
 8801\Quadrupole=-9.0857245,1.0366725,8.049052,-5.1446085,6.5642496,0.8
 303939\PG=C01 [X(C27H46O3)]\\@


 EVERY WORD THAT YOU WRITE IS A BLOW THAT SMITES THE DEVIL.
     -- ST. BERNARD OF CLAIRVAUX
 Job cpu time:       0 days  0 hours 11 minutes 55.3 seconds.
 File lengths (MBytes):  RWF=    159 Int=      0 D2E=      0 Chk=     11 Scr=      1
 Normal termination of Gaussian 09 at Fri Apr 28 13:12:32 2017.
