 Entering Gaussian System, Link 0=/home/michal/g09/g09
 Input=JOB2-gau_m1-22-3.com
 Output=JOB2-gau_m1-22-3.log
 Initial command:
 /home/michal/g09/l1.exe "/home/michal/gauss_scratch/Gau-22606.inp" -scrdir="/home/michal/gauss_scratch/"
 Entering Link 1 = /home/michal/g09/l1.exe PID=     22607.
  
 Copyright (c) 1988,1990,1992,1993,1995,1998,2003,2009,2013,
            Gaussian, Inc.  All Rights Reserved.
  
 This is part of the Gaussian(R) 09 program.  It is based on
 the Gaussian(R) 03 system (copyright 2003, Gaussian, Inc.),
 the Gaussian(R) 98 system (copyright 1998, Gaussian, Inc.),
 the Gaussian(R) 94 system (copyright 1995, Gaussian, Inc.),
 the Gaussian 92(TM) system (copyright 1992, Gaussian, Inc.),
 the Gaussian 90(TM) system (copyright 1990, Gaussian, Inc.),
 the Gaussian 88(TM) system (copyright 1988, Gaussian, Inc.),
 the Gaussian 86(TM) system (copyright 1986, Carnegie Mellon
 University), and the Gaussian 82(TM) system (copyright 1983,
 Carnegie Mellon University). Gaussian is a federally registered
 trademark of Gaussian, Inc.
  
 This software contains proprietary and confidential information,
 including trade secrets, belonging to Gaussian, Inc.
  
 This software is provided under written license and may be
 used, copied, transmitted, or stored only in accord with that
 written license.
  
 The following legend is applicable only to US Government
 contracts under FAR:
  
                    RESTRICTED RIGHTS LEGEND
  
 Use, reproduction and disclosure by the US Government is
 subject to restrictions as set forth in subparagraphs (a)
 and (c) of the Commercial Computer Software - Restricted
 Rights clause in FAR 52.227-19.
  
 Gaussian, Inc.
 340 Quinnipiac St., Bldg. 40, Wallingford CT 06492
  
  
 ---------------------------------------------------------------
 Warning -- This program may not be used in any manner that
 competes with the business of Gaussian, Inc. or will provide
 assistance to any competitor of Gaussian, Inc.  The licensee
 of this program is prohibited from giving any competitor of
 Gaussian, Inc. access to this program.  By using this program,
 the user acknowledges that Gaussian, Inc. is engaged in the
 business of creating and licensing software in the field of
 computational chemistry and represents and warrants to the
 licensee that it is not a competitor of Gaussian, Inc. and that
 it will not use this program in any manner prohibited above.
 ---------------------------------------------------------------
  

 Cite this work as:
 Gaussian 09, Revision D.01,
 M. J. Frisch, G. W. Trucks, H. B. Schlegel, G. E. Scuseria, 
 M. A. Robb, J. R. Cheeseman, G. Scalmani, V. Barone, B. Mennucci, 
 G. A. Petersson, H. Nakatsuji, M. Caricato, X. Li, H. P. Hratchian, 
 A. F. Izmaylov, J. Bloino, G. Zheng, J. L. Sonnenberg, M. Hada, 
 M. Ehara, K. Toyota, R. Fukuda, J. Hasegawa, M. Ishida, T. Nakajima, 
 Y. Honda, O. Kitao, H. Nakai, T. Vreven, J. A. Montgomery, Jr., 
 J. E. Peralta, F. Ogliaro, M. Bearpark, J. J. Heyd, E. Brothers, 
 K. N. Kudin, V. N. Staroverov, T. Keith, R. Kobayashi, J. Normand, 
 K. Raghavachari, A. Rendell, J. C. Burant, S. S. Iyengar, J. Tomasi, 
 M. Cossi, N. Rega, J. M. Millam, M. Klene, J. E. Knox, J. B. Cross, 
 V. Bakken, C. Adamo, J. Jaramillo, R. Gomperts, R. E. Stratmann, 
 O. Yazyev, A. J. Austin, R. Cammi, C. Pomelli, J. W. Ochterski, 
 R. L. Martin, K. Morokuma, V. G. Zakrzewski, G. A. Voth, 
 P. Salvador, J. J. Dannenberg, S. Dapprich, A. D. Daniels, 
 O. Farkas, J. B. Foresman, J. V. Ortiz, J. Cioslowski, 
 and D. J. Fox, Gaussian, Inc., Wallingford CT, 2013.
 
 ******************************************
 Gaussian 09:  EM64L-G09RevD.01 24-Apr-2013
                28-Apr-2017 
 ******************************************
 %Mem=256MB
 %NProc=12
 Will use up to   12 processors via shared memory.
 ----------------------------------------------------------------------
 #P HF/6-31G* SCF(Conver=6) NoSymm Test Pop=chelpg IOp(6/33=2) GFInput 
 GFPrint
 ----------------------------------------------------------------------
 1/38=1/1;
 2/12=2,15=1,17=6,18=5,40=1/2;
 3/5=1,6=6,7=1,11=9,16=1,24=110,25=1,30=1/1,2,3;
 4//1;
 5/5=2,6=6,38=5/2;
 6/7=2,8=2,9=2,10=2,15=8,20=3,28=1,33=2/1,2;
 99/5=1,9=1/99;
 Leave Link    1 at Fri Apr 28 13:17:31 2017, MaxMem=    33554432 cpu:         0.6
 (Enter /home/michal/g09/l101.exe)
 ----------------------------------------------
 MEP - Input generated by R.E.D.-III.x MOLECULE
 ----------------------------------------------
 Symbolic Z-matrix:
 Charge =  0 Multiplicity = 1
 C                    -0.96303   2.00355   1.68785 
 H                    -0.97989   1.02417   2.1816 
 C                     0.38928   2.67821   1.96794 
 H                     0.54248   2.76203   3.04836 
 H                     0.33752   3.70639   1.5764 
 C                     1.54955   1.93746   1.32893 
 C                     1.42708   1.62595  -0.16799 
 C                     0.01479   1.014    -0.42226 
 H                     0.        0.        0. 
 H                    -0.14353   0.90367  -1.5005 
 C                    -1.15298   1.80769   0.18372 
 H                    -1.24047   2.79266  -0.29826 
 H                    -2.09784   1.28383   0. 
 C                     2.61288   1.59289   2.07165 
 H                     2.62395   1.84793   3.12975 
 C                     3.8181    0.86256   1.55339 
 H                     4.73313   1.29473   1.97779 
 C                     3.90253   0.87325   0.01628 
 H                     4.20989   1.89584  -0.24461 
 C                     2.5122    0.58023  -0.60664 
 H                     2.19364  -0.38373  -0.18344 
 C                     2.59625   0.39257  -2.14015 
 H                     2.75279   1.36063  -2.62684 
 H                     1.63605   0.01993  -2.51527 
 C                     3.70971  -0.56762  -2.60659 
 H                     3.48903  -1.58635  -2.25735 
 H                     3.69501  -0.60361  -3.70038 
 C                     5.09161  -0.14974  -2.06208 
 C                     4.95392  -0.1135   -0.514 
 H                     4.60431  -1.11629  -0.23239 
 C                     6.39494   0.        0. 
 H                     6.49532  -0.37309   1.023 
 H                     6.72871   1.0456    0.00376 
 C                     7.21063  -0.84107  -1.0196 
 H                     8.07334  -0.27545  -1.39162 
 H                     7.61259  -1.74502  -0.55292 
 C                     6.24683  -1.20275  -2.20166 
 H                     5.7928   -2.18187  -1.98104 
 C                     5.53156   1.20803  -2.65557 
 H                     4.85104   2.02132  -2.39027 
 H                     6.52937   1.49862  -2.31326 
 H                     5.56412   1.16059  -3.74915 
 C                     6.99443  -1.35201  -3.55293 
 H                     7.50268  -0.39871  -3.75542 
 C                     6.05978  -1.65194  -4.73715 
 H                     5.47291  -2.56127  -4.55516 
 H                     6.62602  -1.8045   -5.661 
 H                     5.35954  -0.83542  -4.92599 
 C                     1.56661   2.95893  -0.95343 
 H                     1.29151   2.83205  -2.00466 
 H                     0.91978   3.73875  -0.54446 
 H                     2.59242   3.33804  -0.91135 
 O                     3.79623  -0.5337    1.95991 
 O                     3.97383  -0.5752    3.40369 
 H                     3.08365  -0.8373    3.69143 
 O                    -2.04586   2.71667   2.29074 
 H                    -2.10787   3.59099   1.881 
 C                     8.07983  -2.45234  -3.42873 
 H                     8.71542  -2.23323  -2.56296 
 H                     7.57578  -3.40358  -3.20127 
 C                     9.005    -2.67021  -4.64239 
 H                     9.66255  -3.51438  -4.40068 
 H                     8.4235   -2.98936  -5.51743 
 C                     9.85831  -1.4503   -5.02149 
 H                     10.43678  -1.12372  -4.14313 
 H                     9.19657  -0.61207  -5.27644 
 C                     10.82798  -1.66949  -6.20196 
 H                     10.23992  -2.06167  -7.04632 
 C                     11.44841  -0.33463  -6.64475 
 H                     12.04309   0.10708  -5.83476 
 H                     12.1117  -0.46982  -7.50673 
 H                     10.67698   0.39174  -6.92523 
 C                     11.93104  -2.69134  -5.88117 
 H                     12.53641  -2.35369  -5.0298 
 H                     12.60472  -2.8205   -6.73595 
 H                     11.52434  -3.67642  -5.6321 
 
 NAtoms=     76 NQM=       76 NQMF=       0 NMMI=      0 NMMIF=      0
                NMic=       0 NMicF=      0.
                    Isotopes and Nuclear Properties:
 (Nuclear quadrupole moments (NQMom) in fm**2, nuclear magnetic moments (NMagM)
  in nuclear magnetons)

  Atom         1           2           3           4           5           6           7           8           9          10
 IAtWgt=          12           1          12           1           1          12          12          12           1           1
 AtmWgt=  12.0000000   1.0078250  12.0000000   1.0078250   1.0078250  12.0000000  12.0000000  12.0000000   1.0078250   1.0078250
 NucSpn=           0           1           0           1           1           0           0           0           1           1
 AtZEff=   0.0000000   0.0000000   0.0000000   0.0000000   0.0000000   0.0000000   0.0000000   0.0000000   0.0000000   0.0000000
 NQMom=    0.0000000   0.0000000   0.0000000   0.0000000   0.0000000   0.0000000   0.0000000   0.0000000   0.0000000   0.0000000
 NMagM=    0.0000000   2.7928460   0.0000000   2.7928460   2.7928460   0.0000000   0.0000000   0.0000000   2.7928460   2.7928460
 AtZNuc=   6.0000000   1.0000000   6.0000000   1.0000000   1.0000000   6.0000000   6.0000000   6.0000000   1.0000000   1.0000000

  Atom        11          12          13          14          15          16          17          18          19          20
 IAtWgt=          12           1           1          12           1          12           1          12           1          12
 AtmWgt=  12.0000000   1.0078250   1.0078250  12.0000000   1.0078250  12.0000000   1.0078250  12.0000000   1.0078250  12.0000000
 NucSpn=           0           1           1           0           1           0           1           0           1           0
 AtZEff=   0.0000000   0.0000000   0.0000000   0.0000000   0.0000000   0.0000000   0.0000000   0.0000000   0.0000000   0.0000000
 NQMom=    0.0000000   0.0000000   0.0000000   0.0000000   0.0000000   0.0000000   0.0000000   0.0000000   0.0000000   0.0000000
 NMagM=    0.0000000   2.7928460   2.7928460   0.0000000   2.7928460   0.0000000   2.7928460   0.0000000   2.7928460   0.0000000
 AtZNuc=   6.0000000   1.0000000   1.0000000   6.0000000   1.0000000   6.0000000   1.0000000   6.0000000   1.0000000   6.0000000

  Atom        21          22          23          24          25          26          27          28          29          30
 IAtWgt=           1          12           1           1          12           1           1          12          12           1
 AtmWgt=   1.0078250  12.0000000   1.0078250   1.0078250  12.0000000   1.0078250   1.0078250  12.0000000  12.0000000   1.0078250
 NucSpn=           1           0           1           1           0           1           1           0           0           1
 AtZEff=   0.0000000   0.0000000   0.0000000   0.0000000   0.0000000   0.0000000   0.0000000   0.0000000   0.0000000   0.0000000
 NQMom=    0.0000000   0.0000000   0.0000000   0.0000000   0.0000000   0.0000000   0.0000000   0.0000000   0.0000000   0.0000000
 NMagM=    2.7928460   0.0000000   2.7928460   2.7928460   0.0000000   2.7928460   2.7928460   0.0000000   0.0000000   2.7928460
 AtZNuc=   1.0000000   6.0000000   1.0000000   1.0000000   6.0000000   1.0000000   1.0000000   6.0000000   6.0000000   1.0000000

  Atom        31          32          33          34          35          36          37          38          39          40
 IAtWgt=          12           1           1          12           1           1          12           1          12           1
 AtmWgt=  12.0000000   1.0078250   1.0078250  12.0000000   1.0078250   1.0078250  12.0000000   1.0078250  12.0000000   1.0078250
 NucSpn=           0           1           1           0           1           1           0           1           0           1
 AtZEff=   0.0000000   0.0000000   0.0000000   0.0000000   0.0000000   0.0000000   0.0000000   0.0000000   0.0000000   0.0000000
 NQMom=    0.0000000   0.0000000   0.0000000   0.0000000   0.0000000   0.0000000   0.0000000   0.0000000   0.0000000   0.0000000
 NMagM=    0.0000000   2.7928460   2.7928460   0.0000000   2.7928460   2.7928460   0.0000000   2.7928460   0.0000000   2.7928460
 AtZNuc=   6.0000000   1.0000000   1.0000000   6.0000000   1.0000000   1.0000000   6.0000000   1.0000000   6.0000000   1.0000000

  Atom        41          42          43          44          45          46          47          48          49          50
 IAtWgt=           1           1          12           1          12           1           1           1          12           1
 AtmWgt=   1.0078250   1.0078250  12.0000000   1.0078250  12.0000000   1.0078250   1.0078250   1.0078250  12.0000000   1.0078250
 NucSpn=           1           1           0           1           0           1           1           1           0           1
 AtZEff=   0.0000000   0.0000000   0.0000000   0.0000000   0.0000000   0.0000000   0.0000000   0.0000000   0.0000000   0.0000000
 NQMom=    0.0000000   0.0000000   0.0000000   0.0000000   0.0000000   0.0000000   0.0000000   0.0000000   0.0000000   0.0000000
 NMagM=    2.7928460   2.7928460   0.0000000   2.7928460   0.0000000   2.7928460   2.7928460   2.7928460   0.0000000   2.7928460
 AtZNuc=   1.0000000   1.0000000   6.0000000   1.0000000   6.0000000   1.0000000   1.0000000   1.0000000   6.0000000   1.0000000

  Atom        51          52          53          54          55          56          57          58          59          60
 IAtWgt=           1           1          16          16           1          16           1          12           1           1
 AtmWgt=   1.0078250   1.0078250  15.9949146  15.9949146   1.0078250  15.9949146   1.0078250  12.0000000   1.0078250   1.0078250
 NucSpn=           1           1           0           0           1           0           1           0           1           1
 AtZEff=   0.0000000   0.0000000   0.0000000   0.0000000   0.0000000   0.0000000   0.0000000   0.0000000   0.0000000   0.0000000
 NQMom=    0.0000000   0.0000000   0.0000000   0.0000000   0.0000000   0.0000000   0.0000000   0.0000000   0.0000000   0.0000000
 NMagM=    2.7928460   2.7928460   0.0000000   0.0000000   2.7928460   0.0000000   2.7928460   0.0000000   2.7928460   2.7928460
 AtZNuc=   1.0000000   1.0000000   8.0000000   8.0000000   1.0000000   8.0000000   1.0000000   6.0000000   1.0000000   1.0000000

  Atom        61          62          63          64          65          66          67          68          69          70
 IAtWgt=          12           1           1          12           1           1          12           1          12           1
 AtmWgt=  12.0000000   1.0078250   1.0078250  12.0000000   1.0078250   1.0078250  12.0000000   1.0078250  12.0000000   1.0078250
 NucSpn=           0           1           1           0           1           1           0           1           0           1
 AtZEff=   0.0000000   0.0000000   0.0000000   0.0000000   0.0000000   0.0000000   0.0000000   0.0000000   0.0000000   0.0000000
 NQMom=    0.0000000   0.0000000   0.0000000   0.0000000   0.0000000   0.0000000   0.0000000   0.0000000   0.0000000   0.0000000
 NMagM=    0.0000000   2.7928460   2.7928460   0.0000000   2.7928460   2.7928460   0.0000000   2.7928460   0.0000000   2.7928460
 AtZNuc=   6.0000000   1.0000000   1.0000000   6.0000000   1.0000000   1.0000000   6.0000000   1.0000000   6.0000000   1.0000000

  Atom        71          72          73          74          75          76
 IAtWgt=           1           1          12           1           1           1
 AtmWgt=   1.0078250   1.0078250  12.0000000   1.0078250   1.0078250   1.0078250
 NucSpn=           1           1           0           1           1           1
 AtZEff=   0.0000000   0.0000000   0.0000000   0.0000000   0.0000000   0.0000000
 NQMom=    0.0000000   0.0000000   0.0000000   0.0000000   0.0000000   0.0000000
 NMagM=    2.7928460   2.7928460   0.0000000   2.7928460   2.7928460   2.7928460
 AtZNuc=   1.0000000   1.0000000   6.0000000   1.0000000   1.0000000   1.0000000
 Leave Link  101 at Fri Apr 28 13:17:31 2017, MaxMem=    33554432 cpu:         1.0
 (Enter /home/michal/g09/l202.exe)
 Symmetry turned off by external request.
 Stoichiometry    C27H46O3
 Framework group  C1[X(C27H46O3)]
 Deg. of freedom   222
 Full point group                 C1      NOp   1
                          Input orientation:                          
 ---------------------------------------------------------------------
 Center     Atomic      Atomic             Coordinates (Angstroms)
 Number     Number       Type             X           Y           Z
 ---------------------------------------------------------------------
      1          6           0       -0.963035    2.003546    1.687851
      2          1           0       -0.979892    1.024172    2.181597
      3          6           0        0.389284    2.678210    1.967940
      4          1           0        0.542481    2.762034    3.048363
      5          1           0        0.337519    3.706390    1.576396
      6          6           0        1.549550    1.937459    1.328927
      7          6           0        1.427079    1.625949   -0.167991
      8          6           0        0.014791    1.014001   -0.422261
      9          1           0        0.000000    0.000000    0.000000
     10          1           0       -0.143528    0.903667   -1.500496
     11          6           0       -1.152975    1.807690    0.183716
     12          1           0       -1.240470    2.792656   -0.298260
     13          1           0       -2.097843    1.283828    0.000000
     14          6           0        2.612877    1.592888    2.071653
     15          1           0        2.623951    1.847933    3.129750
     16          6           0        3.818097    0.862558    1.553387
     17          1           0        4.733133    1.294728    1.977793
     18          6           0        3.902531    0.873253    0.016278
     19          1           0        4.209888    1.895842   -0.244612
     20          6           0        2.512205    0.580234   -0.606641
     21          1           0        2.193640   -0.383727   -0.183438
     22          6           0        2.596250    0.392571   -2.140155
     23          1           0        2.752794    1.360632   -2.626844
     24          1           0        1.636051    0.019927   -2.515271
     25          6           0        3.709713   -0.567624   -2.606587
     26          1           0        3.489031   -1.586355   -2.257352
     27          1           0        3.695009   -0.603609   -3.700384
     28          6           0        5.091612   -0.149737   -2.062083
     29          6           0        4.953920   -0.113496   -0.513998
     30          1           0        4.604309   -1.116288   -0.232390
     31          6           0        6.394942    0.000000    0.000000
     32          1           0        6.495324   -0.373088    1.023000
     33          1           0        6.728713    1.045597    0.003759
     34          6           0        7.210626   -0.841072   -1.019603
     35          1           0        8.073341   -0.275446   -1.391620
     36          1           0        7.612594   -1.745018   -0.552922
     37          6           0        6.246826   -1.202748   -2.201662
     38          1           0        5.792802   -2.181867   -1.981039
     39          6           0        5.531556    1.208030   -2.655570
     40          1           0        4.851042    2.021321   -2.390273
     41          1           0        6.529375    1.498623   -2.313260
     42          1           0        5.564117    1.160586   -3.749154
     43          6           0        6.994426   -1.352014   -3.552927
     44          1           0        7.502679   -0.398713   -3.755423
     45          6           0        6.059781   -1.651940   -4.737149
     46          1           0        5.472910   -2.561272   -4.555164
     47          1           0        6.626021   -1.804497   -5.661003
     48          1           0        5.359543   -0.835421   -4.925985
     49          6           0        1.566615    2.958929   -0.953431
     50          1           0        1.291507    2.832047   -2.004662
     51          1           0        0.919784    3.738748   -0.544464
     52          1           0        2.592424    3.338038   -0.911347
     53          8           0        3.796228   -0.533695    1.959912
     54          8           0        3.973833   -0.575202    3.403688
     55          1           0        3.083647   -0.837301    3.691432
     56          8           0       -2.045863    2.716675    2.290740
     57          1           0       -2.107869    3.590991    1.880998
     58          6           0        8.079827   -2.452337   -3.428732
     59          1           0        8.715421   -2.233228   -2.562960
     60          1           0        7.575782   -3.403576   -3.201274
     61          6           0        9.005004   -2.670212   -4.642387
     62          1           0        9.662552   -3.514380   -4.400679
     63          1           0        8.423504   -2.989362   -5.517434
     64          6           0        9.858310   -1.450303   -5.021493
     65          1           0       10.436784   -1.123722   -4.143128
     66          1           0        9.196568   -0.612070   -5.276436
     67          6           0       10.827978   -1.669487   -6.201957
     68          1           0       10.239923   -2.061667   -7.046324
     69          6           0       11.448411   -0.334633   -6.644752
     70          1           0       12.043094    0.107081   -5.834763
     71          1           0       12.111704   -0.469817   -7.506731
     72          1           0       10.676977    0.391735   -6.925225
     73          6           0       11.931039   -2.691340   -5.881171
     74          1           0       12.536406   -2.353687   -5.029796
     75          1           0       12.604719   -2.820502   -6.735946
     76          1           0       11.524337   -3.676420   -5.632101
 ---------------------------------------------------------------------
 Rotational constants (GHZ):      0.4018496      0.0532919      0.0501067
 Leave Link  202 at Fri Apr 28 13:17:31 2017, MaxMem=    33554432 cpu:         0.0
 (Enter /home/michal/g09/l301.exe)
 Standard basis: 6-31G(d) (6D, 7F)
 Ernie: Thresh=  0.10000D-02 Tol=  0.10000D-05 Strict=F.
 AO basis set in the form of general basis input (Overlap normalization):
      1 0
 S   6 1.00       0.000000000000
      0.3047524880D+04  0.1834737132D-02
      0.4573695180D+03  0.1403732281D-01
      0.1039486850D+03  0.6884262226D-01
      0.2921015530D+02  0.2321844432D+00
      0.9286662960D+01  0.4679413484D+00
      0.3163926960D+01  0.3623119853D+00
 SP   3 1.00       0.000000000000
      0.7868272350D+01 -0.1193324198D+00  0.6899906659D-01
      0.1881288540D+01 -0.1608541517D+00  0.3164239610D+00
      0.5442492580D+00  0.1143456438D+01  0.7443082909D+00
 SP   1 1.00       0.000000000000
      0.1687144782D+00  0.1000000000D+01  0.1000000000D+01
 D   1 1.00       0.000000000000
      0.8000000000D+00  0.1000000000D+01
 ****
      2 0
 S   3 1.00       0.000000000000
      0.1873113696D+02  0.3349460434D-01
      0.2825394365D+01  0.2347269535D+00
      0.6401216923D+00  0.8137573261D+00
 S   1 1.00       0.000000000000
      0.1612777588D+00  0.1000000000D+01
 ****
      3 0
 S   6 1.00       0.000000000000
      0.3047524880D+04  0.1834737132D-02
      0.4573695180D+03  0.1403732281D-01
      0.1039486850D+03  0.6884262226D-01
      0.2921015530D+02  0.2321844432D+00
      0.9286662960D+01  0.4679413484D+00
      0.3163926960D+01  0.3623119853D+00
 SP   3 1.00       0.000000000000
      0.7868272350D+01 -0.1193324198D+00  0.6899906659D-01
      0.1881288540D+01 -0.1608541517D+00  0.3164239610D+00
      0.5442492580D+00  0.1143456438D+01  0.7443082909D+00
 SP   1 1.00       0.000000000000
      0.1687144782D+00  0.1000000000D+01  0.1000000000D+01
 D   1 1.00       0.000000000000
      0.8000000000D+00  0.1000000000D+01
 ****
      4 0
 S   3 1.00       0.000000000000
      0.1873113696D+02  0.3349460434D-01
      0.2825394365D+01  0.2347269535D+00
      0.6401216923D+00  0.8137573261D+00
 S   1 1.00       0.000000000000
      0.1612777588D+00  0.1000000000D+01
 ****
      5 0
 S   3 1.00       0.000000000000
      0.1873113696D+02  0.3349460434D-01
      0.2825394365D+01  0.2347269535D+00
      0.6401216923D+00  0.8137573261D+00
 S   1 1.00       0.000000000000
      0.1612777588D+00  0.1000000000D+01
 ****
      6 0
 S   6 1.00       0.000000000000
      0.3047524880D+04  0.1834737132D-02
      0.4573695180D+03  0.1403732281D-01
      0.1039486850D+03  0.6884262226D-01
      0.2921015530D+02  0.2321844432D+00
      0.9286662960D+01  0.4679413484D+00
      0.3163926960D+01  0.3623119853D+00
 SP   3 1.00       0.000000000000
      0.7868272350D+01 -0.1193324198D+00  0.6899906659D-01
      0.1881288540D+01 -0.1608541517D+00  0.3164239610D+00
      0.5442492580D+00  0.1143456438D+01  0.7443082909D+00
 SP   1 1.00       0.000000000000
      0.1687144782D+00  0.1000000000D+01  0.1000000000D+01
 D   1 1.00       0.000000000000
      0.8000000000D+00  0.1000000000D+01
 ****
      7 0
 S   6 1.00       0.000000000000
      0.3047524880D+04  0.1834737132D-02
      0.4573695180D+03  0.1403732281D-01
      0.1039486850D+03  0.6884262226D-01
      0.2921015530D+02  0.2321844432D+00
      0.9286662960D+01  0.4679413484D+00
      0.3163926960D+01  0.3623119853D+00
 SP   3 1.00       0.000000000000
      0.7868272350D+01 -0.1193324198D+00  0.6899906659D-01
      0.1881288540D+01 -0.1608541517D+00  0.3164239610D+00
      0.5442492580D+00  0.1143456438D+01  0.7443082909D+00
 SP   1 1.00       0.000000000000
      0.1687144782D+00  0.1000000000D+01  0.1000000000D+01
 D   1 1.00       0.000000000000
      0.8000000000D+00  0.1000000000D+01
 ****
      8 0
 S   6 1.00       0.000000000000
      0.3047524880D+04  0.1834737132D-02
      0.4573695180D+03  0.1403732281D-01
      0.1039486850D+03  0.6884262226D-01
      0.2921015530D+02  0.2321844432D+00
      0.9286662960D+01  0.4679413484D+00
      0.3163926960D+01  0.3623119853D+00
 SP   3 1.00       0.000000000000
      0.7868272350D+01 -0.1193324198D+00  0.6899906659D-01
      0.1881288540D+01 -0.1608541517D+00  0.3164239610D+00
      0.5442492580D+00  0.1143456438D+01  0.7443082909D+00
 SP   1 1.00       0.000000000000
      0.1687144782D+00  0.1000000000D+01  0.1000000000D+01
 D   1 1.00       0.000000000000
      0.8000000000D+00  0.1000000000D+01
 ****
      9 0
 S   3 1.00       0.000000000000
      0.1873113696D+02  0.3349460434D-01
      0.2825394365D+01  0.2347269535D+00
      0.6401216923D+00  0.8137573261D+00
 S   1 1.00       0.000000000000
      0.1612777588D+00  0.1000000000D+01
 ****
     10 0
 S   3 1.00       0.000000000000
      0.1873113696D+02  0.3349460434D-01
      0.2825394365D+01  0.2347269535D+00
      0.6401216923D+00  0.8137573261D+00
 S   1 1.00       0.000000000000
      0.1612777588D+00  0.1000000000D+01
 ****
     11 0
 S   6 1.00       0.000000000000
      0.3047524880D+04  0.1834737132D-02
      0.4573695180D+03  0.1403732281D-01
      0.1039486850D+03  0.6884262226D-01
      0.2921015530D+02  0.2321844432D+00
      0.9286662960D+01  0.4679413484D+00
      0.3163926960D+01  0.3623119853D+00
 SP   3 1.00       0.000000000000
      0.7868272350D+01 -0.1193324198D+00  0.6899906659D-01
      0.1881288540D+01 -0.1608541517D+00  0.3164239610D+00
      0.5442492580D+00  0.1143456438D+01  0.7443082909D+00
 SP   1 1.00       0.000000000000
      0.1687144782D+00  0.1000000000D+01  0.1000000000D+01
 D   1 1.00       0.000000000000
      0.8000000000D+00  0.1000000000D+01
 ****
     12 0
 S   3 1.00       0.000000000000
      0.1873113696D+02  0.3349460434D-01
      0.2825394365D+01  0.2347269535D+00
      0.6401216923D+00  0.8137573261D+00
 S   1 1.00       0.000000000000
      0.1612777588D+00  0.1000000000D+01
 ****
     13 0
 S   3 1.00       0.000000000000
      0.1873113696D+02  0.3349460434D-01
      0.2825394365D+01  0.2347269535D+00
      0.6401216923D+00  0.8137573261D+00
 S   1 1.00       0.000000000000
      0.1612777588D+00  0.1000000000D+01
 ****
     14 0
 S   6 1.00       0.000000000000
      0.3047524880D+04  0.1834737132D-02
      0.4573695180D+03  0.1403732281D-01
      0.1039486850D+03  0.6884262226D-01
      0.2921015530D+02  0.2321844432D+00
      0.9286662960D+01  0.4679413484D+00
      0.3163926960D+01  0.3623119853D+00
 SP   3 1.00       0.000000000000
      0.7868272350D+01 -0.1193324198D+00  0.6899906659D-01
      0.1881288540D+01 -0.1608541517D+00  0.3164239610D+00
      0.5442492580D+00  0.1143456438D+01  0.7443082909D+00
 SP   1 1.00       0.000000000000
      0.1687144782D+00  0.1000000000D+01  0.1000000000D+01
 D   1 1.00       0.000000000000
      0.8000000000D+00  0.1000000000D+01
 ****
     15 0
 S   3 1.00       0.000000000000
      0.1873113696D+02  0.3349460434D-01
      0.2825394365D+01  0.2347269535D+00
      0.6401216923D+00  0.8137573261D+00
 S   1 1.00       0.000000000000
      0.1612777588D+00  0.1000000000D+01
 ****
     16 0
 S   6 1.00       0.000000000000
      0.3047524880D+04  0.1834737132D-02
      0.4573695180D+03  0.1403732281D-01
      0.1039486850D+03  0.6884262226D-01
      0.2921015530D+02  0.2321844432D+00
      0.9286662960D+01  0.4679413484D+00
      0.3163926960D+01  0.3623119853D+00
 SP   3 1.00       0.000000000000
      0.7868272350D+01 -0.1193324198D+00  0.6899906659D-01
      0.1881288540D+01 -0.1608541517D+00  0.3164239610D+00
      0.5442492580D+00  0.1143456438D+01  0.7443082909D+00
 SP   1 1.00       0.000000000000
      0.1687144782D+00  0.1000000000D+01  0.1000000000D+01
 D   1 1.00       0.000000000000
      0.8000000000D+00  0.1000000000D+01
 ****
     17 0
 S   3 1.00       0.000000000000
      0.1873113696D+02  0.3349460434D-01
      0.2825394365D+01  0.2347269535D+00
      0.6401216923D+00  0.8137573261D+00
 S   1 1.00       0.000000000000
      0.1612777588D+00  0.1000000000D+01
 ****
     18 0
 S   6 1.00       0.000000000000
      0.3047524880D+04  0.1834737132D-02
      0.4573695180D+03  0.1403732281D-01
      0.1039486850D+03  0.6884262226D-01
      0.2921015530D+02  0.2321844432D+00
      0.9286662960D+01  0.4679413484D+00
      0.3163926960D+01  0.3623119853D+00
 SP   3 1.00       0.000000000000
      0.7868272350D+01 -0.1193324198D+00  0.6899906659D-01
      0.1881288540D+01 -0.1608541517D+00  0.3164239610D+00
      0.5442492580D+00  0.1143456438D+01  0.7443082909D+00
 SP   1 1.00       0.000000000000
      0.1687144782D+00  0.1000000000D+01  0.1000000000D+01
 D   1 1.00       0.000000000000
      0.8000000000D+00  0.1000000000D+01
 ****
     19 0
 S   3 1.00       0.000000000000
      0.1873113696D+02  0.3349460434D-01
      0.2825394365D+01  0.2347269535D+00
      0.6401216923D+00  0.8137573261D+00
 S   1 1.00       0.000000000000
      0.1612777588D+00  0.1000000000D+01
 ****
     20 0
 S   6 1.00       0.000000000000
      0.3047524880D+04  0.1834737132D-02
      0.4573695180D+03  0.1403732281D-01
      0.1039486850D+03  0.6884262226D-01
      0.2921015530D+02  0.2321844432D+00
      0.9286662960D+01  0.4679413484D+00
      0.3163926960D+01  0.3623119853D+00
 SP   3 1.00       0.000000000000
      0.7868272350D+01 -0.1193324198D+00  0.6899906659D-01
      0.1881288540D+01 -0.1608541517D+00  0.3164239610D+00
      0.5442492580D+00  0.1143456438D+01  0.7443082909D+00
 SP   1 1.00       0.000000000000
      0.1687144782D+00  0.1000000000D+01  0.1000000000D+01
 D   1 1.00       0.000000000000
      0.8000000000D+00  0.1000000000D+01
 ****
     21 0
 S   3 1.00       0.000000000000
      0.1873113696D+02  0.3349460434D-01
      0.2825394365D+01  0.2347269535D+00
      0.6401216923D+00  0.8137573261D+00
 S   1 1.00       0.000000000000
      0.1612777588D+00  0.1000000000D+01
 ****
     22 0
 S   6 1.00       0.000000000000
      0.3047524880D+04  0.1834737132D-02
      0.4573695180D+03  0.1403732281D-01
      0.1039486850D+03  0.6884262226D-01
      0.2921015530D+02  0.2321844432D+00
      0.9286662960D+01  0.4679413484D+00
      0.3163926960D+01  0.3623119853D+00
 SP   3 1.00       0.000000000000
      0.7868272350D+01 -0.1193324198D+00  0.6899906659D-01
      0.1881288540D+01 -0.1608541517D+00  0.3164239610D+00
      0.5442492580D+00  0.1143456438D+01  0.7443082909D+00
 SP   1 1.00       0.000000000000
      0.1687144782D+00  0.1000000000D+01  0.1000000000D+01
 D   1 1.00       0.000000000000
      0.8000000000D+00  0.1000000000D+01
 ****
     23 0
 S   3 1.00       0.000000000000
      0.1873113696D+02  0.3349460434D-01
      0.2825394365D+01  0.2347269535D+00
      0.6401216923D+00  0.8137573261D+00
 S   1 1.00       0.000000000000
      0.1612777588D+00  0.1000000000D+01
 ****
     24 0
 S   3 1.00       0.000000000000
      0.1873113696D+02  0.3349460434D-01
      0.2825394365D+01  0.2347269535D+00
      0.6401216923D+00  0.8137573261D+00
 S   1 1.00       0.000000000000
      0.1612777588D+00  0.1000000000D+01
 ****
     25 0
 S   6 1.00       0.000000000000
      0.3047524880D+04  0.1834737132D-02
      0.4573695180D+03  0.1403732281D-01
      0.1039486850D+03  0.6884262226D-01
      0.2921015530D+02  0.2321844432D+00
      0.9286662960D+01  0.4679413484D+00
      0.3163926960D+01  0.3623119853D+00
 SP   3 1.00       0.000000000000
      0.7868272350D+01 -0.1193324198D+00  0.6899906659D-01
      0.1881288540D+01 -0.1608541517D+00  0.3164239610D+00
      0.5442492580D+00  0.1143456438D+01  0.7443082909D+00
 SP   1 1.00       0.000000000000
      0.1687144782D+00  0.1000000000D+01  0.1000000000D+01
 D   1 1.00       0.000000000000
      0.8000000000D+00  0.1000000000D+01
 ****
     26 0
 S   3 1.00       0.000000000000
      0.1873113696D+02  0.3349460434D-01
      0.2825394365D+01  0.2347269535D+00
      0.6401216923D+00  0.8137573261D+00
 S   1 1.00       0.000000000000
      0.1612777588D+00  0.1000000000D+01
 ****
     27 0
 S   3 1.00       0.000000000000
      0.1873113696D+02  0.3349460434D-01
      0.2825394365D+01  0.2347269535D+00
      0.6401216923D+00  0.8137573261D+00
 S   1 1.00       0.000000000000
      0.1612777588D+00  0.1000000000D+01
 ****
     28 0
 S   6 1.00       0.000000000000
      0.3047524880D+04  0.1834737132D-02
      0.4573695180D+03  0.1403732281D-01
      0.1039486850D+03  0.6884262226D-01
      0.2921015530D+02  0.2321844432D+00
      0.9286662960D+01  0.4679413484D+00
      0.3163926960D+01  0.3623119853D+00
 SP   3 1.00       0.000000000000
      0.7868272350D+01 -0.1193324198D+00  0.6899906659D-01
      0.1881288540D+01 -0.1608541517D+00  0.3164239610D+00
      0.5442492580D+00  0.1143456438D+01  0.7443082909D+00
 SP   1 1.00       0.000000000000
      0.1687144782D+00  0.1000000000D+01  0.1000000000D+01
 D   1 1.00       0.000000000000
      0.8000000000D+00  0.1000000000D+01
 ****
     29 0
 S   6 1.00       0.000000000000
      0.3047524880D+04  0.1834737132D-02
      0.4573695180D+03  0.1403732281D-01
      0.1039486850D+03  0.6884262226D-01
      0.2921015530D+02  0.2321844432D+00
      0.9286662960D+01  0.4679413484D+00
      0.3163926960D+01  0.3623119853D+00
 SP   3 1.00       0.000000000000
      0.7868272350D+01 -0.1193324198D+00  0.6899906659D-01
      0.1881288540D+01 -0.1608541517D+00  0.3164239610D+00
      0.5442492580D+00  0.1143456438D+01  0.7443082909D+00
 SP   1 1.00       0.000000000000
      0.1687144782D+00  0.1000000000D+01  0.1000000000D+01
 D   1 1.00       0.000000000000
      0.8000000000D+00  0.1000000000D+01
 ****
     30 0
 S   3 1.00       0.000000000000
      0.1873113696D+02  0.3349460434D-01
      0.2825394365D+01  0.2347269535D+00
      0.6401216923D+00  0.8137573261D+00
 S   1 1.00       0.000000000000
      0.1612777588D+00  0.1000000000D+01
 ****
     31 0
 S   6 1.00       0.000000000000
      0.3047524880D+04  0.1834737132D-02
      0.4573695180D+03  0.1403732281D-01
      0.1039486850D+03  0.6884262226D-01
      0.2921015530D+02  0.2321844432D+00
      0.9286662960D+01  0.4679413484D+00
      0.3163926960D+01  0.3623119853D+00
 SP   3 1.00       0.000000000000
      0.7868272350D+01 -0.1193324198D+00  0.6899906659D-01
      0.1881288540D+01 -0.1608541517D+00  0.3164239610D+00
      0.5442492580D+00  0.1143456438D+01  0.7443082909D+00
 SP   1 1.00       0.000000000000
      0.1687144782D+00  0.1000000000D+01  0.1000000000D+01
 D   1 1.00       0.000000000000
      0.8000000000D+00  0.1000000000D+01
 ****
     32 0
 S   3 1.00       0.000000000000
      0.1873113696D+02  0.3349460434D-01
      0.2825394365D+01  0.2347269535D+00
      0.6401216923D+00  0.8137573261D+00
 S   1 1.00       0.000000000000
      0.1612777588D+00  0.1000000000D+01
 ****
     33 0
 S   3 1.00       0.000000000000
      0.1873113696D+02  0.3349460434D-01
      0.2825394365D+01  0.2347269535D+00
      0.6401216923D+00  0.8137573261D+00
 S   1 1.00       0.000000000000
      0.1612777588D+00  0.1000000000D+01
 ****
     34 0
 S   6 1.00       0.000000000000
      0.3047524880D+04  0.1834737132D-02
      0.4573695180D+03  0.1403732281D-01
      0.1039486850D+03  0.6884262226D-01
      0.2921015530D+02  0.2321844432D+00
      0.9286662960D+01  0.4679413484D+00
      0.3163926960D+01  0.3623119853D+00
 SP   3 1.00       0.000000000000
      0.7868272350D+01 -0.1193324198D+00  0.6899906659D-01
      0.1881288540D+01 -0.1608541517D+00  0.3164239610D+00
      0.5442492580D+00  0.1143456438D+01  0.7443082909D+00
 SP   1 1.00       0.000000000000
      0.1687144782D+00  0.1000000000D+01  0.1000000000D+01
 D   1 1.00       0.000000000000
      0.8000000000D+00  0.1000000000D+01
 ****
     35 0
 S   3 1.00       0.000000000000
      0.1873113696D+02  0.3349460434D-01
      0.2825394365D+01  0.2347269535D+00
      0.6401216923D+00  0.8137573261D+00
 S   1 1.00       0.000000000000
      0.1612777588D+00  0.1000000000D+01
 ****
     36 0
 S   3 1.00       0.000000000000
      0.1873113696D+02  0.3349460434D-01
      0.2825394365D+01  0.2347269535D+00
      0.6401216923D+00  0.8137573261D+00
 S   1 1.00       0.000000000000
      0.1612777588D+00  0.1000000000D+01
 ****
     37 0
 S   6 1.00       0.000000000000
      0.3047524880D+04  0.1834737132D-02
      0.4573695180D+03  0.1403732281D-01
      0.1039486850D+03  0.6884262226D-01
      0.2921015530D+02  0.2321844432D+00
      0.9286662960D+01  0.4679413484D+00
      0.3163926960D+01  0.3623119853D+00
 SP   3 1.00       0.000000000000
      0.7868272350D+01 -0.1193324198D+00  0.6899906659D-01
      0.1881288540D+01 -0.1608541517D+00  0.3164239610D+00
      0.5442492580D+00  0.1143456438D+01  0.7443082909D+00
 SP   1 1.00       0.000000000000
      0.1687144782D+00  0.1000000000D+01  0.1000000000D+01
 D   1 1.00       0.000000000000
      0.8000000000D+00  0.1000000000D+01
 ****
     38 0
 S   3 1.00       0.000000000000
      0.1873113696D+02  0.3349460434D-01
      0.2825394365D+01  0.2347269535D+00
      0.6401216923D+00  0.8137573261D+00
 S   1 1.00       0.000000000000
      0.1612777588D+00  0.1000000000D+01
 ****
     39 0
 S   6 1.00       0.000000000000
      0.3047524880D+04  0.1834737132D-02
      0.4573695180D+03  0.1403732281D-01
      0.1039486850D+03  0.6884262226D-01
      0.2921015530D+02  0.2321844432D+00
      0.9286662960D+01  0.4679413484D+00
      0.3163926960D+01  0.3623119853D+00
 SP   3 1.00       0.000000000000
      0.7868272350D+01 -0.1193324198D+00  0.6899906659D-01
      0.1881288540D+01 -0.1608541517D+00  0.3164239610D+00
      0.5442492580D+00  0.1143456438D+01  0.7443082909D+00
 SP   1 1.00       0.000000000000
      0.1687144782D+00  0.1000000000D+01  0.1000000000D+01
 D   1 1.00       0.000000000000
      0.8000000000D+00  0.1000000000D+01
 ****
     40 0
 S   3 1.00       0.000000000000
      0.1873113696D+02  0.3349460434D-01
      0.2825394365D+01  0.2347269535D+00
      0.6401216923D+00  0.8137573261D+00
 S   1 1.00       0.000000000000
      0.1612777588D+00  0.1000000000D+01
 ****
     41 0
 S   3 1.00       0.000000000000
      0.1873113696D+02  0.3349460434D-01
      0.2825394365D+01  0.2347269535D+00
      0.6401216923D+00  0.8137573261D+00
 S   1 1.00       0.000000000000
      0.1612777588D+00  0.1000000000D+01
 ****
     42 0
 S   3 1.00       0.000000000000
      0.1873113696D+02  0.3349460434D-01
      0.2825394365D+01  0.2347269535D+00
      0.6401216923D+00  0.8137573261D+00
 S   1 1.00       0.000000000000
      0.1612777588D+00  0.1000000000D+01
 ****
     43 0
 S   6 1.00       0.000000000000
      0.3047524880D+04  0.1834737132D-02
      0.4573695180D+03  0.1403732281D-01
      0.1039486850D+03  0.6884262226D-01
      0.2921015530D+02  0.2321844432D+00
      0.9286662960D+01  0.4679413484D+00
      0.3163926960D+01  0.3623119853D+00
 SP   3 1.00       0.000000000000
      0.7868272350D+01 -0.1193324198D+00  0.6899906659D-01
      0.1881288540D+01 -0.1608541517D+00  0.3164239610D+00
      0.5442492580D+00  0.1143456438D+01  0.7443082909D+00
 SP   1 1.00       0.000000000000
      0.1687144782D+00  0.1000000000D+01  0.1000000000D+01
 D   1 1.00       0.000000000000
      0.8000000000D+00  0.1000000000D+01
 ****
     44 0
 S   3 1.00       0.000000000000
      0.1873113696D+02  0.3349460434D-01
      0.2825394365D+01  0.2347269535D+00
      0.6401216923D+00  0.8137573261D+00
 S   1 1.00       0.000000000000
      0.1612777588D+00  0.1000000000D+01
 ****
     45 0
 S   6 1.00       0.000000000000
      0.3047524880D+04  0.1834737132D-02
      0.4573695180D+03  0.1403732281D-01
      0.1039486850D+03  0.6884262226D-01
      0.2921015530D+02  0.2321844432D+00
      0.9286662960D+01  0.4679413484D+00
      0.3163926960D+01  0.3623119853D+00
 SP   3 1.00       0.000000000000
      0.7868272350D+01 -0.1193324198D+00  0.6899906659D-01
      0.1881288540D+01 -0.1608541517D+00  0.3164239610D+00
      0.5442492580D+00  0.1143456438D+01  0.7443082909D+00
 SP   1 1.00       0.000000000000
      0.1687144782D+00  0.1000000000D+01  0.1000000000D+01
 D   1 1.00       0.000000000000
      0.8000000000D+00  0.1000000000D+01
 ****
     46 0
 S   3 1.00       0.000000000000
      0.1873113696D+02  0.3349460434D-01
      0.2825394365D+01  0.2347269535D+00
      0.6401216923D+00  0.8137573261D+00
 S   1 1.00       0.000000000000
      0.1612777588D+00  0.1000000000D+01
 ****
     47 0
 S   3 1.00       0.000000000000
      0.1873113696D+02  0.3349460434D-01
      0.2825394365D+01  0.2347269535D+00
      0.6401216923D+00  0.8137573261D+00
 S   1 1.00       0.000000000000
      0.1612777588D+00  0.1000000000D+01
 ****
     48 0
 S   3 1.00       0.000000000000
      0.1873113696D+02  0.3349460434D-01
      0.2825394365D+01  0.2347269535D+00
      0.6401216923D+00  0.8137573261D+00
 S   1 1.00       0.000000000000
      0.1612777588D+00  0.1000000000D+01
 ****
     49 0
 S   6 1.00       0.000000000000
      0.3047524880D+04  0.1834737132D-02
      0.4573695180D+03  0.1403732281D-01
      0.1039486850D+03  0.6884262226D-01
      0.2921015530D+02  0.2321844432D+00
      0.9286662960D+01  0.4679413484D+00
      0.3163926960D+01  0.3623119853D+00
 SP   3 1.00       0.000000000000
      0.7868272350D+01 -0.1193324198D+00  0.6899906659D-01
      0.1881288540D+01 -0.1608541517D+00  0.3164239610D+00
      0.5442492580D+00  0.1143456438D+01  0.7443082909D+00
 SP   1 1.00       0.000000000000
      0.1687144782D+00  0.1000000000D+01  0.1000000000D+01
 D   1 1.00       0.000000000000
      0.8000000000D+00  0.1000000000D+01
 ****
     50 0
 S   3 1.00       0.000000000000
      0.1873113696D+02  0.3349460434D-01
      0.2825394365D+01  0.2347269535D+00
      0.6401216923D+00  0.8137573261D+00
 S   1 1.00       0.000000000000
      0.1612777588D+00  0.1000000000D+01
 ****
     51 0
 S   3 1.00       0.000000000000
      0.1873113696D+02  0.3349460434D-01
      0.2825394365D+01  0.2347269535D+00
      0.6401216923D+00  0.8137573261D+00
 S   1 1.00       0.000000000000
      0.1612777588D+00  0.1000000000D+01
 ****
     52 0
 S   3 1.00       0.000000000000
      0.1873113696D+02  0.3349460434D-01
      0.2825394365D+01  0.2347269535D+00
      0.6401216923D+00  0.8137573261D+00
 S   1 1.00       0.000000000000
      0.1612777588D+00  0.1000000000D+01
 ****
     53 0
 S   6 1.00       0.000000000000
      0.5484671660D+04  0.1831074430D-02
      0.8252349460D+03  0.1395017220D-01
      0.1880469580D+03  0.6844507810D-01
      0.5296450000D+02  0.2327143360D+00
      0.1689757040D+02  0.4701928980D+00
      0.5799635340D+01  0.3585208530D+00
 SP   3 1.00       0.000000000000
      0.1553961625D+02 -0.1107775495D+00  0.7087426823D-01
      0.3599933586D+01 -0.1480262627D+00  0.3397528391D+00
      0.1013761750D+01  0.1130767015D+01  0.7271585773D+00
 SP   1 1.00       0.000000000000
      0.2700058226D+00  0.1000000000D+01  0.1000000000D+01
 D   1 1.00       0.000000000000
      0.8000000000D+00  0.1000000000D+01
 ****
     54 0
 S   6 1.00       0.000000000000
      0.5484671660D+04  0.1831074430D-02
      0.8252349460D+03  0.1395017220D-01
      0.1880469580D+03  0.6844507810D-01
      0.5296450000D+02  0.2327143360D+00
      0.1689757040D+02  0.4701928980D+00
      0.5799635340D+01  0.3585208530D+00
 SP   3 1.00       0.000000000000
      0.1553961625D+02 -0.1107775495D+00  0.7087426823D-01
      0.3599933586D+01 -0.1480262627D+00  0.3397528391D+00
      0.1013761750D+01  0.1130767015D+01  0.7271585773D+00
 SP   1 1.00       0.000000000000
      0.2700058226D+00  0.1000000000D+01  0.1000000000D+01
 D   1 1.00       0.000000000000
      0.8000000000D+00  0.1000000000D+01
 ****
     55 0
 S   3 1.00       0.000000000000
      0.1873113696D+02  0.3349460434D-01
      0.2825394365D+01  0.2347269535D+00
      0.6401216923D+00  0.8137573261D+00
 S   1 1.00       0.000000000000
      0.1612777588D+00  0.1000000000D+01
 ****
     56 0
 S   6 1.00       0.000000000000
      0.5484671660D+04  0.1831074430D-02
      0.8252349460D+03  0.1395017220D-01
      0.1880469580D+03  0.6844507810D-01
      0.5296450000D+02  0.2327143360D+00
      0.1689757040D+02  0.4701928980D+00
      0.5799635340D+01  0.3585208530D+00
 SP   3 1.00       0.000000000000
      0.1553961625D+02 -0.1107775495D+00  0.7087426823D-01
      0.3599933586D+01 -0.1480262627D+00  0.3397528391D+00
      0.1013761750D+01  0.1130767015D+01  0.7271585773D+00
 SP   1 1.00       0.000000000000
      0.2700058226D+00  0.1000000000D+01  0.1000000000D+01
 D   1 1.00       0.000000000000
      0.8000000000D+00  0.1000000000D+01
 ****
     57 0
 S   3 1.00       0.000000000000
      0.1873113696D+02  0.3349460434D-01
      0.2825394365D+01  0.2347269535D+00
      0.6401216923D+00  0.8137573261D+00
 S   1 1.00       0.000000000000
      0.1612777588D+00  0.1000000000D+01
 ****
     58 0
 S   6 1.00       0.000000000000
      0.3047524880D+04  0.1834737132D-02
      0.4573695180D+03  0.1403732281D-01
      0.1039486850D+03  0.6884262226D-01
      0.2921015530D+02  0.2321844432D+00
      0.9286662960D+01  0.4679413484D+00
      0.3163926960D+01  0.3623119853D+00
 SP   3 1.00       0.000000000000
      0.7868272350D+01 -0.1193324198D+00  0.6899906659D-01
      0.1881288540D+01 -0.1608541517D+00  0.3164239610D+00
      0.5442492580D+00  0.1143456438D+01  0.7443082909D+00
 SP   1 1.00       0.000000000000
      0.1687144782D+00  0.1000000000D+01  0.1000000000D+01
 D   1 1.00       0.000000000000
      0.8000000000D+00  0.1000000000D+01
 ****
     59 0
 S   3 1.00       0.000000000000
      0.1873113696D+02  0.3349460434D-01
      0.2825394365D+01  0.2347269535D+00
      0.6401216923D+00  0.8137573261D+00
 S   1 1.00       0.000000000000
      0.1612777588D+00  0.1000000000D+01
 ****
     60 0
 S   3 1.00       0.000000000000
      0.1873113696D+02  0.3349460434D-01
      0.2825394365D+01  0.2347269535D+00
      0.6401216923D+00  0.8137573261D+00
 S   1 1.00       0.000000000000
      0.1612777588D+00  0.1000000000D+01
 ****
     61 0
 S   6 1.00       0.000000000000
      0.3047524880D+04  0.1834737132D-02
      0.4573695180D+03  0.1403732281D-01
      0.1039486850D+03  0.6884262226D-01
      0.2921015530D+02  0.2321844432D+00
      0.9286662960D+01  0.4679413484D+00
      0.3163926960D+01  0.3623119853D+00
 SP   3 1.00       0.000000000000
      0.7868272350D+01 -0.1193324198D+00  0.6899906659D-01
      0.1881288540D+01 -0.1608541517D+00  0.3164239610D+00
      0.5442492580D+00  0.1143456438D+01  0.7443082909D+00
 SP   1 1.00       0.000000000000
      0.1687144782D+00  0.1000000000D+01  0.1000000000D+01
 D   1 1.00       0.000000000000
      0.8000000000D+00  0.1000000000D+01
 ****
     62 0
 S   3 1.00       0.000000000000
      0.1873113696D+02  0.3349460434D-01
      0.2825394365D+01  0.2347269535D+00
      0.6401216923D+00  0.8137573261D+00
 S   1 1.00       0.000000000000
      0.1612777588D+00  0.1000000000D+01
 ****
     63 0
 S   3 1.00       0.000000000000
      0.1873113696D+02  0.3349460434D-01
      0.2825394365D+01  0.2347269535D+00
      0.6401216923D+00  0.8137573261D+00
 S   1 1.00       0.000000000000
      0.1612777588D+00  0.1000000000D+01
 ****
     64 0
 S   6 1.00       0.000000000000
      0.3047524880D+04  0.1834737132D-02
      0.4573695180D+03  0.1403732281D-01
      0.1039486850D+03  0.6884262226D-01
      0.2921015530D+02  0.2321844432D+00
      0.9286662960D+01  0.4679413484D+00
      0.3163926960D+01  0.3623119853D+00
 SP   3 1.00       0.000000000000
      0.7868272350D+01 -0.1193324198D+00  0.6899906659D-01
      0.1881288540D+01 -0.1608541517D+00  0.3164239610D+00
      0.5442492580D+00  0.1143456438D+01  0.7443082909D+00
 SP   1 1.00       0.000000000000
      0.1687144782D+00  0.1000000000D+01  0.1000000000D+01
 D   1 1.00       0.000000000000
      0.8000000000D+00  0.1000000000D+01
 ****
     65 0
 S   3 1.00       0.000000000000
      0.1873113696D+02  0.3349460434D-01
      0.2825394365D+01  0.2347269535D+00
      0.6401216923D+00  0.8137573261D+00
 S   1 1.00       0.000000000000
      0.1612777588D+00  0.1000000000D+01
 ****
     66 0
 S   3 1.00       0.000000000000
      0.1873113696D+02  0.3349460434D-01
      0.2825394365D+01  0.2347269535D+00
      0.6401216923D+00  0.8137573261D+00
 S   1 1.00       0.000000000000
      0.1612777588D+00  0.1000000000D+01
 ****
     67 0
 S   6 1.00       0.000000000000
      0.3047524880D+04  0.1834737132D-02
      0.4573695180D+03  0.1403732281D-01
      0.1039486850D+03  0.6884262226D-01
      0.2921015530D+02  0.2321844432D+00
      0.9286662960D+01  0.4679413484D+00
      0.3163926960D+01  0.3623119853D+00
 SP   3 1.00       0.000000000000
      0.7868272350D+01 -0.1193324198D+00  0.6899906659D-01
      0.1881288540D+01 -0.1608541517D+00  0.3164239610D+00
      0.5442492580D+00  0.1143456438D+01  0.7443082909D+00
 SP   1 1.00       0.000000000000
      0.1687144782D+00  0.1000000000D+01  0.1000000000D+01
 D   1 1.00       0.000000000000
      0.8000000000D+00  0.1000000000D+01
 ****
     68 0
 S   3 1.00       0.000000000000
      0.1873113696D+02  0.3349460434D-01
      0.2825394365D+01  0.2347269535D+00
      0.6401216923D+00  0.8137573261D+00
 S   1 1.00       0.000000000000
      0.1612777588D+00  0.1000000000D+01
 ****
     69 0
 S   6 1.00       0.000000000000
      0.3047524880D+04  0.1834737132D-02
      0.4573695180D+03  0.1403732281D-01
      0.1039486850D+03  0.6884262226D-01
      0.2921015530D+02  0.2321844432D+00
      0.9286662960D+01  0.4679413484D+00
      0.3163926960D+01  0.3623119853D+00
 SP   3 1.00       0.000000000000
      0.7868272350D+01 -0.1193324198D+00  0.6899906659D-01
      0.1881288540D+01 -0.1608541517D+00  0.3164239610D+00
      0.5442492580D+00  0.1143456438D+01  0.7443082909D+00
 SP   1 1.00       0.000000000000
      0.1687144782D+00  0.1000000000D+01  0.1000000000D+01
 D   1 1.00       0.000000000000
      0.8000000000D+00  0.1000000000D+01
 ****
     70 0
 S   3 1.00       0.000000000000
      0.1873113696D+02  0.3349460434D-01
      0.2825394365D+01  0.2347269535D+00
      0.6401216923D+00  0.8137573261D+00
 S   1 1.00       0.000000000000
      0.1612777588D+00  0.1000000000D+01
 ****
     71 0
 S   3 1.00       0.000000000000
      0.1873113696D+02  0.3349460434D-01
      0.2825394365D+01  0.2347269535D+00
      0.6401216923D+00  0.8137573261D+00
 S   1 1.00       0.000000000000
      0.1612777588D+00  0.1000000000D+01
 ****
     72 0
 S   3 1.00       0.000000000000
      0.1873113696D+02  0.3349460434D-01
      0.2825394365D+01  0.2347269535D+00
      0.6401216923D+00  0.8137573261D+00
 S   1 1.00       0.000000000000
      0.1612777588D+00  0.1000000000D+01
 ****
     73 0
 S   6 1.00       0.000000000000
      0.3047524880D+04  0.1834737132D-02
      0.4573695180D+03  0.1403732281D-01
      0.1039486850D+03  0.6884262226D-01
      0.2921015530D+02  0.2321844432D+00
      0.9286662960D+01  0.4679413484D+00
      0.3163926960D+01  0.3623119853D+00
 SP   3 1.00       0.000000000000
      0.7868272350D+01 -0.1193324198D+00  0.6899906659D-01
      0.1881288540D+01 -0.1608541517D+00  0.3164239610D+00
      0.5442492580D+00  0.1143456438D+01  0.7443082909D+00
 SP   1 1.00       0.000000000000
      0.1687144782D+00  0.1000000000D+01  0.1000000000D+01
 D   1 1.00       0.000000000000
      0.8000000000D+00  0.1000000000D+01
 ****
     74 0
 S   3 1.00       0.000000000000
      0.1873113696D+02  0.3349460434D-01
      0.2825394365D+01  0.2347269535D+00
      0.6401216923D+00  0.8137573261D+00
 S   1 1.00       0.000000000000
      0.1612777588D+00  0.1000000000D+01
 ****
     75 0
 S   3 1.00       0.000000000000
      0.1873113696D+02  0.3349460434D-01
      0.2825394365D+01  0.2347269535D+00
      0.6401216923D+00  0.8137573261D+00
 S   1 1.00       0.000000000000
      0.1612777588D+00  0.1000000000D+01
 ****
     76 0
 S   3 1.00       0.000000000000
      0.1873113696D+02  0.3349460434D-01
      0.2825394365D+01  0.2347269535D+00
      0.6401216923D+00  0.8137573261D+00
 S   1 1.00       0.000000000000
      0.1612777588D+00  0.1000000000D+01
 ****

 AO basis set (Overlap normalization):
 Atom C1       Shell     1 S   6     bf    1 -     1         -1.819872274103          3.786153990529          3.189576332090
      0.3047524880D+04  0.1834737132D-02
      0.4573695180D+03  0.1403732281D-01
      0.1039486850D+03  0.6884262226D-01
      0.2921015530D+02  0.2321844432D+00
      0.9286662960D+01  0.4679413484D+00
      0.3163926960D+01  0.3623119853D+00
 Atom C1       Shell     2 SP   3    bf    2 -     5         -1.819872274103          3.786153990529          3.189576332090
      0.7868272350D+01 -0.1193324198D+00  0.6899906659D-01
      0.1881288540D+01 -0.1608541517D+00  0.3164239610D+00
      0.5442492580D+00  0.1143456438D+01  0.7443082909D+00
 Atom C1       Shell     3 SP   1    bf    6 -     9         -1.819872274103          3.786153990529          3.189576332090
      0.1687144782D+00  0.1000000000D+01  0.1000000000D+01
 Atom C1       Shell     4 D   1     bf   10 -    15         -1.819872274103          3.786153990529          3.189576332090
      0.8000000000D+00  0.1000000000D+01
 Atom H2       Shell     5 S   3     bf   16 -    16         -1.851727652086          1.935405065401          4.122620975708
      0.1873113696D+02  0.3349460434D-01
      0.2825394365D+01  0.2347269535D+00
      0.6401216923D+00  0.8137573261D+00
 Atom H2       Shell     6 S   1     bf   17 -    17         -1.851727652086          1.935405065401          4.122620975708
      0.1612777588D+00  0.1000000000D+01
 Atom C3       Shell     7 S   6     bf   18 -    18          0.735640034531          5.061083464150          3.718868193972
      0.3047524880D+04  0.1834737132D-02
      0.4573695180D+03  0.1403732281D-01
      0.1039486850D+03  0.6884262226D-01
      0.2921015530D+02  0.2321844432D+00
      0.9286662960D+01  0.4679413484D+00
      0.3163926960D+01  0.3623119853D+00
 Atom C3       Shell     8 SP   3    bf   19 -    22          0.735640034531          5.061083464150          3.718868193972
      0.7868272350D+01 -0.1193324198D+00  0.6899906659D-01
      0.1881288540D+01 -0.1608541517D+00  0.3164239610D+00
      0.5442492580D+00  0.1143456438D+01  0.7443082909D+00
 Atom C3       Shell     9 SP   1    bf   23 -    26          0.735640034531          5.061083464150          3.718868193972
      0.1687144782D+00  0.1000000000D+01  0.1000000000D+01
 Atom C3       Shell    10 D   1     bf   27 -    32          0.735640034531          5.061083464150          3.718868193972
      0.8000000000D+00  0.1000000000D+01
 Atom H4       Shell    11 S   3     bf   33 -    33          1.025140390013          5.219486979342          5.760571223622
      0.1873113696D+02  0.3349460434D-01
      0.2825394365D+01  0.2347269535D+00
      0.6401216923D+00  0.8137573261D+00
 Atom H4       Shell    12 S   1     bf   34 -    34          1.025140390013          5.219486979342          5.760571223622
      0.1612777588D+00  0.1000000000D+01
 Atom H5       Shell    13 S   3     bf   35 -    35          0.637818720310          7.004062230639          2.978956509107
      0.1873113696D+02  0.3349460434D-01
      0.2825394365D+01  0.2347269535D+00
      0.6401216923D+00  0.8137573261D+00
 Atom H5       Shell    14 S   1     bf   36 -    36          0.637818720310          7.004062230639          2.978956509107
      0.1612777588D+00  0.1000000000D+01
 Atom C6       Shell    15 S   6     bf   37 -    37          2.928225733925          3.661266960386          2.511308836488
      0.3047524880D+04  0.1834737132D-02
      0.4573695180D+03  0.1403732281D-01
      0.1039486850D+03  0.6884262226D-01
      0.2921015530D+02  0.2321844432D+00
      0.9286662960D+01  0.4679413484D+00
      0.3163926960D+01  0.3623119853D+00
 Atom C6       Shell    16 SP   3    bf   38 -    41          2.928225733925          3.661266960386          2.511308836488
      0.7868272350D+01 -0.1193324198D+00  0.6899906659D-01
      0.1881288540D+01 -0.1608541517D+00  0.3164239610D+00
      0.5442492580D+00  0.1143456438D+01  0.7443082909D+00
 Atom C6       Shell    17 SP   1    bf   42 -    45          2.928225733925          3.661266960386          2.511308836488
      0.1687144782D+00  0.1000000000D+01  0.1000000000D+01
 Atom C6       Shell    18 D   1     bf   46 -    51          2.928225733925          3.661266960386          2.511308836488
      0.8000000000D+00  0.1000000000D+01
 Atom C7       Shell    19 S   6     bf   52 -    52          2.696787931972          3.072598656190         -0.317456170207
      0.3047524880D+04  0.1834737132D-02
      0.4573695180D+03  0.1403732281D-01
      0.1039486850D+03  0.6884262226D-01
      0.2921015530D+02  0.2321844432D+00
      0.9286662960D+01  0.4679413484D+00
      0.3163926960D+01  0.3623119853D+00
 Atom C7       Shell    20 SP   3    bf   53 -    56          2.696787931972          3.072598656190         -0.317456170207
      0.7868272350D+01 -0.1193324198D+00  0.6899906659D-01
      0.1881288540D+01 -0.1608541517D+00  0.3164239610D+00
      0.5442492580D+00  0.1143456438D+01  0.7443082909D+00
 Atom C7       Shell    21 SP   1    bf   57 -    60          2.696787931972          3.072598656190         -0.317456170207
      0.1687144782D+00  0.1000000000D+01  0.1000000000D+01
 Atom C7       Shell    22 D   1     bf   61 -    66          2.696787931972          3.072598656190         -0.317456170207
      0.8000000000D+00  0.1000000000D+01
 Atom C8       Shell    23 S   6     bf   67 -    67          0.027951525047          1.916184358548         -0.797957816674
      0.3047524880D+04  0.1834737132D-02
      0.4573695180D+03  0.1403732281D-01
      0.1039486850D+03  0.6884262226D-01
      0.2921015530D+02  0.2321844432D+00
      0.9286662960D+01  0.4679413484D+00
      0.3163926960D+01  0.3623119853D+00
 Atom C8       Shell    24 SP   3    bf   68 -    71          0.027951525047          1.916184358548         -0.797957816674
      0.7868272350D+01 -0.1193324198D+00  0.6899906659D-01
      0.1881288540D+01 -0.1608541517D+00  0.3164239610D+00
      0.5442492580D+00  0.1143456438D+01  0.7443082909D+00
 Atom C8       Shell    25 SP   1    bf   72 -    75          0.027951525047          1.916184358548         -0.797957816674
      0.1687144782D+00  0.1000000000D+01  0.1000000000D+01
 Atom C8       Shell    26 D   1     bf   76 -    81          0.027951525047          1.916184358548         -0.797957816674
      0.8000000000D+00  0.1000000000D+01
 Atom H9       Shell    27 S   3     bf   82 -    82          0.000000000000          0.000000000000          0.000000000000
      0.1873113696D+02  0.3349460434D-01
      0.2825394365D+01  0.2347269535D+00
      0.6401216923D+00  0.8137573261D+00
 Atom H9       Shell    28 S   1     bf   83 -    83          0.000000000000          0.000000000000          0.000000000000
      0.1612777588D+00  0.1000000000D+01
 Atom H10      Shell    29 S   3     bf   84 -    84         -0.271227780921          1.707682729587         -2.835526635771
      0.1873113696D+02  0.3349460434D-01
      0.2825394365D+01  0.2347269535D+00
      0.6401216923D+00  0.8137573261D+00
 Atom H10      Shell    30 S   1     bf   85 -    85         -0.271227780921          1.707682729587         -2.835526635771
      0.1612777588D+00  0.1000000000D+01
 Atom C11      Shell    31 S   6     bf   86 -    86         -2.178807233728          3.416038239471          0.347172208133
      0.3047524880D+04  0.1834737132D-02
      0.4573695180D+03  0.1403732281D-01
      0.1039486850D+03  0.6884262226D-01
      0.2921015530D+02  0.2321844432D+00
      0.9286662960D+01  0.4679413484D+00
      0.3163926960D+01  0.3623119853D+00
 Atom C11      Shell    32 SP   3    bf   87 -    90         -2.178807233728          3.416038239471          0.347172208133
      0.7868272350D+01 -0.1193324198D+00  0.6899906659D-01
      0.1881288540D+01 -0.1608541517D+00  0.3164239610D+00
      0.5442492580D+00  0.1143456438D+01  0.7443082909D+00
 Atom C11      Shell    33 SP   1    bf   91 -    94         -2.178807233728          3.416038239471          0.347172208133
      0.1687144782D+00  0.1000000000D+01  0.1000000000D+01
 Atom C11      Shell    34 D   1     bf   95 -   100         -2.178807233728          3.416038239471          0.347172208133
      0.8000000000D+00  0.1000000000D+01
 Atom H12      Shell    35 S   3     bf  101 -   101         -2.344149350848          5.277355061154         -0.563629149477
      0.1873113696D+02  0.3349460434D-01
      0.2825394365D+01  0.2347269535D+00
      0.6401216923D+00  0.8137573261D+00
 Atom H12      Shell    36 S   1     bf  102 -   102         -2.344149350848          5.277355061154         -0.563629149477
      0.1612777588D+00  0.1000000000D+01
 Atom H13      Shell    37 S   3     bf  103 -   103         -3.964349231120          2.426083321730          0.000000000000
      0.1873113696D+02  0.3349460434D-01
      0.2825394365D+01  0.2347269535D+00
      0.6401216923D+00  0.8137573261D+00
 Atom H13      Shell    38 S   1     bf  104 -   104         -3.964349231120          2.426083321730          0.000000000000
      0.1612777588D+00  0.1000000000D+01
 Atom C14      Shell    39 S   6     bf  105 -   105          4.937622780395          3.010122514997          3.914857228111
      0.3047524880D+04  0.1834737132D-02
      0.4573695180D+03  0.1403732281D-01
      0.1039486850D+03  0.6884262226D-01
      0.2921015530D+02  0.2321844432D+00
      0.9286662960D+01  0.4679413484D+00
      0.3163926960D+01  0.3623119853D+00
 Atom C14      Shell    40 SP   3    bf  106 -   109          4.937622780395          3.010122514997          3.914857228111
      0.7868272350D+01 -0.1193324198D+00  0.6899906659D-01
      0.1881288540D+01 -0.1608541517D+00  0.3164239610D+00
      0.5442492580D+00  0.1143456438D+01  0.7443082909D+00
 Atom C14      Shell    41 SP   1    bf  110 -   113          4.937622780395          3.010122514997          3.914857228111
      0.1687144782D+00  0.1000000000D+01  0.1000000000D+01
 Atom C14      Shell    42 D   1     bf  114 -   119          4.937622780395          3.010122514997          3.914857228111
      0.8000000000D+00  0.1000000000D+01
 Atom H15      Shell    43 S   3     bf  120 -   120          4.958548058015          3.492086677209          5.914370288810
      0.1873113696D+02  0.3349460434D-01
      0.2825394365D+01  0.2347269535D+00
      0.6401216923D+00  0.8137573261D+00
 Atom H15      Shell    44 S   1     bf  121 -   121          4.958548058015          3.492086677209          5.914370288810
      0.1612777588D+00  0.1000000000D+01
 Atom C16      Shell    45 S   6     bf  122 -   122          7.215157092977          1.629997826812          2.935475120214
      0.3047524880D+04  0.1834737132D-02
      0.4573695180D+03  0.1403732281D-01
      0.1039486850D+03  0.6884262226D-01
      0.2921015530D+02  0.2321844432D+00
      0.9286662960D+01  0.4679413484D+00
      0.3163926960D+01  0.3623119853D+00
 Atom C16      Shell    46 SP   3    bf  123 -   126          7.215157092977          1.629997826812          2.935475120214
      0.7868272350D+01 -0.1193324198D+00  0.6899906659D-01
      0.1881288540D+01 -0.1608541517D+00  0.3164239610D+00
      0.5442492580D+00  0.1143456438D+01  0.7443082909D+00
 Atom C16      Shell    47 SP   1    bf  127 -   130          7.215157092977          1.629997826812          2.935475120214
      0.1687144782D+00  0.1000000000D+01  0.1000000000D+01
 Atom C16      Shell    48 D   1     bf  131 -   136          7.215157092977          1.629997826812          2.935475120214
      0.8000000000D+00  0.1000000000D+01
 Atom H17      Shell    49 S   3     bf  137 -   137          8.944324496914          2.446681657832          3.737486928566
      0.1873113696D+02  0.3349460434D-01
      0.2825394365D+01  0.2347269535D+00
      0.6401216923D+00  0.8137573261D+00
 Atom H17      Shell    50 S   1     bf  138 -   138          8.944324496914          2.446681657832          3.737486928566
      0.1612777588D+00  0.1000000000D+01
 Atom C18      Shell    51 S   6     bf  139 -   139          7.374714663918          1.650209430461          0.030761642293
      0.3047524880D+04  0.1834737132D-02
      0.4573695180D+03  0.1403732281D-01
      0.1039486850D+03  0.6884262226D-01
      0.2921015530D+02  0.2321844432D+00
      0.9286662960D+01  0.4679413484D+00
      0.3163926960D+01  0.3623119853D+00
 Atom C18      Shell    52 SP   3    bf  140 -   143          7.374714663918          1.650209430461          0.030761642293
      0.7868272350D+01 -0.1193324198D+00  0.6899906659D-01
      0.1881288540D+01 -0.1608541517D+00  0.3164239610D+00
      0.5442492580D+00  0.1143456438D+01  0.7443082909D+00
 Atom C18      Shell    53 SP   1    bf  144 -   147          7.374714663918          1.650209430461          0.030761642293
      0.1687144782D+00  0.1000000000D+01  0.1000000000D+01
 Atom C18      Shell    54 D   1     bf  148 -   153          7.374714663918          1.650209430461          0.030761642293
      0.8000000000D+00  0.1000000000D+01
 Atom H19      Shell    55 S   3     bf  154 -   154          7.955536277190          3.582622001147         -0.462249008516
      0.1873113696D+02  0.3349460434D-01
      0.2825394365D+01  0.2347269535D+00
      0.6401216923D+00  0.8137573261D+00
 Atom H19      Shell    56 S   1     bf  155 -   155          7.955536277190          3.582622001147         -0.462249008516
      0.1612777588D+00  0.1000000000D+01
 Atom C20      Shell    57 S   6     bf  156 -   156          4.747378986132          1.096482842763         -1.146384425014
      0.3047524880D+04  0.1834737132D-02
      0.4573695180D+03  0.1403732281D-01
      0.1039486850D+03  0.6884262226D-01
      0.2921015530D+02  0.2321844432D+00
      0.9286662960D+01  0.4679413484D+00
      0.3163926960D+01  0.3623119853D+00
 Atom C20      Shell    58 SP   3    bf  157 -   160          4.747378986132          1.096482842763         -1.146384425014
      0.7868272350D+01 -0.1193324198D+00  0.6899906659D-01
      0.1881288540D+01 -0.1608541517D+00  0.3164239610D+00
      0.5442492580D+00  0.1143456438D+01  0.7443082909D+00
 Atom C20      Shell    59 SP   1    bf  161 -   164          4.747378986132          1.096482842763         -1.146384425014
      0.1687144782D+00  0.1000000000D+01  0.1000000000D+01
 Atom C20      Shell    60 D   1     bf  165 -   170          4.747378986132          1.096482842763         -1.146384425014
      0.8000000000D+00  0.1000000000D+01
 Atom H21      Shell    61 S   3     bf  171 -   171          4.145378550684         -0.725138240595         -0.346648432741
      0.1873113696D+02  0.3349460434D-01
      0.2825394365D+01  0.2347269535D+00
      0.6401216923D+00  0.8137573261D+00
 Atom H21      Shell    62 S   1     bf  172 -   172          4.145378550684         -0.725138240595         -0.346648432741
      0.1612777588D+00  0.1000000000D+01
 Atom C22      Shell    63 S   6     bf  173 -   173          4.906200848895          0.741851677713         -4.044306718542
      0.3047524880D+04  0.1834737132D-02
      0.4573695180D+03  0.1403732281D-01
      0.1039486850D+03  0.6884262226D-01
      0.2921015530D+02  0.2321844432D+00
      0.9286662960D+01  0.4679413484D+00
      0.3163926960D+01  0.3623119853D+00
 Atom C22      Shell    64 SP   3    bf  174 -   177          4.906200848895          0.741851677713         -4.044306718542
      0.7868272350D+01 -0.1193324198D+00  0.6899906659D-01
      0.1881288540D+01 -0.1608541517D+00  0.3164239610D+00
      0.5442492580D+00  0.1143456438D+01  0.7443082909D+00
 Atom C22      Shell    65 SP   1    bf  178 -   181          4.906200848895          0.741851677713         -4.044306718542
      0.1687144782D+00  0.1000000000D+01  0.1000000000D+01
 Atom C22      Shell    66 D   1     bf  182 -   187          4.906200848895          0.741851677713         -4.044306718542
      0.8000000000D+00  0.1000000000D+01
 Atom H23      Shell    67 S   3     bf  188 -   188          5.202027308271          2.571222149997         -4.964015300280
      0.1873113696D+02  0.3349460434D-01
      0.2825394365D+01  0.2347269535D+00
      0.6401216923D+00  0.8137573261D+00
 Atom H23      Shell    68 S   1     bf  189 -   189          5.202027308271          2.571222149997         -4.964015300280
      0.1612777588D+00  0.1000000000D+01
 Atom H24      Shell    69 S   3     bf  190 -   190          3.091687516851          0.037656761623         -4.753172432921
      0.1873113696D+02  0.3349460434D-01
      0.2825394365D+01  0.2347269535D+00
      0.6401216923D+00  0.8137573261D+00
 Atom H24      Shell    70 S   1     bf  191 -   191          3.091687516851          0.037656761623         -4.753172432921
      0.1612777588D+00  0.1000000000D+01
 Atom C25      Shell    71 S   6     bf  192 -   192          7.010340789023         -1.072653169460         -4.925736478609
      0.3047524880D+04  0.1834737132D-02
      0.4573695180D+03  0.1403732281D-01
      0.1039486850D+03  0.6884262226D-01
      0.2921015530D+02  0.2321844432D+00
      0.9286662960D+01  0.4679413484D+00
      0.3163926960D+01  0.3623119853D+00
 Atom C25      Shell    72 SP   3    bf  193 -   196          7.010340789023         -1.072653169460         -4.925736478609
      0.7868272350D+01 -0.1193324198D+00  0.6899906659D-01
      0.1881288540D+01 -0.1608541517D+00  0.3164239610D+00
      0.5442492580D+00  0.1143456438D+01  0.7443082909D+00
 Atom C25      Shell    73 SP   1    bf  197 -   200          7.010340789023         -1.072653169460         -4.925736478609
      0.1687144782D+00  0.1000000000D+01  0.1000000000D+01
 Atom C25      Shell    74 D   1     bf  201 -   206          7.010340789023         -1.072653169460         -4.925736478609
      0.8000000000D+00  0.1000000000D+01
 Atom H26      Shell    75 S   3     bf  207 -   207          6.593313455991         -2.997776178280         -4.265777292289
      0.1873113696D+02  0.3349460434D-01
      0.2825394365D+01  0.2347269535D+00
      0.6401216923D+00  0.8137573261D+00
 Atom H26      Shell    76 S   1     bf  208 -   208          6.593313455991         -2.997776178280         -4.265777292289
      0.1612777588D+00  0.1000000000D+01
 Atom H27      Shell    77 S   3     bf  209 -   209          6.982555144137         -1.140656211571         -6.992713159094
      0.1873113696D+02  0.3349460434D-01
      0.2825394365D+01  0.2347269535D+00
      0.6401216923D+00  0.8137573261D+00
 Atom H27      Shell    78 S   1     bf  210 -   210          6.982555144137         -1.140656211571         -6.992713159094
      0.1612777588D+00  0.1000000000D+01
 Atom C28      Shell    79 S   6     bf  211 -   211          9.621751706894         -0.282960977097         -3.896772057690
      0.3047524880D+04  0.1834737132D-02
      0.4573695180D+03  0.1403732281D-01
      0.1039486850D+03  0.6884262226D-01
      0.2921015530D+02  0.2321844432D+00
      0.9286662960D+01  0.4679413484D+00
      0.3163926960D+01  0.3623119853D+00
 Atom C28      Shell    80 SP   3    bf  212 -   215          9.621751706894         -0.282960977097         -3.896772057690
      0.7868272350D+01 -0.1193324198D+00  0.6899906659D-01
      0.1881288540D+01 -0.1608541517D+00  0.3164239610D+00
      0.5442492580D+00  0.1143456438D+01  0.7443082909D+00
 Atom C28      Shell    81 SP   1    bf  216 -   219          9.621751706894         -0.282960977097         -3.896772057690
      0.1687144782D+00  0.1000000000D+01  0.1000000000D+01
 Atom C28      Shell    82 D   1     bf  220 -   225          9.621751706894         -0.282960977097         -3.896772057690
      0.8000000000D+00  0.1000000000D+01
 Atom C29      Shell    83 S   6     bf  226 -   226          9.361551592896         -0.214476357178         -0.971315018214
      0.3047524880D+04  0.1834737132D-02
      0.4573695180D+03  0.1403732281D-01
      0.1039486850D+03  0.6884262226D-01
      0.2921015530D+02  0.2321844432D+00
      0.9286662960D+01  0.4679413484D+00
      0.3163926960D+01  0.3623119853D+00
 Atom C29      Shell    84 SP   3    bf  227 -   230          9.361551592896         -0.214476357178         -0.971315018214
      0.7868272350D+01 -0.1193324198D+00  0.6899906659D-01
      0.1881288540D+01 -0.1608541517D+00  0.3164239610D+00
      0.5442492580D+00  0.1143456438D+01  0.7443082909D+00
 Atom C29      Shell    85 SP   1    bf  231 -   234          9.361551592896         -0.214476357178         -0.971315018214
      0.1687144782D+00  0.1000000000D+01  0.1000000000D+01
 Atom C29      Shell    86 D   1     bf  235 -   240          9.361551592896         -0.214476357178         -0.971315018214
      0.8000000000D+00  0.1000000000D+01
 Atom H30      Shell    87 S   3     bf  241 -   241          8.700883929352         -2.109479191242         -0.439152662336
      0.1873113696D+02  0.3349460434D-01
      0.2825394365D+01  0.2347269535D+00
      0.6401216923D+00  0.8137573261D+00
 Atom H30      Shell    88 S   1     bf  242 -   242          8.700883929352         -2.109479191242         -0.439152662336
      0.1612777588D+00  0.1000000000D+01
 Atom C31      Shell    89 S   6     bf  243 -   243         12.084689809373          0.000000000000          0.000000000000
      0.3047524880D+04  0.1834737132D-02
      0.4573695180D+03  0.1403732281D-01
      0.1039486850D+03  0.6884262226D-01
      0.2921015530D+02  0.2321844432D+00
      0.9286662960D+01  0.4679413484D+00
      0.3163926960D+01  0.3623119853D+00
 Atom C31      Shell    90 SP   3    bf  244 -   247         12.084689809373          0.000000000000          0.000000000000
      0.7868272350D+01 -0.1193324198D+00  0.6899906659D-01
      0.1881288540D+01 -0.1608541517D+00  0.3164239610D+00
      0.5442492580D+00  0.1143456438D+01  0.7443082909D+00
 Atom C31      Shell    91 SP   1    bf  248 -   251         12.084689809373          0.000000000000          0.000000000000
      0.1687144782D+00  0.1000000000D+01  0.1000000000D+01
 Atom C31      Shell    92 D   1     bf  252 -   257         12.084689809373          0.000000000000          0.000000000000
      0.8000000000D+00  0.1000000000D+01
 Atom H32      Shell    93 S   3     bf  258 -   258         12.274383220900         -0.705033595445          1.933189909531
      0.1873113696D+02  0.3349460434D-01
      0.2825394365D+01  0.2347269535D+00
      0.6401216923D+00  0.8137573261D+00
 Atom H32      Shell    94 S   1     bf  259 -   259         12.274383220900         -0.705033595445          1.933189909531
      0.1612777588D+00  0.1000000000D+01
 Atom H33      Shell    95 S   3     bf  260 -   260         12.715424626712          1.975891899778          0.007103896273
      0.1873113696D+02  0.3349460434D-01
      0.2825394365D+01  0.2347269535D+00
      0.6401216923D+00  0.8137573261D+00
 Atom H33      Shell    96 S   1     bf  261 -   261         12.715424626712          1.975891899778          0.007103896273
      0.1612777588D+00  0.1000000000D+01
 Atom C34      Shell    97 S   6     bf  262 -   262         13.626108821302         -1.589395284504         -1.926769753967
      0.3047524880D+04  0.1834737132D-02
      0.4573695180D+03  0.1403732281D-01
      0.1039486850D+03  0.6884262226D-01
      0.2921015530D+02  0.2321844432D+00
      0.9286662960D+01  0.4679413484D+00
      0.3163926960D+01  0.3623119853D+00
 Atom C34      Shell    98 SP   3    bf  263 -   266         13.626108821302         -1.589395284504         -1.926769753967
      0.7868272350D+01 -0.1193324198D+00  0.6899906659D-01
      0.1881288540D+01 -0.1608541517D+00  0.3164239610D+00
      0.5442492580D+00  0.1143456438D+01  0.7443082909D+00
 Atom C34      Shell    99 SP   1    bf  267 -   270         13.626108821302         -1.589395284504         -1.926769753967
      0.1687144782D+00  0.1000000000D+01  0.1000000000D+01
 Atom C34      Shell   100 D   1     bf  271 -   276         13.626108821302         -1.589395284504         -1.926769753967
      0.8000000000D+00  0.1000000000D+01
 Atom H35      Shell   101 S   3     bf  277 -   277         15.256403108349         -0.520517523296         -2.629779868464
      0.1873113696D+02  0.3349460434D-01
      0.2825394365D+01  0.2347269535D+00
      0.6401216923D+00  0.8137573261D+00
 Atom H35      Shell   102 S   1     bf  278 -   278         15.256403108349         -0.520517523296         -2.629779868464
      0.1612777588D+00  0.1000000000D+01
 Atom H36      Shell   103 S   3     bf  279 -   279         14.385717216136         -3.297605814600         -1.044871606382
      0.1873113696D+02  0.3349460434D-01
      0.2825394365D+01  0.2347269535D+00
      0.6401216923D+00  0.8137573261D+00
 Atom H36      Shell   104 S   1     bf  280 -   280         14.385717216136         -3.297605814600         -1.044871606382
      0.1612777588D+00  0.1000000000D+01
 Atom C37      Shell   105 S   6     bf  281 -   281         11.804790755529         -2.272865026075         -4.160538443948
      0.3047524880D+04  0.1834737132D-02
      0.4573695180D+03  0.1403732281D-01
      0.1039486850D+03  0.6884262226D-01
      0.2921015530D+02  0.2321844432D+00
      0.9286662960D+01  0.4679413484D+00
      0.3163926960D+01  0.3623119853D+00
 Atom C37      Shell   106 SP   3    bf  282 -   285         11.804790755529         -2.272865026075         -4.160538443948
      0.7868272350D+01 -0.1193324198D+00  0.6899906659D-01
      0.1881288540D+01 -0.1608541517D+00  0.3164239610D+00
      0.5442492580D+00  0.1143456438D+01  0.7443082909D+00
[...]
 **** Fit       0.000220
 **** Fit       0.000509
 **** Fit       0.000652
 **** Fit       0.000753
 **** Fit       0.000759
 **** Fit       0.000664
 **** Fit       0.000411
 **** Fit      -0.000043
 **** Fit      -0.000685
 **** Fit      -0.001418
 **** Fit      -0.002074
 **** Fit      -0.002483
 **** Fit      -0.002548
 **** Fit      -0.002276
 **** Fit      -0.001765
 **** Fit      -0.001151
 **** Fit      -0.000557
 **** Fit      -0.000063
 **** Fit       0.000295
 **** Fit       0.000516
 **** Fit       0.000541
 **** Fit       0.000502
 **** Fit       0.000368
 **** Fit       0.000092
 **** Fit      -0.000355
 **** Fit      -0.000949
 **** Fit      -0.001595
 **** Fit      -0.002138
 **** Fit      -0.002428
 **** Fit      -0.002385
 **** Fit      -0.002032
 **** Fit      -0.001480
 **** Fit      -0.000873
 **** Fit      -0.000328
 **** Fit       0.000091
 **** Fit       0.000374
 **** Fit       0.000534
 **** Fit       0.000312
 **** Fit       0.000229
 **** Fit       0.000059
 **** Fit      -0.000230
 **** Fit      -0.000651
 **** Fit      -0.001172
 **** Fit      -0.001705
 **** Fit      -0.002119
 **** Fit      -0.002293
 **** Fit      -0.002167
 **** Fit      -0.001773
 **** Fit      -0.001221
 **** Fit      -0.000648
 **** Fit      -0.000159
 **** Fit       0.000197
 **** Fit       0.000420
 **** Fit       0.000534
 **** Fit      -0.000023
 **** Fit      -0.000216
 **** Fit      -0.000502
 **** Fit      -0.000880
 **** Fit      -0.001313
 **** Fit      -0.001726
 **** Fit      -0.002018
 **** Fit      -0.002097
 **** Fit      -0.001924
 **** Fit      -0.001532
 **** Fit      -0.001018
 **** Fit      -0.000501
 **** Fit      -0.000072
 **** Fit       0.000233
 **** Fit       0.000415
 **** Fit       0.000501
 **** Fit      -0.000428
 **** Fit      -0.000694
 **** Fit      -0.001017
 **** Fit      -0.001362
 **** Fit      -0.001667
 **** Fit      -0.001858
 **** Fit      -0.001872
 **** Fit      -0.001684
 **** Fit      -0.001327
 **** Fit      -0.000878
 **** Fit      -0.000432
 **** Fit      -0.000061
 **** Fit       0.000201
 **** Fit       0.000359
 **** Fit      -0.001067
 **** Fit      -0.001332
 **** Fit      -0.001550
 **** Fit      -0.001667
 **** Fit      -0.001644
 **** Fit      -0.001466
 **** Fit      -0.001161
 **** Fit      -0.000787
 **** Fit      -0.000415
 **** Fit      -0.000101
 **** Fit       0.000127
 **** Fit       0.000270
 **** Fit      -0.001428
 **** Fit      -0.001273
 **** Fit      -0.001024
 **** Fit      -0.000723
 **** Fit      -0.000422
 **** Fit      -0.000160
 **** Fit       0.000037
 **** Fit      -0.000670
 **** Fit      -0.001083
 **** Fit      -0.001384
 **** Fit      -0.001664
 **** Fit      -0.000406
 **** Fit      -0.000695
 **** Fit      -0.001050
 **** Fit      -0.001439
 **** Fit      -0.001813
 **** Fit      -0.002117
 **** Fit      -0.002312
 **** Fit       0.000158
 **** Fit       0.000029
 **** Fit      -0.000188
 **** Fit      -0.000512
 **** Fit      -0.000942
 **** Fit      -0.001440
 **** Fit      -0.001932
 **** Fit      -0.002336
 **** Fit      -0.002591
 **** Fit      -0.002676
 **** Fit      -0.002605
 **** Fit      -0.002420
 **** Fit      -0.002168
 **** Fit       0.000400
 **** Fit       0.000303
 **** Fit       0.000098
 **** Fit      -0.000251
 **** Fit      -0.000756
 **** Fit      -0.001376
 **** Fit      -0.002011
 **** Fit      -0.002536
 **** Fit      -0.002860
 **** Fit      -0.002951
 **** Fit      -0.002835
 **** Fit      -0.002576
 **** Fit      -0.002245
 **** Fit      -0.001905
 **** Fit      -0.001598
 **** Fit       0.000636
 **** Fit       0.000650
 **** Fit       0.000595
 **** Fit       0.000416
 **** Fit       0.000055
 **** Fit      -0.000518
 **** Fit      -0.001265
 **** Fit      -0.002054
 **** Fit      -0.002711
 **** Fit      -0.003100
 **** Fit      -0.003179
 **** Fit      -0.002993
 **** Fit      -0.002637
 **** Fit      -0.002213
 **** Fit      -0.001805
 **** Fit      -0.001462
 **** Fit      -0.001200
 **** Fit       0.000819
 **** Fit       0.000869
 **** Fit       0.000850
 **** Fit       0.000696
 **** Fit       0.000330
 **** Fit      -0.000301
 **** Fit      -0.001161
 **** Fit      -0.002090
 **** Fit      -0.002860
 **** Fit      -0.003289
 **** Fit      -0.003325
 **** Fit      -0.003037
 **** Fit      -0.002560
 **** Fit      -0.002039
 **** Fit      -0.001576
 **** Fit      -0.001218
 **** Fit      -0.000969
 **** Fit      -0.000810
 **** Fit       0.000951
 **** Fit       0.001016
 **** Fit       0.001008
 **** Fit       0.000857
 **** Fit       0.000475
 **** Fit      -0.000203
 **** Fit      -0.001141
 **** Fit      -0.002157
 **** Fit      -0.002982
 **** Fit      -0.003400
 **** Fit      -0.003353
 **** Fit      -0.002935
 **** Fit      -0.002331
 **** Fit      -0.001722
 **** Fit      -0.001227
 **** Fit      -0.000882
 **** Fit      -0.000671
 **** Fit      -0.000558
 **** Fit       0.001016
 **** Fit       0.001066
 **** Fit       0.001033
 **** Fit       0.000849
 **** Fit       0.000429
 **** Fit      -0.000285
 **** Fit      -0.001247
 **** Fit      -0.002265
 **** Fit      -0.003057
 **** Fit      -0.003402
 **** Fit      -0.003242
 **** Fit      -0.002694
 **** Fit      -0.001979
 **** Fit      -0.001312
 **** Fit      -0.000812
 **** Fit      -0.000503
 **** Fit      -0.000346
 **** Fit      -0.000290
 **** Fit       0.001017
 **** Fit       0.001025
 **** Fit       0.000935
 **** Fit       0.000687
 **** Fit       0.000214
 **** Fit      -0.000516
 **** Fit      -0.001441
 **** Fit      -0.002372
 **** Fit      -0.003052
 **** Fit      -0.003279
 **** Fit      -0.003006
 **** Fit      -0.002364
 **** Fit      -0.001588
 **** Fit      -0.000900
 **** Fit      -0.000419
 **** Fit      -0.000153
 **** Fit      -0.000047
 **** Fit      -0.000042
 **** Fit      -0.000090
 **** Fit       0.000972
 **** Fit       0.000923
 **** Fit       0.000762
 **** Fit       0.000440
 **** Fit      -0.000080
 **** Fit      -0.000797
 **** Fit      -0.001634
 **** Fit      -0.002419
 **** Fit      -0.002942
 **** Fit      -0.003042
 **** Fit      -0.002692
 **** Fit      -0.002018
 **** Fit      -0.001242
 **** Fit      -0.000574
 **** Fit      -0.000123
 **** Fit       0.000110
 **** Fit       0.000181
 **** Fit       0.000153
 **** Fit       0.000076
 **** Fit       0.000799
 **** Fit       0.000569
 **** Fit       0.000186
 **** Fit      -0.000361
 **** Fit      -0.001039
 **** Fit      -0.001759
 **** Fit      -0.002380
 **** Fit      -0.002742
 **** Fit      -0.002735
 **** Fit      -0.002352
 **** Fit      -0.001706
 **** Fit      -0.000985
 **** Fit      -0.000368
 **** Fit       0.000050
 **** Fit       0.000263
 **** Fit       0.000322
 **** Fit       0.000283
 **** Fit       0.000675
 **** Fit       0.000393
 **** Fit      -0.000033
 **** Fit      -0.000586
 **** Fit      -0.001211
 **** Fit      -0.001814
 **** Fit      -0.002281
 **** Fit      -0.002502
 **** Fit      -0.002413
 **** Fit      -0.002028
 **** Fit      -0.001441
 **** Fit      -0.000803
 **** Fit      -0.000255
 **** Fit       0.000125
 **** Fit       0.000327
 **** Fit       0.000386
 **** Fit       0.000353
 **** Fit       0.000737
 **** Fit       0.000555
 **** Fit       0.000238
 **** Fit      -0.000212
 **** Fit      -0.000760
 **** Fit      -0.001331
 **** Fit      -0.001832
 **** Fit      -0.002169
 **** Fit      -0.002273
 **** Fit      -0.002120
 **** Fit      -0.001739
 **** Fit      -0.001215
 **** Fit      -0.000663
 **** Fit      -0.000188
 **** Fit       0.000150
 **** Fit       0.000338
 **** Fit       0.000402
 **** Fit       0.000721
 **** Fit       0.000631
 **** Fit       0.000427
 **** Fit       0.000089
 **** Fit      -0.000371
 **** Fit      -0.000904
 **** Fit      -0.001425
 **** Fit      -0.001840
 **** Fit      -0.002071
 **** Fit      -0.002079
 **** Fit      -0.001869
 **** Fit      -0.001488
 **** Fit      -0.001014
 **** Fit      -0.000536
 **** Fit      -0.000129
 **** Fit       0.000162
 **** Fit       0.000331
 **** Fit       0.000602
 **** Fit       0.000494
 **** Fit       0.000274
 **** Fit      -0.000072
 **** Fit      -0.000528
 **** Fit      -0.001036
 **** Fit      -0.001506
 **** Fit      -0.001844
 **** Fit      -0.001986
 **** Fit      -0.001913
 **** Fit      -0.001652
 **** Fit      -0.001265
 **** Fit      -0.000827
 **** Fit      -0.000408
 **** Fit      -0.000063
 **** Fit       0.000182
 **** Fit       0.000449
 **** Fit       0.000322
 **** Fit       0.000092
 **** Fit      -0.000252
 **** Fit      -0.000688
 **** Fit      -0.001156
 **** Fit      -0.001565
 **** Fit      -0.001829
 **** Fit      -0.001893
 **** Fit      -0.001753
 **** Fit      -0.001452
 **** Fit      -0.001060
 **** Fit      -0.000651
 **** Fit      -0.000283
 **** Fit       0.000127
 **** Fit      -0.000109
 **** Fit      -0.000440
 **** Fit      -0.000841
 **** Fit      -0.001252
 **** Fit      -0.001591
 **** Fit      -0.001780
 **** Fit      -0.001776
 **** Fit      -0.001587
 **** Fit      -0.001262
 **** Fit      -0.000874
 **** Fit      -0.000494
 **** Fit      -0.000171
 **** Fit       0.000073
 **** Fit      -0.000072
 **** Fit      -0.000305
 **** Fit      -0.000612
 **** Fit      -0.000965
 **** Fit      -0.001308
 **** Fit      -0.001572
 **** Fit      -0.001691
 **** Fit      -0.001635
 **** Fit      -0.001416
 **** Fit      -0.001087
 **** Fit      -0.000717
 **** Fit      -0.000371
 **** Fit      -0.000088
 **** Fit       0.000117
 **** Fit      -0.000472
 **** Fit      -0.000746
 **** Fit      -0.001043
 **** Fit      -0.001317
 **** Fit      -0.001509
 **** Fit      -0.001570
 **** Fit      -0.001479
 **** Fit      -0.001253
 **** Fit      -0.000938
 **** Fit      -0.000599
 **** Fit      -0.000290
 **** Fit      -0.000043
 **** Fit      -0.001429
 **** Fit      -0.001322
 **** Fit      -0.001106
 **** Fit      -0.000821
 **** Fit      -0.000521
 **** Fit      -0.000250
 **** Fit      -0.000036
 **** Fit      -0.000979
 **** Fit      -0.000733
 **** Fit      -0.000475
 **** Fit      -0.000946
 **** Fit      -0.001240
 **** Fit      -0.000299
 **** Fit      -0.000564
 **** Fit      -0.000891
 **** Fit      -0.001253
 **** Fit      -0.001604
 **** Fit      -0.001894
 **** Fit      -0.002084
 **** Fit       0.000067
 **** Fit      -0.000132
 **** Fit      -0.000423
 **** Fit      -0.000803
 **** Fit      -0.001238
 **** Fit      -0.001668
 **** Fit      -0.002023
 **** Fit      -0.002249
 **** Fit      -0.002325
 **** Fit      -0.002263
 **** Fit      -0.002099
 **** Fit      -0.001878
 **** Fit       0.000350
 **** Fit       0.000243
 **** Fit       0.000044
 **** Fit      -0.000270
 **** Fit      -0.000700
 **** Fit      -0.001207
 **** Fit      -0.001715
 **** Fit      -0.002133
 **** Fit      -0.002388
 **** Fit      -0.002455
 **** Fit      -0.002353
 **** Fit      -0.002132
 **** Fit      -0.001854
 **** Fit      -0.001574
 **** Fit       0.000491
 **** Fit       0.000393
 **** Fit       0.000192
 **** Fit      -0.000141
 **** Fit      -0.000614
 **** Fit      -0.001182
 **** Fit      -0.001756
 **** Fit      -0.002221
 **** Fit      -0.002489
 **** Fit      -0.002529
 **** Fit      -0.002371
 **** Fit      -0.002084
 **** Fit      -0.001749
 **** Fit      -0.001430
 **** Fit      -0.001165
 **** Fit       0.000587
 **** Fit       0.000488
 **** Fit       0.000278
 **** Fit      -0.000076
 **** Fit      -0.000580
 **** Fit      -0.001189
 **** Fit      -0.001799
 **** Fit      -0.002282
 **** Fit      -0.002536
 **** Fit      -0.002530
 **** Fit      -0.002306
 **** Fit      -0.001952
 **** Fit      -0.001564
 **** Fit      -0.001218
 **** Fit      -0.000949
 **** Fit      -0.000764
 **** Fit       0.000624
 **** Fit       0.000510
 **** Fit       0.000280
 **** Fit      -0.000095
 **** Fit      -0.000617
 **** Fit      -0.001236
 **** Fit      -0.001842
 **** Fit      -0.002303
 **** Fit      -0.002515
 **** Fit      -0.002451
 **** Fit      -0.002160
 **** Fit      -0.001748
 **** Fit      -0.001323
 **** Fit      -0.000964
 **** Fit      -0.000705
 **** Fit      -0.000542
 **** Fit       0.000606
 **** Fit       0.000463
 **** Fit       0.000205
 **** Fit      -0.000189
 **** Fit      -0.000712
 **** Fit      -0.001308
 **** Fit      -0.001870
 **** Fit      -0.002273
 **** Fit      -0.002422
 **** Fit      -0.002297
 **** Fit      -0.001955
 **** Fit      -0.001507
 **** Fit      -0.001066
 **** Fit      -0.000710
 **** Fit      -0.000468
 **** Fit      -0.000331
 **** Fit       0.000546
 **** Fit       0.000369
 **** Fit       0.000082
 **** Fit      -0.000324
 **** Fit      -0.000831
 **** Fit      -0.001376
 **** Fit      -0.001864
 **** Fit      -0.002186
 **** Fit      -0.002266
 **** Fit      -0.002092
 **** Fit      -0.001723
 **** Fit      -0.001267
 **** Fit      -0.000832
 **** Fit      -0.000492
 **** Fit      -0.000270
 **** Fit      -0.000154
 **** Fit       0.000254
 **** Fit      -0.000057
 **** Fit      -0.000465
 **** Fit      -0.000940
 **** Fit      -0.001420
 **** Fit      -0.001820
 **** Fit      -0.002056
 **** Fit      -0.002071
 **** Fit      -0.001864
 **** Fit      -0.001494
 **** Fit      -0.001056
 **** Fit      -0.000646
 **** Fit      -0.000328
 **** Fit      -0.000125
 **** Fit      -0.000025
 **** Fit      -0.000190
 **** Fit      -0.000591
 **** Fit      -0.001026
 **** Fit      -0.001436
 **** Fit      -0.001750
 **** Fit      -0.001904
 **** Fit      -0.001864
 **** Fit      -0.001640
 **** Fit      -0.001285
 **** Fit      -0.000881
 **** Fit      -0.000507
 **** Fit      -0.000218
 **** Fit      -0.000032
 **** Fit      -0.001091
 **** Fit      -0.001436
 **** Fit      -0.001669
 **** Fit      -0.001435
 **** Fit      -0.001102
 **** Fit      -0.000736
 **** Fit      -0.000403
 **** Fit      -0.000144
 **** Fit       0.000023
 **** Fit      -0.000089
 **** Fit      -0.000420
 **** Fit      -0.000788
 **** Fit      -0.001253
 **** Fit      -0.000940
 **** Fit      -0.000612
 **** Fit      -0.000318
 **** Fit      -0.000205
 **** Fit      -0.000526
 **** Fit      -0.000870
 **** Fit      -0.001183
 **** Fit      -0.000326
 **** Fit      -0.000629
 **** Fit      -0.000940
 **** Fit      -0.001210
 **** Fit      -0.000721
 **** Fit      -0.000995
 **** Fit      -0.000787
 **** Fit      -0.001097
 **** Fit      -0.001395
 **** Fit      -0.000166
 **** Fit      -0.000420
 **** Fit      -0.000737
 **** Fit      -0.001088
 **** Fit      -0.001427
 **** Fit      -0.001705
 **** Fit      -0.000081
 **** Fit      -0.000353
 **** Fit      -0.000696
 **** Fit      -0.001080
 **** Fit      -0.001452
 **** Fit      -0.001750
 **** Fit      -0.001928
 **** Fit      -0.001885
 **** Fit      -0.001714
 **** Fit      -0.001500
 **** Fit      -0.000031
 **** Fit      -0.000317
 **** Fit      -0.000679
 **** Fit      -0.001084
 **** Fit      -0.001471
 **** Fit      -0.001773
 **** Fit      -0.001940
 **** Fit      -0.001954
 **** Fit      -0.001834
 **** Fit      -0.001625
 **** Fit      -0.001380
 **** Fit      -0.001145
 **** Fit      -0.000024
 **** Fit      -0.000321
 **** Fit      -0.000693
 **** Fit      -0.001101
 **** Fit      -0.001483
 **** Fit      -0.001770
 **** Fit      -0.001911
 **** Fit      -0.001891
 **** Fit      -0.001735
 **** Fit      -0.001492
 **** Fit      -0.001224
 **** Fit      -0.000979
 **** Fit      -0.000058
 **** Fit      -0.000363
 **** Fit      -0.000732
 **** Fit      -0.001125
 **** Fit      -0.001482
 **** Fit      -0.001736
 **** Fit      -0.001841
 **** Fit      -0.001785
 **** Fit      -0.001597
 **** Fit      -0.001333
 **** Fit      -0.001053
 **** Fit      -0.000805
 **** Fit      -0.000121
 **** Fit      -0.000428
 **** Fit      -0.000783
 **** Fit      -0.001147
 **** Fit      -0.001463
 **** Fit      -0.001672
 **** Fit      -0.001735
 **** Fit      -0.001648
 **** Fit      -0.001439
 **** Fit      -0.001165
 **** Fit      -0.000885
 **** Fit      -0.000644
 **** Fit      -0.000834
 **** Fit      -0.001159
 **** Fit      -0.001425
 **** Fit      -0.001607
 **** Fit      -0.001495
 **** Fit      -0.001277
 **** Fit      -0.001007
 **** Fit      -0.000737
 **** Fit      -0.000509
 **** Fit      -0.001341
 **** Fit      -0.001123
 **** Fit      -0.000865
 **** Fit      -0.000612
 -----------------------------------------------------------------
 Leave Link  602 at Fri Apr 28 13:18:35 2017, MaxMem=    33554432 cpu:        38.8
 (Enter /home/michal/g09/l9999.exe)

 Test job not archived.
 1\1\GINC-LINUX\SP\RHF\6-31G(d)\C27H46O3\MICHAL\28-Apr-2017\0\\#P HF/6-
 31G* SCF(Conver=6) NoSymm Test Pop=chelpg IOp(6/33=2) GFInput GFPrint\
 \MEP - Input generated by R.E.D.-III.x MOLECULE\\0,1\C,0,-0.96303493,2
 .0035464,1.6878511\H,0,-0.97989207,1.02417225,2.18159706\C,0,0.3892839
 4,2.67821002,1.96794029\H,0,0.54248093,2.76203355,3.048363\H,0,0.33751
 913,3.7063901,1.57639589\C,0,1.54955032,1.93745903,1.3289274\C,0,1.427
 07871,1.62594918,-0.16799057\C,0,0.01479131,1.01400109,-0.42226109\H,0
 ,0.,0.,0.\H,0,-0.14352756,0.90366678,-1.50049607\C,0,-1.15297513,1.807
 68958,0.18371562\H,0,-1.24047041,2.79265602,-0.2982597\H,0,-2.09784326
 ,1.283828,0.\C,0,2.61287744,1.59288823,2.07165322\H,0,2.62395062,1.847
 93268,3.12974996\C,0,3.81809669,0.8625577,1.55338653\H,0,4.73313267,1.
 29472817,1.9777929\C,0,3.90253092,0.87325322,0.01627836\H,0,4.20988848
 ,1.89584191,-0.24461164\C,0,2.51220476,0.58023373,-0.60664051\H,0,2.19
 363985,-0.38372663,-0.18343845\C,0,2.59624967,0.392571,-2.14015494\H,0
 ,2.75279429,1.36063216,-2.62684376\H,0,1.63605057,0.0199271,-2.5152705
 2\C,0,3.70971257,-0.56762361,-2.60658748\H,0,3.48903121,-1.58635483,-2
 .25735212\H,0,3.69500904,-0.60360927,-3.70038443\C,0,5.09161171,-0.149
 7365,-2.06208296\C,0,4.95391974,-0.113496,-0.51399777\H,0,4.60430947,-
 1.11628831,-0.23238958\C,0,6.39494242,0.,0.\H,0,6.49532385,-0.37308771
 ,1.02300004\H,0,6.72871291,1.04559696,0.00375922\C,0,7.21062623,-0.841
 07176,-1.01960264\H,0,8.07334081,-0.27544601,-1.39161957\H,0,7.6125936
 8,-1.74501784,-0.55292224\C,0,6.24682622,-1.20274837,-2.20166212\H,0,5
 .79280188,-2.18186735,-1.98103907\C,0,5.53155576,1.20802978,-2.6555701
 2\H,0,4.8510419,2.02132056,-2.39027333\H,0,6.52937483,1.49862294,-2.31
 325984\H,0,5.56411705,1.16058552,-3.74915375\C,0,6.99442587,-1.3520142
 5,-3.55292706\H,0,7.50267937,-0.39871257,-3.75542253\C,0,6.05978087,-1
 .65193969,-4.73714855\H,0,5.47291048,-2.56127199,-4.55516355\H,0,6.626
 02092,-1.80449729,-5.66100333\H,0,5.35954292,-0.83542068,-4.92598506\C
 ,0,1.56661459,2.95892933,-0.95343056\H,0,1.29150742,2.83204662,-2.0046
 622\H,0,0.91978432,3.73874805,-0.54446351\H,0,2.59242423,3.3380378,-0.
 91134676\O,0,3.79622835,-0.53369533,1.95991235\O,0,3.9738326,-0.575201
 82,3.40368753\H,0,3.08364661,-0.83730066,3.69143206\O,0,-2.04586297,2.
 71667476,2.29073966\H,0,-2.10786935,3.59099074,1.88099783\C,0,8.079826
 78,-2.45233736,-3.42873165\H,0,8.71542121,-2.2332277,-2.56296007\H,0,7
 .57578216,-3.4035755,-3.20127368\C,0,9.00500413,-2.67021183,-4.6423870
 3\H,0,9.6625518,-3.51438029,-4.40067903\H,0,8.42350407,-2.98936199,-5.
 51743377\C,0,9.85831033,-1.45030318,-5.02149287\H,0,10.43678406,-1.123
 72241,-4.14312787\H,0,9.1965683,-0.61207001,-5.27643611\C,0,10.8279779
 ,-1.6694866,-6.20195656\H,0,10.23992281,-2.06166698,-7.04632392\C,0,11
 .44841085,-0.33463308,-6.64475203\H,0,12.04309433,0.10708115,-5.834763
 15\H,0,12.11170417,-0.46981718,-7.50673103\H,0,10.67697711,0.39173504,
 -6.92522514\C,0,11.9310393,-2.69134024,-5.88117126\H,0,12.53640594,-2.
 35368714,-5.02979572\H,0,12.60471946,-2.82050222,-6.73594641\H,0,11.52
 43367,-3.67642031,-5.63210051\\Version=EM64L-G09RevD.01\HF=-1273.68314
 22\RMSD=5.596e-07\Dipole=-0.3003765,0.6212334,-0.7215175\Quadrupole=-8
 .3655672,7.9620499,0.4035173,3.6340999,-1.1439151,-1.2408522\PG=C01 [X
 (C27H46O3)]\\@


 EXPERIENCE IS THE FRUIT OF THE TREE OF ERRORS.
 Job cpu time:       0 days  0 hours 12 minutes 19.0 seconds.
 File lengths (MBytes):  RWF=    159 Int=      0 D2E=      0 Chk=     11 Scr=      1
 Normal termination of Gaussian 09 at Fri Apr 28 13:18:35 2017.
