 Entering Gaussian System, Link 0=/home/michal/g09/g09
 Input=JOB2-gau_m1-17-2.com
 Output=JOB2-gau_m1-17-2.log
 Initial command:
 /home/michal/g09/l1.exe "/home/michal/gauss_scratch/Gau-19850.inp" -scrdir="/home/michal/gauss_scratch/"
 Entering Link 1 = /home/michal/g09/l1.exe PID=     19851.
  
 Copyright (c) 1988,1990,1992,1993,1995,1998,2003,2009,2013,
            Gaussian, Inc.  All Rights Reserved.
  
 This is part of the Gaussian(R) 09 program.  It is based on
 the Gaussian(R) 03 system (copyright 2003, Gaussian, Inc.),
 the Gaussian(R) 98 system (copyright 1998, Gaussian, Inc.),
 the Gaussian(R) 94 system (copyright 1995, Gaussian, Inc.),
 the Gaussian 92(TM) system (copyright 1992, Gaussian, Inc.),
 the Gaussian 90(TM) system (copyright 1990, Gaussian, Inc.),
 the Gaussian 88(TM) system (copyright 1988, Gaussian, Inc.),
 the Gaussian 86(TM) system (copyright 1986, Carnegie Mellon
 University), and the Gaussian 82(TM) system (copyright 1983,
 Carnegie Mellon University). Gaussian is a federally registered
 trademark of Gaussian, Inc.
  
 This software contains proprietary and confidential information,
 including trade secrets, belonging to Gaussian, Inc.
  
 This software is provided under written license and may be
 used, copied, transmitted, or stored only in accord with that
 written license.
  
 The following legend is applicable only to US Government
 contracts under FAR:
  
                    RESTRICTED RIGHTS LEGEND
  
 Use, reproduction and disclosure by the US Government is
 subject to restrictions as set forth in subparagraphs (a)
 and (c) of the Commercial Computer Software - Restricted
 Rights clause in FAR 52.227-19.
  
 Gaussian, Inc.
 340 Quinnipiac St., Bldg. 40, Wallingford CT 06492
  
  
 ---------------------------------------------------------------
 Warning -- This program may not be used in any manner that
 competes with the business of Gaussian, Inc. or will provide
 assistance to any competitor of Gaussian, Inc.  The licensee
 of this program is prohibited from giving any competitor of
 Gaussian, Inc. access to this program.  By using this program,
 the user acknowledges that Gaussian, Inc. is engaged in the
 business of creating and licensing software in the field of
 computational chemistry and represents and warrants to the
 licensee that it is not a competitor of Gaussian, Inc. and that
 it will not use this program in any manner prohibited above.
 ---------------------------------------------------------------
  

 Cite this work as:
 Gaussian 09, Revision D.01,
 M. J. Frisch, G. W. Trucks, H. B. Schlegel, G. E. Scuseria, 
 M. A. Robb, J. R. Cheeseman, G. Scalmani, V. Barone, B. Mennucci, 
 G. A. Petersson, H. Nakatsuji, M. Caricato, X. Li, H. P. Hratchian, 
 A. F. Izmaylov, J. Bloino, G. Zheng, J. L. Sonnenberg, M. Hada, 
 M. Ehara, K. Toyota, R. Fukuda, J. Hasegawa, M. Ishida, T. Nakajima, 
 Y. Honda, O. Kitao, H. Nakai, T. Vreven, J. A. Montgomery, Jr., 
 J. E. Peralta, F. Ogliaro, M. Bearpark, J. J. Heyd, E. Brothers, 
 K. N. Kudin, V. N. Staroverov, T. Keith, R. Kobayashi, J. Normand, 
 K. Raghavachari, A. Rendell, J. C. Burant, S. S. Iyengar, J. Tomasi, 
 M. Cossi, N. Rega, J. M. Millam, M. Klene, J. E. Knox, J. B. Cross, 
 V. Bakken, C. Adamo, J. Jaramillo, R. Gomperts, R. E. Stratmann, 
 O. Yazyev, A. J. Austin, R. Cammi, C. Pomelli, J. W. Ochterski, 
 R. L. Martin, K. Morokuma, V. G. Zakrzewski, G. A. Voth, 
 P. Salvador, J. J. Dannenberg, S. Dapprich, A. D. Daniels, 
 O. Farkas, J. B. Foresman, J. V. Ortiz, J. Cioslowski, 
 and D. J. Fox, Gaussian, Inc., Wallingford CT, 2013.
 
 ******************************************
 Gaussian 09:  EM64L-G09RevD.01 24-Apr-2013
                28-Apr-2017 
 ******************************************
 %Mem=256MB
 %NProc=12
 Will use up to   12 processors via shared memory.
 ----------------------------------------------------------------------
 #P HF/6-31G* SCF(Conver=6) NoSymm Test Pop=chelpg IOp(6/33=2) GFInput 
 GFPrint
 ----------------------------------------------------------------------
 1/38=1/1;
 2/12=2,15=1,17=6,18=5,40=1/2;
 3/5=1,6=6,7=1,11=9,16=1,24=110,25=1,30=1/1,2,3;
 4//1;
 5/5=2,6=6,38=5/2;
 6/7=2,8=2,9=2,10=2,15=8,20=3,28=1,33=2/1,2;
 99/5=1,9=1/99;
 Leave Link    1 at Fri Apr 28 12:56:12 2017, MaxMem=    33554432 cpu:         0.6
 (Enter /home/michal/g09/l101.exe)
 ----------------------------------------------
 MEP - Input generated by R.E.D.-III.x MOLECULE
 ----------------------------------------------
 Symbolic Z-matrix:
 Charge =  0 Multiplicity = 1
 C                     7.54022   2.13429  -0.14249 
 H                     7.49521   2.0093    0.94606 
 C                     6.74917   0.99489  -0.80569 
 H                     7.15424   0.0302   -0.48483 
 H                     6.91301   1.06155  -1.89271 
 C                     5.26603   1.07125  -0.49874 
 C                     4.56853   2.40739  -0.77737 
 C                     5.43954   3.54347  -0.15665 
 H                     5.34423   3.48864   0.93616 
 H                     5.03336   4.51548  -0.45636 
 C                     6.93217   3.48572  -0.51758 
 H                     7.07442   3.65603  -1.59516 
 H                     7.47374   4.2856    0. 
 C                     4.63051   0.        0. 
 H                     5.19357  -0.90762   0.21003 
 C                     3.175    -0.03006   0.36171 
 H                     2.73911  -1.00661   0.12403 
 C                     2.37992   1.10374  -0.31395 
 H                     2.35844   0.84841  -1.38369 
 C                     3.14884   2.43775  -0.10841 
 H                     3.32509   2.50235   0.97541 
 C                     2.31943   3.68385  -0.49567 
 H                     2.27245   3.78594  -1.58452 
 H                     2.8277    4.5842   -0.13164 
 C                     0.87894   3.6797    0.05116 
 H                     0.89901   3.73284   1.14902 
 H                     0.37611   4.58747  -0.29604 
 C                     0.1207    2.40484  -0.3668 
 C                     0.93469   1.20299   0.19655 
 H                     1.00099   1.37819   1.27982 
 C                     0.        0.        0. 
 H                     0.23913  -0.82279   0.67614 
 H                     0.07691  -0.38657  -1.02456 
 C                    -1.41105   0.5898    0.26771 
 H                    -2.11268   0.30751  -0.5267 
 H                    -1.82743   0.19892   1.20084 
 C                    -1.25886   2.14855   0.33398 
 H                    -1.12083   2.43178   1.3894 
 C                    -0.0449    2.34328  -1.90364 
 H                     0.91244   2.26646  -2.42545 
 H                    -0.65033   1.4871   -2.21525 
 H                    -0.54293   3.24493  -2.27576 
 C                    -2.52682   2.88964  -0.16557 
 H                    -2.72421   2.55983  -1.19724 
 C                    -2.37641   4.4212   -0.17905 
 H                    -2.09737   4.79679   0.8136 
 H                    -3.31303   4.90823  -0.46653 
 H                    -1.61508   4.75498  -0.88741 
 C                     4.48134   2.59979  -2.3164 
 H                     4.1661    3.61566  -2.572 
 H                     5.44668   2.43262  -2.80025 
 H                     3.77104   1.89842  -2.7648 
 O                     3.19437   0.0761    1.8171 
 O                     2.04994  -0.6481    2.37729 
 H                     2.52109  -1.28116   2.94259 
 O                     8.9353    2.05612  -0.44667 
 H                     9.0535    2.19434  -1.39698 
 C                    -3.75425   2.47854   0.68616 
 H                    -3.7829    1.38629   0.77583 
 H                    -3.61173   2.86345   1.70636 
 C                    -5.11543   2.93677   0.13534 
 H                    -5.19393   4.02968   0.16013 
 H                    -5.17546   2.65626  -0.92594 
 C                    -6.32716   2.31952   0.85813 
 H                    -6.27322   1.22564   0.75907 
 H                    -7.24387   2.62655   0.33284 
 C                    -6.4917    2.66467   2.35372 
 H                    -5.58354   2.34252   2.88299 
 C                    -6.66632   4.17296   2.59209 
 H                    -7.5503    4.55122   2.06209 
 H                    -6.80198   4.38739   3.65829 
 H                    -5.80056   4.74839   2.24867 
 C                    -7.67367   1.88431   2.951 
 H                    -8.61553   2.1672    2.46329 
 H                    -7.78204   2.08421   4.02319 
 H                    -7.54451   0.80343   2.82265 
 
 NAtoms=     76 NQM=       76 NQMF=       0 NMMI=      0 NMMIF=      0
                NMic=       0 NMicF=      0.
                    Isotopes and Nuclear Properties:
 (Nuclear quadrupole moments (NQMom) in fm**2, nuclear magnetic moments (NMagM)
  in nuclear magnetons)

  Atom         1           2           3           4           5           6           7           8           9          10
 IAtWgt=          12           1          12           1           1          12          12          12           1           1
 AtmWgt=  12.0000000   1.0078250  12.0000000   1.0078250   1.0078250  12.0000000  12.0000000  12.0000000   1.0078250   1.0078250
 NucSpn=           0           1           0           1           1           0           0           0           1           1
 AtZEff=   0.0000000   0.0000000   0.0000000   0.0000000   0.0000000   0.0000000   0.0000000   0.0000000   0.0000000   0.0000000
 NQMom=    0.0000000   0.0000000   0.0000000   0.0000000   0.0000000   0.0000000   0.0000000   0.0000000   0.0000000   0.0000000
 NMagM=    0.0000000   2.7928460   0.0000000   2.7928460   2.7928460   0.0000000   0.0000000   0.0000000   2.7928460   2.7928460
 AtZNuc=   6.0000000   1.0000000   6.0000000   1.0000000   1.0000000   6.0000000   6.0000000   6.0000000   1.0000000   1.0000000

  Atom        11          12          13          14          15          16          17          18          19          20
 IAtWgt=          12           1           1          12           1          12           1          12           1          12
 AtmWgt=  12.0000000   1.0078250   1.0078250  12.0000000   1.0078250  12.0000000   1.0078250  12.0000000   1.0078250  12.0000000
 NucSpn=           0           1           1           0           1           0           1           0           1           0
 AtZEff=   0.0000000   0.0000000   0.0000000   0.0000000   0.0000000   0.0000000   0.0000000   0.0000000   0.0000000   0.0000000
 NQMom=    0.0000000   0.0000000   0.0000000   0.0000000   0.0000000   0.0000000   0.0000000   0.0000000   0.0000000   0.0000000
 NMagM=    0.0000000   2.7928460   2.7928460   0.0000000   2.7928460   0.0000000   2.7928460   0.0000000   2.7928460   0.0000000
 AtZNuc=   6.0000000   1.0000000   1.0000000   6.0000000   1.0000000   6.0000000   1.0000000   6.0000000   1.0000000   6.0000000

  Atom        21          22          23          24          25          26          27          28          29          30
 IAtWgt=           1          12           1           1          12           1           1          12          12           1
 AtmWgt=   1.0078250  12.0000000   1.0078250   1.0078250  12.0000000   1.0078250   1.0078250  12.0000000  12.0000000   1.0078250
 NucSpn=           1           0           1           1           0           1           1           0           0           1
 AtZEff=   0.0000000   0.0000000   0.0000000   0.0000000   0.0000000   0.0000000   0.0000000   0.0000000   0.0000000   0.0000000
 NQMom=    0.0000000   0.0000000   0.0000000   0.0000000   0.0000000   0.0000000   0.0000000   0.0000000   0.0000000   0.0000000
 NMagM=    2.7928460   0.0000000   2.7928460   2.7928460   0.0000000   2.7928460   2.7928460   0.0000000   0.0000000   2.7928460
 AtZNuc=   1.0000000   6.0000000   1.0000000   1.0000000   6.0000000   1.0000000   1.0000000   6.0000000   6.0000000   1.0000000

  Atom        31          32          33          34          35          36          37          38          39          40
 IAtWgt=          12           1           1          12           1           1          12           1          12           1
 AtmWgt=  12.0000000   1.0078250   1.0078250  12.0000000   1.0078250   1.0078250  12.0000000   1.0078250  12.0000000   1.0078250
 NucSpn=           0           1           1           0           1           1           0           1           0           1
 AtZEff=   0.0000000   0.0000000   0.0000000   0.0000000   0.0000000   0.0000000   0.0000000   0.0000000   0.0000000   0.0000000
 NQMom=    0.0000000   0.0000000   0.0000000   0.0000000   0.0000000   0.0000000   0.0000000   0.0000000   0.0000000   0.0000000
 NMagM=    0.0000000   2.7928460   2.7928460   0.0000000   2.7928460   2.7928460   0.0000000   2.7928460   0.0000000   2.7928460
 AtZNuc=   6.0000000   1.0000000   1.0000000   6.0000000   1.0000000   1.0000000   6.0000000   1.0000000   6.0000000   1.0000000

  Atom        41          42          43          44          45          46          47          48          49          50
 IAtWgt=           1           1          12           1          12           1           1           1          12           1
 AtmWgt=   1.0078250   1.0078250  12.0000000   1.0078250  12.0000000   1.0078250   1.0078250   1.0078250  12.0000000   1.0078250
 NucSpn=           1           1           0           1           0           1           1           1           0           1
 AtZEff=   0.0000000   0.0000000   0.0000000   0.0000000   0.0000000   0.0000000   0.0000000   0.0000000   0.0000000   0.0000000
 NQMom=    0.0000000   0.0000000   0.0000000   0.0000000   0.0000000   0.0000000   0.0000000   0.0000000   0.0000000   0.0000000
 NMagM=    2.7928460   2.7928460   0.0000000   2.7928460   0.0000000   2.7928460   2.7928460   2.7928460   0.0000000   2.7928460
 AtZNuc=   1.0000000   1.0000000   6.0000000   1.0000000   6.0000000   1.0000000   1.0000000   1.0000000   6.0000000   1.0000000

  Atom        51          52          53          54          55          56          57          58          59          60
 IAtWgt=           1           1          16          16           1          16           1          12           1           1
 AtmWgt=   1.0078250   1.0078250  15.9949146  15.9949146   1.0078250  15.9949146   1.0078250  12.0000000   1.0078250   1.0078250
 NucSpn=           1           1           0           0           1           0           1           0           1           1
 AtZEff=   0.0000000   0.0000000   0.0000000   0.0000000   0.0000000   0.0000000   0.0000000   0.0000000   0.0000000   0.0000000
 NQMom=    0.0000000   0.0000000   0.0000000   0.0000000   0.0000000   0.0000000   0.0000000   0.0000000   0.0000000   0.0000000
 NMagM=    2.7928460   2.7928460   0.0000000   0.0000000   2.7928460   0.0000000   2.7928460   0.0000000   2.7928460   2.7928460
 AtZNuc=   1.0000000   1.0000000   8.0000000   8.0000000   1.0000000   8.0000000   1.0000000   6.0000000   1.0000000   1.0000000

  Atom        61          62          63          64          65          66          67          68          69          70
 IAtWgt=          12           1           1          12           1           1          12           1          12           1
 AtmWgt=  12.0000000   1.0078250   1.0078250  12.0000000   1.0078250   1.0078250  12.0000000   1.0078250  12.0000000   1.0078250
 NucSpn=           0           1           1           0           1           1           0           1           0           1
 AtZEff=   0.0000000   0.0000000   0.0000000   0.0000000   0.0000000   0.0000000   0.0000000   0.0000000   0.0000000   0.0000000
 NQMom=    0.0000000   0.0000000   0.0000000   0.0000000   0.0000000   0.0000000   0.0000000   0.0000000   0.0000000   0.0000000
 NMagM=    0.0000000   2.7928460   2.7928460   0.0000000   2.7928460   2.7928460   0.0000000   2.7928460   0.0000000   2.7928460
 AtZNuc=   6.0000000   1.0000000   1.0000000   6.0000000   1.0000000   1.0000000   6.0000000   1.0000000   6.0000000   1.0000000

  Atom        71          72          73          74          75          76
 IAtWgt=           1           1          12           1           1           1
 AtmWgt=   1.0078250   1.0078250  12.0000000   1.0078250   1.0078250   1.0078250
 NucSpn=           1           1           0           1           1           1
 AtZEff=   0.0000000   0.0000000   0.0000000   0.0000000   0.0000000   0.0000000
 NQMom=    0.0000000   0.0000000   0.0000000   0.0000000   0.0000000   0.0000000
 NMagM=    2.7928460   2.7928460   0.0000000   2.7928460   2.7928460   2.7928460
 AtZNuc=   1.0000000   1.0000000   6.0000000   1.0000000   1.0000000   1.0000000
 Leave Link  101 at Fri Apr 28 12:56:12 2017, MaxMem=    33554432 cpu:         1.0
 (Enter /home/michal/g09/l202.exe)
 Symmetry turned off by external request.
 Stoichiometry    C27H46O3
 Framework group  C1[X(C27H46O3)]
 Deg. of freedom   222
 Full point group                 C1      NOp   1
                          Input orientation:                          
 ---------------------------------------------------------------------
 Center     Atomic      Atomic             Coordinates (Angstroms)
 Number     Number       Type             X           Y           Z
 ---------------------------------------------------------------------
      1          6           0        7.540222    2.134293   -0.142486
      2          1           0        7.495209    2.009297    0.946063
      3          6           0        6.749169    0.994892   -0.805693
      4          1           0        7.154242    0.030198   -0.484827
      5          1           0        6.913013    1.061545   -1.892712
      6          6           0        5.266029    1.071248   -0.498743
      7          6           0        4.568528    2.407386   -0.777369
      8          6           0        5.439541    3.543473   -0.156645
      9          1           0        5.344233    3.488637    0.936159
     10          1           0        5.033364    4.515479   -0.456365
     11          6           0        6.932165    3.485718   -0.517575
     12          1           0        7.074417    3.656035   -1.595155
     13          1           0        7.473737    4.285596    0.000000
     14          6           0        4.630505    0.000000    0.000000
     15          1           0        5.193569   -0.907621    0.210034
     16          6           0        3.175001   -0.030058    0.361708
     17          1           0        2.739108   -1.006606    0.124027
     18          6           0        2.379919    1.103743   -0.313946
     19          1           0        2.358439    0.848411   -1.383688
     20          6           0        3.148844    2.437747   -0.108411
     21          1           0        3.325088    2.502353    0.975406
     22          6           0        2.319426    3.683847   -0.495674
     23          1           0        2.272447    3.785937   -1.584524
     24          1           0        2.827703    4.584199   -0.131640
     25          6           0        0.878940    3.679697    0.051162
     26          1           0        0.899012    3.732835    1.149025
     27          1           0        0.376111    4.587475   -0.296037
     28          6           0        0.120697    2.404837   -0.366797
     29          6           0        0.934689    1.202995    0.196547
     30          1           0        1.000990    1.378187    1.279824
     31          6           0        0.000000    0.000000    0.000000
     32          1           0        0.239129   -0.822789    0.676141
     33          1           0        0.076905   -0.386569   -1.024563
     34          6           0       -1.411055    0.589796    0.267711
     35          1           0       -2.112676    0.307513   -0.526703
     36          1           0       -1.827427    0.198921    1.200835
     37          6           0       -1.258856    2.148545    0.333980
     38          1           0       -1.120831    2.431782    1.389401
     39          6           0       -0.044898    2.343281   -1.903639
     40          1           0        0.912445    2.266458   -2.425453
     41          1           0       -0.650330    1.487098   -2.215254
     42          1           0       -0.542934    3.244931   -2.275763
     43          6           0       -2.526824    2.889645   -0.165568
     44          1           0       -2.724212    2.559829   -1.197244
     45          6           0       -2.376415    4.421198   -0.179055
     46          1           0       -2.097374    4.796787    0.813599
     47          1           0       -3.313032    4.908229   -0.466529
     48          1           0       -1.615079    4.754982   -0.887414
     49          6           0        4.481344    2.599795   -2.316399
     50          1           0        4.166104    3.615658   -2.572002
     51          1           0        5.446683    2.432617   -2.800255
     52          1           0        3.771035    1.898422   -2.764800
     53          8           0        3.194368    0.076095    1.817096
     54          8           0        2.049944   -0.648098    2.377286
     55          1           0        2.521091   -1.281158    2.942593
     56          8           0        8.935297    2.056120   -0.446674
     57          1           0        9.053503    2.194341   -1.396981
     58          6           0       -3.754247    2.478542    0.686163
     59          1           0       -3.782901    1.386286    0.775834
     60          1           0       -3.611734    2.863449    1.706358
     61          6           0       -5.115434    2.936765    0.135337
     62          1           0       -5.193929    4.029681    0.160133
     63          1           0       -5.175461    2.656256   -0.925944
     64          6           0       -6.327164    2.319522    0.858129
     65          1           0       -6.273219    1.225642    0.759066
     66          1           0       -7.243873    2.626551    0.332845
     67          6           0       -6.491704    2.664673    2.353721
     68          1           0       -5.583542    2.342516    2.882991
     69          6           0       -6.666317    4.172962    2.592088
     70          1           0       -7.550305    4.551218    2.062091
     71          1           0       -6.801981    4.387389    3.658288
     72          1           0       -5.800563    4.748388    2.248668
     73          6           0       -7.673671    1.884314    2.950999
     74          1           0       -8.615532    2.167200    2.463289
     75          1           0       -7.782036    2.084209    4.023187
     76          1           0       -7.544509    0.803430    2.822651
 ---------------------------------------------------------------------
 Rotational constants (GHZ):      0.4054307      0.0539806      0.0510442
 Leave Link  202 at Fri Apr 28 12:56:12 2017, MaxMem=    33554432 cpu:         0.0
 (Enter /home/michal/g09/l301.exe)
 Standard basis: 6-31G(d) (6D, 7F)
 Ernie: Thresh=  0.10000D-02 Tol=  0.10000D-05 Strict=F.
 AO basis set in the form of general basis input (Overlap normalization):
      1 0
 S   6 1.00       0.000000000000
      0.3047524880D+04  0.1834737132D-02
      0.4573695180D+03  0.1403732281D-01
      0.1039486850D+03  0.6884262226D-01
      0.2921015530D+02  0.2321844432D+00
      0.9286662960D+01  0.4679413484D+00
      0.3163926960D+01  0.3623119853D+00
 SP   3 1.00       0.000000000000
      0.7868272350D+01 -0.1193324198D+00  0.6899906659D-01
      0.1881288540D+01 -0.1608541517D+00  0.3164239610D+00
      0.5442492580D+00  0.1143456438D+01  0.7443082909D+00
 SP   1 1.00       0.000000000000
      0.1687144782D+00  0.1000000000D+01  0.1000000000D+01
 D   1 1.00       0.000000000000
      0.8000000000D+00  0.1000000000D+01
 ****
      2 0
 S   3 1.00       0.000000000000
      0.1873113696D+02  0.3349460434D-01
      0.2825394365D+01  0.2347269535D+00
      0.6401216923D+00  0.8137573261D+00
 S   1 1.00       0.000000000000
      0.1612777588D+00  0.1000000000D+01
 ****
      3 0
 S   6 1.00       0.000000000000
      0.3047524880D+04  0.1834737132D-02
      0.4573695180D+03  0.1403732281D-01
      0.1039486850D+03  0.6884262226D-01
      0.2921015530D+02  0.2321844432D+00
      0.9286662960D+01  0.4679413484D+00
      0.3163926960D+01  0.3623119853D+00
 SP   3 1.00       0.000000000000
      0.7868272350D+01 -0.1193324198D+00  0.6899906659D-01
      0.1881288540D+01 -0.1608541517D+00  0.3164239610D+00
      0.5442492580D+00  0.1143456438D+01  0.7443082909D+00
 SP   1 1.00       0.000000000000
      0.1687144782D+00  0.1000000000D+01  0.1000000000D+01
 D   1 1.00       0.000000000000
      0.8000000000D+00  0.1000000000D+01
 ****
      4 0
 S   3 1.00       0.000000000000
      0.1873113696D+02  0.3349460434D-01
      0.2825394365D+01  0.2347269535D+00
      0.6401216923D+00  0.8137573261D+00
 S   1 1.00       0.000000000000
      0.1612777588D+00  0.1000000000D+01
 ****
      5 0
 S   3 1.00       0.000000000000
      0.1873113696D+02  0.3349460434D-01
      0.2825394365D+01  0.2347269535D+00
      0.6401216923D+00  0.8137573261D+00
 S   1 1.00       0.000000000000
      0.1612777588D+00  0.1000000000D+01
 ****
      6 0
 S   6 1.00       0.000000000000
      0.3047524880D+04  0.1834737132D-02
      0.4573695180D+03  0.1403732281D-01
      0.1039486850D+03  0.6884262226D-01
      0.2921015530D+02  0.2321844432D+00
      0.9286662960D+01  0.4679413484D+00
      0.3163926960D+01  0.3623119853D+00
 SP   3 1.00       0.000000000000
      0.7868272350D+01 -0.1193324198D+00  0.6899906659D-01
      0.1881288540D+01 -0.1608541517D+00  0.3164239610D+00
      0.5442492580D+00  0.1143456438D+01  0.7443082909D+00
 SP   1 1.00       0.000000000000
      0.1687144782D+00  0.1000000000D+01  0.1000000000D+01
 D   1 1.00       0.000000000000
      0.8000000000D+00  0.1000000000D+01
 ****
      7 0
 S   6 1.00       0.000000000000
      0.3047524880D+04  0.1834737132D-02
      0.4573695180D+03  0.1403732281D-01
      0.1039486850D+03  0.6884262226D-01
      0.2921015530D+02  0.2321844432D+00
      0.9286662960D+01  0.4679413484D+00
      0.3163926960D+01  0.3623119853D+00
 SP   3 1.00       0.000000000000
      0.7868272350D+01 -0.1193324198D+00  0.6899906659D-01
      0.1881288540D+01 -0.1608541517D+00  0.3164239610D+00
      0.5442492580D+00  0.1143456438D+01  0.7443082909D+00
 SP   1 1.00       0.000000000000
      0.1687144782D+00  0.1000000000D+01  0.1000000000D+01
 D   1 1.00       0.000000000000
      0.8000000000D+00  0.1000000000D+01
 ****
      8 0
 S   6 1.00       0.000000000000
      0.3047524880D+04  0.1834737132D-02
      0.4573695180D+03  0.1403732281D-01
      0.1039486850D+03  0.6884262226D-01
      0.2921015530D+02  0.2321844432D+00
      0.9286662960D+01  0.4679413484D+00
      0.3163926960D+01  0.3623119853D+00
 SP   3 1.00       0.000000000000
      0.7868272350D+01 -0.1193324198D+00  0.6899906659D-01
      0.1881288540D+01 -0.1608541517D+00  0.3164239610D+00
      0.5442492580D+00  0.1143456438D+01  0.7443082909D+00
 SP   1 1.00       0.000000000000
      0.1687144782D+00  0.1000000000D+01  0.1000000000D+01
 D   1 1.00       0.000000000000
      0.8000000000D+00  0.1000000000D+01
 ****
      9 0
 S   3 1.00       0.000000000000
      0.1873113696D+02  0.3349460434D-01
      0.2825394365D+01  0.2347269535D+00
      0.6401216923D+00  0.8137573261D+00
 S   1 1.00       0.000000000000
      0.1612777588D+00  0.1000000000D+01
 ****
     10 0
 S   3 1.00       0.000000000000
      0.1873113696D+02  0.3349460434D-01
      0.2825394365D+01  0.2347269535D+00
      0.6401216923D+00  0.8137573261D+00
 S   1 1.00       0.000000000000
      0.1612777588D+00  0.1000000000D+01
 ****
     11 0
 S   6 1.00       0.000000000000
      0.3047524880D+04  0.1834737132D-02
      0.4573695180D+03  0.1403732281D-01
      0.1039486850D+03  0.6884262226D-01
      0.2921015530D+02  0.2321844432D+00
      0.9286662960D+01  0.4679413484D+00
      0.3163926960D+01  0.3623119853D+00
 SP   3 1.00       0.000000000000
      0.7868272350D+01 -0.1193324198D+00  0.6899906659D-01
      0.1881288540D+01 -0.1608541517D+00  0.3164239610D+00
      0.5442492580D+00  0.1143456438D+01  0.7443082909D+00
 SP   1 1.00       0.000000000000
      0.1687144782D+00  0.1000000000D+01  0.1000000000D+01
 D   1 1.00       0.000000000000
      0.8000000000D+00  0.1000000000D+01
 ****
     12 0
 S   3 1.00       0.000000000000
      0.1873113696D+02  0.3349460434D-01
      0.2825394365D+01  0.2347269535D+00
      0.6401216923D+00  0.8137573261D+00
 S   1 1.00       0.000000000000
      0.1612777588D+00  0.1000000000D+01
 ****
     13 0
 S   3 1.00       0.000000000000
      0.1873113696D+02  0.3349460434D-01
      0.2825394365D+01  0.2347269535D+00
      0.6401216923D+00  0.8137573261D+00
 S   1 1.00       0.000000000000
      0.1612777588D+00  0.1000000000D+01
 ****
     14 0
 S   6 1.00       0.000000000000
      0.3047524880D+04  0.1834737132D-02
      0.4573695180D+03  0.1403732281D-01
      0.1039486850D+03  0.6884262226D-01
      0.2921015530D+02  0.2321844432D+00
      0.9286662960D+01  0.4679413484D+00
      0.3163926960D+01  0.3623119853D+00
 SP   3 1.00       0.000000000000
      0.7868272350D+01 -0.1193324198D+00  0.6899906659D-01
      0.1881288540D+01 -0.1608541517D+00  0.3164239610D+00
      0.5442492580D+00  0.1143456438D+01  0.7443082909D+00
 SP   1 1.00       0.000000000000
      0.1687144782D+00  0.1000000000D+01  0.1000000000D+01
 D   1 1.00       0.000000000000
      0.8000000000D+00  0.1000000000D+01
 ****
     15 0
 S   3 1.00       0.000000000000
      0.1873113696D+02  0.3349460434D-01
      0.2825394365D+01  0.2347269535D+00
      0.6401216923D+00  0.8137573261D+00
 S   1 1.00       0.000000000000
      0.1612777588D+00  0.1000000000D+01
 ****
     16 0
 S   6 1.00       0.000000000000
      0.3047524880D+04  0.1834737132D-02
      0.4573695180D+03  0.1403732281D-01
      0.1039486850D+03  0.6884262226D-01
      0.2921015530D+02  0.2321844432D+00
      0.9286662960D+01  0.4679413484D+00
      0.3163926960D+01  0.3623119853D+00
 SP   3 1.00       0.000000000000
      0.7868272350D+01 -0.1193324198D+00  0.6899906659D-01
      0.1881288540D+01 -0.1608541517D+00  0.3164239610D+00
      0.5442492580D+00  0.1143456438D+01  0.7443082909D+00
 SP   1 1.00       0.000000000000
      0.1687144782D+00  0.1000000000D+01  0.1000000000D+01
 D   1 1.00       0.000000000000
      0.8000000000D+00  0.1000000000D+01
 ****
     17 0
 S   3 1.00       0.000000000000
      0.1873113696D+02  0.3349460434D-01
      0.2825394365D+01  0.2347269535D+00
      0.6401216923D+00  0.8137573261D+00
 S   1 1.00       0.000000000000
      0.1612777588D+00  0.1000000000D+01
 ****
     18 0
 S   6 1.00       0.000000000000
      0.3047524880D+04  0.1834737132D-02
      0.4573695180D+03  0.1403732281D-01
      0.1039486850D+03  0.6884262226D-01
      0.2921015530D+02  0.2321844432D+00
      0.9286662960D+01  0.4679413484D+00
      0.3163926960D+01  0.3623119853D+00
 SP   3 1.00       0.000000000000
      0.7868272350D+01 -0.1193324198D+00  0.6899906659D-01
      0.1881288540D+01 -0.1608541517D+00  0.3164239610D+00
      0.5442492580D+00  0.1143456438D+01  0.7443082909D+00
 SP   1 1.00       0.000000000000
      0.1687144782D+00  0.1000000000D+01  0.1000000000D+01
 D   1 1.00       0.000000000000
      0.8000000000D+00  0.1000000000D+01
 ****
     19 0
 S   3 1.00       0.000000000000
      0.1873113696D+02  0.3349460434D-01
      0.2825394365D+01  0.2347269535D+00
      0.6401216923D+00  0.8137573261D+00
 S   1 1.00       0.000000000000
      0.1612777588D+00  0.1000000000D+01
 ****
     20 0
 S   6 1.00       0.000000000000
      0.3047524880D+04  0.1834737132D-02
      0.4573695180D+03  0.1403732281D-01
      0.1039486850D+03  0.6884262226D-01
      0.2921015530D+02  0.2321844432D+00
      0.9286662960D+01  0.4679413484D+00
      0.3163926960D+01  0.3623119853D+00
 SP   3 1.00       0.000000000000
      0.7868272350D+01 -0.1193324198D+00  0.6899906659D-01
      0.1881288540D+01 -0.1608541517D+00  0.3164239610D+00
      0.5442492580D+00  0.1143456438D+01  0.7443082909D+00
 SP   1 1.00       0.000000000000
      0.1687144782D+00  0.1000000000D+01  0.1000000000D+01
 D   1 1.00       0.000000000000
      0.8000000000D+00  0.1000000000D+01
 ****
     21 0
 S   3 1.00       0.000000000000
      0.1873113696D+02  0.3349460434D-01
      0.2825394365D+01  0.2347269535D+00
      0.6401216923D+00  0.8137573261D+00
 S   1 1.00       0.000000000000
      0.1612777588D+00  0.1000000000D+01
 ****
     22 0
 S   6 1.00       0.000000000000
      0.3047524880D+04  0.1834737132D-02
      0.4573695180D+03  0.1403732281D-01
      0.1039486850D+03  0.6884262226D-01
      0.2921015530D+02  0.2321844432D+00
      0.9286662960D+01  0.4679413484D+00
      0.3163926960D+01  0.3623119853D+00
 SP   3 1.00       0.000000000000
      0.7868272350D+01 -0.1193324198D+00  0.6899906659D-01
      0.1881288540D+01 -0.1608541517D+00  0.3164239610D+00
      0.5442492580D+00  0.1143456438D+01  0.7443082909D+00
 SP   1 1.00       0.000000000000
      0.1687144782D+00  0.1000000000D+01  0.1000000000D+01
 D   1 1.00       0.000000000000
      0.8000000000D+00  0.1000000000D+01
 ****
     23 0
 S   3 1.00       0.000000000000
      0.1873113696D+02  0.3349460434D-01
      0.2825394365D+01  0.2347269535D+00
      0.6401216923D+00  0.8137573261D+00
 S   1 1.00       0.000000000000
      0.1612777588D+00  0.1000000000D+01
 ****
     24 0
 S   3 1.00       0.000000000000
      0.1873113696D+02  0.3349460434D-01
      0.2825394365D+01  0.2347269535D+00
      0.6401216923D+00  0.8137573261D+00
 S   1 1.00       0.000000000000
      0.1612777588D+00  0.1000000000D+01
 ****
     25 0
 S   6 1.00       0.000000000000
      0.3047524880D+04  0.1834737132D-02
      0.4573695180D+03  0.1403732281D-01
      0.1039486850D+03  0.6884262226D-01
      0.2921015530D+02  0.2321844432D+00
      0.9286662960D+01  0.4679413484D+00
      0.3163926960D+01  0.3623119853D+00
 SP   3 1.00       0.000000000000
      0.7868272350D+01 -0.1193324198D+00  0.6899906659D-01
      0.1881288540D+01 -0.1608541517D+00  0.3164239610D+00
      0.5442492580D+00  0.1143456438D+01  0.7443082909D+00
 SP   1 1.00       0.000000000000
      0.1687144782D+00  0.1000000000D+01  0.1000000000D+01
 D   1 1.00       0.000000000000
      0.8000000000D+00  0.1000000000D+01
 ****
     26 0
 S   3 1.00       0.000000000000
      0.1873113696D+02  0.3349460434D-01
      0.2825394365D+01  0.2347269535D+00
      0.6401216923D+00  0.8137573261D+00
 S   1 1.00       0.000000000000
      0.1612777588D+00  0.1000000000D+01
 ****
     27 0
 S   3 1.00       0.000000000000
      0.1873113696D+02  0.3349460434D-01
      0.2825394365D+01  0.2347269535D+00
      0.6401216923D+00  0.8137573261D+00
 S   1 1.00       0.000000000000
      0.1612777588D+00  0.1000000000D+01
 ****
     28 0
 S   6 1.00       0.000000000000
      0.3047524880D+04  0.1834737132D-02
      0.4573695180D+03  0.1403732281D-01
      0.1039486850D+03  0.6884262226D-01
      0.2921015530D+02  0.2321844432D+00
      0.9286662960D+01  0.4679413484D+00
      0.3163926960D+01  0.3623119853D+00
 SP   3 1.00       0.000000000000
      0.7868272350D+01 -0.1193324198D+00  0.6899906659D-01
      0.1881288540D+01 -0.1608541517D+00  0.3164239610D+00
      0.5442492580D+00  0.1143456438D+01  0.7443082909D+00
 SP   1 1.00       0.000000000000
      0.1687144782D+00  0.1000000000D+01  0.1000000000D+01
 D   1 1.00       0.000000000000
      0.8000000000D+00  0.1000000000D+01
 ****
     29 0
 S   6 1.00       0.000000000000
      0.3047524880D+04  0.1834737132D-02
      0.4573695180D+03  0.1403732281D-01
      0.1039486850D+03  0.6884262226D-01
      0.2921015530D+02  0.2321844432D+00
      0.9286662960D+01  0.4679413484D+00
      0.3163926960D+01  0.3623119853D+00
 SP   3 1.00       0.000000000000
      0.7868272350D+01 -0.1193324198D+00  0.6899906659D-01
      0.1881288540D+01 -0.1608541517D+00  0.3164239610D+00
      0.5442492580D+00  0.1143456438D+01  0.7443082909D+00
 SP   1 1.00       0.000000000000
      0.1687144782D+00  0.1000000000D+01  0.1000000000D+01
 D   1 1.00       0.000000000000
      0.8000000000D+00  0.1000000000D+01
 ****
     30 0
 S   3 1.00       0.000000000000
      0.1873113696D+02  0.3349460434D-01
      0.2825394365D+01  0.2347269535D+00
      0.6401216923D+00  0.8137573261D+00
 S   1 1.00       0.000000000000
      0.1612777588D+00  0.1000000000D+01
 ****
     31 0
 S   6 1.00       0.000000000000
      0.3047524880D+04  0.1834737132D-02
      0.4573695180D+03  0.1403732281D-01
      0.1039486850D+03  0.6884262226D-01
      0.2921015530D+02  0.2321844432D+00
      0.9286662960D+01  0.4679413484D+00
      0.3163926960D+01  0.3623119853D+00
 SP   3 1.00       0.000000000000
      0.7868272350D+01 -0.1193324198D+00  0.6899906659D-01
      0.1881288540D+01 -0.1608541517D+00  0.3164239610D+00
      0.5442492580D+00  0.1143456438D+01  0.7443082909D+00
 SP   1 1.00       0.000000000000
      0.1687144782D+00  0.1000000000D+01  0.1000000000D+01
 D   1 1.00       0.000000000000
      0.8000000000D+00  0.1000000000D+01
 ****
     32 0
 S   3 1.00       0.000000000000
      0.1873113696D+02  0.3349460434D-01
      0.2825394365D+01  0.2347269535D+00
      0.6401216923D+00  0.8137573261D+00
 S   1 1.00       0.000000000000
      0.1612777588D+00  0.1000000000D+01
 ****
     33 0
 S   3 1.00       0.000000000000
      0.1873113696D+02  0.3349460434D-01
      0.2825394365D+01  0.2347269535D+00
      0.6401216923D+00  0.8137573261D+00
 S   1 1.00       0.000000000000
      0.1612777588D+00  0.1000000000D+01
 ****
     34 0
 S   6 1.00       0.000000000000
      0.3047524880D+04  0.1834737132D-02
      0.4573695180D+03  0.1403732281D-01
      0.1039486850D+03  0.6884262226D-01
      0.2921015530D+02  0.2321844432D+00
      0.9286662960D+01  0.4679413484D+00
      0.3163926960D+01  0.3623119853D+00
 SP   3 1.00       0.000000000000
      0.7868272350D+01 -0.1193324198D+00  0.6899906659D-01
      0.1881288540D+01 -0.1608541517D+00  0.3164239610D+00
      0.5442492580D+00  0.1143456438D+01  0.7443082909D+00
 SP   1 1.00       0.000000000000
      0.1687144782D+00  0.1000000000D+01  0.1000000000D+01
 D   1 1.00       0.000000000000
      0.8000000000D+00  0.1000000000D+01
 ****
     35 0
 S   3 1.00       0.000000000000
      0.1873113696D+02  0.3349460434D-01
      0.2825394365D+01  0.2347269535D+00
      0.6401216923D+00  0.8137573261D+00
 S   1 1.00       0.000000000000
      0.1612777588D+00  0.1000000000D+01
 ****
     36 0
 S   3 1.00       0.000000000000
      0.1873113696D+02  0.3349460434D-01
      0.2825394365D+01  0.2347269535D+00
      0.6401216923D+00  0.8137573261D+00
 S   1 1.00       0.000000000000
      0.1612777588D+00  0.1000000000D+01
 ****
     37 0
 S   6 1.00       0.000000000000
      0.3047524880D+04  0.1834737132D-02
      0.4573695180D+03  0.1403732281D-01
      0.1039486850D+03  0.6884262226D-01
      0.2921015530D+02  0.2321844432D+00
      0.9286662960D+01  0.4679413484D+00
      0.3163926960D+01  0.3623119853D+00
 SP   3 1.00       0.000000000000
      0.7868272350D+01 -0.1193324198D+00  0.6899906659D-01
      0.1881288540D+01 -0.1608541517D+00  0.3164239610D+00
      0.5442492580D+00  0.1143456438D+01  0.7443082909D+00
 SP   1 1.00       0.000000000000
      0.1687144782D+00  0.1000000000D+01  0.1000000000D+01
 D   1 1.00       0.000000000000
      0.8000000000D+00  0.1000000000D+01
 ****
     38 0
 S   3 1.00       0.000000000000
      0.1873113696D+02  0.3349460434D-01
      0.2825394365D+01  0.2347269535D+00
      0.6401216923D+00  0.8137573261D+00
 S   1 1.00       0.000000000000
      0.1612777588D+00  0.1000000000D+01
 ****
     39 0
 S   6 1.00       0.000000000000
      0.3047524880D+04  0.1834737132D-02
      0.4573695180D+03  0.1403732281D-01
      0.1039486850D+03  0.6884262226D-01
      0.2921015530D+02  0.2321844432D+00
      0.9286662960D+01  0.4679413484D+00
      0.3163926960D+01  0.3623119853D+00
 SP   3 1.00       0.000000000000
      0.7868272350D+01 -0.1193324198D+00  0.6899906659D-01
      0.1881288540D+01 -0.1608541517D+00  0.3164239610D+00
      0.5442492580D+00  0.1143456438D+01  0.7443082909D+00
 SP   1 1.00       0.000000000000
      0.1687144782D+00  0.1000000000D+01  0.1000000000D+01
 D   1 1.00       0.000000000000
      0.8000000000D+00  0.1000000000D+01
 ****
     40 0
 S   3 1.00       0.000000000000
      0.1873113696D+02  0.3349460434D-01
      0.2825394365D+01  0.2347269535D+00
      0.6401216923D+00  0.8137573261D+00
 S   1 1.00       0.000000000000
      0.1612777588D+00  0.1000000000D+01
 ****
     41 0
 S   3 1.00       0.000000000000
      0.1873113696D+02  0.3349460434D-01
      0.2825394365D+01  0.2347269535D+00
      0.6401216923D+00  0.8137573261D+00
 S   1 1.00       0.000000000000
      0.1612777588D+00  0.1000000000D+01
 ****
     42 0
 S   3 1.00       0.000000000000
      0.1873113696D+02  0.3349460434D-01
      0.2825394365D+01  0.2347269535D+00
      0.6401216923D+00  0.8137573261D+00
 S   1 1.00       0.000000000000
      0.1612777588D+00  0.1000000000D+01
 ****
     43 0
 S   6 1.00       0.000000000000
      0.3047524880D+04  0.1834737132D-02
      0.4573695180D+03  0.1403732281D-01
      0.1039486850D+03  0.6884262226D-01
      0.2921015530D+02  0.2321844432D+00
      0.9286662960D+01  0.4679413484D+00
      0.3163926960D+01  0.3623119853D+00
 SP   3 1.00       0.000000000000
      0.7868272350D+01 -0.1193324198D+00  0.6899906659D-01
      0.1881288540D+01 -0.1608541517D+00  0.3164239610D+00
      0.5442492580D+00  0.1143456438D+01  0.7443082909D+00
 SP   1 1.00       0.000000000000
      0.1687144782D+00  0.1000000000D+01  0.1000000000D+01
 D   1 1.00       0.000000000000
      0.8000000000D+00  0.1000000000D+01
 ****
     44 0
 S   3 1.00       0.000000000000
      0.1873113696D+02  0.3349460434D-01
      0.2825394365D+01  0.2347269535D+00
      0.6401216923D+00  0.8137573261D+00
 S   1 1.00       0.000000000000
      0.1612777588D+00  0.1000000000D+01
 ****
     45 0
 S   6 1.00       0.000000000000
      0.3047524880D+04  0.1834737132D-02
      0.4573695180D+03  0.1403732281D-01
      0.1039486850D+03  0.6884262226D-01
      0.2921015530D+02  0.2321844432D+00
      0.9286662960D+01  0.4679413484D+00
      0.3163926960D+01  0.3623119853D+00
 SP   3 1.00       0.000000000000
      0.7868272350D+01 -0.1193324198D+00  0.6899906659D-01
      0.1881288540D+01 -0.1608541517D+00  0.3164239610D+00
      0.5442492580D+00  0.1143456438D+01  0.7443082909D+00
 SP   1 1.00       0.000000000000
      0.1687144782D+00  0.1000000000D+01  0.1000000000D+01
 D   1 1.00       0.000000000000
      0.8000000000D+00  0.1000000000D+01
 ****
     46 0
 S   3 1.00       0.000000000000
      0.1873113696D+02  0.3349460434D-01
      0.2825394365D+01  0.2347269535D+00
      0.6401216923D+00  0.8137573261D+00
 S   1 1.00       0.000000000000
      0.1612777588D+00  0.1000000000D+01
 ****
     47 0
 S   3 1.00       0.000000000000
      0.1873113696D+02  0.3349460434D-01
      0.2825394365D+01  0.2347269535D+00
      0.6401216923D+00  0.8137573261D+00
 S   1 1.00       0.000000000000
      0.1612777588D+00  0.1000000000D+01
 ****
     48 0
 S   3 1.00       0.000000000000
      0.1873113696D+02  0.3349460434D-01
      0.2825394365D+01  0.2347269535D+00
      0.6401216923D+00  0.8137573261D+00
 S   1 1.00       0.000000000000
      0.1612777588D+00  0.1000000000D+01
 ****
     49 0
 S   6 1.00       0.000000000000
      0.3047524880D+04  0.1834737132D-02
      0.4573695180D+03  0.1403732281D-01
      0.1039486850D+03  0.6884262226D-01
      0.2921015530D+02  0.2321844432D+00
      0.9286662960D+01  0.4679413484D+00
      0.3163926960D+01  0.3623119853D+00
 SP   3 1.00       0.000000000000
      0.7868272350D+01 -0.1193324198D+00  0.6899906659D-01
      0.1881288540D+01 -0.1608541517D+00  0.3164239610D+00
      0.5442492580D+00  0.1143456438D+01  0.7443082909D+00
 SP   1 1.00       0.000000000000
      0.1687144782D+00  0.1000000000D+01  0.1000000000D+01
 D   1 1.00       0.000000000000
      0.8000000000D+00  0.1000000000D+01
 ****
     50 0
 S   3 1.00       0.000000000000
      0.1873113696D+02  0.3349460434D-01
      0.2825394365D+01  0.2347269535D+00
      0.6401216923D+00  0.8137573261D+00
 S   1 1.00       0.000000000000
      0.1612777588D+00  0.1000000000D+01
 ****
     51 0
 S   3 1.00       0.000000000000
      0.1873113696D+02  0.3349460434D-01
      0.2825394365D+01  0.2347269535D+00
      0.6401216923D+00  0.8137573261D+00
 S   1 1.00       0.000000000000
      0.1612777588D+00  0.1000000000D+01
 ****
     52 0
 S   3 1.00       0.000000000000
      0.1873113696D+02  0.3349460434D-01
      0.2825394365D+01  0.2347269535D+00
      0.6401216923D+00  0.8137573261D+00
 S   1 1.00       0.000000000000
      0.1612777588D+00  0.1000000000D+01
 ****
     53 0
 S   6 1.00       0.000000000000
      0.5484671660D+04  0.1831074430D-02
      0.8252349460D+03  0.1395017220D-01
      0.1880469580D+03  0.6844507810D-01
      0.5296450000D+02  0.2327143360D+00
      0.1689757040D+02  0.4701928980D+00
      0.5799635340D+01  0.3585208530D+00
 SP   3 1.00       0.000000000000
      0.1553961625D+02 -0.1107775495D+00  0.7087426823D-01
      0.3599933586D+01 -0.1480262627D+00  0.3397528391D+00
      0.1013761750D+01  0.1130767015D+01  0.7271585773D+00
 SP   1 1.00       0.000000000000
      0.2700058226D+00  0.1000000000D+01  0.1000000000D+01
 D   1 1.00       0.000000000000
      0.8000000000D+00  0.1000000000D+01
 ****
     54 0
 S   6 1.00       0.000000000000
      0.5484671660D+04  0.1831074430D-02
      0.8252349460D+03  0.1395017220D-01
      0.1880469580D+03  0.6844507810D-01
      0.5296450000D+02  0.2327143360D+00
      0.1689757040D+02  0.4701928980D+00
      0.5799635340D+01  0.3585208530D+00
 SP   3 1.00       0.000000000000
      0.1553961625D+02 -0.1107775495D+00  0.7087426823D-01
      0.3599933586D+01 -0.1480262627D+00  0.3397528391D+00
      0.1013761750D+01  0.1130767015D+01  0.7271585773D+00
 SP   1 1.00       0.000000000000
      0.2700058226D+00  0.1000000000D+01  0.1000000000D+01
 D   1 1.00       0.000000000000
      0.8000000000D+00  0.1000000000D+01
 ****
     55 0
 S   3 1.00       0.000000000000
      0.1873113696D+02  0.3349460434D-01
      0.2825394365D+01  0.2347269535D+00
      0.6401216923D+00  0.8137573261D+00
 S   1 1.00       0.000000000000
      0.1612777588D+00  0.1000000000D+01
 ****
     56 0
 S   6 1.00       0.000000000000
      0.5484671660D+04  0.1831074430D-02
      0.8252349460D+03  0.1395017220D-01
      0.1880469580D+03  0.6844507810D-01
      0.5296450000D+02  0.2327143360D+00
      0.1689757040D+02  0.4701928980D+00
      0.5799635340D+01  0.3585208530D+00
 SP   3 1.00       0.000000000000
      0.1553961625D+02 -0.1107775495D+00  0.7087426823D-01
      0.3599933586D+01 -0.1480262627D+00  0.3397528391D+00
      0.1013761750D+01  0.1130767015D+01  0.7271585773D+00
 SP   1 1.00       0.000000000000
      0.2700058226D+00  0.1000000000D+01  0.1000000000D+01
 D   1 1.00       0.000000000000
      0.8000000000D+00  0.1000000000D+01
 ****
     57 0
 S   3 1.00       0.000000000000
      0.1873113696D+02  0.3349460434D-01
      0.2825394365D+01  0.2347269535D+00
      0.6401216923D+00  0.8137573261D+00
 S   1 1.00       0.000000000000
      0.1612777588D+00  0.1000000000D+01
 ****
     58 0
 S   6 1.00       0.000000000000
      0.3047524880D+04  0.1834737132D-02
      0.4573695180D+03  0.1403732281D-01
      0.1039486850D+03  0.6884262226D-01
      0.2921015530D+02  0.2321844432D+00
      0.9286662960D+01  0.4679413484D+00
      0.3163926960D+01  0.3623119853D+00
 SP   3 1.00       0.000000000000
      0.7868272350D+01 -0.1193324198D+00  0.6899906659D-01
      0.1881288540D+01 -0.1608541517D+00  0.3164239610D+00
      0.5442492580D+00  0.1143456438D+01  0.7443082909D+00
 SP   1 1.00       0.000000000000
      0.1687144782D+00  0.1000000000D+01  0.1000000000D+01
 D   1 1.00       0.000000000000
      0.8000000000D+00  0.1000000000D+01
 ****
     59 0
 S   3 1.00       0.000000000000
      0.1873113696D+02  0.3349460434D-01
      0.2825394365D+01  0.2347269535D+00
      0.6401216923D+00  0.8137573261D+00
 S   1 1.00       0.000000000000
      0.1612777588D+00  0.1000000000D+01
 ****
     60 0
 S   3 1.00       0.000000000000
      0.1873113696D+02  0.3349460434D-01
      0.2825394365D+01  0.2347269535D+00
      0.6401216923D+00  0.8137573261D+00
 S   1 1.00       0.000000000000
      0.1612777588D+00  0.1000000000D+01
 ****
     61 0
 S   6 1.00       0.000000000000
      0.3047524880D+04  0.1834737132D-02
      0.4573695180D+03  0.1403732281D-01
      0.1039486850D+03  0.6884262226D-01
      0.2921015530D+02  0.2321844432D+00
      0.9286662960D+01  0.4679413484D+00
      0.3163926960D+01  0.3623119853D+00
 SP   3 1.00       0.000000000000
      0.7868272350D+01 -0.1193324198D+00  0.6899906659D-01
      0.1881288540D+01 -0.1608541517D+00  0.3164239610D+00
      0.5442492580D+00  0.1143456438D+01  0.7443082909D+00
 SP   1 1.00       0.000000000000
      0.1687144782D+00  0.1000000000D+01  0.1000000000D+01
 D   1 1.00       0.000000000000
      0.8000000000D+00  0.1000000000D+01
 ****
     62 0
 S   3 1.00       0.000000000000
      0.1873113696D+02  0.3349460434D-01
      0.2825394365D+01  0.2347269535D+00
      0.6401216923D+00  0.8137573261D+00
 S   1 1.00       0.000000000000
      0.1612777588D+00  0.1000000000D+01
 ****
     63 0
 S   3 1.00       0.000000000000
      0.1873113696D+02  0.3349460434D-01
      0.2825394365D+01  0.2347269535D+00
      0.6401216923D+00  0.8137573261D+00
 S   1 1.00       0.000000000000
      0.1612777588D+00  0.1000000000D+01
 ****
     64 0
 S   6 1.00       0.000000000000
      0.3047524880D+04  0.1834737132D-02
      0.4573695180D+03  0.1403732281D-01
      0.1039486850D+03  0.6884262226D-01
      0.2921015530D+02  0.2321844432D+00
      0.9286662960D+01  0.4679413484D+00
      0.3163926960D+01  0.3623119853D+00
 SP   3 1.00       0.000000000000
      0.7868272350D+01 -0.1193324198D+00  0.6899906659D-01
      0.1881288540D+01 -0.1608541517D+00  0.3164239610D+00
      0.5442492580D+00  0.1143456438D+01  0.7443082909D+00
 SP   1 1.00       0.000000000000
      0.1687144782D+00  0.1000000000D+01  0.1000000000D+01
 D   1 1.00       0.000000000000
      0.8000000000D+00  0.1000000000D+01
 ****
     65 0
 S   3 1.00       0.000000000000
      0.1873113696D+02  0.3349460434D-01
      0.2825394365D+01  0.2347269535D+00
      0.6401216923D+00  0.8137573261D+00
 S   1 1.00       0.000000000000
      0.1612777588D+00  0.1000000000D+01
 ****
     66 0
 S   3 1.00       0.000000000000
      0.1873113696D+02  0.3349460434D-01
      0.2825394365D+01  0.2347269535D+00
      0.6401216923D+00  0.8137573261D+00
 S   1 1.00       0.000000000000
      0.1612777588D+00  0.1000000000D+01
 ****
     67 0
 S   6 1.00       0.000000000000
      0.3047524880D+04  0.1834737132D-02
      0.4573695180D+03  0.1403732281D-01
      0.1039486850D+03  0.6884262226D-01
      0.2921015530D+02  0.2321844432D+00
      0.9286662960D+01  0.4679413484D+00
      0.3163926960D+01  0.3623119853D+00
 SP   3 1.00       0.000000000000
      0.7868272350D+01 -0.1193324198D+00  0.6899906659D-01
      0.1881288540D+01 -0.1608541517D+00  0.3164239610D+00
      0.5442492580D+00  0.1143456438D+01  0.7443082909D+00
 SP   1 1.00       0.000000000000
      0.1687144782D+00  0.1000000000D+01  0.1000000000D+01
 D   1 1.00       0.000000000000
      0.8000000000D+00  0.1000000000D+01
 ****
     68 0
 S   3 1.00       0.000000000000
      0.1873113696D+02  0.3349460434D-01
      0.2825394365D+01  0.2347269535D+00
      0.6401216923D+00  0.8137573261D+00
 S   1 1.00       0.000000000000
      0.1612777588D+00  0.1000000000D+01
 ****
     69 0
 S   6 1.00       0.000000000000
      0.3047524880D+04  0.1834737132D-02
      0.4573695180D+03  0.1403732281D-01
      0.1039486850D+03  0.6884262226D-01
      0.2921015530D+02  0.2321844432D+00
      0.9286662960D+01  0.4679413484D+00
      0.3163926960D+01  0.3623119853D+00
 SP   3 1.00       0.000000000000
      0.7868272350D+01 -0.1193324198D+00  0.6899906659D-01
      0.1881288540D+01 -0.1608541517D+00  0.3164239610D+00
      0.5442492580D+00  0.1143456438D+01  0.7443082909D+00
 SP   1 1.00       0.000000000000
      0.1687144782D+00  0.1000000000D+01  0.1000000000D+01
 D   1 1.00       0.000000000000
      0.8000000000D+00  0.1000000000D+01
 ****
     70 0
 S   3 1.00       0.000000000000
      0.1873113696D+02  0.3349460434D-01
      0.2825394365D+01  0.2347269535D+00
      0.6401216923D+00  0.8137573261D+00
 S   1 1.00       0.000000000000
      0.1612777588D+00  0.1000000000D+01
 ****
     71 0
 S   3 1.00       0.000000000000
      0.1873113696D+02  0.3349460434D-01
      0.2825394365D+01  0.2347269535D+00
      0.6401216923D+00  0.8137573261D+00
 S   1 1.00       0.000000000000
      0.1612777588D+00  0.1000000000D+01
 ****
     72 0
 S   3 1.00       0.000000000000
      0.1873113696D+02  0.3349460434D-01
      0.2825394365D+01  0.2347269535D+00
      0.6401216923D+00  0.8137573261D+00
 S   1 1.00       0.000000000000
      0.1612777588D+00  0.1000000000D+01
 ****
     73 0
 S   6 1.00       0.000000000000
      0.3047524880D+04  0.1834737132D-02
      0.4573695180D+03  0.1403732281D-01
      0.1039486850D+03  0.6884262226D-01
      0.2921015530D+02  0.2321844432D+00
      0.9286662960D+01  0.4679413484D+00
      0.3163926960D+01  0.3623119853D+00
 SP   3 1.00       0.000000000000
      0.7868272350D+01 -0.1193324198D+00  0.6899906659D-01
      0.1881288540D+01 -0.1608541517D+00  0.3164239610D+00
      0.5442492580D+00  0.1143456438D+01  0.7443082909D+00
 SP   1 1.00       0.000000000000
      0.1687144782D+00  0.1000000000D+01  0.1000000000D+01
 D   1 1.00       0.000000000000
      0.8000000000D+00  0.1000000000D+01
 ****
     74 0
 S   3 1.00       0.000000000000
      0.1873113696D+02  0.3349460434D-01
      0.2825394365D+01  0.2347269535D+00
      0.6401216923D+00  0.8137573261D+00
 S   1 1.00       0.000000000000
      0.1612777588D+00  0.1000000000D+01
 ****
     75 0
 S   3 1.00       0.000000000000
      0.1873113696D+02  0.3349460434D-01
      0.2825394365D+01  0.2347269535D+00
      0.6401216923D+00  0.8137573261D+00
 S   1 1.00       0.000000000000
      0.1612777588D+00  0.1000000000D+01
 ****
     76 0
 S   3 1.00       0.000000000000
      0.1873113696D+02  0.3349460434D-01
      0.2825394365D+01  0.2347269535D+00
      0.6401216923D+00  0.8137573261D+00
 S   1 1.00       0.000000000000
      0.1612777588D+00  0.1000000000D+01
 ****

 AO basis set (Overlap normalization):
 Atom C1       Shell     1 S   6     bf    1 -     1         14.248955317050          4.033229276232         -0.269259876818
      0.3047524880D+04  0.1834737132D-02
      0.4573695180D+03  0.1403732281D-01
      0.1039486850D+03  0.6884262226D-01
      0.2921015530D+02  0.2321844432D+00
      0.9286662960D+01  0.4679413484D+00
      0.3163926960D+01  0.3623119853D+00
 Atom C1       Shell     2 SP   3    bf    2 -     5         14.248955317050          4.033229276232         -0.269259876818
      0.7868272350D+01 -0.1193324198D+00  0.6899906659D-01
      0.1881288540D+01 -0.1608541517D+00  0.3164239610D+00
      0.5442492580D+00  0.1143456438D+01  0.7443082909D+00
 Atom C1       Shell     3 SP   1    bf    6 -     9         14.248955317050          4.033229276232         -0.269259876818
      0.1687144782D+00  0.1000000000D+01  0.1000000000D+01
 Atom C1       Shell     4 D   1     bf   10 -    15         14.248955317050          4.033229276232         -0.269259876818
      0.8000000000D+00  0.1000000000D+01
 Atom H2       Shell     5 S   3     bf   16 -    16         14.163892583301          3.797020785067          1.787799861073
      0.1873113696D+02  0.3349460434D-01
      0.2825394365D+01  0.2347269535D+00
      0.6401216923D+00  0.8137573261D+00
 Atom H2       Shell     6 S   1     bf   17 -    17         14.163892583301          3.797020785067          1.787799861073
      0.1612777588D+00  0.1000000000D+01
 Atom C3       Shell     7 S   6     bf   18 -    18         12.754081620377          1.880073185032         -1.522538588060
      0.3047524880D+04  0.1834737132D-02
      0.4573695180D+03  0.1403732281D-01
      0.1039486850D+03  0.6884262226D-01
      0.2921015530D+02  0.2321844432D+00
      0.9286662960D+01  0.4679413484D+00
      0.3163926960D+01  0.3623119853D+00
 Atom C3       Shell     8 SP   3    bf   19 -    22         12.754081620377          1.880073185032         -1.522538588060
      0.7868272350D+01 -0.1193324198D+00  0.6899906659D-01
      0.1881288540D+01 -0.1608541517D+00  0.3164239610D+00
      0.5442492580D+00  0.1143456438D+01  0.7443082909D+00
 Atom C3       Shell     9 SP   1    bf   23 -    26         12.754081620377          1.880073185032         -1.522538588060
      0.1687144782D+00  0.1000000000D+01  0.1000000000D+01
 Atom C3       Shell    10 D   1     bf   27 -    32         12.754081620377          1.880073185032         -1.522538588060
      0.8000000000D+00  0.1000000000D+01
 Atom H4       Shell    11 S   3     bf   33 -    33         13.519557482573          0.057066422192         -0.916190459698
      0.1873113696D+02  0.3349460434D-01
      0.2825394365D+01  0.2347269535D+00
      0.6401216923D+00  0.8137573261D+00
 Atom H4       Shell    12 S   1     bf   34 -    34         13.519557482573          0.057066422192         -0.916190459698
      0.1612777588D+00  0.1000000000D+01
 Atom H5       Shell    13 S   3     bf   35 -    35         13.063702230147          2.006029932446         -3.576707970933
      0.1873113696D+02  0.3349460434D-01
      0.2825394365D+01  0.2347269535D+00
      0.6401216923D+00  0.8137573261D+00
 Atom H5       Shell    14 S   1     bf   36 -    36         13.063702230147          2.006029932446         -3.576707970933
      0.1612777588D+00  0.1000000000D+01
 Atom C6       Shell    15 S   6     bf   37 -    37          9.951353411519          2.024364886867         -0.942487869666
      0.3047524880D+04  0.1834737132D-02
      0.4573695180D+03  0.1403732281D-01
      0.1039486850D+03  0.6884262226D-01
      0.2921015530D+02  0.2321844432D+00
      0.9286662960D+01  0.4679413484D+00
      0.3163926960D+01  0.3623119853D+00
 Atom C6       Shell    16 SP   3    bf   38 -    41          9.951353411519          2.024364886867         -0.942487869666
      0.7868272350D+01 -0.1193324198D+00  0.6899906659D-01
      0.1881288540D+01 -0.1608541517D+00  0.3164239610D+00
      0.5442492580D+00  0.1143456438D+01  0.7443082909D+00
 Atom C6       Shell    17 SP   1    bf   42 -    45          9.951353411519          2.024364886867         -0.942487869666
      0.1687144782D+00  0.1000000000D+01  0.1000000000D+01
 Atom C6       Shell    18 D   1     bf   46 -    51          9.951353411519          2.024364886867         -0.942487869666
      0.8000000000D+00  0.1000000000D+01
 Atom C7       Shell    19 S   6     bf   52 -    52          8.633266202399          4.549301010931         -1.469015307880
      0.3047524880D+04  0.1834737132D-02
      0.4573695180D+03  0.1403732281D-01
      0.1039486850D+03  0.6884262226D-01
      0.2921015530D+02  0.2321844432D+00
      0.9286662960D+01  0.4679413484D+00
      0.3163926960D+01  0.3623119853D+00
 Atom C7       Shell    20 SP   3    bf   53 -    56          8.633266202399          4.549301010931         -1.469015307880
      0.7868272350D+01 -0.1193324198D+00  0.6899906659D-01
      0.1881288540D+01 -0.1608541517D+00  0.3164239610D+00
      0.5442492580D+00  0.1143456438D+01  0.7443082909D+00
 Atom C7       Shell    21 SP   1    bf   57 -    60          8.633266202399          4.549301010931         -1.469015307880
      0.1687144782D+00  0.1000000000D+01  0.1000000000D+01
 Atom C7       Shell    22 D   1     bf   61 -    66          8.633266202399          4.549301010931         -1.469015307880
      0.8000000000D+00  0.1000000000D+01
 Atom C8       Shell    23 S   6     bf   67 -    67         10.279243005370          6.696193831631         -0.296016905976
      0.3047524880D+04  0.1834737132D-02
      0.4573695180D+03  0.1403732281D-01
      0.1039486850D+03  0.6884262226D-01
      0.2921015530D+02  0.2321844432D+00
      0.9286662960D+01  0.4679413484D+00
      0.3163926960D+01  0.3623119853D+00
 Atom C8       Shell    24 SP   3    bf   68 -    71         10.279243005370          6.696193831631         -0.296016905976
      0.7868272350D+01 -0.1193324198D+00  0.6899906659D-01
      0.1881288540D+01 -0.1608541517D+00  0.3164239610D+00
      0.5442492580D+00  0.1143456438D+01  0.7443082909D+00
 Atom C8       Shell    25 SP   1    bf   72 -    75         10.279243005370          6.696193831631         -0.296016905976
      0.1687144782D+00  0.1000000000D+01  0.1000000000D+01
 Atom C8       Shell    26 D   1     bf   76 -    81         10.279243005370          6.696193831631         -0.296016905976
      0.8000000000D+00  0.1000000000D+01
 Atom H9       Shell    27 S   3     bf   82 -    82         10.099137535118          6.592568374771          1.769084637062
      0.1873113696D+02  0.3349460434D-01
      0.2825394365D+01  0.2347269535D+00
      0.6401216923D+00  0.8137573261D+00
 Atom H9       Shell    28 S   1     bf   83 -    83         10.099137535118          6.592568374771          1.769084637062
      0.1612777588D+00  0.1000000000D+01
 Atom H10      Shell    29 S   3     bf   84 -    84          9.511679846174          8.533018763283         -0.862404583175
      0.1873113696D+02  0.3349460434D-01
      0.2825394365D+01  0.2347269535D+00
      0.6401216923D+00  0.8137573261D+00
 Atom H10      Shell    30 S   1     bf   85 -    85          9.511679846174          8.533018763283         -0.862404583175
      0.1612777588D+00  0.1000000000D+01
 Atom C11      Shell    31 S   6     bf   86 -    86         13.099893603640          6.587052585442         -0.978075645735
      0.3047524880D+04  0.1834737132D-02
      0.4573695180D+03  0.1403732281D-01
      0.1039486850D+03  0.6884262226D-01
      0.2921015530D+02  0.2321844432D+00
      0.9286662960D+01  0.4679413484D+00
      0.3163926960D+01  0.3623119853D+00
 Atom C11      Shell    32 SP   3    bf   87 -    90         13.099893603640          6.587052585442         -0.978075645735
      0.7868272350D+01 -0.1193324198D+00  0.6899906659D-01
      0.1881288540D+01 -0.1608541517D+00  0.3164239610D+00
      0.5442492580D+00  0.1143456438D+01  0.7443082909D+00
 Atom C11      Shell    33 SP   1    bf   91 -    94         13.099893603640          6.587052585442         -0.978075645735
      0.1687144782D+00  0.1000000000D+01  0.1000000000D+01
 Atom C11      Shell    34 D   1     bf   95 -   100         13.099893603640          6.587052585442         -0.978075645735
      0.8000000000D+00  0.1000000000D+01
 Atom H12      Shell    35 S   3     bf  101 -   101         13.368710698728          6.908904863347         -3.014406410757
      0.1873113696D+02  0.3349460434D-01
      0.2825394365D+01  0.2347269535D+00
      0.6401216923D+00  0.8137573261D+00
 Atom H12      Shell    36 S   1     bf  102 -   102         13.368710698728          6.908904863347         -3.014406410757
      0.1612777588D+00  0.1000000000D+01
 Atom H13      Shell    37 S   3     bf  103 -   103         14.123316572749          8.098603039649          0.000000000000
      0.1873113696D+02  0.3349460434D-01
      0.2825394365D+01  0.2347269535D+00
      0.6401216923D+00  0.8137573261D+00
 Atom H13      Shell    38 S   1     bf  104 -   104         14.123316572749          8.098603039649          0.000000000000
      0.1612777588D+00  0.1000000000D+01
 Atom C14      Shell    39 S   6     bf  105 -   105          8.750386628211          0.000000000000          0.000000000000
      0.3047524880D+04  0.1834737132D-02
      0.4573695180D+03  0.1403732281D-01
      0.1039486850D+03  0.6884262226D-01
      0.2921015530D+02  0.2321844432D+00
      0.9286662960D+01  0.4679413484D+00
      0.3163926960D+01  0.3623119853D+00
 Atom C14      Shell    40 SP   3    bf  106 -   109          8.750386628211          0.000000000000          0.000000000000
      0.7868272350D+01 -0.1193324198D+00  0.6899906659D-01
      0.1881288540D+01 -0.1608541517D+00  0.3164239610D+00
      0.5442492580D+00  0.1143456438D+01  0.7443082909D+00
 Atom C14      Shell    41 SP   1    bf  110 -   113          8.750386628211          0.000000000000          0.000000000000
      0.1687144782D+00  0.1000000000D+01  0.1000000000D+01
 Atom C14      Shell    42 D   1     bf  114 -   119          8.750386628211          0.000000000000          0.000000000000
      0.8000000000D+00  0.1000000000D+01
 Atom H15      Shell    43 S   3     bf  120 -   120          9.814423988211         -1.715155349223          0.396907154334
      0.1873113696D+02  0.3349460434D-01
      0.2825394365D+01  0.2347269535D+00
      0.6401216923D+00  0.8137573261D+00
 Atom H15      Shell    44 S   1     bf  121 -   121          9.814423988211         -1.715155349223          0.396907154334
      0.1612777588D+00  0.1000000000D+01
 Atom C16      Shell    45 S   6     bf  122 -   122          5.999881889207         -0.056801955020          0.683529173457
      0.3047524880D+04  0.1834737132D-02
      0.4573695180D+03  0.1403732281D-01
      0.1039486850D+03  0.6884262226D-01
      0.2921015530D+02  0.2321844432D+00
      0.9286662960D+01  0.4679413484D+00
      0.3163926960D+01  0.3623119853D+00
 Atom C16      Shell    46 SP   3    bf  123 -   126          5.999881889207         -0.056801955020          0.683529173457
      0.7868272350D+01 -0.1193324198D+00  0.6899906659D-01
      0.1881288540D+01 -0.1608541517D+00  0.3164239610D+00
      0.5442492580D+00  0.1143456438D+01  0.7443082909D+00
 Atom C16      Shell    47 SP   1    bf  127 -   130          5.999881889207         -0.056801955020          0.683529173457
      0.1687144782D+00  0.1000000000D+01  0.1000000000D+01
 Atom C16      Shell    48 D   1     bf  131 -   136          5.999881889207         -0.056801955020          0.683529173457
      0.8000000000D+00  0.1000000000D+01
 Atom H17      Shell    49 S   3     bf  137 -   137          5.176163042430         -1.902210003870          0.234376779624
      0.1873113696D+02  0.3349460434D-01
      0.2825394365D+01  0.2347269535D+00
      0.6401216923D+00  0.8137573261D+00
 Atom H17      Shell    50 S   1     bf  138 -   138          5.176163042430         -1.902210003870          0.234376779624
      0.1612777588D+00  0.1000000000D+01
 Atom C18      Shell    51 S   6     bf  139 -   139          4.497395544191          2.085771518658         -0.593271185727
      0.3047524880D+04  0.1834737132D-02
      0.4573695180D+03  0.1403732281D-01
      0.1039486850D+03  0.6884262226D-01
      0.2921015530D+02  0.2321844432D+00
      0.9286662960D+01  0.4679413484D+00
      0.3163926960D+01  0.3623119853D+00
 Atom C18      Shell    52 SP   3    bf  140 -   143          4.497395544191          2.085771518658         -0.593271185727
      0.7868272350D+01 -0.1193324198D+00  0.6899906659D-01
      0.1881288540D+01 -0.1608541517D+00  0.3164239610D+00
      0.5442492580D+00  0.1143456438D+01  0.7443082909D+00
 Atom C18      Shell    53 SP   1    bf  144 -   147          4.497395544191          2.085771518658         -0.593271185727
      0.1687144782D+00  0.1000000000D+01  0.1000000000D+01
 Atom C18      Shell    54 D   1     bf  148 -   153          4.497395544191          2.085771518658         -0.593271185727
      0.8000000000D+00  0.1000000000D+01
 Atom H19      Shell    55 S   3     bf  154 -   154          4.456804245754          1.603264173566         -2.614790711956
      0.1873113696D+02  0.3349460434D-01
      0.2825394365D+01  0.2347269535D+00
      0.6401216923D+00  0.8137573261D+00
 Atom H19      Shell    56 S   1     bf  155 -   155          4.456804245754          1.603264173566         -2.614790711956
      0.1612777588D+00  0.1000000000D+01
 Atom C20      Shell    57 S   6     bf  156 -   156          5.950452814077          4.606673549859         -0.204866873025
      0.3047524880D+04  0.1834737132D-02
      0.4573695180D+03  0.1403732281D-01
      0.1039486850D+03  0.6884262226D-01
      0.2921015530D+02  0.2321844432D+00
      0.9286662960D+01  0.4679413484D+00
      0.3163926960D+01  0.3623119853D+00
 Atom C20      Shell    58 SP   3    bf  157 -   160          5.950452814077          4.606673549859         -0.204866873025
      0.7868272350D+01 -0.1193324198D+00  0.6899906659D-01
      0.1881288540D+01 -0.1608541517D+00  0.3164239610D+00
      0.5442492580D+00  0.1143456438D+01  0.7443082909D+00
 Atom C20      Shell    59 SP   1    bf  161 -   164          5.950452814077          4.606673549859         -0.204866873025
      0.1687144782D+00  0.1000000000D+01  0.1000000000D+01
 Atom C20      Shell    60 D   1     bf  165 -   170          5.950452814077          4.606673549859         -0.204866873025
      0.8000000000D+00  0.1000000000D+01
 Atom H21      Shell    61 S   3     bf  171 -   171          6.283505952306          4.728761782216          1.843249660353
      0.1873113696D+02  0.3349460434D-01
      0.2825394365D+01  0.2347269535D+00
      0.6401216923D+00  0.8137573261D+00
 Atom H21      Shell    62 S   1     bf  172 -   172          6.283505952306          4.728761782216          1.843249660353
      0.1612777588D+00  0.1000000000D+01
 Atom C22      Shell    63 S   6     bf  173 -   173          4.383079490857          6.961462550165         -0.936688734802
      0.3047524880D+04  0.1834737132D-02
      0.4573695180D+03  0.1403732281D-01
      0.1039486850D+03  0.6884262226D-01
      0.2921015530D+02  0.2321844432D+00
      0.9286662960D+01  0.4679413484D+00
      0.3163926960D+01  0.3623119853D+00
 Atom C22      Shell    64 SP   3    bf  174 -   177          4.383079490857          6.961462550165         -0.936688734802
      0.7868272350D+01 -0.1193324198D+00  0.6899906659D-01
      0.1881288540D+01 -0.1608541517D+00  0.3164239610D+00
      0.5442492580D+00  0.1143456438D+01  0.7443082909D+00
 Atom C22      Shell    65 SP   1    bf  178 -   181          4.383079490857          6.961462550165         -0.936688734802
      0.1687144782D+00  0.1000000000D+01  0.1000000000D+01
 Atom C22      Shell    66 D   1     bf  182 -   187          4.383079490857          6.961462550165         -0.936688734802
      0.8000000000D+00  0.1000000000D+01
 Atom H23      Shell    67 S   3     bf  188 -   188          4.294302575984          7.154383519441         -2.994315522813
      0.1873113696D+02  0.3349460434D-01
      0.2825394365D+01  0.2347269535D+00
      0.6401216923D+00  0.8137573261D+00
 Atom H23      Shell    68 S   1     bf  189 -   189          4.294302575984          7.154383519441         -2.994315522813
      0.1612777588D+00  0.1000000000D+01
 Atom H24      Shell    69 S   3     bf  190 -   190          5.343583707119          8.662881536820         -0.248764001667
      0.1873113696D+02  0.3349460434D-01
      0.2825394365D+01  0.2347269535D+00
      0.6401216923D+00  0.8137573261D+00
 Atom H24      Shell    70 S   1     bf  191 -   191          5.343583707119          8.662881536820         -0.248764001667
      0.1612777588D+00  0.1000000000D+01
 Atom C25      Shell    71 S   6     bf  192 -   192          1.660955301423          6.953618977289          0.096681431418
      0.3047524880D+04  0.1834737132D-02
      0.4573695180D+03  0.1403732281D-01
      0.1039486850D+03  0.6884262226D-01
      0.2921015530D+02  0.2321844432D+00
      0.9286662960D+01  0.4679413484D+00
      0.3163926960D+01  0.3623119853D+00
 Atom C25      Shell    72 SP   3    bf  193 -   196          1.660955301423          6.953618977289          0.096681431418
      0.7868272350D+01 -0.1193324198D+00  0.6899906659D-01
      0.1881288540D+01 -0.1608541517D+00  0.3164239610D+00
      0.5442492580D+00  0.1143456438D+01  0.7443082909D+00
 Atom C25      Shell    73 SP   1    bf  197 -   200          1.660955301423          6.953618977289          0.096681431418
      0.1687144782D+00  0.1000000000D+01  0.1000000000D+01
 Atom C25      Shell    74 D   1     bf  201 -   206          1.660955301423          6.953618977289          0.096681431418
      0.8000000000D+00  0.1000000000D+01
 Atom H26      Shell    75 S   3     bf  207 -   207          1.698885997746          7.054036076017          2.171342059613
      0.1873113696D+02  0.3349460434D-01
      0.2825394365D+01  0.2347269535D+00
      0.6401216923D+00  0.8137573261D+00
 Atom H26      Shell    76 S   1     bf  208 -   208          1.698885997746          7.054036076017          2.171342059613
      0.1612777588D+00  0.1000000000D+01
 Atom H27      Shell    77 S   3     bf  209 -   209          0.710746010778          8.669070673364         -0.559428704023
      0.1873113696D+02  0.3349460434D-01
      0.2825394365D+01  0.2347269535D+00
      0.6401216923D+00  0.8137573261D+00
 Atom H27      Shell    78 S   1     bf  210 -   210          0.710746010778          8.669070673364         -0.559428704023
      0.1612777588D+00  0.1000000000D+01
 Atom C28      Shell    79 S   6     bf  211 -   211          0.228084256164          4.544484193504         -0.693146575563
      0.3047524880D+04  0.1834737132D-02
      0.4573695180D+03  0.1403732281D-01
      0.1039486850D+03  0.6884262226D-01
      0.2921015530D+02  0.2321844432D+00
      0.9286662960D+01  0.4679413484D+00
      0.3163926960D+01  0.3623119853D+00
 Atom C28      Shell    80 SP   3    bf  212 -   215          0.228084256164          4.544484193504         -0.693146575563
      0.7868272350D+01 -0.1193324198D+00  0.6899906659D-01
      0.1881288540D+01 -0.1608541517D+00  0.3164239610D+00
      0.5442492580D+00  0.1143456438D+01  0.7443082909D+00
 Atom C28      Shell    81 SP   1    bf  216 -   219          0.228084256164          4.544484193504         -0.693146575563
      0.1687144782D+00  0.1000000000D+01  0.1000000000D+01
 Atom C28      Shell    82 D   1     bf  220 -   225          0.228084256164          4.544484193504         -0.693146575563
      0.8000000000D+00  0.1000000000D+01
 Atom C29      Shell    83 S   6     bf  226 -   226          1.766306664058          2.273330257751          0.371420625850
      0.3047524880D+04  0.1834737132D-02
      0.4573695180D+03  0.1403732281D-01
      0.1039486850D+03  0.6884262226D-01
      0.2921015530D+02  0.2321844432D+00
      0.9286662960D+01  0.4679413484D+00
      0.3163926960D+01  0.3623119853D+00
 Atom C29      Shell    84 SP   3    bf  227 -   230          1.766306664058          2.273330257751          0.371420625850
      0.7868272350D+01 -0.1193324198D+00  0.6899906659D-01
      0.1881288540D+01 -0.1608541517D+00  0.3164239610D+00
      0.5442492580D+00  0.1143456438D+01  0.7443082909D+00
 Atom C29      Shell    85 SP   1    bf  231 -   234          1.766306664058          2.273330257751          0.371420625850
      0.1687144782D+00  0.1000000000D+01  0.1000000000D+01
 Atom C29      Shell    86 D   1     bf  235 -   240          1.766306664058          2.273330257751          0.371420625850
      0.8000000000D+00  0.1000000000D+01
 Atom H30      Shell    87 S   3     bf  241 -   241          1.891596753887          2.604396348951          2.418516329171
      0.1873113696D+02  0.3349460434D-01
      0.2825394365D+01  0.2347269535D+00
      0.6401216923D+00  0.8137573261D+00
 Atom H30      Shell    88 S   1     bf  242 -   242          1.891596753887          2.604396348951          2.418516329171
      0.1612777588D+00  0.1000000000D+01
 Atom C31      Shell    89 S   6     bf  243 -   243          0.000000000000          0.000000000000          0.000000000000
      0.3047524880D+04  0.1834737132D-02
      0.4573695180D+03  0.1403732281D-01
      0.1039486850D+03  0.6884262226D-01
      0.2921015530D+02  0.2321844432D+00
      0.9286662960D+01  0.4679413484D+00
      0.3163926960D+01  0.3623119853D+00
 Atom C31      Shell    90 SP   3    bf  244 -   247          0.000000000000          0.000000000000          0.000000000000
      0.7868272350D+01 -0.1193324198D+00  0.6899906659D-01
      0.1881288540D+01 -0.1608541517D+00  0.3164239610D+00
      0.5442492580D+00  0.1143456438D+01  0.7443082909D+00
 Atom C31      Shell    91 SP   1    bf  248 -   251          0.000000000000          0.000000000000          0.000000000000
      0.1687144782D+00  0.1000000000D+01  0.1000000000D+01
 Atom C31      Shell    92 D   1     bf  252 -   257          0.000000000000          0.000000000000          0.000000000000
      0.8000000000D+00  0.1000000000D+01
 Atom H32      Shell    93 S   3     bf  258 -   258          0.451889095219         -1.554845497206          1.277721506188
      0.1873113696D+02  0.3349460434D-01
      0.2825394365D+01  0.2347269535D+00
      0.6401216923D+00  0.8137573261D+00
 Atom H32      Shell    94 S   1     bf  259 -   259          0.451889095219         -1.554845497206          1.277721506188
      0.1612777588D+00  0.1000000000D+01
 Atom H33      Shell    95 S   3     bf  260 -   260          0.145330106346         -0.730508823368         -1.936142606614
      0.1873113696D+02  0.3349460434D-01
      0.2825394365D+01  0.2347269535D+00
      0.6401216923D+00  0.8137573261D+00
 Atom H33      Shell    96 S   1     bf  261 -   261          0.145330106346         -0.730508823368         -1.936142606614
      0.1612777588D+00  0.1000000000D+01
 Atom C34      Shell    97 S   6     bf  262 -   262         -2.666507357261          1.114553537881          0.505899792460
      0.3047524880D+04  0.1834737132D-02
      0.4573695180D+03  0.1403732281D-01
      0.1039486850D+03  0.6884262226D-01
      0.2921015530D+02  0.2321844432D+00
      0.9286662960D+01  0.4679413484D+00
      0.3163926960D+01  0.3623119853D+00
 Atom C34      Shell    98 SP   3    bf  263 -   266         -2.666507357261          1.114553537881          0.505899792460
      0.7868272350D+01 -0.1193324198D+00  0.6899906659D-01
      0.1881288540D+01 -0.1608541517D+00  0.3164239610D+00
      0.5442492580D+00  0.1143456438D+01  0.7443082909D+00
 Atom C34      Shell    99 SP   1    bf  267 -   270         -2.666507357261          1.114553537881          0.505899792460
      0.1687144782D+00  0.1000000000D+01  0.1000000000D+01
 Atom C34      Shell   100 D   1     bf  271 -   276         -2.666507357261          1.114553537881          0.505899792460
      0.8000000000D+00  0.1000000000D+01
 Atom H35      Shell   101 S   3     bf  277 -   277         -3.992379973486          0.581114672001         -0.995325122568
      0.1873113696D+02  0.3349460434D-01
      0.2825394365D+01  0.2347269535D+00
      0.6401216923D+00  0.8137573261D+00
 Atom H35      Shell   102 S   1     bf  278 -   278         -3.992379973486          0.581114672001         -0.995325122568
      0.1612777588D+00  0.1000000000D+01
 Atom H36      Shell   103 S   3     bf  279 -   279         -3.453336652327          0.375906287669          2.269249431962
      0.1873113696D+02  0.3349460434D-01
      0.2825394365D+01  0.2347269535D+00
      0.6401216923D+00  0.8137573261D+00
 Atom H36      Shell   104 S   1     bf  280 -   280         -3.453336652327          0.375906287669          2.269249431962
      0.1612777588D+00  0.1000000000D+01
 Atom C37      Shell   105 S   6     bf  281 -   281         -2.378892589411          4.060162106612          0.631130960628
      0.3047524880D+04  0.1834737132D-02
      0.4573695180D+03  0.1403732281D-01
      0.1039486850D+03  0.6884262226D-01
      0.2921015530D+02  0.2321844432D+00
      0.9286662960D+01  0.4679413484D+00
      0.3163926960D+01  0.3623119853D+00
 Atom C37      Shell   106 SP   3    bf  282 -   285         -2.378892589411          4.060162106612          0.631130960628
      0.7868272350D+01 -0.1193324198D+00  0.6899906659D-01
      0.1881288540D+01 -0.1608541517D+00  0.3164239610D+00
      0.5442492580D+00  0.1143456438D+01  0.7443082909D+00
[...]
 **** Fit       0.018016
 **** Fit       0.016965
 **** Fit       0.012945
 **** Fit       0.004873
 **** Fit      -0.007229
 **** Fit      -0.021672
 **** Fit      -0.035535
 **** Fit      -0.045751
 **** Fit      -0.050379
 **** Fit      -0.049508
 **** Fit      -0.044914
 **** Fit      -0.038746
 **** Fit      -0.032531
 **** Fit      -0.027004
 **** Fit       0.012775
 **** Fit       0.013853
 **** Fit       0.014559
 **** Fit       0.014425
 **** Fit       0.012753
 **** Fit       0.008723
 **** Fit       0.001766
 **** Fit      -0.007908
 **** Fit      -0.019006
 **** Fit      -0.029440
 **** Fit      -0.037094
 **** Fit      -0.040717
 **** Fit      -0.040412
 **** Fit      -0.037334
 **** Fit      -0.032906
 **** Fit      -0.028216
 **** Fit      -0.023867
 **** Fit       0.011105
 **** Fit       0.011679
 **** Fit       0.011810
 **** Fit       0.011135
 **** Fit       0.009184
 **** Fit       0.005484
 **** Fit      -0.000199
 **** Fit      -0.007581
 **** Fit      -0.015735
 **** Fit      -0.023286
 **** Fit      -0.028891
 **** Fit      -0.031770
 **** Fit      -0.031961
 **** Fit      -0.030139
 **** Fit      -0.027189
 **** Fit      -0.023853
 **** Fit       0.009662
 **** Fit       0.009402
 **** Fit       0.008440
 **** Fit       0.006485
 **** Fit       0.003294
 **** Fit      -0.001185
 **** Fit      -0.006680
 **** Fit      -0.012555
 **** Fit      -0.017942
 **** Fit      -0.022022
 **** Fit      -0.024316
 **** Fit      -0.024809
 **** Fit      -0.023873
 **** Fit      -0.022034
 **** Fit       0.007434
 **** Fit       0.006376
 **** Fit       0.004578
 **** Fit       0.001934
 **** Fit      -0.001528
 **** Fit      -0.005582
 **** Fit      -0.009800
 **** Fit      -0.013647
 **** Fit      -0.016628
 **** Fit      -0.018446
 **** Fit      -0.019071
 **** Fit       0.003287
 **** Fit       0.001147
 **** Fit      -0.001507
 **** Fit      -0.004498
 **** Fit      -0.007546
 **** Fit      -0.005624
 **** Fit      -0.008988
 **** Fit      -0.012584
 **** Fit      -0.016061
 **** Fit      -0.019021
 **** Fit      -0.021126
 **** Fit      -0.022197
 **** Fit       0.000603
 **** Fit      -0.002053
 **** Fit      -0.005543
 **** Fit      -0.009771
 **** Fit      -0.014436
 **** Fit      -0.019042
 **** Fit      -0.022990
 **** Fit      -0.025756
 **** Fit      -0.027061
 **** Fit      -0.026944
 **** Fit      -0.025696
 **** Fit       0.005173
 **** Fit       0.004052
 **** Fit       0.002147
 **** Fit      -0.000770
 **** Fit      -0.004850
 **** Fit      -0.010044
 **** Fit      -0.016000
 **** Fit      -0.022037
 **** Fit      -0.027280
 **** Fit      -0.030930
 **** Fit      -0.032552
 **** Fit      -0.032212
 **** Fit      -0.030373
 **** Fit      -0.027642
 **** Fit       0.006914
 **** Fit       0.006039
 **** Fit       0.004270
 **** Fit       0.001249
 **** Fit      -0.003318
 **** Fit      -0.009487
 **** Fit      -0.016878
 **** Fit      -0.024613
 **** Fit      -0.031467
 **** Fit      -0.036261
 **** Fit      -0.038328
 **** Fit      -0.037755
 **** Fit      -0.035227
 **** Fit      -0.031627
 **** Fit      -0.027693
 **** Fit       0.008741
 **** Fit       0.008820
 **** Fit       0.008333
 **** Fit       0.006890
 **** Fit       0.003991
 **** Fit      -0.000852
 **** Fit      -0.007855
 **** Fit      -0.016664
 **** Fit      -0.026208
 **** Fit      -0.034885
 **** Fit      -0.041065
 **** Fit      -0.043757
 **** Fit      -0.043024
 **** Fit      -0.039808
 **** Fit      -0.035321
 **** Fit      -0.030536
 **** Fit      -0.026032
 **** Fit       0.010201
 **** Fit       0.010690
 **** Fit       0.010681
 **** Fit       0.009719
 **** Fit       0.007167
 **** Fit       0.002324
 **** Fit      -0.005234
 **** Fit      -0.015220
 **** Fit      -0.026415
 **** Fit      -0.036876
 **** Fit      -0.044533
 **** Fit      -0.048010
 **** Fit      -0.047282
 **** Fit      -0.043523
 **** Fit      -0.038281
 **** Fit      -0.032770
 **** Fit      -0.027671
 **** Fit       0.010402
 **** Fit       0.011395
 **** Fit       0.012255
 **** Fit       0.012705
 **** Fit       0.012253
 **** Fit       0.010158
 **** Fit       0.005534
 **** Fit      -0.002249
 **** Fit      -0.012993
 **** Fit      -0.025381
 **** Fit      -0.037227
 **** Fit      -0.046122
 **** Fit      -0.050364
 **** Fit      -0.049802
 **** Fit      -0.045763
 **** Fit      -0.040057
 **** Fit      -0.034088
 **** Fit      -0.028616
 **** Fit       0.010977
 **** Fit       0.012151
 **** Fit       0.013251
 **** Fit       0.014006
 **** Fit       0.013916
 **** Fit       0.012188
 **** Fit       0.007833
 **** Fit       0.000095
 **** Fit      -0.010897
 **** Fit      -0.023783
 **** Fit      -0.036257
 **** Fit      -0.045760
 **** Fit      -0.050445
 **** Fit      -0.050097
 **** Fit      -0.046088
 **** Fit      -0.040321
 **** Fit      -0.034269
 **** Fit      -0.028726
 **** Fit       0.011151
 **** Fit       0.012363
 **** Fit       0.013512
 **** Fit       0.014331
 **** Fit       0.014327
 **** Fit       0.012722
 **** Fit       0.008547
 **** Fit       0.001056
 **** Fit      -0.009629
 **** Fit      -0.022176
 **** Fit      -0.034319
 **** Fit      -0.043578
 **** Fit      -0.048212
 **** Fit      -0.048047
 **** Fit      -0.044375
 **** Fit      -0.038977
 **** Fit      -0.033250
 **** Fit      -0.027961
 **** Fit       0.012029
 **** Fit       0.013039
 **** Fit       0.013685
 **** Fit       0.013504
 **** Fit       0.011794
 **** Fit       0.007721
 **** Fit       0.000688
 **** Fit      -0.009136
 **** Fit      -0.020527
 **** Fit      -0.031447
 **** Fit      -0.039729
 **** Fit      -0.043927
 **** Fit      -0.043943
 **** Fit      -0.040871
 **** Fit      -0.036208
 **** Fit      -0.031153
 **** Fit      -0.026401
 **** Fit       0.011246
 **** Fit       0.011988
 **** Fit       0.012318
 **** Fit       0.011823
 **** Fit       0.009928
 **** Fit       0.006002
 **** Fit      -0.000343
 **** Fit      -0.008876
 **** Fit      -0.018548
 **** Fit      -0.027700
 **** Fit      -0.034623
 **** Fit      -0.038226
 **** Fit      -0.038459
 **** Fit      -0.036147
 **** Fit      -0.032428
 **** Fit      -0.028256
 **** Fit       0.010167
 **** Fit       0.010597
 **** Fit       0.010582
 **** Fit       0.009783
 **** Fit       0.007768
 **** Fit       0.004119
 **** Fit      -0.001364
 **** Fit      -0.008413
 **** Fit      -0.016191
 **** Fit      -0.023460
 **** Fit      -0.028983
 **** Fit      -0.031993
 **** Fit      -0.032445
 **** Fit      -0.030897
 **** Fit      -0.028149
 **** Fit      -0.024913
 **** Fit       0.009096
 **** Fit       0.008791
 **** Fit       0.007784
 **** Fit       0.005779
 **** Fit       0.002527
 **** Fit      -0.002035
 **** Fit      -0.007644
 **** Fit      -0.013672
 **** Fit      -0.019249
 **** Fit      -0.023537
 **** Fit      -0.026014
 **** Fit      -0.026628
 **** Fit      -0.025725
 **** Fit      -0.023833
 **** Fit       0.007151
 **** Fit       0.006053
 **** Fit       0.004172
 **** Fit       0.001379
 **** Fit      -0.002311
 **** Fit      -0.006670
 **** Fit      -0.011245
 **** Fit      -0.015449
 **** Fit      -0.018733
 **** Fit      -0.020750
 **** Fit      -0.021445
 **** Fit      -0.021019
 **** Fit       0.004666
 **** Fit       0.002980
 **** Fit       0.000646
 **** Fit      -0.002286
 **** Fit      -0.005632
 **** Fit      -0.009073
 **** Fit      -0.012225
 **** Fit      -0.005485
 **** Fit      -0.008854
 **** Fit      -0.012488
 **** Fit      -0.016042
 **** Fit      -0.019120
 **** Fit      -0.021374
 **** Fit      -0.022602
 **** Fit       0.000713
 **** Fit      -0.001806
 **** Fit      -0.005123
 **** Fit      -0.009155
 **** Fit      -0.013633
 **** Fit      -0.018102
 **** Fit      -0.022011
 **** Fit      -0.024861
 **** Fit      -0.026361
 **** Fit      -0.026503
 **** Fit      -0.025520
 **** Fit       0.003857
 **** Fit       0.002100
 **** Fit      -0.000566
 **** Fit      -0.004267
 **** Fit      -0.008958
 **** Fit      -0.014338
 **** Fit      -0.019835
 **** Fit      -0.024714
 **** Fit      -0.028281
 **** Fit      -0.030123
 **** Fit      -0.030225
 **** Fit      -0.028915
 **** Fit      -0.026685
 **** Fit       0.006251
 **** Fit       0.005399
 **** Fit       0.003765
 **** Fit       0.001069
 **** Fit      -0.002905
 **** Fit      -0.008174
 **** Fit      -0.014425
 **** Fit      -0.020976
 **** Fit      -0.026892
 **** Fit      -0.031260
 **** Fit      -0.033511
 **** Fit      -0.033613
 **** Fit      -0.031996
 **** Fit      -0.029301
 **** Fit      -0.026129
 **** Fit       0.007558
 **** Fit       0.006950
 **** Fit       0.005520
 **** Fit       0.002911
 **** Fit      -0.001190
 **** Fit      -0.006880
 **** Fit      -0.013857
 **** Fit      -0.021347
 **** Fit      -0.028235
 **** Fit      -0.033391
 **** Fit      -0.036085
 **** Fit      -0.036247
 **** Fit      -0.034400
 **** Fit      -0.031329
 **** Fit      -0.027751
 **** Fit       0.008527
 **** Fit       0.008654
 **** Fit       0.008285
 **** Fit       0.007085
 **** Fit       0.004637
 **** Fit       0.000542
 **** Fit      -0.005370
 **** Fit      -0.012819
 **** Fit      -0.020974
 **** Fit      -0.028589
 **** Fit      -0.034372
 **** Fit      -0.037456
 **** Fit      -0.037731
 **** Fit      -0.035781
 **** Fit      -0.032494
 **** Fit      -0.028674
 **** Fit       0.009101
 **** Fit       0.009375
 **** Fit       0.009178
 **** Fit       0.008160
 **** Fit       0.005873
 **** Fit       0.001875
 **** Fit      -0.004052
 **** Fit      -0.011648
 **** Fit      -0.020062
 **** Fit      -0.027994
 **** Fit      -0.034080
 **** Fit      -0.037394
 **** Fit      -0.037801
 **** Fit      -0.035899
 **** Fit      -0.032606
 **** Fit      -0.028759
 **** Fit       0.009302
 **** Fit       0.009623
 **** Fit       0.009486
 **** Fit       0.008549
 **** Fit       0.006370
 **** Fit       0.002515
 **** Fit      -0.003234
 **** Fit      -0.010624
 **** Fit      -0.018826
 **** Fit      -0.026577
 **** Fit      -0.032559
 **** Fit      -0.035881
 **** Fit      -0.036408
 **** Fit      -0.034698
 **** Fit      -0.031620
 **** Fit      -0.027974
 **** Fit       0.009122
 **** Fit       0.009389
 **** Fit       0.009203
 **** Fit       0.008245
 **** Fit       0.006117
 **** Fit       0.002442
 **** Fit      -0.002950
 **** Fit      -0.009805
 **** Fit      -0.017359
 **** Fit      -0.024474
 **** Fit      -0.029983
 **** Fit      -0.033110
 **** Fit      -0.033735
 **** Fit      -0.032332
 **** Fit      -0.029653
 **** Fit      -0.026402
 **** Fit       0.008761
 **** Fit       0.008452
 **** Fit       0.007415
 **** Fit       0.005323
 **** Fit       0.001885
 **** Fit      -0.002998
 **** Fit      -0.009072
 **** Fit      -0.015673
 **** Fit      -0.021852
 **** Fit      -0.026655
 **** Fit      -0.029459
 **** Fit      -0.030161
 **** Fit      -0.029128
 **** Fit      -0.026957
 **** Fit       0.007876
 **** Fit       0.007423
 **** Fit       0.006308
 **** Fit       0.004283
 **** Fit       0.001150
 **** Fit      -0.003123
 **** Fit      -0.008292
 **** Fit      -0.013814
 **** Fit      -0.018947
 **** Fit      -0.022965
 **** Fit      -0.025395
 **** Fit      -0.026150
 **** Fit      -0.025487
 **** Fit      -0.023848
 **** Fit       0.006306
 **** Fit       0.005152
 **** Fit       0.003246
 **** Fit       0.000471
 **** Fit      -0.003156
 **** Fit      -0.007418
 **** Fit      -0.011889
 **** Fit      -0.016022
 **** Fit      -0.019289
 **** Fit      -0.021348
 **** Fit      -0.022122
 **** Fit       0.004097
 **** Fit       0.002359
 **** Fit      -0.000036
 **** Fit      -0.003043
 **** Fit      -0.006478
 **** Fit      -0.010022
 **** Fit      -0.013284
 **** Fit      -0.015896
 **** Fit      -0.005162
 **** Fit      -0.008303
 **** Fit      -0.011699
 **** Fit      -0.017989
 **** Fit      -0.020216
 **** Fit       0.000561
 **** Fit      -0.001729
 **** Fit      -0.004706
 **** Fit      -0.008294
 **** Fit      -0.012266
 **** Fit      -0.016247
 **** Fit      -0.019788
 **** Fit      -0.022470
 **** Fit      -0.024031
 **** Fit      -0.024426
 **** Fit       0.003232
 **** Fit       0.001616
 **** Fit      -0.000753
 **** Fit      -0.003955
 **** Fit      -0.007936
 **** Fit      -0.012449
 **** Fit      -0.017056
 **** Fit      -0.021203
 **** Fit      -0.024363
 **** Fit      -0.026198
 **** Fit      -0.026646
 **** Fit      -0.025904
 **** Fit       0.004259
 **** Fit       0.002718
 **** Fit       0.000340
 **** Fit      -0.003001
 **** Fit      -0.007276
 **** Fit      -0.012233
 **** Fit      -0.017380
 **** Fit      -0.022071
 **** Fit      -0.025677
 **** Fit      -0.027783
 **** Fit      -0.028307
 **** Fit      -0.027480
 **** Fit      -0.025705
 **** Fit       0.005918
 **** Fit       0.005150
 **** Fit       0.003710
 **** Fit       0.001377
 **** Fit      -0.002010
 **** Fit      -0.006451
 **** Fit      -0.011694
 **** Fit      -0.017214
 **** Fit      -0.022299
 **** Fit      -0.026245
 **** Fit      -0.028576
 **** Fit      -0.029191
 **** Fit      -0.028341
 **** Fit      -0.026471
 **** Fit       0.006445
 **** Fit       0.005775
 **** Fit       0.004430
 **** Fit       0.002172
 **** Fit      -0.001180
 **** Fit      -0.005643
 **** Fit      -0.010974
 **** Fit      -0.016634
 **** Fit      -0.021886
 **** Fit      -0.025995
 **** Fit      -0.028458
 **** Fit      -0.029161
 **** Fit      -0.028356
 **** Fit      -0.026501
 **** Fit       0.006669
 **** Fit       0.006052
 **** Fit       0.004772
 **** Fit       0.002598
 **** Fit      -0.000652
 **** Fit      -0.004997
 **** Fit      -0.010199
 **** Fit      -0.015737
 **** Fit      -0.020893
 **** Fit      -0.024953
 **** Fit      -0.027427
 **** Fit      -0.028198
 **** Fit      -0.027502
 **** Fit      -0.025773
 **** Fit       0.005969
 **** Fit       0.004723
 **** Fit       0.002634
 **** Fit      -0.000455
 **** Fit      -0.004553
 **** Fit      -0.009430
 **** Fit      -0.014603
 **** Fit      -0.019420
 **** Fit      -0.023232
 **** Fit      -0.025600
 **** Fit      -0.026413
 **** Fit      -0.025873
 **** Fit       0.005587
 **** Fit       0.004357
 **** Fit       0.002364
 **** Fit      -0.000512
 **** Fit      -0.004257
 **** Fit      -0.008659
 **** Fit      -0.013290
 **** Fit      -0.017591
 **** Fit      -0.021015
 **** Fit      -0.023190
 **** Fit      -0.024019
 **** Fit      -0.023660
 **** Fit       0.003797
 **** Fit       0.001923
 **** Fit      -0.000694
 **** Fit      -0.004020
 **** Fit      -0.007859
 **** Fit      -0.011856
 **** Fit      -0.015556
 **** Fit      -0.018522
 **** Fit      -0.020458
 **** Fit      -0.021278
 **** Fit       0.001439
 **** Fit      -0.000888
 **** Fit      -0.003766
 **** Fit      -0.007024
 **** Fit      -0.010375
 **** Fit      -0.013468
 **** Fit      -0.004404
 **** Fit      -0.007440
 **** Fit      -0.010763
 **** Fit      -0.014089
 **** Fit      -0.001177
 **** Fit      -0.003858
 **** Fit      -0.007095
 **** Fit      -0.010695
 **** Fit      -0.014343
 **** Fit      -0.017651
 **** Fit      -0.020255
 **** Fit      -0.021907
 **** Fit       0.001528
 **** Fit      -0.000530
 **** Fit      -0.003263
 **** Fit      -0.006616
 **** Fit      -0.010392
 **** Fit      -0.014257
 **** Fit      -0.017790
 **** Fit      -0.020589
 **** Fit      -0.022379
 **** Fit      -0.023075
 **** Fit       0.002027
 **** Fit       0.000004
 **** Fit      -0.002716
 **** Fit      -0.006088
 **** Fit      -0.009917
 **** Fit      -0.013861
 **** Fit      -0.017489
 **** Fit      -0.020382
 **** Fit      -0.022251
 **** Fit      -0.023006
 **** Fit       0.002318
 **** Fit       0.000357
 **** Fit      -0.002292
 **** Fit      -0.005586
 **** Fit      -0.009336
 **** Fit      -0.013208
 **** Fit      -0.016782
 **** Fit      -0.019650
 **** Fit      -0.021527
 **** Fit       0.002389
 **** Fit       0.000509
 **** Fit      -0.002017
 **** Fit      -0.005144
 **** Fit      -0.008693
 **** Fit      -0.012352
 **** Fit      -0.015734
 **** Fit      -0.018464
 **** Fit       0.000491
 **** Fit      -0.001867
 **** Fit      -0.004755
 **** Fit      -0.008007
 **** Fit      -0.011346
 -----------------------------------------------------------------
 Leave Link  602 at Fri Apr 28 12:57:13 2017, MaxMem=    33554432 cpu:        38.7
 (Enter /home/michal/g09/l9999.exe)

 Test job not archived.
 1\1\GINC-LINUX\SP\RHF\6-31G(d)\C27H46O3\MICHAL\28-Apr-2017\0\\#P HF/6-
 31G* SCF(Conver=6) NoSymm Test Pop=chelpg IOp(6/33=2) GFInput GFPrint\
 \MEP - Input generated by R.E.D.-III.x MOLECULE\\0,1\C,0,7.5402224,2.1
 3429301,-0.14248619\H,0,7.49520914,2.00929686,0.94606294\C,0,6.7491693
 1,0.99489188,-0.80569272\H,0,7.15424169,0.03019825,-0.48482711\H,0,6.9
 1301348,1.06154532,-1.89271234\C,0,5.26602942,1.07124776,-0.4987431\C,
 0,4.56852771,2.40738641,-0.77736942\C,0,5.43954112,3.54347316,-0.15664
 54\H,0,5.34423341,3.48863693,0.93615927\H,0,5.03336419,4.51547905,-0.4
 5636485\C,0,6.93216513,3.4857181,-0.51757534\H,0,7.07441701,3.65603499
 ,-1.59515517\H,0,7.47373724,4.28559615,0.\C,0,4.63050517,0.,0.\H,0,5.1
 9356949,-0.90762112,0.21003422\C,0,3.17500075,-0.0300583,0.36170806\H,
 0,2.73910751,-1.00660618,0.12402685\C,0,2.37991922,1.10374275,-0.31394
 559\H,0,2.35843923,0.84841086,-1.38368765\C,0,3.14884401,2.43774665,-0
 .10841088\H,0,3.32508814,2.50235296,0.97540571\C,0,2.31942577,3.683847
 32,-0.49567433\H,0,2.27244705,3.7859367,-1.58452353\H,0,2.82770271,4.5
 8419947,-0.13164024\C,0,0.87893969,3.67969668,0.05116161\H,0,0.8990117
 5,3.73283512,1.14902473\H,0,0.37611059,4.58747462,-0.29603692\C,0,0.12
 069699,2.40483746,-0.36679737\C,0,0.93468923,1.20299456,0.19654733\H,0
 ,1.00098989,1.37818719,1.27982372\C,0,0.,0.,0.\H,0,0.23912941,-0.82278
 88,0.6761411\H,0,0.07690538,-0.38656862,-1.02456254\C,0,-1.41105492,0.
 58979633,0.26771064\H,0,-2.11267649,0.30751264,-0.52670337\H,0,-1.8274
 2705,0.19892104,1.20083508\C,0,-1.25885574,2.14854525,0.33398012\H,0,-
 1.12083135,2.43178196,1.38940135\C,0,-0.0448976,2.34328098,-1.90363864
 \H,0,0.9124448,2.26645797,-2.42545283\H,0,-0.65033037,1.48709831,-2.21
 525355\H,0,-0.54293358,3.24493114,-2.27576314\C,0,-2.5268242,2.8896445
 5,-0.16556807\H,0,-2.7242118,2.55982942,-1.19724362\C,0,-2.37641488,4.
 42119823,-0.17905473\H,0,-2.0973743,4.79678729,0.81359913\H,0,-3.31303
 212,4.90822907,-0.46652929\H,0,-1.61507948,4.75498216,-0.88741364\C,0,
 4.48134354,2.59979493,-2.31639856\H,0,4.1661043,3.61565812,-2.57200151
 \H,0,5.44668336,2.43261735,-2.80025479\H,0,3.77103501,1.89842247,-2.76
 480042\O,0,3.19436822,0.07609522,1.81709614\O,0,2.04994438,-0.64809768
 ,2.37728611\H,0,2.52109141,-1.281158,2.94259294\O,0,8.93529723,2.05611
 96,-0.44667431\H,0,9.05350317,2.19434073,-1.39698085\C,0,-3.75424713,2
 .47854152,0.68616307\H,0,-3.78290133,1.38628641,0.77583449\H,0,-3.6117
 3376,2.86344927,1.70635824\C,0,-5.11543424,2.93676546,0.13533731\H,0,-
 5.19392926,4.02968146,0.16013338\H,0,-5.17546114,2.65625565,-0.9259438
 9\C,0,-6.32716412,2.31952198,0.85812907\H,0,-6.27321875,1.22564242,0.7
 5906634\H,0,-7.24387307,2.62655145,0.33284479\C,0,-6.49170367,2.664672
 91,2.35372096\H,0,-5.58354187,2.3425157,2.88299051\C,0,-6.66631681,4.1
 7296167,2.59208757\H,0,-7.55030488,4.55121777,2.06209107\H,0,-6.801981
 13,4.38738918,3.65828826\H,0,-5.80056345,4.74838755,2.24866769\C,0,-7.
 67367145,1.88431376,2.95099933\H,0,-8.61553178,2.16719985,2.46328932\H
 ,0,-7.78203634,2.08420933,4.02318673\H,0,-7.54450896,0.80342974,2.8226
 5067\\Version=EM64L-G09RevD.01\HF=-1273.6798622\RMSD=5.448e-07\Dipole=
 -0.1077474,-0.209554,-0.6817181\Quadrupole=-12.4087397,6.7964176,5.612
 3221,-0.8041011,-8.4309432,-5.6780512\PG=C01 [X(C27H46O3)]\\@


 AS FAR AS THE LAWS OF MATHEMATICS REFER TO REALITY,
 THEY ARE NOT CERTAIN; AND AS FAR AS THEY ARE CERTAIN,
 THEY DO NOT REFER TO REALITY.

                                         -- ALBERT EINSTEIN
 Job cpu time:       0 days  0 hours 11 minutes 58.3 seconds.
 File lengths (MBytes):  RWF=    159 Int=      0 D2E=      0 Chk=     11 Scr=      1
 Normal termination of Gaussian 09 at Fri Apr 28 12:57:13 2017.
