 Entering Gaussian System, Link 0=/home/michal/g09/g09
 Input=JOB2-gau_m1-8-1.com
 Output=JOB2-gau_m1-8-1.log
 Initial command:
 /home/michal/g09/l1.exe "/home/michal/gauss_scratch/Gau-14888.inp" -scrdir="/home/michal/gauss_scratch/"
 Entering Link 1 = /home/michal/g09/l1.exe PID=     14889.
  
 Copyright (c) 1988,1990,1992,1993,1995,1998,2003,2009,2013,
            Gaussian, Inc.  All Rights Reserved.
  
 This is part of the Gaussian(R) 09 program.  It is based on
 the Gaussian(R) 03 system (copyright 2003, Gaussian, Inc.),
 the Gaussian(R) 98 system (copyright 1998, Gaussian, Inc.),
 the Gaussian(R) 94 system (copyright 1995, Gaussian, Inc.),
 the Gaussian 92(TM) system (copyright 1992, Gaussian, Inc.),
 the Gaussian 90(TM) system (copyright 1990, Gaussian, Inc.),
 the Gaussian 88(TM) system (copyright 1988, Gaussian, Inc.),
 the Gaussian 86(TM) system (copyright 1986, Carnegie Mellon
 University), and the Gaussian 82(TM) system (copyright 1983,
 Carnegie Mellon University). Gaussian is a federally registered
 trademark of Gaussian, Inc.
  
 This software contains proprietary and confidential information,
 including trade secrets, belonging to Gaussian, Inc.
  
 This software is provided under written license and may be
 used, copied, transmitted, or stored only in accord with that
 written license.
  
 The following legend is applicable only to US Government
 contracts under FAR:
  
                    RESTRICTED RIGHTS LEGEND
  
 Use, reproduction and disclosure by the US Government is
 subject to restrictions as set forth in subparagraphs (a)
 and (c) of the Commercial Computer Software - Restricted
 Rights clause in FAR 52.227-19.
  
 Gaussian, Inc.
 340 Quinnipiac St., Bldg. 40, Wallingford CT 06492
  
  
 ---------------------------------------------------------------
 Warning -- This program may not be used in any manner that
 competes with the business of Gaussian, Inc. or will provide
 assistance to any competitor of Gaussian, Inc.  The licensee
 of this program is prohibited from giving any competitor of
 Gaussian, Inc. access to this program.  By using this program,
 the user acknowledges that Gaussian, Inc. is engaged in the
 business of creating and licensing software in the field of
 computational chemistry and represents and warrants to the
 licensee that it is not a competitor of Gaussian, Inc. and that
 it will not use this program in any manner prohibited above.
 ---------------------------------------------------------------
  

 Cite this work as:
 Gaussian 09, Revision D.01,
 M. J. Frisch, G. W. Trucks, H. B. Schlegel, G. E. Scuseria, 
 M. A. Robb, J. R. Cheeseman, G. Scalmani, V. Barone, B. Mennucci, 
 G. A. Petersson, H. Nakatsuji, M. Caricato, X. Li, H. P. Hratchian, 
 A. F. Izmaylov, J. Bloino, G. Zheng, J. L. Sonnenberg, M. Hada, 
 M. Ehara, K. Toyota, R. Fukuda, J. Hasegawa, M. Ishida, T. Nakajima, 
 Y. Honda, O. Kitao, H. Nakai, T. Vreven, J. A. Montgomery, Jr., 
 J. E. Peralta, F. Ogliaro, M. Bearpark, J. J. Heyd, E. Brothers, 
 K. N. Kudin, V. N. Staroverov, T. Keith, R. Kobayashi, J. Normand, 
 K. Raghavachari, A. Rendell, J. C. Burant, S. S. Iyengar, J. Tomasi, 
 M. Cossi, N. Rega, J. M. Millam, M. Klene, J. E. Knox, J. B. Cross, 
 V. Bakken, C. Adamo, J. Jaramillo, R. Gomperts, R. E. Stratmann, 
 O. Yazyev, A. J. Austin, R. Cammi, C. Pomelli, J. W. Ochterski, 
 R. L. Martin, K. Morokuma, V. G. Zakrzewski, G. A. Voth, 
 P. Salvador, J. J. Dannenberg, S. Dapprich, A. D. Daniels, 
 O. Farkas, J. B. Foresman, J. V. Ortiz, J. Cioslowski, 
 and D. J. Fox, Gaussian, Inc., Wallingford CT, 2013.
 
 ******************************************
 Gaussian 09:  EM64L-G09RevD.01 24-Apr-2013
                28-Apr-2017 
 ******************************************
 %Mem=256MB
 %NProc=12
 Will use up to   12 processors via shared memory.
 ----------------------------------------------------------------------
 #P HF/6-31G* SCF(Conver=6) NoSymm Test Pop=chelpg IOp(6/33=2) GFInput 
 GFPrint
 ----------------------------------------------------------------------
 1/38=1/1;
 2/12=2,15=1,17=6,18=5,40=1/2;
 3/5=1,6=6,7=1,11=9,16=1,24=110,25=1,30=1/1,2,3;
 4//1;
 5/5=2,6=6,38=5/2;
 6/7=2,8=2,9=2,10=2,15=8,20=3,28=1,33=2/1,2;
 99/5=1,9=1/99;
 Leave Link    1 at Fri Apr 28 12:18:03 2017, MaxMem=    33554432 cpu:         0.6
 (Enter /home/michal/g09/l101.exe)
 ----------------------------------------------
 MEP - Input generated by R.E.D.-III.x MOLECULE
 ----------------------------------------------
 Symbolic Z-matrix:
 Charge =  0 Multiplicity = 1
 C                     1.75849  -1.24858   0.05702 
 H                     1.88374  -1.20989  -1.03204 
 C                     3.1465   -1.25961   0.71688 
 H                     3.72598  -2.10906   0.34213 
 H                     3.00262  -1.4277    1.79581 
 C                     3.90542   0.03492   0.48983 
 C                     3.17351   1.33437   0.84855 
 C                     1.74386   1.27332   0.2267 
 H                     1.83887   1.38664  -0.86183 
 H                     1.15885   2.13002   0.57826 
 C                     0.96832  -0.02191   0.51267 
 H                     0.75312  -0.11268   1.58766 
 H                     0.        0.        0. 
 C                     5.15441   0.        0. 
 H                     5.60446  -0.9634   -0.23238 
 C                     6.00347   1.20967  -0.26512 
 H                     7.03674   1.02343   0.05414 
 C                     5.46547   2.47439   0.42831 
 H                     5.70275   2.33587   1.49234 
 C                     3.92608   2.57681   0.25371 
 H                     3.74786   2.54886  -0.83129 
 C                     3.37071   3.92885   0.76492 
 H                     3.37612   3.94569   1.85941 
 H                     2.32009   4.0259    0.46796 
 C                     4.1407    5.16569   0.25858 
 H                     4.0133    5.25996  -0.82907 
 H                     3.69462   6.06162   0.70565 
 C                     5.64495   5.0673    0.57769 
 C                     6.1539    3.75082  -0.0774 
 H                     5.8923    3.83601  -1.14053 
 C                     7.6868    3.84863   0. 
 H                     8.17253   3.2451   -0.77184 
 H                     8.05382   3.48821   0.96954 
 C                     7.96668   5.36969  -0.16989 
 H                     8.60415   5.73946   0.63962 
 H                     8.5004    5.58368  -1.10216 
 C                     6.57727   6.08233  -0.16828 
 H                     6.22053   6.06219  -1.20912 
 C                     5.87094   5.08623   2.10704 
 H                     5.46627   4.19568   2.59519 
 H                     6.93112   5.14138   2.36748 
 H                     5.37565   5.9502    2.55992 
 C                     6.65996   7.59943   0.1705 
 H                     7.40809   7.97791  -0.54568 
 C                     7.18497   7.97525   1.57082 
 H                     6.41925   7.85188   2.34279 
 H                     7.4993    9.02358   1.58967 
 H                     8.05313   7.37785   1.86377 
 C                     3.06514   1.41885   2.39598 
 H                     2.38447   2.21803   2.70391 
 H                     2.68417   0.48953   2.82603 
 H                     4.04212   1.60686   2.85192 
 O                     6.06013   1.50563  -1.68801 
 O                     6.79435   0.42799  -2.33381 
 H                     6.077    -0.02722  -2.80517 
 O                     1.054    -2.47201   0.28382 
 H                     0.8837   -2.56076   1.23213 
 C                     5.34574   8.3478   -0.14971 
 H                     4.94679   7.97027  -1.10196 
 H                     4.59556   8.10467   0.61328 
 C                     5.4919    9.87496  -0.25945 
 H                     5.7605    10.30088   0.71467 
 H                     6.33611   10.09853  -0.92727 
 C                     4.24688   10.59257  -0.81238 
 H                     4.04056   10.2054  -1.82075 
 H                     4.48359   11.65938  -0.93998 
 C                     2.95391   10.48382   0.02374 
 H                     2.70594   9.41859   0.13661 
 C                     3.11212   11.08304   1.4302 
 H                     3.384     12.14512   1.37255 
 H                     2.17498   11.01102   1.99397 
 H                     3.88638   10.57274   2.01226 
 C                     1.78498   11.15169  -0.7181 
 H                     1.97259   12.22405  -0.85843 
 H                     0.84765   11.04919  -0.15932 
 H                     1.6351    10.70811  -1.70916 
 
 NAtoms=     76 NQM=       76 NQMF=       0 NMMI=      0 NMMIF=      0
                NMic=       0 NMicF=      0.
                    Isotopes and Nuclear Properties:
 (Nuclear quadrupole moments (NQMom) in fm**2, nuclear magnetic moments (NMagM)
  in nuclear magnetons)

  Atom         1           2           3           4           5           6           7           8           9          10
 IAtWgt=          12           1          12           1           1          12          12          12           1           1
 AtmWgt=  12.0000000   1.0078250  12.0000000   1.0078250   1.0078250  12.0000000  12.0000000  12.0000000   1.0078250   1.0078250
 NucSpn=           0           1           0           1           1           0           0           0           1           1
 AtZEff=   0.0000000   0.0000000   0.0000000   0.0000000   0.0000000   0.0000000   0.0000000   0.0000000   0.0000000   0.0000000
 NQMom=    0.0000000   0.0000000   0.0000000   0.0000000   0.0000000   0.0000000   0.0000000   0.0000000   0.0000000   0.0000000
 NMagM=    0.0000000   2.7928460   0.0000000   2.7928460   2.7928460   0.0000000   0.0000000   0.0000000   2.7928460   2.7928460
 AtZNuc=   6.0000000   1.0000000   6.0000000   1.0000000   1.0000000   6.0000000   6.0000000   6.0000000   1.0000000   1.0000000

  Atom        11          12          13          14          15          16          17          18          19          20
 IAtWgt=          12           1           1          12           1          12           1          12           1          12
 AtmWgt=  12.0000000   1.0078250   1.0078250  12.0000000   1.0078250  12.0000000   1.0078250  12.0000000   1.0078250  12.0000000
 NucSpn=           0           1           1           0           1           0           1           0           1           0
 AtZEff=   0.0000000   0.0000000   0.0000000   0.0000000   0.0000000   0.0000000   0.0000000   0.0000000   0.0000000   0.0000000
 NQMom=    0.0000000   0.0000000   0.0000000   0.0000000   0.0000000   0.0000000   0.0000000   0.0000000   0.0000000   0.0000000
 NMagM=    0.0000000   2.7928460   2.7928460   0.0000000   2.7928460   0.0000000   2.7928460   0.0000000   2.7928460   0.0000000
 AtZNuc=   6.0000000   1.0000000   1.0000000   6.0000000   1.0000000   6.0000000   1.0000000   6.0000000   1.0000000   6.0000000

  Atom        21          22          23          24          25          26          27          28          29          30
 IAtWgt=           1          12           1           1          12           1           1          12          12           1
 AtmWgt=   1.0078250  12.0000000   1.0078250   1.0078250  12.0000000   1.0078250   1.0078250  12.0000000  12.0000000   1.0078250
 NucSpn=           1           0           1           1           0           1           1           0           0           1
 AtZEff=   0.0000000   0.0000000   0.0000000   0.0000000   0.0000000   0.0000000   0.0000000   0.0000000   0.0000000   0.0000000
 NQMom=    0.0000000   0.0000000   0.0000000   0.0000000   0.0000000   0.0000000   0.0000000   0.0000000   0.0000000   0.0000000
 NMagM=    2.7928460   0.0000000   2.7928460   2.7928460   0.0000000   2.7928460   2.7928460   0.0000000   0.0000000   2.7928460
 AtZNuc=   1.0000000   6.0000000   1.0000000   1.0000000   6.0000000   1.0000000   1.0000000   6.0000000   6.0000000   1.0000000

  Atom        31          32          33          34          35          36          37          38          39          40
 IAtWgt=          12           1           1          12           1           1          12           1          12           1
 AtmWgt=  12.0000000   1.0078250   1.0078250  12.0000000   1.0078250   1.0078250  12.0000000   1.0078250  12.0000000   1.0078250
 NucSpn=           0           1           1           0           1           1           0           1           0           1
 AtZEff=   0.0000000   0.0000000   0.0000000   0.0000000   0.0000000   0.0000000   0.0000000   0.0000000   0.0000000   0.0000000
 NQMom=    0.0000000   0.0000000   0.0000000   0.0000000   0.0000000   0.0000000   0.0000000   0.0000000   0.0000000   0.0000000
 NMagM=    0.0000000   2.7928460   2.7928460   0.0000000   2.7928460   2.7928460   0.0000000   2.7928460   0.0000000   2.7928460
 AtZNuc=   6.0000000   1.0000000   1.0000000   6.0000000   1.0000000   1.0000000   6.0000000   1.0000000   6.0000000   1.0000000

  Atom        41          42          43          44          45          46          47          48          49          50
 IAtWgt=           1           1          12           1          12           1           1           1          12           1
 AtmWgt=   1.0078250   1.0078250  12.0000000   1.0078250  12.0000000   1.0078250   1.0078250   1.0078250  12.0000000   1.0078250
 NucSpn=           1           1           0           1           0           1           1           1           0           1
 AtZEff=   0.0000000   0.0000000   0.0000000   0.0000000   0.0000000   0.0000000   0.0000000   0.0000000   0.0000000   0.0000000
 NQMom=    0.0000000   0.0000000   0.0000000   0.0000000   0.0000000   0.0000000   0.0000000   0.0000000   0.0000000   0.0000000
 NMagM=    2.7928460   2.7928460   0.0000000   2.7928460   0.0000000   2.7928460   2.7928460   2.7928460   0.0000000   2.7928460
 AtZNuc=   1.0000000   1.0000000   6.0000000   1.0000000   6.0000000   1.0000000   1.0000000   1.0000000   6.0000000   1.0000000

  Atom        51          52          53          54          55          56          57          58          59          60
 IAtWgt=           1           1          16          16           1          16           1          12           1           1
 AtmWgt=   1.0078250   1.0078250  15.9949146  15.9949146   1.0078250  15.9949146   1.0078250  12.0000000   1.0078250   1.0078250
 NucSpn=           1           1           0           0           1           0           1           0           1           1
 AtZEff=   0.0000000   0.0000000   0.0000000   0.0000000   0.0000000   0.0000000   0.0000000   0.0000000   0.0000000   0.0000000
 NQMom=    0.0000000   0.0000000   0.0000000   0.0000000   0.0000000   0.0000000   0.0000000   0.0000000   0.0000000   0.0000000
 NMagM=    2.7928460   2.7928460   0.0000000   0.0000000   2.7928460   0.0000000   2.7928460   0.0000000   2.7928460   2.7928460
 AtZNuc=   1.0000000   1.0000000   8.0000000   8.0000000   1.0000000   8.0000000   1.0000000   6.0000000   1.0000000   1.0000000

  Atom        61          62          63          64          65          66          67          68          69          70
 IAtWgt=          12           1           1          12           1           1          12           1          12           1
 AtmWgt=  12.0000000   1.0078250   1.0078250  12.0000000   1.0078250   1.0078250  12.0000000   1.0078250  12.0000000   1.0078250
 NucSpn=           0           1           1           0           1           1           0           1           0           1
 AtZEff=   0.0000000   0.0000000   0.0000000   0.0000000   0.0000000   0.0000000   0.0000000   0.0000000   0.0000000   0.0000000
 NQMom=    0.0000000   0.0000000   0.0000000   0.0000000   0.0000000   0.0000000   0.0000000   0.0000000   0.0000000   0.0000000
 NMagM=    0.0000000   2.7928460   2.7928460   0.0000000   2.7928460   2.7928460   0.0000000   2.7928460   0.0000000   2.7928460
 AtZNuc=   6.0000000   1.0000000   1.0000000   6.0000000   1.0000000   1.0000000   6.0000000   1.0000000   6.0000000   1.0000000

  Atom        71          72          73          74          75          76
 IAtWgt=           1           1          12           1           1           1
 AtmWgt=   1.0078250   1.0078250  12.0000000   1.0078250   1.0078250   1.0078250
 NucSpn=           1           1           0           1           1           1
 AtZEff=   0.0000000   0.0000000   0.0000000   0.0000000   0.0000000   0.0000000
 NQMom=    0.0000000   0.0000000   0.0000000   0.0000000   0.0000000   0.0000000
 NMagM=    2.7928460   2.7928460   0.0000000   2.7928460   2.7928460   2.7928460
 AtZNuc=   1.0000000   1.0000000   6.0000000   1.0000000   1.0000000   1.0000000
 Leave Link  101 at Fri Apr 28 12:18:03 2017, MaxMem=    33554432 cpu:         1.0
 (Enter /home/michal/g09/l202.exe)
 Symmetry turned off by external request.
 Stoichiometry    C27H46O3
 Framework group  C1[X(C27H46O3)]
 Deg. of freedom   222
 Full point group                 C1      NOp   1
                          Input orientation:                          
 ---------------------------------------------------------------------
 Center     Atomic      Atomic             Coordinates (Angstroms)
 Number     Number       Type             X           Y           Z
 ---------------------------------------------------------------------
      1          6           0        1.758489   -1.248577    0.057022
      2          1           0        1.883744   -1.209885   -1.032037
      3          6           0        3.146503   -1.259615    0.716884
      4          1           0        3.725978   -2.109062    0.342130
      5          1           0        3.002620   -1.427704    1.795809
      6          6           0        3.905417    0.034917    0.489825
      7          6           0        3.173508    1.334368    0.848553
      8          6           0        1.743862    1.273324    0.226702
      9          1           0        1.838870    1.386637   -0.861826
     10          1           0        1.158845    2.130019    0.578264
     11          6           0        0.968324   -0.021912    0.512665
     12          1           0        0.753115   -0.112679    1.587656
     13          1           0        0.000000    0.000000    0.000000
     14          6           0        5.154407    0.000000    0.000000
     15          1           0        5.604463   -0.963402   -0.232376
     16          6           0        6.003466    1.209674   -0.265119
     17          1           0        7.036741    1.023433    0.054136
     18          6           0        5.465472    2.474391    0.428315
     19          1           0        5.702749    2.335875    1.492342
     20          6           0        3.926080    2.576815    0.253709
     21          1           0        3.747857    2.548857   -0.831289
     22          6           0        3.370709    3.928851    0.764922
     23          1           0        3.376119    3.945693    1.859412
     24          1           0        2.320086    4.025902    0.467964
     25          6           0        4.140699    5.165693    0.258576
     26          1           0        4.013298    5.259957   -0.829071
     27          1           0        3.694617    6.061616    0.705652
     28          6           0        5.644952    5.067296    0.577691
     29          6           0        6.153905    3.750819   -0.077398
     30          1           0        5.892296    3.836013   -1.140534
     31          6           0        7.686803    3.848628    0.000000
     32          1           0        8.172528    3.245104   -0.771837
     33          1           0        8.053825    3.488209    0.969537
     34          6           0        7.966678    5.369690   -0.169887
     35          1           0        8.604154    5.739465    0.639617
     36          1           0        8.500400    5.583677   -1.102163
     37          6           0        6.577268    6.082331   -0.168282
     38          1           0        6.220526    6.062191   -1.209124
     39          6           0        5.870938    5.086227    2.107038
     40          1           0        5.466274    4.195682    2.595189
     41          1           0        6.931116    5.141380    2.367478
     42          1           0        5.375649    5.950204    2.559915
     43          6           0        6.659961    7.599432    0.170498
     44          1           0        7.408086    7.977908   -0.545677
     45          6           0        7.184974    7.975246    1.570822
     46          1           0        6.419247    7.851879    2.342795
     47          1           0        7.499305    9.023577    1.589672
     48          1           0        8.053127    7.377853    1.863766
     49          6           0        3.065139    1.418847    2.395976
     50          1           0        2.384471    2.218030    2.703913
     51          1           0        2.684171    0.489529    2.826033
     52          1           0        4.042117    1.606858    2.851922
     53          8           0        6.060133    1.505626   -1.688011
     54          8           0        6.794349    0.427985   -2.333813
     55          1           0        6.076997   -0.027218   -2.805171
     56          8           0        1.054002   -2.472005    0.283821
     57          1           0        0.883695   -2.560764    1.232127
     58          6           0        5.345745    8.347804   -0.149713
     59          1           0        4.946791    7.970269   -1.101956
     60          1           0        4.595563    8.104673    0.613280
     61          6           0        5.491896    9.874959   -0.259452
     62          1           0        5.760498   10.300881    0.714666
     63          1           0        6.336113   10.098533   -0.927267
     64          6           0        4.246880   10.592572   -0.812378
     65          1           0        4.040561   10.205400   -1.820752
     66          1           0        4.483592   11.659383   -0.939976
     67          6           0        2.953912   10.483818    0.023737
     68          1           0        2.705941    9.418588    0.136612
     69          6           0        3.112118   11.083038    1.430204
     70          1           0        3.383999   12.145122    1.372549
     71          1           0        2.174979   11.011024    1.993970
     72          1           0        3.886378   10.572740    2.012260
     73          6           0        1.784976   11.151689   -0.718104
     74          1           0        1.972586   12.224054   -0.858431
     75          1           0        0.847655   11.049187   -0.159323
     76          1           0        1.635096   10.708114   -1.709165
 ---------------------------------------------------------------------
 Rotational constants (GHZ):      0.2435407      0.0683607      0.0586219
 Leave Link  202 at Fri Apr 28 12:18:03 2017, MaxMem=    33554432 cpu:         0.0
 (Enter /home/michal/g09/l301.exe)
 Standard basis: 6-31G(d) (6D, 7F)
 Ernie: Thresh=  0.10000D-02 Tol=  0.10000D-05 Strict=F.
 AO basis set in the form of general basis input (Overlap normalization):
      1 0
 S   6 1.00       0.000000000000
      0.3047524880D+04  0.1834737132D-02
      0.4573695180D+03  0.1403732281D-01
      0.1039486850D+03  0.6884262226D-01
      0.2921015530D+02  0.2321844432D+00
      0.9286662960D+01  0.4679413484D+00
      0.3163926960D+01  0.3623119853D+00
 SP   3 1.00       0.000000000000
      0.7868272350D+01 -0.1193324198D+00  0.6899906659D-01
      0.1881288540D+01 -0.1608541517D+00  0.3164239610D+00
      0.5442492580D+00  0.1143456438D+01  0.7443082909D+00
 SP   1 1.00       0.000000000000
      0.1687144782D+00  0.1000000000D+01  0.1000000000D+01
 D   1 1.00       0.000000000000
      0.8000000000D+00  0.1000000000D+01
 ****
      2 0
 S   3 1.00       0.000000000000
      0.1873113696D+02  0.3349460434D-01
      0.2825394365D+01  0.2347269535D+00
      0.6401216923D+00  0.8137573261D+00
 S   1 1.00       0.000000000000
      0.1612777588D+00  0.1000000000D+01
 ****
      3 0
 S   6 1.00       0.000000000000
      0.3047524880D+04  0.1834737132D-02
      0.4573695180D+03  0.1403732281D-01
      0.1039486850D+03  0.6884262226D-01
      0.2921015530D+02  0.2321844432D+00
      0.9286662960D+01  0.4679413484D+00
      0.3163926960D+01  0.3623119853D+00
 SP   3 1.00       0.000000000000
      0.7868272350D+01 -0.1193324198D+00  0.6899906659D-01
      0.1881288540D+01 -0.1608541517D+00  0.3164239610D+00
      0.5442492580D+00  0.1143456438D+01  0.7443082909D+00
 SP   1 1.00       0.000000000000
      0.1687144782D+00  0.1000000000D+01  0.1000000000D+01
 D   1 1.00       0.000000000000
      0.8000000000D+00  0.1000000000D+01
 ****
      4 0
 S   3 1.00       0.000000000000
      0.1873113696D+02  0.3349460434D-01
      0.2825394365D+01  0.2347269535D+00
      0.6401216923D+00  0.8137573261D+00
 S   1 1.00       0.000000000000
      0.1612777588D+00  0.1000000000D+01
 ****
      5 0
 S   3 1.00       0.000000000000
      0.1873113696D+02  0.3349460434D-01
      0.2825394365D+01  0.2347269535D+00
      0.6401216923D+00  0.8137573261D+00
 S   1 1.00       0.000000000000
      0.1612777588D+00  0.1000000000D+01
 ****
      6 0
 S   6 1.00       0.000000000000
      0.3047524880D+04  0.1834737132D-02
      0.4573695180D+03  0.1403732281D-01
      0.1039486850D+03  0.6884262226D-01
      0.2921015530D+02  0.2321844432D+00
      0.9286662960D+01  0.4679413484D+00
      0.3163926960D+01  0.3623119853D+00
 SP   3 1.00       0.000000000000
      0.7868272350D+01 -0.1193324198D+00  0.6899906659D-01
      0.1881288540D+01 -0.1608541517D+00  0.3164239610D+00
      0.5442492580D+00  0.1143456438D+01  0.7443082909D+00
 SP   1 1.00       0.000000000000
      0.1687144782D+00  0.1000000000D+01  0.1000000000D+01
 D   1 1.00       0.000000000000
      0.8000000000D+00  0.1000000000D+01
 ****
      7 0
 S   6 1.00       0.000000000000
      0.3047524880D+04  0.1834737132D-02
      0.4573695180D+03  0.1403732281D-01
      0.1039486850D+03  0.6884262226D-01
      0.2921015530D+02  0.2321844432D+00
      0.9286662960D+01  0.4679413484D+00
      0.3163926960D+01  0.3623119853D+00
 SP   3 1.00       0.000000000000
      0.7868272350D+01 -0.1193324198D+00  0.6899906659D-01
      0.1881288540D+01 -0.1608541517D+00  0.3164239610D+00
      0.5442492580D+00  0.1143456438D+01  0.7443082909D+00
 SP   1 1.00       0.000000000000
      0.1687144782D+00  0.1000000000D+01  0.1000000000D+01
 D   1 1.00       0.000000000000
      0.8000000000D+00  0.1000000000D+01
 ****
      8 0
 S   6 1.00       0.000000000000
      0.3047524880D+04  0.1834737132D-02
      0.4573695180D+03  0.1403732281D-01
      0.1039486850D+03  0.6884262226D-01
      0.2921015530D+02  0.2321844432D+00
      0.9286662960D+01  0.4679413484D+00
      0.3163926960D+01  0.3623119853D+00
 SP   3 1.00       0.000000000000
      0.7868272350D+01 -0.1193324198D+00  0.6899906659D-01
      0.1881288540D+01 -0.1608541517D+00  0.3164239610D+00
      0.5442492580D+00  0.1143456438D+01  0.7443082909D+00
 SP   1 1.00       0.000000000000
      0.1687144782D+00  0.1000000000D+01  0.1000000000D+01
 D   1 1.00       0.000000000000
      0.8000000000D+00  0.1000000000D+01
 ****
      9 0
 S   3 1.00       0.000000000000
      0.1873113696D+02  0.3349460434D-01
      0.2825394365D+01  0.2347269535D+00
      0.6401216923D+00  0.8137573261D+00
 S   1 1.00       0.000000000000
      0.1612777588D+00  0.1000000000D+01
 ****
     10 0
 S   3 1.00       0.000000000000
      0.1873113696D+02  0.3349460434D-01
      0.2825394365D+01  0.2347269535D+00
      0.6401216923D+00  0.8137573261D+00
 S   1 1.00       0.000000000000
      0.1612777588D+00  0.1000000000D+01
 ****
     11 0
 S   6 1.00       0.000000000000
      0.3047524880D+04  0.1834737132D-02
      0.4573695180D+03  0.1403732281D-01
      0.1039486850D+03  0.6884262226D-01
      0.2921015530D+02  0.2321844432D+00
      0.9286662960D+01  0.4679413484D+00
      0.3163926960D+01  0.3623119853D+00
 SP   3 1.00       0.000000000000
      0.7868272350D+01 -0.1193324198D+00  0.6899906659D-01
      0.1881288540D+01 -0.1608541517D+00  0.3164239610D+00
      0.5442492580D+00  0.1143456438D+01  0.7443082909D+00
 SP   1 1.00       0.000000000000
      0.1687144782D+00  0.1000000000D+01  0.1000000000D+01
 D   1 1.00       0.000000000000
      0.8000000000D+00  0.1000000000D+01
 ****
     12 0
 S   3 1.00       0.000000000000
      0.1873113696D+02  0.3349460434D-01
      0.2825394365D+01  0.2347269535D+00
      0.6401216923D+00  0.8137573261D+00
 S   1 1.00       0.000000000000
      0.1612777588D+00  0.1000000000D+01
 ****
     13 0
 S   3 1.00       0.000000000000
      0.1873113696D+02  0.3349460434D-01
      0.2825394365D+01  0.2347269535D+00
      0.6401216923D+00  0.8137573261D+00
 S   1 1.00       0.000000000000
      0.1612777588D+00  0.1000000000D+01
 ****
     14 0
 S   6 1.00       0.000000000000
      0.3047524880D+04  0.1834737132D-02
      0.4573695180D+03  0.1403732281D-01
      0.1039486850D+03  0.6884262226D-01
      0.2921015530D+02  0.2321844432D+00
      0.9286662960D+01  0.4679413484D+00
      0.3163926960D+01  0.3623119853D+00
 SP   3 1.00       0.000000000000
      0.7868272350D+01 -0.1193324198D+00  0.6899906659D-01
      0.1881288540D+01 -0.1608541517D+00  0.3164239610D+00
      0.5442492580D+00  0.1143456438D+01  0.7443082909D+00
 SP   1 1.00       0.000000000000
      0.1687144782D+00  0.1000000000D+01  0.1000000000D+01
 D   1 1.00       0.000000000000
      0.8000000000D+00  0.1000000000D+01
 ****
     15 0
 S   3 1.00       0.000000000000
      0.1873113696D+02  0.3349460434D-01
      0.2825394365D+01  0.2347269535D+00
      0.6401216923D+00  0.8137573261D+00
 S   1 1.00       0.000000000000
      0.1612777588D+00  0.1000000000D+01
 ****
     16 0
 S   6 1.00       0.000000000000
      0.3047524880D+04  0.1834737132D-02
      0.4573695180D+03  0.1403732281D-01
      0.1039486850D+03  0.6884262226D-01
      0.2921015530D+02  0.2321844432D+00
      0.9286662960D+01  0.4679413484D+00
      0.3163926960D+01  0.3623119853D+00
 SP   3 1.00       0.000000000000
      0.7868272350D+01 -0.1193324198D+00  0.6899906659D-01
      0.1881288540D+01 -0.1608541517D+00  0.3164239610D+00
      0.5442492580D+00  0.1143456438D+01  0.7443082909D+00
 SP   1 1.00       0.000000000000
      0.1687144782D+00  0.1000000000D+01  0.1000000000D+01
 D   1 1.00       0.000000000000
      0.8000000000D+00  0.1000000000D+01
 ****
     17 0
 S   3 1.00       0.000000000000
      0.1873113696D+02  0.3349460434D-01
      0.2825394365D+01  0.2347269535D+00
      0.6401216923D+00  0.8137573261D+00
 S   1 1.00       0.000000000000
      0.1612777588D+00  0.1000000000D+01
 ****
     18 0
 S   6 1.00       0.000000000000
      0.3047524880D+04  0.1834737132D-02
      0.4573695180D+03  0.1403732281D-01
      0.1039486850D+03  0.6884262226D-01
      0.2921015530D+02  0.2321844432D+00
      0.9286662960D+01  0.4679413484D+00
      0.3163926960D+01  0.3623119853D+00
 SP   3 1.00       0.000000000000
      0.7868272350D+01 -0.1193324198D+00  0.6899906659D-01
      0.1881288540D+01 -0.1608541517D+00  0.3164239610D+00
      0.5442492580D+00  0.1143456438D+01  0.7443082909D+00
 SP   1 1.00       0.000000000000
      0.1687144782D+00  0.1000000000D+01  0.1000000000D+01
 D   1 1.00       0.000000000000
      0.8000000000D+00  0.1000000000D+01
 ****
     19 0
 S   3 1.00       0.000000000000
      0.1873113696D+02  0.3349460434D-01
      0.2825394365D+01  0.2347269535D+00
      0.6401216923D+00  0.8137573261D+00
 S   1 1.00       0.000000000000
      0.1612777588D+00  0.1000000000D+01
 ****
     20 0
 S   6 1.00       0.000000000000
      0.3047524880D+04  0.1834737132D-02
      0.4573695180D+03  0.1403732281D-01
      0.1039486850D+03  0.6884262226D-01
      0.2921015530D+02  0.2321844432D+00
      0.9286662960D+01  0.4679413484D+00
      0.3163926960D+01  0.3623119853D+00
 SP   3 1.00       0.000000000000
      0.7868272350D+01 -0.1193324198D+00  0.6899906659D-01
      0.1881288540D+01 -0.1608541517D+00  0.3164239610D+00
      0.5442492580D+00  0.1143456438D+01  0.7443082909D+00
 SP   1 1.00       0.000000000000
      0.1687144782D+00  0.1000000000D+01  0.1000000000D+01
 D   1 1.00       0.000000000000
      0.8000000000D+00  0.1000000000D+01
 ****
     21 0
 S   3 1.00       0.000000000000
      0.1873113696D+02  0.3349460434D-01
      0.2825394365D+01  0.2347269535D+00
      0.6401216923D+00  0.8137573261D+00
 S   1 1.00       0.000000000000
      0.1612777588D+00  0.1000000000D+01
 ****
     22 0
 S   6 1.00       0.000000000000
      0.3047524880D+04  0.1834737132D-02
      0.4573695180D+03  0.1403732281D-01
      0.1039486850D+03  0.6884262226D-01
      0.2921015530D+02  0.2321844432D+00
      0.9286662960D+01  0.4679413484D+00
      0.3163926960D+01  0.3623119853D+00
 SP   3 1.00       0.000000000000
      0.7868272350D+01 -0.1193324198D+00  0.6899906659D-01
      0.1881288540D+01 -0.1608541517D+00  0.3164239610D+00
      0.5442492580D+00  0.1143456438D+01  0.7443082909D+00
 SP   1 1.00       0.000000000000
      0.1687144782D+00  0.1000000000D+01  0.1000000000D+01
 D   1 1.00       0.000000000000
      0.8000000000D+00  0.1000000000D+01
 ****
     23 0
 S   3 1.00       0.000000000000
      0.1873113696D+02  0.3349460434D-01
      0.2825394365D+01  0.2347269535D+00
      0.6401216923D+00  0.8137573261D+00
 S   1 1.00       0.000000000000
      0.1612777588D+00  0.1000000000D+01
 ****
     24 0
 S   3 1.00       0.000000000000
      0.1873113696D+02  0.3349460434D-01
      0.2825394365D+01  0.2347269535D+00
      0.6401216923D+00  0.8137573261D+00
 S   1 1.00       0.000000000000
      0.1612777588D+00  0.1000000000D+01
 ****
     25 0
 S   6 1.00       0.000000000000
      0.3047524880D+04  0.1834737132D-02
      0.4573695180D+03  0.1403732281D-01
      0.1039486850D+03  0.6884262226D-01
      0.2921015530D+02  0.2321844432D+00
      0.9286662960D+01  0.4679413484D+00
      0.3163926960D+01  0.3623119853D+00
 SP   3 1.00       0.000000000000
      0.7868272350D+01 -0.1193324198D+00  0.6899906659D-01
      0.1881288540D+01 -0.1608541517D+00  0.3164239610D+00
      0.5442492580D+00  0.1143456438D+01  0.7443082909D+00
 SP   1 1.00       0.000000000000
      0.1687144782D+00  0.1000000000D+01  0.1000000000D+01
 D   1 1.00       0.000000000000
      0.8000000000D+00  0.1000000000D+01
 ****
     26 0
 S   3 1.00       0.000000000000
      0.1873113696D+02  0.3349460434D-01
      0.2825394365D+01  0.2347269535D+00
      0.6401216923D+00  0.8137573261D+00
 S   1 1.00       0.000000000000
      0.1612777588D+00  0.1000000000D+01
 ****
     27 0
 S   3 1.00       0.000000000000
      0.1873113696D+02  0.3349460434D-01
      0.2825394365D+01  0.2347269535D+00
      0.6401216923D+00  0.8137573261D+00
 S   1 1.00       0.000000000000
      0.1612777588D+00  0.1000000000D+01
 ****
     28 0
 S   6 1.00       0.000000000000
      0.3047524880D+04  0.1834737132D-02
      0.4573695180D+03  0.1403732281D-01
      0.1039486850D+03  0.6884262226D-01
      0.2921015530D+02  0.2321844432D+00
      0.9286662960D+01  0.4679413484D+00
      0.3163926960D+01  0.3623119853D+00
 SP   3 1.00       0.000000000000
      0.7868272350D+01 -0.1193324198D+00  0.6899906659D-01
      0.1881288540D+01 -0.1608541517D+00  0.3164239610D+00
      0.5442492580D+00  0.1143456438D+01  0.7443082909D+00
 SP   1 1.00       0.000000000000
      0.1687144782D+00  0.1000000000D+01  0.1000000000D+01
 D   1 1.00       0.000000000000
      0.8000000000D+00  0.1000000000D+01
 ****
     29 0
 S   6 1.00       0.000000000000
      0.3047524880D+04  0.1834737132D-02
      0.4573695180D+03  0.1403732281D-01
      0.1039486850D+03  0.6884262226D-01
      0.2921015530D+02  0.2321844432D+00
      0.9286662960D+01  0.4679413484D+00
      0.3163926960D+01  0.3623119853D+00
 SP   3 1.00       0.000000000000
      0.7868272350D+01 -0.1193324198D+00  0.6899906659D-01
      0.1881288540D+01 -0.1608541517D+00  0.3164239610D+00
      0.5442492580D+00  0.1143456438D+01  0.7443082909D+00
 SP   1 1.00       0.000000000000
      0.1687144782D+00  0.1000000000D+01  0.1000000000D+01
 D   1 1.00       0.000000000000
      0.8000000000D+00  0.1000000000D+01
 ****
     30 0
 S   3 1.00       0.000000000000
      0.1873113696D+02  0.3349460434D-01
      0.2825394365D+01  0.2347269535D+00
      0.6401216923D+00  0.8137573261D+00
 S   1 1.00       0.000000000000
      0.1612777588D+00  0.1000000000D+01
 ****
     31 0
 S   6 1.00       0.000000000000
      0.3047524880D+04  0.1834737132D-02
      0.4573695180D+03  0.1403732281D-01
      0.1039486850D+03  0.6884262226D-01
      0.2921015530D+02  0.2321844432D+00
      0.9286662960D+01  0.4679413484D+00
      0.3163926960D+01  0.3623119853D+00
 SP   3 1.00       0.000000000000
      0.7868272350D+01 -0.1193324198D+00  0.6899906659D-01
      0.1881288540D+01 -0.1608541517D+00  0.3164239610D+00
      0.5442492580D+00  0.1143456438D+01  0.7443082909D+00
 SP   1 1.00       0.000000000000
      0.1687144782D+00  0.1000000000D+01  0.1000000000D+01
 D   1 1.00       0.000000000000
      0.8000000000D+00  0.1000000000D+01
 ****
     32 0
 S   3 1.00       0.000000000000
      0.1873113696D+02  0.3349460434D-01
      0.2825394365D+01  0.2347269535D+00
      0.6401216923D+00  0.8137573261D+00
 S   1 1.00       0.000000000000
      0.1612777588D+00  0.1000000000D+01
 ****
     33 0
 S   3 1.00       0.000000000000
      0.1873113696D+02  0.3349460434D-01
      0.2825394365D+01  0.2347269535D+00
      0.6401216923D+00  0.8137573261D+00
 S   1 1.00       0.000000000000
      0.1612777588D+00  0.1000000000D+01
 ****
     34 0
 S   6 1.00       0.000000000000
      0.3047524880D+04  0.1834737132D-02
      0.4573695180D+03  0.1403732281D-01
      0.1039486850D+03  0.6884262226D-01
      0.2921015530D+02  0.2321844432D+00
      0.9286662960D+01  0.4679413484D+00
      0.3163926960D+01  0.3623119853D+00
 SP   3 1.00       0.000000000000
      0.7868272350D+01 -0.1193324198D+00  0.6899906659D-01
      0.1881288540D+01 -0.1608541517D+00  0.3164239610D+00
      0.5442492580D+00  0.1143456438D+01  0.7443082909D+00
 SP   1 1.00       0.000000000000
      0.1687144782D+00  0.1000000000D+01  0.1000000000D+01
 D   1 1.00       0.000000000000
      0.8000000000D+00  0.1000000000D+01
 ****
     35 0
 S   3 1.00       0.000000000000
      0.1873113696D+02  0.3349460434D-01
      0.2825394365D+01  0.2347269535D+00
      0.6401216923D+00  0.8137573261D+00
 S   1 1.00       0.000000000000
      0.1612777588D+00  0.1000000000D+01
 ****
     36 0
 S   3 1.00       0.000000000000
      0.1873113696D+02  0.3349460434D-01
      0.2825394365D+01  0.2347269535D+00
      0.6401216923D+00  0.8137573261D+00
 S   1 1.00       0.000000000000
      0.1612777588D+00  0.1000000000D+01
 ****
     37 0
 S   6 1.00       0.000000000000
      0.3047524880D+04  0.1834737132D-02
      0.4573695180D+03  0.1403732281D-01
      0.1039486850D+03  0.6884262226D-01
      0.2921015530D+02  0.2321844432D+00
      0.9286662960D+01  0.4679413484D+00
      0.3163926960D+01  0.3623119853D+00
 SP   3 1.00       0.000000000000
      0.7868272350D+01 -0.1193324198D+00  0.6899906659D-01
      0.1881288540D+01 -0.1608541517D+00  0.3164239610D+00
      0.5442492580D+00  0.1143456438D+01  0.7443082909D+00
 SP   1 1.00       0.000000000000
      0.1687144782D+00  0.1000000000D+01  0.1000000000D+01
 D   1 1.00       0.000000000000
      0.8000000000D+00  0.1000000000D+01
 ****
     38 0
 S   3 1.00       0.000000000000
      0.1873113696D+02  0.3349460434D-01
      0.2825394365D+01  0.2347269535D+00
      0.6401216923D+00  0.8137573261D+00
 S   1 1.00       0.000000000000
      0.1612777588D+00  0.1000000000D+01
 ****
     39 0
 S   6 1.00       0.000000000000
      0.3047524880D+04  0.1834737132D-02
      0.4573695180D+03  0.1403732281D-01
      0.1039486850D+03  0.6884262226D-01
      0.2921015530D+02  0.2321844432D+00
      0.9286662960D+01  0.4679413484D+00
      0.3163926960D+01  0.3623119853D+00
 SP   3 1.00       0.000000000000
      0.7868272350D+01 -0.1193324198D+00  0.6899906659D-01
      0.1881288540D+01 -0.1608541517D+00  0.3164239610D+00
      0.5442492580D+00  0.1143456438D+01  0.7443082909D+00
 SP   1 1.00       0.000000000000
      0.1687144782D+00  0.1000000000D+01  0.1000000000D+01
 D   1 1.00       0.000000000000
      0.8000000000D+00  0.1000000000D+01
 ****
     40 0
 S   3 1.00       0.000000000000
      0.1873113696D+02  0.3349460434D-01
      0.2825394365D+01  0.2347269535D+00
      0.6401216923D+00  0.8137573261D+00
 S   1 1.00       0.000000000000
      0.1612777588D+00  0.1000000000D+01
 ****
     41 0
 S   3 1.00       0.000000000000
      0.1873113696D+02  0.3349460434D-01
      0.2825394365D+01  0.2347269535D+00
      0.6401216923D+00  0.8137573261D+00
 S   1 1.00       0.000000000000
      0.1612777588D+00  0.1000000000D+01
 ****
     42 0
 S   3 1.00       0.000000000000
      0.1873113696D+02  0.3349460434D-01
      0.2825394365D+01  0.2347269535D+00
      0.6401216923D+00  0.8137573261D+00
 S   1 1.00       0.000000000000
      0.1612777588D+00  0.1000000000D+01
 ****
     43 0
 S   6 1.00       0.000000000000
      0.3047524880D+04  0.1834737132D-02
      0.4573695180D+03  0.1403732281D-01
      0.1039486850D+03  0.6884262226D-01
      0.2921015530D+02  0.2321844432D+00
      0.9286662960D+01  0.4679413484D+00
      0.3163926960D+01  0.3623119853D+00
 SP   3 1.00       0.000000000000
      0.7868272350D+01 -0.1193324198D+00  0.6899906659D-01
      0.1881288540D+01 -0.1608541517D+00  0.3164239610D+00
      0.5442492580D+00  0.1143456438D+01  0.7443082909D+00
 SP   1 1.00       0.000000000000
      0.1687144782D+00  0.1000000000D+01  0.1000000000D+01
 D   1 1.00       0.000000000000
      0.8000000000D+00  0.1000000000D+01
 ****
     44 0
 S   3 1.00       0.000000000000
      0.1873113696D+02  0.3349460434D-01
      0.2825394365D+01  0.2347269535D+00
      0.6401216923D+00  0.8137573261D+00
 S   1 1.00       0.000000000000
      0.1612777588D+00  0.1000000000D+01
 ****
     45 0
 S   6 1.00       0.000000000000
      0.3047524880D+04  0.1834737132D-02
      0.4573695180D+03  0.1403732281D-01
      0.1039486850D+03  0.6884262226D-01
      0.2921015530D+02  0.2321844432D+00
      0.9286662960D+01  0.4679413484D+00
      0.3163926960D+01  0.3623119853D+00
 SP   3 1.00       0.000000000000
      0.7868272350D+01 -0.1193324198D+00  0.6899906659D-01
      0.1881288540D+01 -0.1608541517D+00  0.3164239610D+00
      0.5442492580D+00  0.1143456438D+01  0.7443082909D+00
 SP   1 1.00       0.000000000000
      0.1687144782D+00  0.1000000000D+01  0.1000000000D+01
 D   1 1.00       0.000000000000
      0.8000000000D+00  0.1000000000D+01
 ****
     46 0
 S   3 1.00       0.000000000000
      0.1873113696D+02  0.3349460434D-01
      0.2825394365D+01  0.2347269535D+00
      0.6401216923D+00  0.8137573261D+00
 S   1 1.00       0.000000000000
      0.1612777588D+00  0.1000000000D+01
 ****
     47 0
 S   3 1.00       0.000000000000
      0.1873113696D+02  0.3349460434D-01
      0.2825394365D+01  0.2347269535D+00
      0.6401216923D+00  0.8137573261D+00
 S   1 1.00       0.000000000000
      0.1612777588D+00  0.1000000000D+01
 ****
     48 0
 S   3 1.00       0.000000000000
      0.1873113696D+02  0.3349460434D-01
      0.2825394365D+01  0.2347269535D+00
      0.6401216923D+00  0.8137573261D+00
 S   1 1.00       0.000000000000
      0.1612777588D+00  0.1000000000D+01
 ****
     49 0
 S   6 1.00       0.000000000000
      0.3047524880D+04  0.1834737132D-02
      0.4573695180D+03  0.1403732281D-01
      0.1039486850D+03  0.6884262226D-01
      0.2921015530D+02  0.2321844432D+00
      0.9286662960D+01  0.4679413484D+00
      0.3163926960D+01  0.3623119853D+00
 SP   3 1.00       0.000000000000
      0.7868272350D+01 -0.1193324198D+00  0.6899906659D-01
      0.1881288540D+01 -0.1608541517D+00  0.3164239610D+00
      0.5442492580D+00  0.1143456438D+01  0.7443082909D+00
 SP   1 1.00       0.000000000000
      0.1687144782D+00  0.1000000000D+01  0.1000000000D+01
 D   1 1.00       0.000000000000
      0.8000000000D+00  0.1000000000D+01
 ****
     50 0
 S   3 1.00       0.000000000000
      0.1873113696D+02  0.3349460434D-01
      0.2825394365D+01  0.2347269535D+00
      0.6401216923D+00  0.8137573261D+00
 S   1 1.00       0.000000000000
      0.1612777588D+00  0.1000000000D+01
 ****
     51 0
 S   3 1.00       0.000000000000
      0.1873113696D+02  0.3349460434D-01
      0.2825394365D+01  0.2347269535D+00
      0.6401216923D+00  0.8137573261D+00
 S   1 1.00       0.000000000000
      0.1612777588D+00  0.1000000000D+01
 ****
     52 0
 S   3 1.00       0.000000000000
      0.1873113696D+02  0.3349460434D-01
      0.2825394365D+01  0.2347269535D+00
      0.6401216923D+00  0.8137573261D+00
 S   1 1.00       0.000000000000
      0.1612777588D+00  0.1000000000D+01
 ****
     53 0
 S   6 1.00       0.000000000000
      0.5484671660D+04  0.1831074430D-02
      0.8252349460D+03  0.1395017220D-01
      0.1880469580D+03  0.6844507810D-01
      0.5296450000D+02  0.2327143360D+00
      0.1689757040D+02  0.4701928980D+00
      0.5799635340D+01  0.3585208530D+00
 SP   3 1.00       0.000000000000
      0.1553961625D+02 -0.1107775495D+00  0.7087426823D-01
      0.3599933586D+01 -0.1480262627D+00  0.3397528391D+00
      0.1013761750D+01  0.1130767015D+01  0.7271585773D+00
 SP   1 1.00       0.000000000000
      0.2700058226D+00  0.1000000000D+01  0.1000000000D+01
 D   1 1.00       0.000000000000
      0.8000000000D+00  0.1000000000D+01
 ****
     54 0
 S   6 1.00       0.000000000000
      0.5484671660D+04  0.1831074430D-02
      0.8252349460D+03  0.1395017220D-01
      0.1880469580D+03  0.6844507810D-01
      0.5296450000D+02  0.2327143360D+00
      0.1689757040D+02  0.4701928980D+00
      0.5799635340D+01  0.3585208530D+00
 SP   3 1.00       0.000000000000
      0.1553961625D+02 -0.1107775495D+00  0.7087426823D-01
      0.3599933586D+01 -0.1480262627D+00  0.3397528391D+00
      0.1013761750D+01  0.1130767015D+01  0.7271585773D+00
 SP   1 1.00       0.000000000000
      0.2700058226D+00  0.1000000000D+01  0.1000000000D+01
 D   1 1.00       0.000000000000
      0.8000000000D+00  0.1000000000D+01
 ****
     55 0
 S   3 1.00       0.000000000000
      0.1873113696D+02  0.3349460434D-01
      0.2825394365D+01  0.2347269535D+00
      0.6401216923D+00  0.8137573261D+00
 S   1 1.00       0.000000000000
      0.1612777588D+00  0.1000000000D+01
 ****
     56 0
 S   6 1.00       0.000000000000
      0.5484671660D+04  0.1831074430D-02
      0.8252349460D+03  0.1395017220D-01
      0.1880469580D+03  0.6844507810D-01
      0.5296450000D+02  0.2327143360D+00
      0.1689757040D+02  0.4701928980D+00
      0.5799635340D+01  0.3585208530D+00
 SP   3 1.00       0.000000000000
      0.1553961625D+02 -0.1107775495D+00  0.7087426823D-01
      0.3599933586D+01 -0.1480262627D+00  0.3397528391D+00
      0.1013761750D+01  0.1130767015D+01  0.7271585773D+00
 SP   1 1.00       0.000000000000
      0.2700058226D+00  0.1000000000D+01  0.1000000000D+01
 D   1 1.00       0.000000000000
      0.8000000000D+00  0.1000000000D+01
 ****
     57 0
 S   3 1.00       0.000000000000
      0.1873113696D+02  0.3349460434D-01
      0.2825394365D+01  0.2347269535D+00
      0.6401216923D+00  0.8137573261D+00
 S   1 1.00       0.000000000000
      0.1612777588D+00  0.1000000000D+01
 ****
     58 0
 S   6 1.00       0.000000000000
      0.3047524880D+04  0.1834737132D-02
      0.4573695180D+03  0.1403732281D-01
      0.1039486850D+03  0.6884262226D-01
      0.2921015530D+02  0.2321844432D+00
      0.9286662960D+01  0.4679413484D+00
      0.3163926960D+01  0.3623119853D+00
 SP   3 1.00       0.000000000000
      0.7868272350D+01 -0.1193324198D+00  0.6899906659D-01
      0.1881288540D+01 -0.1608541517D+00  0.3164239610D+00
      0.5442492580D+00  0.1143456438D+01  0.7443082909D+00
 SP   1 1.00       0.000000000000
      0.1687144782D+00  0.1000000000D+01  0.1000000000D+01
 D   1 1.00       0.000000000000
      0.8000000000D+00  0.1000000000D+01
 ****
     59 0
 S   3 1.00       0.000000000000
      0.1873113696D+02  0.3349460434D-01
      0.2825394365D+01  0.2347269535D+00
      0.6401216923D+00  0.8137573261D+00
 S   1 1.00       0.000000000000
      0.1612777588D+00  0.1000000000D+01
 ****
     60 0
 S   3 1.00       0.000000000000
      0.1873113696D+02  0.3349460434D-01
      0.2825394365D+01  0.2347269535D+00
      0.6401216923D+00  0.8137573261D+00
 S   1 1.00       0.000000000000
      0.1612777588D+00  0.1000000000D+01
 ****
     61 0
 S   6 1.00       0.000000000000
      0.3047524880D+04  0.1834737132D-02
      0.4573695180D+03  0.1403732281D-01
      0.1039486850D+03  0.6884262226D-01
      0.2921015530D+02  0.2321844432D+00
      0.9286662960D+01  0.4679413484D+00
      0.3163926960D+01  0.3623119853D+00
 SP   3 1.00       0.000000000000
      0.7868272350D+01 -0.1193324198D+00  0.6899906659D-01
      0.1881288540D+01 -0.1608541517D+00  0.3164239610D+00
      0.5442492580D+00  0.1143456438D+01  0.7443082909D+00
 SP   1 1.00       0.000000000000
      0.1687144782D+00  0.1000000000D+01  0.1000000000D+01
 D   1 1.00       0.000000000000
      0.8000000000D+00  0.1000000000D+01
 ****
     62 0
 S   3 1.00       0.000000000000
      0.1873113696D+02  0.3349460434D-01
      0.2825394365D+01  0.2347269535D+00
      0.6401216923D+00  0.8137573261D+00
 S   1 1.00       0.000000000000
      0.1612777588D+00  0.1000000000D+01
 ****
     63 0
 S   3 1.00       0.000000000000
      0.1873113696D+02  0.3349460434D-01
      0.2825394365D+01  0.2347269535D+00
      0.6401216923D+00  0.8137573261D+00
 S   1 1.00       0.000000000000
      0.1612777588D+00  0.1000000000D+01
 ****
     64 0
 S   6 1.00       0.000000000000
      0.3047524880D+04  0.1834737132D-02
      0.4573695180D+03  0.1403732281D-01
      0.1039486850D+03  0.6884262226D-01
      0.2921015530D+02  0.2321844432D+00
      0.9286662960D+01  0.4679413484D+00
      0.3163926960D+01  0.3623119853D+00
 SP   3 1.00       0.000000000000
      0.7868272350D+01 -0.1193324198D+00  0.6899906659D-01
      0.1881288540D+01 -0.1608541517D+00  0.3164239610D+00
      0.5442492580D+00  0.1143456438D+01  0.7443082909D+00
 SP   1 1.00       0.000000000000
      0.1687144782D+00  0.1000000000D+01  0.1000000000D+01
 D   1 1.00       0.000000000000
      0.8000000000D+00  0.1000000000D+01
 ****
     65 0
 S   3 1.00       0.000000000000
      0.1873113696D+02  0.3349460434D-01
      0.2825394365D+01  0.2347269535D+00
      0.6401216923D+00  0.8137573261D+00
 S   1 1.00       0.000000000000
      0.1612777588D+00  0.1000000000D+01
 ****
     66 0
 S   3 1.00       0.000000000000
      0.1873113696D+02  0.3349460434D-01
      0.2825394365D+01  0.2347269535D+00
      0.6401216923D+00  0.8137573261D+00
 S   1 1.00       0.000000000000
      0.1612777588D+00  0.1000000000D+01
 ****
     67 0
 S   6 1.00       0.000000000000
      0.3047524880D+04  0.1834737132D-02
      0.4573695180D+03  0.1403732281D-01
      0.1039486850D+03  0.6884262226D-01
      0.2921015530D+02  0.2321844432D+00
      0.9286662960D+01  0.4679413484D+00
      0.3163926960D+01  0.3623119853D+00
 SP   3 1.00       0.000000000000
      0.7868272350D+01 -0.1193324198D+00  0.6899906659D-01
      0.1881288540D+01 -0.1608541517D+00  0.3164239610D+00
      0.5442492580D+00  0.1143456438D+01  0.7443082909D+00
 SP   1 1.00       0.000000000000
      0.1687144782D+00  0.1000000000D+01  0.1000000000D+01
 D   1 1.00       0.000000000000
      0.8000000000D+00  0.1000000000D+01
 ****
     68 0
 S   3 1.00       0.000000000000
      0.1873113696D+02  0.3349460434D-01
      0.2825394365D+01  0.2347269535D+00
      0.6401216923D+00  0.8137573261D+00
 S   1 1.00       0.000000000000
      0.1612777588D+00  0.1000000000D+01
 ****
     69 0
 S   6 1.00       0.000000000000
      0.3047524880D+04  0.1834737132D-02
      0.4573695180D+03  0.1403732281D-01
      0.1039486850D+03  0.6884262226D-01
      0.2921015530D+02  0.2321844432D+00
      0.9286662960D+01  0.4679413484D+00
      0.3163926960D+01  0.3623119853D+00
 SP   3 1.00       0.000000000000
      0.7868272350D+01 -0.1193324198D+00  0.6899906659D-01
      0.1881288540D+01 -0.1608541517D+00  0.3164239610D+00
      0.5442492580D+00  0.1143456438D+01  0.7443082909D+00
 SP   1 1.00       0.000000000000
      0.1687144782D+00  0.1000000000D+01  0.1000000000D+01
 D   1 1.00       0.000000000000
      0.8000000000D+00  0.1000000000D+01
 ****
     70 0
 S   3 1.00       0.000000000000
      0.1873113696D+02  0.3349460434D-01
      0.2825394365D+01  0.2347269535D+00
      0.6401216923D+00  0.8137573261D+00
 S   1 1.00       0.000000000000
      0.1612777588D+00  0.1000000000D+01
 ****
     71 0
 S   3 1.00       0.000000000000
      0.1873113696D+02  0.3349460434D-01
      0.2825394365D+01  0.2347269535D+00
      0.6401216923D+00  0.8137573261D+00
 S   1 1.00       0.000000000000
      0.1612777588D+00  0.1000000000D+01
 ****
     72 0
 S   3 1.00       0.000000000000
      0.1873113696D+02  0.3349460434D-01
      0.2825394365D+01  0.2347269535D+00
      0.6401216923D+00  0.8137573261D+00
 S   1 1.00       0.000000000000
      0.1612777588D+00  0.1000000000D+01
 ****
     73 0
 S   6 1.00       0.000000000000
      0.3047524880D+04  0.1834737132D-02
      0.4573695180D+03  0.1403732281D-01
      0.1039486850D+03  0.6884262226D-01
      0.2921015530D+02  0.2321844432D+00
      0.9286662960D+01  0.4679413484D+00
      0.3163926960D+01  0.3623119853D+00
 SP   3 1.00       0.000000000000
      0.7868272350D+01 -0.1193324198D+00  0.6899906659D-01
      0.1881288540D+01 -0.1608541517D+00  0.3164239610D+00
      0.5442492580D+00  0.1143456438D+01  0.7443082909D+00
 SP   1 1.00       0.000000000000
      0.1687144782D+00  0.1000000000D+01  0.1000000000D+01
 D   1 1.00       0.000000000000
      0.8000000000D+00  0.1000000000D+01
 ****
     74 0
 S   3 1.00       0.000000000000
      0.1873113696D+02  0.3349460434D-01
      0.2825394365D+01  0.2347269535D+00
      0.6401216923D+00  0.8137573261D+00
 S   1 1.00       0.000000000000
      0.1612777588D+00  0.1000000000D+01
 ****
     75 0
 S   3 1.00       0.000000000000
      0.1873113696D+02  0.3349460434D-01
      0.2825394365D+01  0.2347269535D+00
      0.6401216923D+00  0.8137573261D+00
 S   1 1.00       0.000000000000
      0.1612777588D+00  0.1000000000D+01
 ****
     76 0
 S   3 1.00       0.000000000000
      0.1873113696D+02  0.3349460434D-01
      0.2825394365D+01  0.2347269535D+00
      0.6401216923D+00  0.8137573261D+00
 S   1 1.00       0.000000000000
      0.1612777588D+00  0.1000000000D+01
 ****

 AO basis set (Overlap normalization):
 Atom C1       Shell     1 S   6     bf    1 -     1          3.323062390925         -2.359468188977          0.107755377734
      0.3047524880D+04  0.1834737132D-02
      0.4573695180D+03  0.1403732281D-01
      0.1039486850D+03  0.6884262226D-01
      0.2921015530D+02  0.2321844432D+00
      0.9286662960D+01  0.4679413484D+00
      0.3163926960D+01  0.3623119853D+00
 Atom C1       Shell     2 SP   3    bf    2 -     5          3.323062390925         -2.359468188977          0.107755377734
      0.7868272350D+01 -0.1193324198D+00  0.6899906659D-01
      0.1881288540D+01 -0.1608541517D+00  0.3164239610D+00
      0.5442492580D+00  0.1143456438D+01  0.7443082909D+00
 Atom C1       Shell     3 SP   1    bf    6 -     9          3.323062390925         -2.359468188977          0.107755377734
      0.1687144782D+00  0.1000000000D+01  0.1000000000D+01
 Atom C1       Shell     4 D   1     bf   10 -    15          3.323062390925         -2.359468188977          0.107755377734
      0.8000000000D+00  0.1000000000D+01
 Atom H2       Shell     5 S   3     bf   16 -    16          3.559759621960         -2.286351585745         -1.950268139382
      0.1873113696D+02  0.3349460434D-01
      0.2825394365D+01  0.2347269535D+00
      0.6401216923D+00  0.8137573261D+00
 Atom H2       Shell     6 S   1     bf   17 -    17          3.559759621960         -2.286351585745         -1.950268139382
      0.1612777588D+00  0.1000000000D+01
 Atom C3       Shell     7 S   6     bf   18 -    18          5.946029267557         -2.380326853751          1.354713843232
      0.3047524880D+04  0.1834737132D-02
      0.4573695180D+03  0.1403732281D-01
      0.1039486850D+03  0.6884262226D-01
      0.2921015530D+02  0.2321844432D+00
      0.9286662960D+01  0.4679413484D+00
      0.3163926960D+01  0.3623119853D+00
 Atom C3       Shell     8 SP   3    bf   19 -    22          5.946029267557         -2.380326853751          1.354713843232
      0.7868272350D+01 -0.1193324198D+00  0.6899906659D-01
      0.1881288540D+01 -0.1608541517D+00  0.3164239610D+00
      0.5442492580D+00  0.1143456438D+01  0.7443082909D+00
 Atom C3       Shell     9 SP   1    bf   23 -    26          5.946029267557         -2.380326853751          1.354713843232
      0.1687144782D+00  0.1000000000D+01  0.1000000000D+01
 Atom C3       Shell    10 D   1     bf   27 -    32          5.946029267557         -2.380326853751          1.354713843232
      0.8000000000D+00  0.1000000000D+01
 Atom H4       Shell    11 S   3     bf   33 -    33          7.041078582972         -3.985549633968          0.646532776632
      0.1873113696D+02  0.3349460434D-01
      0.2825394365D+01  0.2347269535D+00
      0.6401216923D+00  0.8137573261D+00
 Atom H4       Shell    12 S   1     bf   34 -    34          7.041078582972         -3.985549633968          0.646532776632
      0.1612777588D+00  0.1000000000D+01
 Atom H5       Shell    13 S   3     bf   35 -    35          5.674129386639         -2.697969747798          3.393587329252
      0.1873113696D+02  0.3349460434D-01
      0.2825394365D+01  0.2347269535D+00
      0.6401216923D+00  0.8137573261D+00
 Atom H5       Shell    14 S   1     bf   36 -    36          5.674129386639         -2.697969747798          3.393587329252
      0.1612777588D+00  0.1000000000D+01
 Atom C6       Shell    15 S   6     bf   37 -    37          7.380168489127          0.065984417759          0.925635651061
      0.3047524880D+04  0.1834737132D-02
      0.4573695180D+03  0.1403732281D-01
      0.1039486850D+03  0.6884262226D-01
      0.2921015530D+02  0.2321844432D+00
      0.9286662960D+01  0.4679413484D+00
      0.3163926960D+01  0.3623119853D+00
 Atom C6       Shell    16 SP   3    bf   38 -    41          7.380168489127          0.065984417759          0.925635651061
      0.7868272350D+01 -0.1193324198D+00  0.6899906659D-01
      0.1881288540D+01 -0.1608541517D+00  0.3164239610D+00
      0.5442492580D+00  0.1143456438D+01  0.7443082909D+00
 Atom C6       Shell    17 SP   1    bf   42 -    45          7.380168489127          0.065984417759          0.925635651061
      0.1687144782D+00  0.1000000000D+01  0.1000000000D+01
 Atom C6       Shell    18 D   1     bf   46 -    51          7.380168489127          0.065984417759          0.925635651061
      0.8000000000D+00  0.1000000000D+01
 Atom C7       Shell    19 S   6     bf   52 -    52          5.997060849344          2.521590174973          1.603532325704
      0.3047524880D+04  0.1834737132D-02
      0.4573695180D+03  0.1403732281D-01
      0.1039486850D+03  0.6884262226D-01
      0.2921015530D+02  0.2321844432D+00
      0.9286662960D+01  0.4679413484D+00
      0.3163926960D+01  0.3623119853D+00
 Atom C7       Shell    20 SP   3    bf   53 -    56          5.997060849344          2.521590174973          1.603532325704
      0.7868272350D+01 -0.1193324198D+00  0.6899906659D-01
      0.1881288540D+01 -0.1608541517D+00  0.3164239610D+00
      0.5442492580D+00  0.1143456438D+01  0.7443082909D+00
 Atom C7       Shell    21 SP   1    bf   57 -    60          5.997060849344          2.521590174973          1.603532325704
      0.1687144782D+00  0.1000000000D+01  0.1000000000D+01
 Atom C7       Shell    22 D   1     bf   61 -    66          5.997060849344          2.521590174973          1.603532325704
      0.8000000000D+00  0.1000000000D+01
 Atom C8       Shell    23 S   6     bf   67 -    67          3.295422368334          2.406233940787          0.428404278038
      0.3047524880D+04  0.1834737132D-02
      0.4573695180D+03  0.1403732281D-01
      0.1039486850D+03  0.6884262226D-01
      0.2921015530D+02  0.2321844432D+00
      0.9286662960D+01  0.4679413484D+00
      0.3163926960D+01  0.3623119853D+00
 Atom C8       Shell    24 SP   3    bf   68 -    71          3.295422368334          2.406233940787          0.428404278038
      0.7868272350D+01 -0.1193324198D+00  0.6899906659D-01
      0.1881288540D+01 -0.1608541517D+00  0.3164239610D+00
      0.5442492580D+00  0.1143456438D+01  0.7443082909D+00
 Atom C8       Shell    25 SP   1    bf   72 -    75          3.295422368334          2.406233940787          0.428404278038
      0.1687144782D+00  0.1000000000D+01  0.1000000000D+01
 Atom C8       Shell    26 D   1     bf   76 -    81          3.295422368334          2.406233940787          0.428404278038
      0.8000000000D+00  0.1000000000D+01
 Atom H9       Shell    27 S   3     bf   82 -    82          3.474959805808          2.620364515877         -1.628615548837
      0.1873113696D+02  0.3349460434D-01
      0.2825394365D+01  0.2347269535D+00
      0.6401216923D+00  0.8137573261D+00
 Atom H9       Shell    28 S   1     bf   83 -    83          3.474959805808          2.620364515877         -1.628615548837
      0.1612777588D+00  0.1000000000D+01
 Atom H10      Shell    29 S   3     bf   84 -    84          2.189899945026          4.025151755261          1.092759987795
      0.1873113696D+02  0.3349460434D-01
      0.2825394365D+01  0.2347269535D+00
      0.6401216923D+00  0.8137573261D+00
 Atom H10      Shell    30 S   1     bf   85 -    85          2.189899945026          4.025151755261          1.092759987795
      0.1612777588D+00  0.1000000000D+01
 Atom C11      Shell    31 S   6     bf   86 -    86          1.829866714366         -0.041406923133          0.968797373882
      0.3047524880D+04  0.1834737132D-02
      0.4573695180D+03  0.1403732281D-01
      0.1039486850D+03  0.6884262226D-01
      0.2921015530D+02  0.2321844432D+00
      0.9286662960D+01  0.4679413484D+00
      0.3163926960D+01  0.3623119853D+00
 Atom C11      Shell    32 SP   3    bf   87 -    90          1.829866714366         -0.041406923133          0.968797373882
      0.7868272350D+01 -0.1193324198D+00  0.6899906659D-01
      0.1881288540D+01 -0.1608541517D+00  0.3164239610D+00
      0.5442492580D+00  0.1143456438D+01  0.7443082909D+00
 Atom C11      Shell    33 SP   1    bf   91 -    94          1.829866714366         -0.041406923133          0.968797373882
      0.1687144782D+00  0.1000000000D+01  0.1000000000D+01
 Atom C11      Shell    34 D   1     bf   95 -   100          1.829866714366         -0.041406923133          0.968797373882
      0.8000000000D+00  0.1000000000D+01
 Atom H12      Shell    35 S   3     bf  101 -   101          1.423181096568         -0.212931506064          3.000235713534
      0.1873113696D+02  0.3349460434D-01
      0.2825394365D+01  0.2347269535D+00
      0.6401216923D+00  0.8137573261D+00
 Atom H12      Shell    36 S   1     bf  102 -   102          1.423181096568         -0.212931506064          3.000235713534
      0.1612777588D+00  0.1000000000D+01
 Atom H13      Shell    37 S   3     bf  103 -   103          0.000000000000          0.000000000000          0.000000000000
      0.1873113696D+02  0.3349460434D-01
      0.2825394365D+01  0.2347269535D+00
      0.6401216923D+00  0.8137573261D+00
 Atom H13      Shell    38 S   1     bf  104 -   104          0.000000000000          0.000000000000          0.000000000000
      0.1612777588D+00  0.1000000000D+01
 Atom C14      Shell    39 S   6     bf  105 -   105          9.740417928682          0.000000000000          0.000000000000
      0.3047524880D+04  0.1834737132D-02
      0.4573695180D+03  0.1403732281D-01
      0.1039486850D+03  0.6884262226D-01
      0.2921015530D+02  0.2321844432D+00
      0.9286662960D+01  0.4679413484D+00
      0.3163926960D+01  0.3623119853D+00
 Atom C14      Shell    40 SP   3    bf  106 -   109          9.740417928682          0.000000000000          0.000000000000
      0.7868272350D+01 -0.1193324198D+00  0.6899906659D-01
      0.1881288540D+01 -0.1608541517D+00  0.3164239610D+00
      0.5442492580D+00  0.1143456438D+01  0.7443082909D+00
 Atom C14      Shell    41 SP   1    bf  110 -   113          9.740417928682          0.000000000000          0.000000000000
      0.1687144782D+00  0.1000000000D+01  0.1000000000D+01
 Atom C14      Shell    42 D   1     bf  114 -   119          9.740417928682          0.000000000000          0.000000000000
      0.8000000000D+00  0.1000000000D+01
 Atom H15      Shell    43 S   3     bf  120 -   120         10.590900456452         -1.820565123292         -0.439126319554
      0.1873113696D+02  0.3349460434D-01
      0.2825394365D+01  0.2347269535D+00
      0.6401216923D+00  0.8137573261D+00
 Atom H15      Shell    44 S   1     bf  121 -   121         10.590900456452         -1.820565123292         -0.439126319554
      0.1612777588D+00  0.1000000000D+01
 Atom C16      Shell    45 S   6     bf  122 -   122         11.344906984933          2.285952551175         -0.501003077412
      0.3047524880D+04  0.1834737132D-02
      0.4573695180D+03  0.1403732281D-01
      0.1039486850D+03  0.6884262226D-01
      0.2921015530D+02  0.2321844432D+00
      0.9286662960D+01  0.4679413484D+00
      0.3163926960D+01  0.3623119853D+00
 Atom C16      Shell    46 SP   3    bf  123 -   126         11.344906984933          2.285952551175         -0.501003077412
      0.7868272350D+01 -0.1193324198D+00  0.6899906659D-01
      0.1881288540D+01 -0.1608541517D+00  0.3164239610D+00
      0.5442492580D+00  0.1143456438D+01  0.7443082909D+00
 Atom C16      Shell    47 SP   1    bf  127 -   130         11.344906984933          2.285952551175         -0.501003077412
      0.1687144782D+00  0.1000000000D+01  0.1000000000D+01
 Atom C16      Shell    48 D   1     bf  131 -   136         11.344906984933          2.285952551175         -0.501003077412
      0.8000000000D+00  0.1000000000D+01
 Atom H17      Shell    49 S   3     bf  137 -   137         13.297513395842          1.934007915282          0.102302384005
      0.1873113696D+02  0.3349460434D-01
      0.2825394365D+01  0.2347269535D+00
      0.6401216923D+00  0.8137573261D+00
 Atom H17      Shell    50 S   1     bf  138 -   138         13.297513395842          1.934007915282          0.102302384005
      0.1612777588D+00  0.1000000000D+01
 Atom C18      Shell    51 S   6     bf  139 -   139         10.328245002393          4.675920485300          0.809397765148
      0.3047524880D+04  0.1834737132D-02
      0.4573695180D+03  0.1403732281D-01
      0.1039486850D+03  0.6884262226D-01
      0.2921015530D+02  0.2321844432D+00
      0.9286662960D+01  0.4679413484D+00
      0.3163926960D+01  0.3623119853D+00
 Atom C18      Shell    52 SP   3    bf  140 -   143         10.328245002393          4.675920485300          0.809397765148
      0.7868272350D+01 -0.1193324198D+00  0.6899906659D-01
      0.1881288540D+01 -0.1608541517D+00  0.3164239610D+00
      0.5442492580D+00  0.1143456438D+01  0.7443082909D+00
 Atom C18      Shell    53 SP   1    bf  144 -   147         10.328245002393          4.675920485300          0.809397765148
      0.1687144782D+00  0.1000000000D+01  0.1000000000D+01
 Atom C18      Shell    54 D   1     bf  148 -   153         10.328245002393          4.675920485300          0.809397765148
      0.8000000000D+00  0.1000000000D+01
 Atom H19      Shell    55 S   3     bf  154 -   154         10.776634041355          4.414163255867          2.820118205726
      0.1873113696D+02  0.3349460434D-01
      0.2825394365D+01  0.2347269535D+00
      0.6401216923D+00  0.8137573261D+00
 Atom H19      Shell    56 S   1     bf  155 -   155         10.776634041355          4.414163255867          2.820118205726
      0.1612777588D+00  0.1000000000D+01
 Atom C20      Shell    57 S   6     bf  156 -   156          7.419216126978          4.869473700249          0.479439677072
      0.3047524880D+04  0.1834737132D-02
      0.4573695180D+03  0.1403732281D-01
      0.1039486850D+03  0.6884262226D-01
      0.2921015530D+02  0.2321844432D+00
      0.9286662960D+01  0.4679413484D+00
      0.3163926960D+01  0.3623119853D+00
 Atom C20      Shell    58 SP   3    bf  157 -   160          7.419216126978          4.869473700249          0.479439677072
      0.7868272350D+01 -0.1193324198D+00  0.6899906659D-01
      0.1881288540D+01 -0.1608541517D+00  0.3164239610D+00
      0.5442492580D+00  0.1143456438D+01  0.7443082909D+00
 Atom C20      Shell    59 SP   1    bf  161 -   164          7.419216126978          4.869473700249          0.479439677072
      0.1687144782D+00  0.1000000000D+01  0.1000000000D+01
 Atom C20      Shell    60 D   1     bf  165 -   170          7.419216126978          4.869473700249          0.479439677072
      0.8000000000D+00  0.1000000000D+01
 Atom H21      Shell    61 S   3     bf  171 -   171          7.082422937273          4.816640982690         -1.570908112643
      0.1873113696D+02  0.3349460434D-01
      0.2825394365D+01  0.2347269535D+00
      0.6401216923D+00  0.8137573261D+00
 Atom H21      Shell    62 S   1     bf  172 -   172          7.082422937273          4.816640982690         -1.570908112643
      0.1612777588D+00  0.1000000000D+01
 Atom C22      Shell    63 S   6     bf  173 -   173          6.369717186009          7.424451934482          1.445493187505
      0.3047524880D+04  0.1834737132D-02
      0.4573695180D+03  0.1403732281D-01
      0.1039486850D+03  0.6884262226D-01
      0.2921015530D+02  0.2321844432D+00
      0.9286662960D+01  0.4679413484D+00
      0.3163926960D+01  0.3623119853D+00
 Atom C22      Shell    64 SP   3    bf  174 -   177          6.369717186009          7.424451934482          1.445493187505
      0.7868272350D+01 -0.1193324198D+00  0.6899906659D-01
      0.1881288540D+01 -0.1608541517D+00  0.3164239610D+00
      0.5442492580D+00  0.1143456438D+01  0.7443082909D+00
 Atom C22      Shell    65 SP   1    bf  178 -   181          6.369717186009          7.424451934482          1.445493187505
      0.1687144782D+00  0.1000000000D+01  0.1000000000D+01
 Atom C22      Shell    66 D   1     bf  182 -   187          6.369717186009          7.424451934482          1.445493187505
      0.8000000000D+00  0.1000000000D+01
 Atom H23      Shell    67 S   3     bf  188 -   188          6.379939508347          7.456279892540          3.513778673413
      0.1873113696D+02  0.3349460434D-01
      0.2825394365D+01  0.2347269535D+00
      0.6401216923D+00  0.8137573261D+00
 Atom H23      Shell    68 S   1     bf  189 -   189          6.379939508347          7.456279892540          3.513778673413
      0.1612777588D+00  0.1000000000D+01
 Atom H24      Shell    69 S   3     bf  190 -   190          4.384327390407          7.607851783200          0.884323365413
      0.1873113696D+02  0.3349460434D-01
      0.2825394365D+01  0.2347269535D+00
      0.6401216923D+00  0.8137573261D+00
 Atom H24      Shell    70 S   1     bf  191 -   191          4.384327390407          7.607851783200          0.884323365413
      0.1612777588D+00  0.1000000000D+01
 Atom C25      Shell    71 S   6     bf  192 -   192          7.824786711871          9.761745642380          0.488638561530
      0.3047524880D+04  0.1834737132D-02
      0.4573695180D+03  0.1403732281D-01
      0.1039486850D+03  0.6884262226D-01
      0.2921015530D+02  0.2321844432D+00
      0.9286662960D+01  0.4679413484D+00
      0.3163926960D+01  0.3623119853D+00
 Atom C25      Shell    72 SP   3    bf  193 -   196          7.824786711871          9.761745642380          0.488638561530
      0.7868272350D+01 -0.1193324198D+00  0.6899906659D-01
      0.1881288540D+01 -0.1608541517D+00  0.3164239610D+00
      0.5442492580D+00  0.1143456438D+01  0.7443082909D+00
 Atom C25      Shell    73 SP   1    bf  197 -   200          7.824786711871          9.761745642380          0.488638561530
      0.1687144782D+00  0.1000000000D+01  0.1000000000D+01
 Atom C25      Shell    74 D   1     bf  201 -   206          7.824786711871          9.761745642380          0.488638561530
      0.8000000000D+00  0.1000000000D+01
 Atom H26      Shell    75 S   3     bf  207 -   207          7.584033561637          9.939877955090         -1.566717078026
      0.1873113696D+02  0.3349460434D-01
      0.2825394365D+01  0.2347269535D+00
      0.6401216923D+00  0.8137573261D+00
 Atom H26      Shell    76 S   1     bf  208 -   208          7.584033561637          9.939877955090         -1.566717078026
      0.1612777588D+00  0.1000000000D+01
 Atom H27      Shell    77 S   3     bf  209 -   209          6.981813880164         11.454793973745          1.333488288130
      0.1873113696D+02  0.3349460434D-01
      0.2825394365D+01  0.2347269535D+00
      0.6401216923D+00  0.8137573261D+00
 Atom H27      Shell    78 S   1     bf  210 -   210          6.981813880164         11.454793973745          1.333488288130
      0.1612777588D+00  0.1000000000D+01
 Atom C28      Shell    79 S   6     bf  211 -   211         10.667413936895          9.575801182938          1.091677099131
      0.3047524880D+04  0.1834737132D-02
      0.4573695180D+03  0.1403732281D-01
      0.1039486850D+03  0.6884262226D-01
      0.2921015530D+02  0.2321844432D+00
      0.9286662960D+01  0.4679413484D+00
      0.3163926960D+01  0.3623119853D+00
 Atom C28      Shell    80 SP   3    bf  212 -   215         10.667413936895          9.575801182938          1.091677099131
      0.7868272350D+01 -0.1193324198D+00  0.6899906659D-01
      0.1881288540D+01 -0.1608541517D+00  0.3164239610D+00
      0.5442492580D+00  0.1143456438D+01  0.7443082909D+00
 Atom C28      Shell    81 SP   1    bf  216 -   219         10.667413936895          9.575801182938          1.091677099131
      0.1687144782D+00  0.1000000000D+01  0.1000000000D+01
 Atom C28      Shell    82 D   1     bf  220 -   225         10.667413936895          9.575801182938          1.091677099131
      0.8000000000D+00  0.1000000000D+01
 Atom C29      Shell    83 S   6     bf  226 -   226         11.629194190727          7.088020268284         -0.146260097267
      0.3047524880D+04  0.1834737132D-02
      0.4573695180D+03  0.1403732281D-01
      0.1039486850D+03  0.6884262226D-01
      0.2921015530D+02  0.2321844432D+00
      0.9286662960D+01  0.4679413484D+00
      0.3163926960D+01  0.3623119853D+00
 Atom C29      Shell    84 SP   3    bf  227 -   230         11.629194190727          7.088020268284         -0.146260097267
      0.7868272350D+01 -0.1193324198D+00  0.6899906659D-01
      0.1881288540D+01 -0.1608541517D+00  0.3164239610D+00
      0.5442492580D+00  0.1143456438D+01  0.7443082909D+00
 Atom C29      Shell    85 SP   1    bf  231 -   234         11.629194190727          7.088020268284         -0.146260097267
      0.1687144782D+00  0.1000000000D+01  0.1000000000D+01
 Atom C29      Shell    86 D   1     bf  235 -   240         11.629194190727          7.088020268284         -0.146260097267
      0.8000000000D+00  0.1000000000D+01
 Atom H30      Shell    87 S   3     bf  241 -   241         11.134825204774          7.249014049984         -2.155296470608
      0.1873113696D+02  0.3349460434D-01
      0.2825394365D+01  0.2347269535D+00
      0.6401216923D+00  0.8137573261D+00
 Atom H30      Shell    88 S   1     bf  242 -   242         11.134825204774          7.249014049984         -2.155296470608
      0.1612777588D+00  0.1000000000D+01
 Atom C31      Shell    89 S   6     bf  243 -   243         14.525951751553          7.272852529410          0.000000000000
      0.3047524880D+04  0.1834737132D-02
      0.4573695180D+03  0.1403732281D-01
      0.1039486850D+03  0.6884262226D-01
      0.2921015530D+02  0.2321844432D+00
      0.9286662960D+01  0.4679413484D+00
      0.3163926960D+01  0.3623119853D+00
 Atom C31      Shell    90 SP   3    bf  244 -   247         14.525951751553          7.272852529410          0.000000000000
      0.7868272350D+01 -0.1193324198D+00  0.6899906659D-01
      0.1881288540D+01 -0.1608541517D+00  0.3164239610D+00
      0.5442492580D+00  0.1143456438D+01  0.7443082909D+00
 Atom C31      Shell    91 SP   1    bf  248 -   251         14.525951751553          7.272852529410          0.000000000000
      0.1687144782D+00  0.1000000000D+01  0.1000000000D+01
 Atom C31      Shell    92 D   1     bf  252 -   257         14.525951751553          7.272852529410          0.000000000000
      0.8000000000D+00  0.1000000000D+01
 Atom H32      Shell    93 S   3     bf  258 -   258         15.443839147525          6.132357209122         -1.458561135043
      0.1873113696D+02  0.3349460434D-01
      0.2825394365D+01  0.2347269535D+00
      0.6401216923D+00  0.8137573261D+00
 Atom H32      Shell    94 S   1     bf  259 -   259         15.443839147525          6.132357209122         -1.458561135043
      0.1612777588D+00  0.1000000000D+01
 Atom H33      Shell    95 S   3     bf  260 -   260         15.219523553290          6.591759647575          1.832158649809
      0.1873113696D+02  0.3349460434D-01
      0.2825394365D+01  0.2347269535D+00
      0.6401216923D+00  0.8137573261D+00
 Atom H33      Shell    96 S   1     bf  261 -   261         15.219523553290          6.591759647575          1.832158649809
      0.1612777588D+00  0.1000000000D+01
 Atom C34      Shell    97 S   6     bf  262 -   262         15.054839363221         10.147242819296         -0.321040583839
      0.3047524880D+04  0.1834737132D-02
      0.4573695180D+03  0.1403732281D-01
      0.1039486850D+03  0.6884262226D-01
      0.2921015530D+02  0.2321844432D+00
      0.9286662960D+01  0.4679413484D+00
      0.3163926960D+01  0.3623119853D+00
 Atom C34      Shell    98 SP   3    bf  263 -   266         15.054839363221         10.147242819296         -0.321040583839
      0.7868272350D+01 -0.1193324198D+00  0.6899906659D-01
      0.1881288540D+01 -0.1608541517D+00  0.3164239610D+00
      0.5442492580D+00  0.1143456438D+01  0.7443082909D+00
 Atom C34      Shell    99 SP   1    bf  267 -   270         15.054839363221         10.147242819296         -0.321040583839
      0.1687144782D+00  0.1000000000D+01  0.1000000000D+01
 Atom C34      Shell   100 D   1     bf  271 -   276         15.054839363221         10.147242819296         -0.321040583839
      0.8000000000D+00  0.1000000000D+01
 Atom H35      Shell   101 S   3     bf  277 -   277         16.259494476200         10.846016507954          1.208700714274
      0.1873113696D+02  0.3349460434D-01
      0.2825394365D+01  0.2347269535D+00
      0.6401216923D+00  0.8137573261D+00
 Atom H35      Shell   102 S   1     bf  278 -   278         16.259494476200         10.846016507954          1.208700714274
      0.1612777588D+00  0.1000000000D+01
 Atom H36      Shell   103 S   3     bf  279 -   279         16.063427547550         10.551621270458         -2.082786545053
      0.1873113696D+02  0.3349460434D-01
      0.2825394365D+01  0.2347269535D+00
      0.6401216923D+00  0.8137573261D+00
 Atom H36      Shell   104 S   1     bf  280 -   280         16.063427547550         10.551621270458         -2.082786545053
      0.1612777588D+00  0.1000000000D+01
 Atom C37      Shell   105 S   6     bf  281 -   281         12.429235298182         11.493939329334         -0.318006741916
      0.3047524880D+04  0.1834737132D-02
      0.4573695180D+03  0.1403732281D-01
      0.1039486850D+03  0.6884262226D-01
      0.2921015530D+02  0.2321844432D+00
      0.9286662960D+01  0.4679413484D+00
      0.3163926960D+01  0.3623119853D+00
 Atom C37      Shell   106 SP   3    bf  282 -   285         12.429235298182         11.493939329334         -0.318006741916
      0.7868272350D+01 -0.1193324198D+00  0.6899906659D-01
      0.1881288540D+01 -0.1608541517D+00  0.3164239610D+00
      0.5442492580D+00  0.1143456438D+01  0.7443082909D+00
[...]
 **** Fit       0.002257
 **** Fit       0.002346
 **** Fit       0.002290
 **** Fit       0.002136
 **** Fit      -0.002388
 **** Fit      -0.002238
 **** Fit      -0.002137
 **** Fit      -0.002155
 **** Fit      -0.002376
 **** Fit      -0.002863
 **** Fit      -0.003587
 **** Fit      -0.004364
 **** Fit      -0.004883
 **** Fit      -0.004839
 **** Fit      -0.004088
 **** Fit      -0.002743
 **** Fit      -0.001148
 **** Fit       0.000296
 **** Fit       0.001353
 **** Fit       0.001999
 **** Fit       0.002320
 **** Fit       0.002404
 **** Fit       0.002320
 **** Fit       0.002128
 **** Fit       0.001882
 **** Fit      -0.002038
 **** Fit      -0.001983
 **** Fit      -0.002038
 **** Fit      -0.002261
 **** Fit      -0.002682
 **** Fit      -0.003257
 **** Fit      -0.003836
 **** Fit      -0.004191
 **** Fit      -0.004107
 **** Fit      -0.003483
 **** Fit      -0.002398
 **** Fit      -0.001092
 **** Fit       0.000149
 **** Fit       0.001129
 **** Fit       0.001788
 **** Fit       0.002150
 **** Fit       0.002264
 **** Fit       0.002189
 **** Fit       0.001990
 **** Fit       0.001732
 **** Fit       0.001467
 **** Fit      -0.001877
 **** Fit      -0.001856
 **** Fit      -0.001928
 **** Fit      -0.002128
 **** Fit      -0.002463
 **** Fit      -0.002889
 **** Fit      -0.003292
 **** Fit      -0.003517
 **** Fit      -0.003422
 **** Fit      -0.002943
 **** Fit      -0.002126
 **** Fit      -0.001121
 **** Fit      -0.000114
 **** Fit       0.000748
 **** Fit       0.001386
 **** Fit       0.001776
 **** Fit       0.001929
 **** Fit       0.001885
 **** Fit       0.001709
 **** Fit       0.001471
 **** Fit       0.001227
 **** Fit      -0.001725
 **** Fit      -0.001794
 **** Fit      -0.001956
 **** Fit      -0.002206
 **** Fit      -0.002506
 **** Fit      -0.002777
 **** Fit      -0.002918
 **** Fit      -0.002841
 **** Fit      -0.002502
 **** Fit      -0.001926
 **** Fit      -0.001198
 **** Fit      -0.000428
 **** Fit       0.000280
 **** Fit       0.000851
 **** Fit       0.001236
 **** Fit       0.001418
 **** Fit       0.001419
 **** Fit       0.001293
 **** Fit       0.001107
 **** Fit       0.000913
 **** Fit      -0.001755
 **** Fit      -0.001932
 **** Fit      -0.002139
 **** Fit      -0.002324
 **** Fit      -0.002422
 **** Fit      -0.002379
 **** Fit      -0.002166
 **** Fit      -0.001794
 **** Fit      -0.001306
 **** Fit      -0.000762
 **** Fit      -0.000227
 **** Fit       0.000240
 **** Fit       0.000588
 **** Fit       0.000785
 **** Fit       0.000837
 **** Fit       0.000782
 **** Fit       0.000673
 **** Fit       0.000552
 **** Fit      -0.001918
 **** Fit      -0.001710
 **** Fit      -0.001419
 **** Fit      -0.001074
 **** Fit      -0.000709
 **** Fit      -0.000362
 **** Fit      -0.000074
 **** Fit       0.000123
 **** Fit       0.000223
 **** Fit       0.000245
 **** Fit       0.000222
 **** Fit       0.000184
 **** Fit      -0.001500
 **** Fit      -0.001314
 **** Fit      -0.001095
 **** Fit      -0.000862
 **** Fit      -0.000641
 **** Fit      -0.000456
 **** Fit      -0.000322
 **** Fit      -0.000236
 **** Fit      -0.000183
 **** Fit      -0.000146
 **** Fit      -0.001516
 **** Fit      -0.001442
 **** Fit      -0.001332
 **** Fit      -0.001190
 **** Fit      -0.001030
 **** Fit      -0.000869
 **** Fit      -0.000722
 **** Fit      -0.000596
 **** Fit      -0.000491
 **** Fit      -0.001446
 **** Fit      -0.001403
 **** Fit      -0.001324
 **** Fit      -0.001213
 **** Fit      -0.001082
 **** Fit      -0.000942
 **** Fit      -0.000806
 **** Fit      -0.001215
 **** Fit      -0.008744
 **** Fit      -0.008128
 **** Fit      -0.007504
 **** Fit      -0.006878
 **** Fit      -0.006238
 **** Fit      -0.005567
 **** Fit      -0.008775
 **** Fit      -0.008273
 **** Fit      -0.007760
 **** Fit      -0.007255
 **** Fit      -0.006753
 **** Fit      -0.006225
 **** Fit      -0.005639
 **** Fit      -0.004975
 **** Fit      -0.004239
 **** Fit      -0.003460
 **** Fit      -0.002683
 **** Fit      -0.008234
 **** Fit      -0.007821
 **** Fit      -0.007417
 **** Fit      -0.007032
 **** Fit      -0.006648
 **** Fit      -0.006222
 **** Fit      -0.005710
 **** Fit      -0.005087
 **** Fit      -0.004359
 **** Fit      -0.003563
 **** Fit      -0.002753
 **** Fit      -0.001986
 **** Fit      -0.001305
 **** Fit      -0.008038
 **** Fit      -0.007728
 **** Fit      -0.007412
 **** Fit      -0.007117
 **** Fit      -0.006844
 **** Fit      -0.006561
 **** Fit      -0.006216
 **** Fit      -0.005760
 **** Fit      -0.005165
 **** Fit      -0.004441
 **** Fit      -0.003628
 **** Fit      -0.002790
 **** Fit      -0.001992
 **** Fit      -0.001283
 **** Fit      -0.007486
 **** Fit      -0.007262
 **** Fit      -0.007049
 **** Fit      -0.006860
 **** Fit      -0.006684
 **** Fit      -0.006479
 **** Fit      -0.006191
 **** Fit      -0.005768
 **** Fit      -0.005189
 **** Fit      -0.004464
 **** Fit      -0.003639
 **** Fit      -0.002781
 **** Fit      -0.001961
 **** Fit      -0.001232
 **** Fit      -0.006957
 **** Fit      -0.006824
 **** Fit      -0.006714
 **** Fit      -0.006625
 **** Fit      -0.006533
 **** Fit      -0.006388
 **** Fit      -0.006132
 **** Fit      -0.005724
 **** Fit      -0.005147
 **** Fit      -0.004418
 **** Fit      -0.003584
 **** Fit      -0.002714
 **** Fit      -0.001881
 **** Fit      -0.001142
 **** Fit      -0.006389
 **** Fit      -0.006379
 **** Fit      -0.006388
 **** Fit      -0.006374
 **** Fit      -0.006277
 **** Fit      -0.006043
 **** Fit      -0.005636
 **** Fit      -0.005050
 **** Fit      -0.004307
 **** Fit      -0.003459
 **** Fit      -0.002579
 **** Fit      -0.001740
 **** Fit      -0.001002
 **** Fit      -0.005893
 **** Fit      -0.005929
 **** Fit      -0.006016
 **** Fit      -0.006125
 **** Fit      -0.006195
 **** Fit      -0.006153
 **** Fit      -0.005941
 **** Fit      -0.005527
 **** Fit      -0.004915
 **** Fit      -0.004140
 **** Fit      -0.003265
 **** Fit      -0.002368
 **** Fit      -0.001527
 **** Fit      -0.000798
 **** Fit      -0.005298
 **** Fit      -0.005326
 **** Fit      -0.005429
 **** Fit      -0.005608
 **** Fit      -0.005821
 **** Fit      -0.005990
 **** Fit      -0.006020
 **** Fit      -0.005837
 **** Fit      -0.005411
 **** Fit      -0.004755
 **** Fit      -0.003921
 **** Fit      -0.002995
 **** Fit      -0.002072
 **** Fit      -0.001231
 **** Fit      -0.000524
 **** Fit       0.000032
 **** Fit      -0.004707
 **** Fit      -0.004686
 **** Fit      -0.004735
 **** Fit      -0.004888
 **** Fit      -0.005148
 **** Fit      -0.005470
 **** Fit      -0.005752
 **** Fit      -0.005869
 **** Fit      -0.005725
 **** Fit      -0.005278
 **** Fit      -0.004553
 **** Fit      -0.003633
 **** Fit      -0.002637
 **** Fit      -0.001682
 **** Fit      -0.000851
 **** Fit      -0.000182
 **** Fit       0.000322
 **** Fit      -0.004123
 **** Fit      -0.004094
 **** Fit      -0.004149
 **** Fit      -0.004332
 **** Fit      -0.004655
 **** Fit      -0.005073
 **** Fit      -0.005466
 **** Fit      -0.005674
 **** Fit      -0.005567
 **** Fit      -0.005090
 **** Fit      -0.004279
 **** Fit      -0.003257
 **** Fit      -0.002186
 **** Fit      -0.001208
 **** Fit      -0.000404
 **** Fit       0.000208
 **** Fit       0.000642
 **** Fit       0.000926
 **** Fit      -0.003594
 **** Fit      -0.003554
 **** Fit      -0.003607
 **** Fit      -0.003805
 **** Fit      -0.004168
 **** Fit      -0.004652
 **** Fit      -0.005126
 **** Fit      -0.005402
 **** Fit      -0.005319
 **** Fit      -0.004806
 **** Fit      -0.003914
 **** Fit      -0.002804
 **** Fit      -0.001679
 **** Fit      -0.000700
 **** Fit       0.000059
 **** Fit       0.000600
 **** Fit       0.000956
 **** Fit       0.001164
 **** Fit      -0.003140
 **** Fit      -0.003097
 **** Fit      -0.003150
 **** Fit      -0.003352
 **** Fit      -0.003728
 **** Fit      -0.004234
 **** Fit      -0.004735
 **** Fit      -0.005034
 **** Fit      -0.004953
 **** Fit      -0.004415
 **** Fit      -0.003480
 **** Fit      -0.002331
 **** Fit      -0.001196
 **** Fit      -0.000243
 **** Fit       0.000462
 **** Fit       0.000934
 **** Fit       0.001218
 **** Fit       0.001358
 **** Fit      -0.002770
 **** Fit      -0.002734
 **** Fit      -0.002793
 **** Fit      -0.002994
 **** Fit      -0.003356
 **** Fit      -0.003837
 **** Fit      -0.004306
 **** Fit      -0.004578
 **** Fit      -0.004483
 **** Fit      -0.003947
 **** Fit      -0.003031
 **** Fit      -0.001916
 **** Fit      -0.000825
 **** Fit       0.000078
 **** Fit       0.000733
 **** Fit       0.001154
 **** Fit       0.001385
 **** Fit       0.001474
 **** Fit      -0.002476
 **** Fit      -0.002455
 **** Fit      -0.002521
 **** Fit      -0.002713
 **** Fit      -0.003041
 **** Fit      -0.003459
 **** Fit      -0.003853
 **** Fit      -0.004065
 **** Fit      -0.003952
 **** Fit      -0.003452
 **** Fit      -0.002618
 **** Fit      -0.001606
 **** Fit      -0.000610
 **** Fit       0.000224
 **** Fit       0.000835
 **** Fit       0.001224
 **** Fit       0.001428
 **** Fit       0.001488
 **** Fit      -0.002234
 **** Fit      -0.002305
 **** Fit      -0.002479
 **** Fit      -0.002756
 **** Fit      -0.003092
 **** Fit      -0.003394
 **** Fit      -0.003538
 **** Fit      -0.003415
 **** Fit      -0.002978
 **** Fit      -0.002269
 **** Fit      -0.001406
 **** Fit      -0.000540
 **** Fit       0.000207
 **** Fit       0.000772
 **** Fit       0.001142
 **** Fit       0.001335
 **** Fit       0.001387
 **** Fit       0.001338
 **** Fit      -0.002114
 **** Fit      -0.002261
 **** Fit      -0.002481
 **** Fit      -0.002735
 **** Fit      -0.002951
 **** Fit      -0.003038
 **** Fit      -0.002920
 **** Fit      -0.002563
 **** Fit      -0.001994
 **** Fit      -0.001298
 **** Fit      -0.000580
 **** Fit       0.000063
 **** Fit       0.000572
 **** Fit       0.000921
 **** Fit       0.001113
 **** Fit       0.001171
 **** Fit       0.001131
 **** Fit      -0.002046
 **** Fit      -0.002211
 **** Fit      -0.002395
 **** Fit      -0.002543
 **** Fit      -0.002594
 **** Fit      -0.002495
 **** Fit      -0.002223
 **** Fit      -0.001794
 **** Fit      -0.001261
 **** Fit      -0.000695
 **** Fit      -0.000167
 **** Fit       0.000273
 **** Fit       0.000592
 **** Fit       0.000782
 **** Fit       0.000855
 **** Fit       0.000840
 **** Fit      -0.001957
 **** Fit      -0.001655
 **** Fit      -0.001272
 **** Fit      -0.000852
 **** Fit      -0.000441
 **** Fit      -0.000081
 **** Fit       0.000198
 **** Fit       0.000382
 **** Fit       0.000474
 **** Fit       0.000493
 **** Fit      -0.001012
 **** Fit      -0.000714
 **** Fit      -0.000436
 **** Fit      -0.000203
 **** Fit      -0.000030
 **** Fit       0.000079
 **** Fit       0.000133
 **** Fit      -0.000939
 **** Fit      -0.000737
 **** Fit      -0.000551
 **** Fit      -0.000395
 **** Fit      -0.000276
 **** Fit      -0.000192
 **** Fit      -0.000945
 **** Fit      -0.000802
 **** Fit      -0.000667
 **** Fit      -0.006484
 **** Fit      -0.006092
 **** Fit      -0.006590
 **** Fit      -0.006298
 **** Fit      -0.005978
 **** Fit      -0.005603
 **** Fit      -0.006339
 **** Fit      -0.006119
 **** Fit      -0.005860
 **** Fit      -0.005532
 **** Fit      -0.006093
 **** Fit      -0.005939
 **** Fit      -0.005732
 **** Fit      -0.005566
 **** Fit      -0.005578
 **** Fit      -0.005548
 **** Fit      -0.004293
 **** Fit      -0.003662
 **** Fit      -0.002963
 **** Fit      -0.005079
 **** Fit      -0.005130
 **** Fit      -0.005210
 **** Fit      -0.005291
 **** Fit      -0.005326
 **** Fit      -0.005259
 **** Fit      -0.005046
 **** Fit      -0.004666
 **** Fit      -0.004129
 **** Fit      -0.003470
 **** Fit      -0.002746
 **** Fit      -0.002019
 **** Fit      -0.001345
 **** Fit      -0.004603
 **** Fit      -0.004694
 **** Fit      -0.004830
 **** Fit      -0.004980
 **** Fit      -0.005081
 **** Fit      -0.005066
 **** Fit      -0.004878
 **** Fit      -0.004495
 **** Fit      -0.003930
 **** Fit      -0.003233
 **** Fit      -0.002478
 **** Fit      -0.001737
 **** Fit      -0.001068
 **** Fit      -0.000505
 **** Fit      -0.004083
 **** Fit      -0.004135
 **** Fit      -0.004255
 **** Fit      -0.004437
 **** Fit      -0.004644
 **** Fit      -0.004806
 **** Fit      -0.004838
 **** Fit      -0.004673
 **** Fit      -0.004282
 **** Fit      -0.003685
 **** Fit      -0.002949
 **** Fit      -0.002163
 **** Fit      -0.001413
 **** Fit      -0.000759
 **** Fit      -0.000228
 **** Fit      -0.003636
 **** Fit      -0.003695
 **** Fit      -0.003832
 **** Fit      -0.004044
 **** Fit      -0.004291
 **** Fit      -0.004495
 **** Fit      -0.004563
 **** Fit      -0.004414
 **** Fit      -0.004014
 **** Fit      -0.003391
 **** Fit      -0.002625
 **** Fit      -0.001821
 **** Fit      -0.001075
 **** Fit      -0.000446
 **** Fit       0.000044
 **** Fit       0.000401
 **** Fit      -0.003239
 **** Fit      -0.003301
 **** Fit      -0.003446
 **** Fit      -0.003669
 **** Fit      -0.003931
 **** Fit      -0.004152
 **** Fit      -0.004234
 **** Fit      -0.004091
 **** Fit      -0.003689
 **** Fit      -0.003058
 **** Fit      -0.002287
 **** Fit      -0.001489
 **** Fit      -0.000764
 **** Fit      -0.000169
 **** Fit       0.000278
 **** Fit       0.000587
 **** Fit      -0.002899
 **** Fit      -0.002963
 **** Fit      -0.003105
 **** Fit      -0.003322
 **** Fit      -0.003574
 **** Fit      -0.003785
 **** Fit      -0.003859
 **** Fit      -0.003717
 **** Fit      -0.003324
 **** Fit      -0.002712
 **** Fit      -0.001968
 **** Fit      -0.001206
 **** Fit      -0.000520
 **** Fit       0.000034
 **** Fit       0.000440
 **** Fit       0.000710
 **** Fit      -0.002676
 **** Fit      -0.002809
 **** Fit      -0.003005
 **** Fit      -0.003227
 **** Fit      -0.003406
 **** Fit      -0.003460
 **** Fit      -0.003317
 **** Fit      -0.002949
 **** Fit      -0.002384
 **** Fit      -0.001701
 **** Fit      -0.001000
 **** Fit      -0.000369
 **** Fit       0.000140
 **** Fit       0.000510
 **** Fit       0.000749
 **** Fit      -0.002429
 **** Fit      -0.002546
 **** Fit      -0.002712
 **** Fit      -0.002893
 **** Fit      -0.003032
 **** Fit      -0.003060
 **** Fit      -0.002921
 **** Fit      -0.002592
 **** Fit      -0.002097
 **** Fit      -0.001499
 **** Fit      -0.000881
 **** Fit      -0.000318
 **** Fit       0.000143
 **** Fit       0.000480
 **** Fit      -0.002438
 **** Fit      -0.002577
 **** Fit      -0.002676
 **** Fit      -0.002556
 **** Fit      -0.002276
 **** Fit      -0.001863
 **** Fit      -0.001363
 **** Fit      -0.000840
 **** Fit      -0.000353
 **** Fit       0.000054
 **** Fit      -0.001684
 **** Fit      -0.001284
 **** Fit      -0.000859
 **** Fit      -0.003450
 **** Fit      -0.002909
 **** Fit      -0.002323
 **** Fit      -0.004158
 **** Fit      -0.004237
 **** Fit      -0.004270
 **** Fit      -0.004210
 **** Fit      -0.003691
 **** Fit      -0.003230
 **** Fit      -0.002677
 **** Fit      -0.002083
 **** Fit      -0.001502
 **** Fit      -0.003719
 **** Fit      -0.003824
 **** Fit      -0.003928
 **** Fit      -0.003987
 **** Fit      -0.003949
 **** Fit      -0.003775
 **** Fit      -0.003447
 **** Fit      -0.002982
 **** Fit      -0.002423
 **** Fit      -0.001828
 **** Fit      -0.001256
 **** Fit      -0.000748
 **** Fit      -0.003383
 **** Fit      -0.003498
 **** Fit      -0.003614
 **** Fit      -0.003686
 **** Fit      -0.003660
 **** Fit      -0.003495
 **** Fit      -0.003174
 **** Fit      -0.002714
 **** Fit      -0.002162
 **** Fit      -0.001580
 **** Fit      -0.001027
 **** Fit      -0.000546
 **** Fit      -0.003187
 **** Fit      -0.003302
 **** Fit      -0.003373
 **** Fit      -0.003350
 **** Fit      -0.003192
 **** Fit      -0.002883
 **** Fit      -0.002441
 **** Fit      -0.001913
 **** Fit      -0.001359
 **** Fit      -0.000837
 **** Fit      -0.000387
 **** Fit      -0.002591
 **** Fit      -0.002181
 **** Fit      -0.001693
 **** Fit      -0.001182
 **** Fit      -0.000702
 **** Fit      -0.001949
 **** Fit      -0.001515
 **** Fit      -0.001059
 -----------------------------------------------------------------
 Leave Link  602 at Fri Apr 28 12:19:07 2017, MaxMem=    33554432 cpu:        38.8
 (Enter /home/michal/g09/l9999.exe)

 Test job not archived.
 1\1\GINC-LINUX\SP\RHF\6-31G(d)\C27H46O3\MICHAL\28-Apr-2017\0\\#P HF/6-
 31G* SCF(Conver=6) NoSymm Test Pop=chelpg IOp(6/33=2) GFInput GFPrint\
 \MEP - Input generated by R.E.D.-III.x MOLECULE\\0,1\C,0,1.75848888,-1
 .24857679,0.05702169\H,0,1.88374366,-1.20988515,-1.03203745\C,0,3.1465
 0317,-1.25961472,0.71688369\H,0,3.72597831,-2.10906203,0.34213041\H,0,
 3.00261995,-1.4277041,1.79580907\C,0,3.90541696,0.03491745,0.48982529\
 C,0,3.17350792,1.33436805,0.84855276\C,0,1.74386241,1.27332416,0.22670
 178\H,0,1.83886953,1.38663718,-0.86182623\H,0,1.15884514,2.13001857,0.
 57826368\C,0,0.96832376,-0.0219116,0.51266549\H,0,0.753115,-0.1126785,
 1.58765636\H,0,0.,0.,0.\C,0,5.15440717,0.,0.\H,0,5.60446314,-0.9634015
 7,-0.23237564\C,0,6.00346621,1.20967399,-0.26511941\H,0,7.03674102,1.0
 2343291,0.05413609\C,0,5.46547186,2.47439055,0.42831485\H,0,5.70274912
 ,2.33587459,1.49234228\C,0,3.92608008,2.5768145,0.25370855\H,0,3.74785
 68,2.54885663,-0.83128877\C,0,3.37070916,3.92885075,0.76492205\H,0,3.3
 7611858,3.94569338,1.85941159\H,0,2.32008613,4.02590177,0.46796377\C,0
 ,4.14069879,5.16569331,0.25857639\H,0,4.01329771,5.25995687,-0.8290709
 7\H,0,3.69461678,6.0616159,0.70565161\C,0,5.64495233,5.06729574,0.5776
 9064\C,0,6.15390452,3.75081878,-0.07739751\H,0,5.89229572,3.83601302,-
 1.14053377\C,0,7.6868026,3.8486278,0.\H,0,8.17252769,3.24510367,-0.771
 83731\H,0,8.05382499,3.48820897,0.9695366\C,0,7.96667787,5.36968963,-0
 .16988736\H,0,8.6041539,5.73946474,0.63961687\H,0,8.50039975,5.5836774
 9,-1.10216317\C,0,6.57726804,6.08233073,-0.16828192\H,0,6.22052595,6.0
 6219095,-1.20912438\C,0,5.87093799,5.08622725,2.10703802\H,0,5.4662737
 5,4.19568239,2.59518919\H,0,6.93111633,5.14137953,2.36747767\H,0,5.375
 64935,5.95020351,2.55991544\C,0,6.65996122,7.5994322,0.17049784\H,0,7.
 40808646,7.97790807,-0.54567725\C,0,7.18497419,7.97524619,1.57082243\H
 ,0,6.41924679,7.85187923,2.34279455\H,0,7.49930491,9.0235772,1.5896724
 5\H,0,8.05312729,7.37785253,1.86376593\C,0,3.06513857,1.41884657,2.395
 97628\H,0,2.38447067,2.21803015,2.70391327\H,0,2.68417073,0.48952915,2
 .82603324\H,0,4.04211732,1.60685756,2.85192232\O,0,6.06013283,1.505626
 05,-1.68801069\O,0,6.79434933,0.42798502,-2.33381263\H,0,6.07699655,-0
 .02721804,-2.80517089\O,0,1.05400178,-2.47200535,0.28382103\H,0,0.8836
 954,-2.56076403,1.23212694\C,0,5.34574498,8.34780393,-0.14971341\H,0,4
 .94679141,7.97026882,-1.10195649\H,0,4.59556305,8.10467336,0.61328025\
 C,0,5.49189634,9.87495909,-0.25945217\H,0,5.76049784,10.30088126,0.714
 6664\H,0,6.33611333,10.09853328,-0.92726655\C,0,4.24688028,10.5925722,
 -0.81237843\H,0,4.04056056,10.20539967,-1.82075206\H,0,4.48359237,11.6
 5938339,-0.93997601\C,0,2.9539116,10.48381771,0.02373745\H,0,2.7059410
 5,9.41858822,0.13661212\C,0,3.11211823,11.08303776,1.43020392\H,0,3.38
 399942,12.14512203,1.37254852\H,0,2.17497865,11.01102378,1.99396983\H,
 0,3.88637765,10.57273989,2.01225959\C,0,1.78497573,11.15168943,-0.7181
 0407\H,0,1.9725863,12.22405355,-0.8584307\H,0,0.84765497,11.0491866,-0
 .15932296\H,0,1.6350959,10.70811406,-1.70916487\\Version=EM64L-G09RevD
 .01\HF=-1273.6783439\RMSD=5.629e-07\Dipole=-0.5005217,0.1595169,0.8120
 493\Quadrupole=-8.5524609,1.1007238,7.4517371,-3.413985,5.8607886,0.10
 57413\PG=C01 [X(C27H46O3)]\\@


 CONFIDENCE IS WHAT YOU FEEL BEFORE YOU FULLY
 COMPREHEND THE SITUATION.
 Job cpu time:       0 days  0 hours 12 minutes 28.9 seconds.
 File lengths (MBytes):  RWF=    159 Int=      0 D2E=      0 Chk=     11 Scr=      1
 Normal termination of Gaussian 09 at Fri Apr 28 12:19:07 2017.
