 Entering Gaussian System, Link 0=/home/michal/g09/g09
 Input=JOB2-gau_m1-24-2.com
 Output=JOB2-gau_m1-24-2.log
 Initial command:
 /home/michal/g09/l1.exe "/home/michal/gauss_scratch/Gau-23497.inp" -scrdir="/home/michal/gauss_scratch/"
 Entering Link 1 = /home/michal/g09/l1.exe PID=     23498.
  
 Copyright (c) 1988,1990,1992,1993,1995,1998,2003,2009,2013,
            Gaussian, Inc.  All Rights Reserved.
  
 This is part of the Gaussian(R) 09 program.  It is based on
 the Gaussian(R) 03 system (copyright 2003, Gaussian, Inc.),
 the Gaussian(R) 98 system (copyright 1998, Gaussian, Inc.),
 the Gaussian(R) 94 system (copyright 1995, Gaussian, Inc.),
 the Gaussian 92(TM) system (copyright 1992, Gaussian, Inc.),
 the Gaussian 90(TM) system (copyright 1990, Gaussian, Inc.),
 the Gaussian 88(TM) system (copyright 1988, Gaussian, Inc.),
 the Gaussian 86(TM) system (copyright 1986, Carnegie Mellon
 University), and the Gaussian 82(TM) system (copyright 1983,
 Carnegie Mellon University). Gaussian is a federally registered
 trademark of Gaussian, Inc.
  
 This software contains proprietary and confidential information,
 including trade secrets, belonging to Gaussian, Inc.
  
 This software is provided under written license and may be
 used, copied, transmitted, or stored only in accord with that
 written license.
  
 The following legend is applicable only to US Government
 contracts under FAR:
  
                    RESTRICTED RIGHTS LEGEND
  
 Use, reproduction and disclosure by the US Government is
 subject to restrictions as set forth in subparagraphs (a)
 and (c) of the Commercial Computer Software - Restricted
 Rights clause in FAR 52.227-19.
  
 Gaussian, Inc.
 340 Quinnipiac St., Bldg. 40, Wallingford CT 06492
  
  
 ---------------------------------------------------------------
 Warning -- This program may not be used in any manner that
 competes with the business of Gaussian, Inc. or will provide
 assistance to any competitor of Gaussian, Inc.  The licensee
 of this program is prohibited from giving any competitor of
 Gaussian, Inc. access to this program.  By using this program,
 the user acknowledges that Gaussian, Inc. is engaged in the
 business of creating and licensing software in the field of
 computational chemistry and represents and warrants to the
 licensee that it is not a competitor of Gaussian, Inc. and that
 it will not use this program in any manner prohibited above.
 ---------------------------------------------------------------
  

 Cite this work as:
 Gaussian 09, Revision D.01,
 M. J. Frisch, G. W. Trucks, H. B. Schlegel, G. E. Scuseria, 
 M. A. Robb, J. R. Cheeseman, G. Scalmani, V. Barone, B. Mennucci, 
 G. A. Petersson, H. Nakatsuji, M. Caricato, X. Li, H. P. Hratchian, 
 A. F. Izmaylov, J. Bloino, G. Zheng, J. L. Sonnenberg, M. Hada, 
 M. Ehara, K. Toyota, R. Fukuda, J. Hasegawa, M. Ishida, T. Nakajima, 
 Y. Honda, O. Kitao, H. Nakai, T. Vreven, J. A. Montgomery, Jr., 
 J. E. Peralta, F. Ogliaro, M. Bearpark, J. J. Heyd, E. Brothers, 
 K. N. Kudin, V. N. Staroverov, T. Keith, R. Kobayashi, J. Normand, 
 K. Raghavachari, A. Rendell, J. C. Burant, S. S. Iyengar, J. Tomasi, 
 M. Cossi, N. Rega, J. M. Millam, M. Klene, J. E. Knox, J. B. Cross, 
 V. Bakken, C. Adamo, J. Jaramillo, R. Gomperts, R. E. Stratmann, 
 O. Yazyev, A. J. Austin, R. Cammi, C. Pomelli, J. W. Ochterski, 
 R. L. Martin, K. Morokuma, V. G. Zakrzewski, G. A. Voth, 
 P. Salvador, J. J. Dannenberg, S. Dapprich, A. D. Daniels, 
 O. Farkas, J. B. Foresman, J. V. Ortiz, J. Cioslowski, 
 and D. J. Fox, Gaussian, Inc., Wallingford CT, 2013.
 
 ******************************************
 Gaussian 09:  EM64L-G09RevD.01 24-Apr-2013
                28-Apr-2017 
 ******************************************
 %Mem=256MB
 %NProc=12
 Will use up to   12 processors via shared memory.
 ----------------------------------------------------------------------
 #P HF/6-31G* SCF(Conver=6) NoSymm Test Pop=chelpg IOp(6/33=2) GFInput 
 GFPrint
 ----------------------------------------------------------------------
 1/38=1/1;
 2/12=2,15=1,17=6,18=5,40=1/2;
 3/5=1,6=6,7=1,11=9,16=1,24=110,25=1,30=1/1,2,3;
 4//1;
 5/5=2,6=6,38=5/2;
 6/7=2,8=2,9=2,10=2,15=8,20=3,28=1,33=2/1,2;
 99/5=1,9=1/99;
 Leave Link    1 at Fri Apr 28 13:24:47 2017, MaxMem=    33554432 cpu:         0.6
 (Enter /home/michal/g09/l101.exe)
 ----------------------------------------------
 MEP - Input generated by R.E.D.-III.x MOLECULE
 ----------------------------------------------
 Symbolic Z-matrix:
 Charge =  0 Multiplicity = 1
 C                     7.50749   2.18322  -0.00478 
 H                     7.38674   2.12154   1.08332 
 C                     6.77437   1.00077  -0.65555 
 H                     7.16235   0.05974  -0.25363 
 H                     7.01783   1.00912  -1.7303 
 C                     5.26949   1.06846  -0.47015 
 C                     4.58119   2.38549  -0.85094 
 C                     5.40474   3.56171  -0.23975 
 H                     5.24267   3.56324   0.84648 
 H                     5.01078   4.51233  -0.61522 
 C                     6.91724   3.50241  -0.50132 
 H                     7.12792   3.60815  -1.57605 
 H                     7.41721   4.33897   0. 
 C                     4.61004   0.        0. 
 H                     5.16658  -0.89224   0.28271 
 C                     3.12598  -0.08269   0.18582 
 H                     2.75794  -1.01432  -0.26846 
 C                     2.36455   1.10185  -0.44341 
 H                     2.32089   0.8691   -1.51781 
 C                     3.13138   2.43738  -0.25437 
 H                     3.25878   2.55553   0.82902 
 C                     2.30473   3.64621  -0.75059 
 H                     2.26991   3.65673  -1.84525 
 H                     2.8047    4.57641  -0.45745 
 C                     0.85805   3.6822   -0.2168 
 H                     0.87186   3.82348   0.87366 
 H                     0.35653   4.55948  -0.63693 
 C                     0.09697   2.37885  -0.53563 
 C                     0.92875   1.21947   0.08577 
 H                     1.01528   1.47094   1.15369 
 C                     0.        0.        0. 
 H                     0.25938  -0.76863   0.73279 
 H                     0.06277  -0.46739  -0.99095 
 C                    -1.41176   0.59986   0.24386 
 H                    -2.11753   0.26577  -0.52593 
 H                    -1.82177   0.26639   1.20182 
 C                    -1.26674   2.16042   0.20903 
 H                    -1.10872   2.51076   1.24175 
 C                    -0.0998    2.21951  -2.06116 
 H                     0.84818   2.14514  -2.59985 
 H                    -0.68208   1.32674  -2.30814 
 H                    -0.63639   3.08096  -2.47235 
 C                    -2.54947   2.86347  -0.30835 
 H                    -2.75411   2.47469  -1.31576 
 C                    -2.40987   4.39193  -0.40888 
 H                    -2.12922   4.82622   0.55912 
 H                    -3.35107   4.85647  -0.71801 
 H                    -1.65459   4.68946  -1.13933 
 C                     4.57336   2.5043   -2.3991 
 H                     4.26039   3.50236  -2.72064 
 H                     5.56563   2.32681  -2.82161 
 H                     3.89685   1.77167  -2.85029 
 O                     2.79522  -0.38532   1.56311 
 O                     3.33498   0.67088   2.4304 
 H                     2.58396   0.76503   3.038 
 O                     8.92162   2.10443  -0.20591 
 H                     9.10323   2.17048  -1.15397 
 C                    -3.75112   2.49042   0.59776 
 H                    -3.80575   1.39958   0.69149 
 H                    -3.5461    2.87219   1.60925 
 C                    -5.14256   2.99031   0.15986 
 H                    -5.85515   2.68834   0.93778 
 H                    -5.16439   4.08624   0.14657 
 C                    -5.60766   2.43906  -1.19813 
 H                    -5.50136   1.34418  -1.18695 
 H                    -4.93438   2.79992  -1.98717 
 C                    -7.0575    2.78087  -1.61712 
 H                    -7.20009   2.32291  -2.60718 
 C                    -8.11003   2.16336  -0.68136 
 H                    -8.08118   2.61475   0.31699 
 H                    -9.12018   2.316    -1.07824 
 H                    -7.95663   1.08398  -0.56539 
 C                    -7.28492   4.29276  -1.7826 
 H                    -7.22106   4.81844  -0.82289 
 H                    -8.27824   4.49422  -2.19963 
 H                    -6.54363   4.73661  -2.45763 
 
 NAtoms=     76 NQM=       76 NQMF=       0 NMMI=      0 NMMIF=      0
                NMic=       0 NMicF=      0.
                    Isotopes and Nuclear Properties:
 (Nuclear quadrupole moments (NQMom) in fm**2, nuclear magnetic moments (NMagM)
  in nuclear magnetons)

  Atom         1           2           3           4           5           6           7           8           9          10
 IAtWgt=          12           1          12           1           1          12          12          12           1           1
 AtmWgt=  12.0000000   1.0078250  12.0000000   1.0078250   1.0078250  12.0000000  12.0000000  12.0000000   1.0078250   1.0078250
 NucSpn=           0           1           0           1           1           0           0           0           1           1
 AtZEff=   0.0000000   0.0000000   0.0000000   0.0000000   0.0000000   0.0000000   0.0000000   0.0000000   0.0000000   0.0000000
 NQMom=    0.0000000   0.0000000   0.0000000   0.0000000   0.0000000   0.0000000   0.0000000   0.0000000   0.0000000   0.0000000
 NMagM=    0.0000000   2.7928460   0.0000000   2.7928460   2.7928460   0.0000000   0.0000000   0.0000000   2.7928460   2.7928460
 AtZNuc=   6.0000000   1.0000000   6.0000000   1.0000000   1.0000000   6.0000000   6.0000000   6.0000000   1.0000000   1.0000000

  Atom        11          12          13          14          15          16          17          18          19          20
 IAtWgt=          12           1           1          12           1          12           1          12           1          12
 AtmWgt=  12.0000000   1.0078250   1.0078250  12.0000000   1.0078250  12.0000000   1.0078250  12.0000000   1.0078250  12.0000000
 NucSpn=           0           1           1           0           1           0           1           0           1           0
 AtZEff=   0.0000000   0.0000000   0.0000000   0.0000000   0.0000000   0.0000000   0.0000000   0.0000000   0.0000000   0.0000000
 NQMom=    0.0000000   0.0000000   0.0000000   0.0000000   0.0000000   0.0000000   0.0000000   0.0000000   0.0000000   0.0000000
 NMagM=    0.0000000   2.7928460   2.7928460   0.0000000   2.7928460   0.0000000   2.7928460   0.0000000   2.7928460   0.0000000
 AtZNuc=   6.0000000   1.0000000   1.0000000   6.0000000   1.0000000   6.0000000   1.0000000   6.0000000   1.0000000   6.0000000

  Atom        21          22          23          24          25          26          27          28          29          30
 IAtWgt=           1          12           1           1          12           1           1          12          12           1
 AtmWgt=   1.0078250  12.0000000   1.0078250   1.0078250  12.0000000   1.0078250   1.0078250  12.0000000  12.0000000   1.0078250
 NucSpn=           1           0           1           1           0           1           1           0           0           1
 AtZEff=   0.0000000   0.0000000   0.0000000   0.0000000   0.0000000   0.0000000   0.0000000   0.0000000   0.0000000   0.0000000
 NQMom=    0.0000000   0.0000000   0.0000000   0.0000000   0.0000000   0.0000000   0.0000000   0.0000000   0.0000000   0.0000000
 NMagM=    2.7928460   0.0000000   2.7928460   2.7928460   0.0000000   2.7928460   2.7928460   0.0000000   0.0000000   2.7928460
 AtZNuc=   1.0000000   6.0000000   1.0000000   1.0000000   6.0000000   1.0000000   1.0000000   6.0000000   6.0000000   1.0000000

  Atom        31          32          33          34          35          36          37          38          39          40
 IAtWgt=          12           1           1          12           1           1          12           1          12           1
 AtmWgt=  12.0000000   1.0078250   1.0078250  12.0000000   1.0078250   1.0078250  12.0000000   1.0078250  12.0000000   1.0078250
 NucSpn=           0           1           1           0           1           1           0           1           0           1
 AtZEff=   0.0000000   0.0000000   0.0000000   0.0000000   0.0000000   0.0000000   0.0000000   0.0000000   0.0000000   0.0000000
 NQMom=    0.0000000   0.0000000   0.0000000   0.0000000   0.0000000   0.0000000   0.0000000   0.0000000   0.0000000   0.0000000
 NMagM=    0.0000000   2.7928460   2.7928460   0.0000000   2.7928460   2.7928460   0.0000000   2.7928460   0.0000000   2.7928460
 AtZNuc=   6.0000000   1.0000000   1.0000000   6.0000000   1.0000000   1.0000000   6.0000000   1.0000000   6.0000000   1.0000000

  Atom        41          42          43          44          45          46          47          48          49          50
 IAtWgt=           1           1          12           1          12           1           1           1          12           1
 AtmWgt=   1.0078250   1.0078250  12.0000000   1.0078250  12.0000000   1.0078250   1.0078250   1.0078250  12.0000000   1.0078250
 NucSpn=           1           1           0           1           0           1           1           1           0           1
 AtZEff=   0.0000000   0.0000000   0.0000000   0.0000000   0.0000000   0.0000000   0.0000000   0.0000000   0.0000000   0.0000000
 NQMom=    0.0000000   0.0000000   0.0000000   0.0000000   0.0000000   0.0000000   0.0000000   0.0000000   0.0000000   0.0000000
 NMagM=    2.7928460   2.7928460   0.0000000   2.7928460   0.0000000   2.7928460   2.7928460   2.7928460   0.0000000   2.7928460
 AtZNuc=   1.0000000   1.0000000   6.0000000   1.0000000   6.0000000   1.0000000   1.0000000   1.0000000   6.0000000   1.0000000

  Atom        51          52          53          54          55          56          57          58          59          60
 IAtWgt=           1           1          16          16           1          16           1          12           1           1
 AtmWgt=   1.0078250   1.0078250  15.9949146  15.9949146   1.0078250  15.9949146   1.0078250  12.0000000   1.0078250   1.0078250
 NucSpn=           1           1           0           0           1           0           1           0           1           1
 AtZEff=   0.0000000   0.0000000   0.0000000   0.0000000   0.0000000   0.0000000   0.0000000   0.0000000   0.0000000   0.0000000
 NQMom=    0.0000000   0.0000000   0.0000000   0.0000000   0.0000000   0.0000000   0.0000000   0.0000000   0.0000000   0.0000000
 NMagM=    2.7928460   2.7928460   0.0000000   0.0000000   2.7928460   0.0000000   2.7928460   0.0000000   2.7928460   2.7928460
 AtZNuc=   1.0000000   1.0000000   8.0000000   8.0000000   1.0000000   8.0000000   1.0000000   6.0000000   1.0000000   1.0000000

  Atom        61          62          63          64          65          66          67          68          69          70
 IAtWgt=          12           1           1          12           1           1          12           1          12           1
 AtmWgt=  12.0000000   1.0078250   1.0078250  12.0000000   1.0078250   1.0078250  12.0000000   1.0078250  12.0000000   1.0078250
 NucSpn=           0           1           1           0           1           1           0           1           0           1
 AtZEff=   0.0000000   0.0000000   0.0000000   0.0000000   0.0000000   0.0000000   0.0000000   0.0000000   0.0000000   0.0000000
 NQMom=    0.0000000   0.0000000   0.0000000   0.0000000   0.0000000   0.0000000   0.0000000   0.0000000   0.0000000   0.0000000
 NMagM=    0.0000000   2.7928460   2.7928460   0.0000000   2.7928460   2.7928460   0.0000000   2.7928460   0.0000000   2.7928460
 AtZNuc=   6.0000000   1.0000000   1.0000000   6.0000000   1.0000000   1.0000000   6.0000000   1.0000000   6.0000000   1.0000000

  Atom        71          72          73          74          75          76
 IAtWgt=           1           1          12           1           1           1
 AtmWgt=   1.0078250   1.0078250  12.0000000   1.0078250   1.0078250   1.0078250
 NucSpn=           1           1           0           1           1           1
 AtZEff=   0.0000000   0.0000000   0.0000000   0.0000000   0.0000000   0.0000000
 NQMom=    0.0000000   0.0000000   0.0000000   0.0000000   0.0000000   0.0000000
 NMagM=    2.7928460   2.7928460   0.0000000   2.7928460   2.7928460   2.7928460
 AtZNuc=   1.0000000   1.0000000   6.0000000   1.0000000   1.0000000   1.0000000
 Leave Link  101 at Fri Apr 28 13:24:47 2017, MaxMem=    33554432 cpu:         1.0
 (Enter /home/michal/g09/l202.exe)
 Symmetry turned off by external request.
 Stoichiometry    C27H46O3
 Framework group  C1[X(C27H46O3)]
 Deg. of freedom   222
 Full point group                 C1      NOp   1
                          Input orientation:                          
 ---------------------------------------------------------------------
 Center     Atomic      Atomic             Coordinates (Angstroms)
 Number     Number       Type             X           Y           Z
 ---------------------------------------------------------------------
      1          6           0        7.507487    2.183223   -0.004776
      2          1           0        7.386741    2.121542    1.083317
      3          6           0        6.774367    1.000766   -0.655547
      4          1           0        7.162350    0.059735   -0.253633
      5          1           0        7.017828    1.009118   -1.730304
      6          6           0        5.269491    1.068459   -0.470146
      7          6           0        4.581188    2.385493   -0.850944
      8          6           0        5.404739    3.561706   -0.239751
      9          1           0        5.242675    3.563245    0.846484
     10          1           0        5.010776    4.512335   -0.615221
     11          6           0        6.917240    3.502406   -0.501318
     12          1           0        7.127917    3.608152   -1.576050
     13          1           0        7.417206    4.338975    0.000000
     14          6           0        4.610036    0.000000    0.000000
     15          1           0        5.166580   -0.892238    0.282708
     16          6           0        3.125984   -0.082690    0.185824
     17          1           0        2.757938   -1.014325   -0.268464
     18          6           0        2.364551    1.101848   -0.443415
     19          1           0        2.320894    0.869095   -1.517814
     20          6           0        3.131376    2.437375   -0.254365
     21          1           0        3.258777    2.555527    0.829022
     22          6           0        2.304726    3.646206   -0.750594
     23          1           0        2.269907    3.656732   -1.845245
     24          1           0        2.804704    4.576409   -0.457455
     25          6           0        0.858052    3.682197   -0.216803
     26          1           0        0.871855    3.823481    0.873657
     27          1           0        0.356531    4.559485   -0.636927
     28          6           0        0.096970    2.378850   -0.535630
     29          6           0        0.928747    1.219474    0.085770
     30          1           0        1.015284    1.470942    1.153687
     31          6           0        0.000000    0.000000    0.000000
     32          1           0        0.259376   -0.768630    0.732791
     33          1           0        0.062770   -0.467390   -0.990950
     34          6           0       -1.411762    0.599860    0.243858
     35          1           0       -2.117535    0.265767   -0.525931
     36          1           0       -1.821768    0.266392    1.201824
     37          6           0       -1.266739    2.160416    0.209032
     38          1           0       -1.108718    2.510764    1.241753
     39          6           0       -0.099803    2.219505   -2.061161
     40          1           0        0.848180    2.145143   -2.599852
     41          1           0       -0.682079    1.326738   -2.308143
     42          1           0       -0.636391    3.080959   -2.472351
     43          6           0       -2.549471    2.863467   -0.308351
     44          1           0       -2.754109    2.474690   -1.315763
     45          6           0       -2.409870    4.391927   -0.408883
     46          1           0       -2.129224    4.826216    0.559115
     47          1           0       -3.351068    4.856473   -0.718010
     48          1           0       -1.654591    4.689459   -1.139330
     49          6           0        4.573365    2.504301   -2.399104
     50          1           0        4.260388    3.502356   -2.720645
     51          1           0        5.565628    2.326806   -2.821610
     52          1           0        3.896846    1.771673   -2.850289
     53          8           0        2.795219   -0.385323    1.563115
     54          8           0        3.334979    0.670877    2.430399
     55          1           0        2.583962    0.765031    3.037999
     56          8           0        8.921622    2.104432   -0.205911
     57          1           0        9.103229    2.170485   -1.153966
     58          6           0       -3.751118    2.490416    0.597757
     59          1           0       -3.805748    1.399580    0.691492
     60          1           0       -3.546101    2.872187    1.609253
     61          6           0       -5.142562    2.990308    0.159857
     62          1           0       -5.855154    2.688339    0.937782
     63          1           0       -5.164388    4.086243    0.146568
     64          6           0       -5.607662    2.439056   -1.198127
     65          1           0       -5.501360    1.344179   -1.186952
     66          1           0       -4.934384    2.799916   -1.987175
     67          6           0       -7.057501    2.780874   -1.617118
     68          1           0       -7.200087    2.322913   -2.607185
     69          6           0       -8.110032    2.163364   -0.681355
     70          1           0       -8.081180    2.614747    0.316989
     71          1           0       -9.120185    2.316003   -1.078240
     72          1           0       -7.956626    1.083979   -0.565392
     73          6           0       -7.284922    4.292759   -1.782600
     74          1           0       -7.221063    4.818438   -0.822888
     75          1           0       -8.278240    4.494221   -2.199627
     76          1           0       -6.543629    4.736614   -2.457633
 ---------------------------------------------------------------------
 Rotational constants (GHZ):      0.4434265      0.0535765      0.0507109
 Leave Link  202 at Fri Apr 28 13:24:47 2017, MaxMem=    33554432 cpu:         0.0
 (Enter /home/michal/g09/l301.exe)
 Standard basis: 6-31G(d) (6D, 7F)
 Ernie: Thresh=  0.10000D-02 Tol=  0.10000D-05 Strict=F.
 AO basis set in the form of general basis input (Overlap normalization):
      1 0
 S   6 1.00       0.000000000000
      0.3047524880D+04  0.1834737132D-02
      0.4573695180D+03  0.1403732281D-01
      0.1039486850D+03  0.6884262226D-01
      0.2921015530D+02  0.2321844432D+00
      0.9286662960D+01  0.4679413484D+00
      0.3163926960D+01  0.3623119853D+00
 SP   3 1.00       0.000000000000
      0.7868272350D+01 -0.1193324198D+00  0.6899906659D-01
      0.1881288540D+01 -0.1608541517D+00  0.3164239610D+00
      0.5442492580D+00  0.1143456438D+01  0.7443082909D+00
 SP   1 1.00       0.000000000000
      0.1687144782D+00  0.1000000000D+01  0.1000000000D+01
 D   1 1.00       0.000000000000
      0.8000000000D+00  0.1000000000D+01
 ****
      2 0
 S   3 1.00       0.000000000000
      0.1873113696D+02  0.3349460434D-01
      0.2825394365D+01  0.2347269535D+00
      0.6401216923D+00  0.8137573261D+00
 S   1 1.00       0.000000000000
      0.1612777588D+00  0.1000000000D+01
 ****
      3 0
 S   6 1.00       0.000000000000
      0.3047524880D+04  0.1834737132D-02
      0.4573695180D+03  0.1403732281D-01
      0.1039486850D+03  0.6884262226D-01
      0.2921015530D+02  0.2321844432D+00
      0.9286662960D+01  0.4679413484D+00
      0.3163926960D+01  0.3623119853D+00
 SP   3 1.00       0.000000000000
      0.7868272350D+01 -0.1193324198D+00  0.6899906659D-01
      0.1881288540D+01 -0.1608541517D+00  0.3164239610D+00
      0.5442492580D+00  0.1143456438D+01  0.7443082909D+00
 SP   1 1.00       0.000000000000
      0.1687144782D+00  0.1000000000D+01  0.1000000000D+01
 D   1 1.00       0.000000000000
      0.8000000000D+00  0.1000000000D+01
 ****
      4 0
 S   3 1.00       0.000000000000
      0.1873113696D+02  0.3349460434D-01
      0.2825394365D+01  0.2347269535D+00
      0.6401216923D+00  0.8137573261D+00
 S   1 1.00       0.000000000000
      0.1612777588D+00  0.1000000000D+01
 ****
      5 0
 S   3 1.00       0.000000000000
      0.1873113696D+02  0.3349460434D-01
      0.2825394365D+01  0.2347269535D+00
      0.6401216923D+00  0.8137573261D+00
 S   1 1.00       0.000000000000
      0.1612777588D+00  0.1000000000D+01
 ****
      6 0
 S   6 1.00       0.000000000000
      0.3047524880D+04  0.1834737132D-02
      0.4573695180D+03  0.1403732281D-01
      0.1039486850D+03  0.6884262226D-01
      0.2921015530D+02  0.2321844432D+00
      0.9286662960D+01  0.4679413484D+00
      0.3163926960D+01  0.3623119853D+00
 SP   3 1.00       0.000000000000
      0.7868272350D+01 -0.1193324198D+00  0.6899906659D-01
      0.1881288540D+01 -0.1608541517D+00  0.3164239610D+00
      0.5442492580D+00  0.1143456438D+01  0.7443082909D+00
 SP   1 1.00       0.000000000000
      0.1687144782D+00  0.1000000000D+01  0.1000000000D+01
 D   1 1.00       0.000000000000
      0.8000000000D+00  0.1000000000D+01
 ****
      7 0
 S   6 1.00       0.000000000000
      0.3047524880D+04  0.1834737132D-02
      0.4573695180D+03  0.1403732281D-01
      0.1039486850D+03  0.6884262226D-01
      0.2921015530D+02  0.2321844432D+00
      0.9286662960D+01  0.4679413484D+00
      0.3163926960D+01  0.3623119853D+00
 SP   3 1.00       0.000000000000
      0.7868272350D+01 -0.1193324198D+00  0.6899906659D-01
      0.1881288540D+01 -0.1608541517D+00  0.3164239610D+00
      0.5442492580D+00  0.1143456438D+01  0.7443082909D+00
 SP   1 1.00       0.000000000000
      0.1687144782D+00  0.1000000000D+01  0.1000000000D+01
 D   1 1.00       0.000000000000
      0.8000000000D+00  0.1000000000D+01
 ****
      8 0
 S   6 1.00       0.000000000000
      0.3047524880D+04  0.1834737132D-02
      0.4573695180D+03  0.1403732281D-01
      0.1039486850D+03  0.6884262226D-01
      0.2921015530D+02  0.2321844432D+00
      0.9286662960D+01  0.4679413484D+00
      0.3163926960D+01  0.3623119853D+00
 SP   3 1.00       0.000000000000
      0.7868272350D+01 -0.1193324198D+00  0.6899906659D-01
      0.1881288540D+01 -0.1608541517D+00  0.3164239610D+00
      0.5442492580D+00  0.1143456438D+01  0.7443082909D+00
 SP   1 1.00       0.000000000000
      0.1687144782D+00  0.1000000000D+01  0.1000000000D+01
 D   1 1.00       0.000000000000
      0.8000000000D+00  0.1000000000D+01
 ****
      9 0
 S   3 1.00       0.000000000000
      0.1873113696D+02  0.3349460434D-01
      0.2825394365D+01  0.2347269535D+00
      0.6401216923D+00  0.8137573261D+00
 S   1 1.00       0.000000000000
      0.1612777588D+00  0.1000000000D+01
 ****
     10 0
 S   3 1.00       0.000000000000
      0.1873113696D+02  0.3349460434D-01
      0.2825394365D+01  0.2347269535D+00
      0.6401216923D+00  0.8137573261D+00
 S   1 1.00       0.000000000000
      0.1612777588D+00  0.1000000000D+01
 ****
     11 0
 S   6 1.00       0.000000000000
      0.3047524880D+04  0.1834737132D-02
      0.4573695180D+03  0.1403732281D-01
      0.1039486850D+03  0.6884262226D-01
      0.2921015530D+02  0.2321844432D+00
      0.9286662960D+01  0.4679413484D+00
      0.3163926960D+01  0.3623119853D+00
 SP   3 1.00       0.000000000000
      0.7868272350D+01 -0.1193324198D+00  0.6899906659D-01
      0.1881288540D+01 -0.1608541517D+00  0.3164239610D+00
      0.5442492580D+00  0.1143456438D+01  0.7443082909D+00
 SP   1 1.00       0.000000000000
      0.1687144782D+00  0.1000000000D+01  0.1000000000D+01
 D   1 1.00       0.000000000000
      0.8000000000D+00  0.1000000000D+01
 ****
     12 0
 S   3 1.00       0.000000000000
      0.1873113696D+02  0.3349460434D-01
      0.2825394365D+01  0.2347269535D+00
      0.6401216923D+00  0.8137573261D+00
 S   1 1.00       0.000000000000
      0.1612777588D+00  0.1000000000D+01
 ****
     13 0
 S   3 1.00       0.000000000000
      0.1873113696D+02  0.3349460434D-01
      0.2825394365D+01  0.2347269535D+00
      0.6401216923D+00  0.8137573261D+00
 S   1 1.00       0.000000000000
      0.1612777588D+00  0.1000000000D+01
 ****
     14 0
 S   6 1.00       0.000000000000
      0.3047524880D+04  0.1834737132D-02
      0.4573695180D+03  0.1403732281D-01
      0.1039486850D+03  0.6884262226D-01
      0.2921015530D+02  0.2321844432D+00
      0.9286662960D+01  0.4679413484D+00
      0.3163926960D+01  0.3623119853D+00
 SP   3 1.00       0.000000000000
      0.7868272350D+01 -0.1193324198D+00  0.6899906659D-01
      0.1881288540D+01 -0.1608541517D+00  0.3164239610D+00
      0.5442492580D+00  0.1143456438D+01  0.7443082909D+00
 SP   1 1.00       0.000000000000
      0.1687144782D+00  0.1000000000D+01  0.1000000000D+01
 D   1 1.00       0.000000000000
      0.8000000000D+00  0.1000000000D+01
 ****
     15 0
 S   3 1.00       0.000000000000
      0.1873113696D+02  0.3349460434D-01
      0.2825394365D+01  0.2347269535D+00
      0.6401216923D+00  0.8137573261D+00
 S   1 1.00       0.000000000000
      0.1612777588D+00  0.1000000000D+01
 ****
     16 0
 S   6 1.00       0.000000000000
      0.3047524880D+04  0.1834737132D-02
      0.4573695180D+03  0.1403732281D-01
      0.1039486850D+03  0.6884262226D-01
      0.2921015530D+02  0.2321844432D+00
      0.9286662960D+01  0.4679413484D+00
      0.3163926960D+01  0.3623119853D+00
 SP   3 1.00       0.000000000000
      0.7868272350D+01 -0.1193324198D+00  0.6899906659D-01
      0.1881288540D+01 -0.1608541517D+00  0.3164239610D+00
      0.5442492580D+00  0.1143456438D+01  0.7443082909D+00
 SP   1 1.00       0.000000000000
      0.1687144782D+00  0.1000000000D+01  0.1000000000D+01
 D   1 1.00       0.000000000000
      0.8000000000D+00  0.1000000000D+01
 ****
     17 0
 S   3 1.00       0.000000000000
      0.1873113696D+02  0.3349460434D-01
      0.2825394365D+01  0.2347269535D+00
      0.6401216923D+00  0.8137573261D+00
 S   1 1.00       0.000000000000
      0.1612777588D+00  0.1000000000D+01
 ****
     18 0
 S   6 1.00       0.000000000000
      0.3047524880D+04  0.1834737132D-02
      0.4573695180D+03  0.1403732281D-01
      0.1039486850D+03  0.6884262226D-01
      0.2921015530D+02  0.2321844432D+00
      0.9286662960D+01  0.4679413484D+00
      0.3163926960D+01  0.3623119853D+00
 SP   3 1.00       0.000000000000
      0.7868272350D+01 -0.1193324198D+00  0.6899906659D-01
      0.1881288540D+01 -0.1608541517D+00  0.3164239610D+00
      0.5442492580D+00  0.1143456438D+01  0.7443082909D+00
 SP   1 1.00       0.000000000000
      0.1687144782D+00  0.1000000000D+01  0.1000000000D+01
 D   1 1.00       0.000000000000
      0.8000000000D+00  0.1000000000D+01
 ****
     19 0
 S   3 1.00       0.000000000000
      0.1873113696D+02  0.3349460434D-01
      0.2825394365D+01  0.2347269535D+00
      0.6401216923D+00  0.8137573261D+00
 S   1 1.00       0.000000000000
      0.1612777588D+00  0.1000000000D+01
 ****
     20 0
 S   6 1.00       0.000000000000
      0.3047524880D+04  0.1834737132D-02
      0.4573695180D+03  0.1403732281D-01
      0.1039486850D+03  0.6884262226D-01
      0.2921015530D+02  0.2321844432D+00
      0.9286662960D+01  0.4679413484D+00
      0.3163926960D+01  0.3623119853D+00
 SP   3 1.00       0.000000000000
      0.7868272350D+01 -0.1193324198D+00  0.6899906659D-01
      0.1881288540D+01 -0.1608541517D+00  0.3164239610D+00
      0.5442492580D+00  0.1143456438D+01  0.7443082909D+00
 SP   1 1.00       0.000000000000
      0.1687144782D+00  0.1000000000D+01  0.1000000000D+01
 D   1 1.00       0.000000000000
      0.8000000000D+00  0.1000000000D+01
 ****
     21 0
 S   3 1.00       0.000000000000
      0.1873113696D+02  0.3349460434D-01
      0.2825394365D+01  0.2347269535D+00
      0.6401216923D+00  0.8137573261D+00
 S   1 1.00       0.000000000000
      0.1612777588D+00  0.1000000000D+01
 ****
     22 0
 S   6 1.00       0.000000000000
      0.3047524880D+04  0.1834737132D-02
      0.4573695180D+03  0.1403732281D-01
      0.1039486850D+03  0.6884262226D-01
      0.2921015530D+02  0.2321844432D+00
      0.9286662960D+01  0.4679413484D+00
      0.3163926960D+01  0.3623119853D+00
 SP   3 1.00       0.000000000000
      0.7868272350D+01 -0.1193324198D+00  0.6899906659D-01
      0.1881288540D+01 -0.1608541517D+00  0.3164239610D+00
      0.5442492580D+00  0.1143456438D+01  0.7443082909D+00
 SP   1 1.00       0.000000000000
      0.1687144782D+00  0.1000000000D+01  0.1000000000D+01
 D   1 1.00       0.000000000000
      0.8000000000D+00  0.1000000000D+01
 ****
     23 0
 S   3 1.00       0.000000000000
      0.1873113696D+02  0.3349460434D-01
      0.2825394365D+01  0.2347269535D+00
      0.6401216923D+00  0.8137573261D+00
 S   1 1.00       0.000000000000
      0.1612777588D+00  0.1000000000D+01
 ****
     24 0
 S   3 1.00       0.000000000000
      0.1873113696D+02  0.3349460434D-01
      0.2825394365D+01  0.2347269535D+00
      0.6401216923D+00  0.8137573261D+00
 S   1 1.00       0.000000000000
      0.1612777588D+00  0.1000000000D+01
 ****
     25 0
 S   6 1.00       0.000000000000
      0.3047524880D+04  0.1834737132D-02
      0.4573695180D+03  0.1403732281D-01
      0.1039486850D+03  0.6884262226D-01
      0.2921015530D+02  0.2321844432D+00
      0.9286662960D+01  0.4679413484D+00
      0.3163926960D+01  0.3623119853D+00
 SP   3 1.00       0.000000000000
      0.7868272350D+01 -0.1193324198D+00  0.6899906659D-01
      0.1881288540D+01 -0.1608541517D+00  0.3164239610D+00
      0.5442492580D+00  0.1143456438D+01  0.7443082909D+00
 SP   1 1.00       0.000000000000
      0.1687144782D+00  0.1000000000D+01  0.1000000000D+01
 D   1 1.00       0.000000000000
      0.8000000000D+00  0.1000000000D+01
 ****
     26 0
 S   3 1.00       0.000000000000
      0.1873113696D+02  0.3349460434D-01
      0.2825394365D+01  0.2347269535D+00
      0.6401216923D+00  0.8137573261D+00
 S   1 1.00       0.000000000000
      0.1612777588D+00  0.1000000000D+01
 ****
     27 0
 S   3 1.00       0.000000000000
      0.1873113696D+02  0.3349460434D-01
      0.2825394365D+01  0.2347269535D+00
      0.6401216923D+00  0.8137573261D+00
 S   1 1.00       0.000000000000
      0.1612777588D+00  0.1000000000D+01
 ****
     28 0
 S   6 1.00       0.000000000000
      0.3047524880D+04  0.1834737132D-02
      0.4573695180D+03  0.1403732281D-01
      0.1039486850D+03  0.6884262226D-01
      0.2921015530D+02  0.2321844432D+00
      0.9286662960D+01  0.4679413484D+00
      0.3163926960D+01  0.3623119853D+00
 SP   3 1.00       0.000000000000
      0.7868272350D+01 -0.1193324198D+00  0.6899906659D-01
      0.1881288540D+01 -0.1608541517D+00  0.3164239610D+00
      0.5442492580D+00  0.1143456438D+01  0.7443082909D+00
 SP   1 1.00       0.000000000000
      0.1687144782D+00  0.1000000000D+01  0.1000000000D+01
 D   1 1.00       0.000000000000
      0.8000000000D+00  0.1000000000D+01
 ****
     29 0
 S   6 1.00       0.000000000000
      0.3047524880D+04  0.1834737132D-02
      0.4573695180D+03  0.1403732281D-01
      0.1039486850D+03  0.6884262226D-01
      0.2921015530D+02  0.2321844432D+00
      0.9286662960D+01  0.4679413484D+00
      0.3163926960D+01  0.3623119853D+00
 SP   3 1.00       0.000000000000
      0.7868272350D+01 -0.1193324198D+00  0.6899906659D-01
      0.1881288540D+01 -0.1608541517D+00  0.3164239610D+00
      0.5442492580D+00  0.1143456438D+01  0.7443082909D+00
 SP   1 1.00       0.000000000000
      0.1687144782D+00  0.1000000000D+01  0.1000000000D+01
 D   1 1.00       0.000000000000
      0.8000000000D+00  0.1000000000D+01
 ****
     30 0
 S   3 1.00       0.000000000000
      0.1873113696D+02  0.3349460434D-01
      0.2825394365D+01  0.2347269535D+00
      0.6401216923D+00  0.8137573261D+00
 S   1 1.00       0.000000000000
      0.1612777588D+00  0.1000000000D+01
 ****
     31 0
 S   6 1.00       0.000000000000
      0.3047524880D+04  0.1834737132D-02
      0.4573695180D+03  0.1403732281D-01
      0.1039486850D+03  0.6884262226D-01
      0.2921015530D+02  0.2321844432D+00
      0.9286662960D+01  0.4679413484D+00
      0.3163926960D+01  0.3623119853D+00
 SP   3 1.00       0.000000000000
      0.7868272350D+01 -0.1193324198D+00  0.6899906659D-01
      0.1881288540D+01 -0.1608541517D+00  0.3164239610D+00
      0.5442492580D+00  0.1143456438D+01  0.7443082909D+00
 SP   1 1.00       0.000000000000
      0.1687144782D+00  0.1000000000D+01  0.1000000000D+01
 D   1 1.00       0.000000000000
      0.8000000000D+00  0.1000000000D+01
 ****
     32 0
 S   3 1.00       0.000000000000
      0.1873113696D+02  0.3349460434D-01
      0.2825394365D+01  0.2347269535D+00
      0.6401216923D+00  0.8137573261D+00
 S   1 1.00       0.000000000000
      0.1612777588D+00  0.1000000000D+01
 ****
     33 0
 S   3 1.00       0.000000000000
      0.1873113696D+02  0.3349460434D-01
      0.2825394365D+01  0.2347269535D+00
      0.6401216923D+00  0.8137573261D+00
 S   1 1.00       0.000000000000
      0.1612777588D+00  0.1000000000D+01
 ****
     34 0
 S   6 1.00       0.000000000000
      0.3047524880D+04  0.1834737132D-02
      0.4573695180D+03  0.1403732281D-01
      0.1039486850D+03  0.6884262226D-01
      0.2921015530D+02  0.2321844432D+00
      0.9286662960D+01  0.4679413484D+00
      0.3163926960D+01  0.3623119853D+00
 SP   3 1.00       0.000000000000
      0.7868272350D+01 -0.1193324198D+00  0.6899906659D-01
      0.1881288540D+01 -0.1608541517D+00  0.3164239610D+00
      0.5442492580D+00  0.1143456438D+01  0.7443082909D+00
 SP   1 1.00       0.000000000000
      0.1687144782D+00  0.1000000000D+01  0.1000000000D+01
 D   1 1.00       0.000000000000
      0.8000000000D+00  0.1000000000D+01
 ****
     35 0
 S   3 1.00       0.000000000000
      0.1873113696D+02  0.3349460434D-01
      0.2825394365D+01  0.2347269535D+00
      0.6401216923D+00  0.8137573261D+00
 S   1 1.00       0.000000000000
      0.1612777588D+00  0.1000000000D+01
 ****
     36 0
 S   3 1.00       0.000000000000
      0.1873113696D+02  0.3349460434D-01
      0.2825394365D+01  0.2347269535D+00
      0.6401216923D+00  0.8137573261D+00
 S   1 1.00       0.000000000000
      0.1612777588D+00  0.1000000000D+01
 ****
     37 0
 S   6 1.00       0.000000000000
      0.3047524880D+04  0.1834737132D-02
      0.4573695180D+03  0.1403732281D-01
      0.1039486850D+03  0.6884262226D-01
      0.2921015530D+02  0.2321844432D+00
      0.9286662960D+01  0.4679413484D+00
      0.3163926960D+01  0.3623119853D+00
 SP   3 1.00       0.000000000000
      0.7868272350D+01 -0.1193324198D+00  0.6899906659D-01
      0.1881288540D+01 -0.1608541517D+00  0.3164239610D+00
      0.5442492580D+00  0.1143456438D+01  0.7443082909D+00
 SP   1 1.00       0.000000000000
      0.1687144782D+00  0.1000000000D+01  0.1000000000D+01
 D   1 1.00       0.000000000000
      0.8000000000D+00  0.1000000000D+01
 ****
     38 0
 S   3 1.00       0.000000000000
      0.1873113696D+02  0.3349460434D-01
      0.2825394365D+01  0.2347269535D+00
      0.6401216923D+00  0.8137573261D+00
 S   1 1.00       0.000000000000
      0.1612777588D+00  0.1000000000D+01
 ****
     39 0
 S   6 1.00       0.000000000000
      0.3047524880D+04  0.1834737132D-02
      0.4573695180D+03  0.1403732281D-01
      0.1039486850D+03  0.6884262226D-01
      0.2921015530D+02  0.2321844432D+00
      0.9286662960D+01  0.4679413484D+00
      0.3163926960D+01  0.3623119853D+00
 SP   3 1.00       0.000000000000
      0.7868272350D+01 -0.1193324198D+00  0.6899906659D-01
      0.1881288540D+01 -0.1608541517D+00  0.3164239610D+00
      0.5442492580D+00  0.1143456438D+01  0.7443082909D+00
 SP   1 1.00       0.000000000000
      0.1687144782D+00  0.1000000000D+01  0.1000000000D+01
 D   1 1.00       0.000000000000
      0.8000000000D+00  0.1000000000D+01
 ****
     40 0
 S   3 1.00       0.000000000000
      0.1873113696D+02  0.3349460434D-01
      0.2825394365D+01  0.2347269535D+00
      0.6401216923D+00  0.8137573261D+00
 S   1 1.00       0.000000000000
      0.1612777588D+00  0.1000000000D+01
 ****
     41 0
 S   3 1.00       0.000000000000
      0.1873113696D+02  0.3349460434D-01
      0.2825394365D+01  0.2347269535D+00
      0.6401216923D+00  0.8137573261D+00
 S   1 1.00       0.000000000000
      0.1612777588D+00  0.1000000000D+01
 ****
     42 0
 S   3 1.00       0.000000000000
      0.1873113696D+02  0.3349460434D-01
      0.2825394365D+01  0.2347269535D+00
      0.6401216923D+00  0.8137573261D+00
 S   1 1.00       0.000000000000
      0.1612777588D+00  0.1000000000D+01
 ****
     43 0
 S   6 1.00       0.000000000000
      0.3047524880D+04  0.1834737132D-02
      0.4573695180D+03  0.1403732281D-01
      0.1039486850D+03  0.6884262226D-01
      0.2921015530D+02  0.2321844432D+00
      0.9286662960D+01  0.4679413484D+00
      0.3163926960D+01  0.3623119853D+00
 SP   3 1.00       0.000000000000
      0.7868272350D+01 -0.1193324198D+00  0.6899906659D-01
      0.1881288540D+01 -0.1608541517D+00  0.3164239610D+00
      0.5442492580D+00  0.1143456438D+01  0.7443082909D+00
 SP   1 1.00       0.000000000000
      0.1687144782D+00  0.1000000000D+01  0.1000000000D+01
 D   1 1.00       0.000000000000
      0.8000000000D+00  0.1000000000D+01
 ****
     44 0
 S   3 1.00       0.000000000000
      0.1873113696D+02  0.3349460434D-01
      0.2825394365D+01  0.2347269535D+00
      0.6401216923D+00  0.8137573261D+00
 S   1 1.00       0.000000000000
      0.1612777588D+00  0.1000000000D+01
 ****
     45 0
 S   6 1.00       0.000000000000
      0.3047524880D+04  0.1834737132D-02
      0.4573695180D+03  0.1403732281D-01
      0.1039486850D+03  0.6884262226D-01
      0.2921015530D+02  0.2321844432D+00
      0.9286662960D+01  0.4679413484D+00
      0.3163926960D+01  0.3623119853D+00
 SP   3 1.00       0.000000000000
      0.7868272350D+01 -0.1193324198D+00  0.6899906659D-01
      0.1881288540D+01 -0.1608541517D+00  0.3164239610D+00
      0.5442492580D+00  0.1143456438D+01  0.7443082909D+00
 SP   1 1.00       0.000000000000
      0.1687144782D+00  0.1000000000D+01  0.1000000000D+01
 D   1 1.00       0.000000000000
      0.8000000000D+00  0.1000000000D+01
 ****
     46 0
 S   3 1.00       0.000000000000
      0.1873113696D+02  0.3349460434D-01
      0.2825394365D+01  0.2347269535D+00
      0.6401216923D+00  0.8137573261D+00
 S   1 1.00       0.000000000000
      0.1612777588D+00  0.1000000000D+01
 ****
     47 0
 S   3 1.00       0.000000000000
      0.1873113696D+02  0.3349460434D-01
      0.2825394365D+01  0.2347269535D+00
      0.6401216923D+00  0.8137573261D+00
 S   1 1.00       0.000000000000
      0.1612777588D+00  0.1000000000D+01
 ****
     48 0
 S   3 1.00       0.000000000000
      0.1873113696D+02  0.3349460434D-01
      0.2825394365D+01  0.2347269535D+00
      0.6401216923D+00  0.8137573261D+00
 S   1 1.00       0.000000000000
      0.1612777588D+00  0.1000000000D+01
 ****
     49 0
 S   6 1.00       0.000000000000
      0.3047524880D+04  0.1834737132D-02
      0.4573695180D+03  0.1403732281D-01
      0.1039486850D+03  0.6884262226D-01
      0.2921015530D+02  0.2321844432D+00
      0.9286662960D+01  0.4679413484D+00
      0.3163926960D+01  0.3623119853D+00
 SP   3 1.00       0.000000000000
      0.7868272350D+01 -0.1193324198D+00  0.6899906659D-01
      0.1881288540D+01 -0.1608541517D+00  0.3164239610D+00
      0.5442492580D+00  0.1143456438D+01  0.7443082909D+00
 SP   1 1.00       0.000000000000
      0.1687144782D+00  0.1000000000D+01  0.1000000000D+01
 D   1 1.00       0.000000000000
      0.8000000000D+00  0.1000000000D+01
 ****
     50 0
 S   3 1.00       0.000000000000
      0.1873113696D+02  0.3349460434D-01
      0.2825394365D+01  0.2347269535D+00
      0.6401216923D+00  0.8137573261D+00
 S   1 1.00       0.000000000000
      0.1612777588D+00  0.1000000000D+01
 ****
     51 0
 S   3 1.00       0.000000000000
      0.1873113696D+02  0.3349460434D-01
      0.2825394365D+01  0.2347269535D+00
      0.6401216923D+00  0.8137573261D+00
 S   1 1.00       0.000000000000
      0.1612777588D+00  0.1000000000D+01
 ****
     52 0
 S   3 1.00       0.000000000000
      0.1873113696D+02  0.3349460434D-01
      0.2825394365D+01  0.2347269535D+00
      0.6401216923D+00  0.8137573261D+00
 S   1 1.00       0.000000000000
      0.1612777588D+00  0.1000000000D+01
 ****
     53 0
 S   6 1.00       0.000000000000
      0.5484671660D+04  0.1831074430D-02
      0.8252349460D+03  0.1395017220D-01
      0.1880469580D+03  0.6844507810D-01
      0.5296450000D+02  0.2327143360D+00
      0.1689757040D+02  0.4701928980D+00
      0.5799635340D+01  0.3585208530D+00
 SP   3 1.00       0.000000000000
      0.1553961625D+02 -0.1107775495D+00  0.7087426823D-01
      0.3599933586D+01 -0.1480262627D+00  0.3397528391D+00
      0.1013761750D+01  0.1130767015D+01  0.7271585773D+00
 SP   1 1.00       0.000000000000
      0.2700058226D+00  0.1000000000D+01  0.1000000000D+01
 D   1 1.00       0.000000000000
      0.8000000000D+00  0.1000000000D+01
 ****
     54 0
 S   6 1.00       0.000000000000
      0.5484671660D+04  0.1831074430D-02
      0.8252349460D+03  0.1395017220D-01
      0.1880469580D+03  0.6844507810D-01
      0.5296450000D+02  0.2327143360D+00
      0.1689757040D+02  0.4701928980D+00
      0.5799635340D+01  0.3585208530D+00
 SP   3 1.00       0.000000000000
      0.1553961625D+02 -0.1107775495D+00  0.7087426823D-01
      0.3599933586D+01 -0.1480262627D+00  0.3397528391D+00
      0.1013761750D+01  0.1130767015D+01  0.7271585773D+00
 SP   1 1.00       0.000000000000
      0.2700058226D+00  0.1000000000D+01  0.1000000000D+01
 D   1 1.00       0.000000000000
      0.8000000000D+00  0.1000000000D+01
 ****
     55 0
 S   3 1.00       0.000000000000
      0.1873113696D+02  0.3349460434D-01
      0.2825394365D+01  0.2347269535D+00
      0.6401216923D+00  0.8137573261D+00
 S   1 1.00       0.000000000000
      0.1612777588D+00  0.1000000000D+01
 ****
     56 0
 S   6 1.00       0.000000000000
      0.5484671660D+04  0.1831074430D-02
      0.8252349460D+03  0.1395017220D-01
      0.1880469580D+03  0.6844507810D-01
      0.5296450000D+02  0.2327143360D+00
      0.1689757040D+02  0.4701928980D+00
      0.5799635340D+01  0.3585208530D+00
 SP   3 1.00       0.000000000000
      0.1553961625D+02 -0.1107775495D+00  0.7087426823D-01
      0.3599933586D+01 -0.1480262627D+00  0.3397528391D+00
      0.1013761750D+01  0.1130767015D+01  0.7271585773D+00
 SP   1 1.00       0.000000000000
      0.2700058226D+00  0.1000000000D+01  0.1000000000D+01
 D   1 1.00       0.000000000000
      0.8000000000D+00  0.1000000000D+01
 ****
     57 0
 S   3 1.00       0.000000000000
      0.1873113696D+02  0.3349460434D-01
      0.2825394365D+01  0.2347269535D+00
      0.6401216923D+00  0.8137573261D+00
 S   1 1.00       0.000000000000
      0.1612777588D+00  0.1000000000D+01
 ****
     58 0
 S   6 1.00       0.000000000000
      0.3047524880D+04  0.1834737132D-02
      0.4573695180D+03  0.1403732281D-01
      0.1039486850D+03  0.6884262226D-01
      0.2921015530D+02  0.2321844432D+00
      0.9286662960D+01  0.4679413484D+00
      0.3163926960D+01  0.3623119853D+00
 SP   3 1.00       0.000000000000
      0.7868272350D+01 -0.1193324198D+00  0.6899906659D-01
      0.1881288540D+01 -0.1608541517D+00  0.3164239610D+00
      0.5442492580D+00  0.1143456438D+01  0.7443082909D+00
 SP   1 1.00       0.000000000000
      0.1687144782D+00  0.1000000000D+01  0.1000000000D+01
 D   1 1.00       0.000000000000
      0.8000000000D+00  0.1000000000D+01
 ****
     59 0
 S   3 1.00       0.000000000000
      0.1873113696D+02  0.3349460434D-01
      0.2825394365D+01  0.2347269535D+00
      0.6401216923D+00  0.8137573261D+00
 S   1 1.00       0.000000000000
      0.1612777588D+00  0.1000000000D+01
 ****
     60 0
 S   3 1.00       0.000000000000
      0.1873113696D+02  0.3349460434D-01
      0.2825394365D+01  0.2347269535D+00
      0.6401216923D+00  0.8137573261D+00
 S   1 1.00       0.000000000000
      0.1612777588D+00  0.1000000000D+01
 ****
     61 0
 S   6 1.00       0.000000000000
      0.3047524880D+04  0.1834737132D-02
      0.4573695180D+03  0.1403732281D-01
      0.1039486850D+03  0.6884262226D-01
      0.2921015530D+02  0.2321844432D+00
      0.9286662960D+01  0.4679413484D+00
      0.3163926960D+01  0.3623119853D+00
 SP   3 1.00       0.000000000000
      0.7868272350D+01 -0.1193324198D+00  0.6899906659D-01
      0.1881288540D+01 -0.1608541517D+00  0.3164239610D+00
      0.5442492580D+00  0.1143456438D+01  0.7443082909D+00
 SP   1 1.00       0.000000000000
      0.1687144782D+00  0.1000000000D+01  0.1000000000D+01
 D   1 1.00       0.000000000000
      0.8000000000D+00  0.1000000000D+01
 ****
     62 0
 S   3 1.00       0.000000000000
      0.1873113696D+02  0.3349460434D-01
      0.2825394365D+01  0.2347269535D+00
      0.6401216923D+00  0.8137573261D+00
 S   1 1.00       0.000000000000
      0.1612777588D+00  0.1000000000D+01
 ****
     63 0
 S   3 1.00       0.000000000000
      0.1873113696D+02  0.3349460434D-01
      0.2825394365D+01  0.2347269535D+00
      0.6401216923D+00  0.8137573261D+00
 S   1 1.00       0.000000000000
      0.1612777588D+00  0.1000000000D+01
 ****
     64 0
 S   6 1.00       0.000000000000
      0.3047524880D+04  0.1834737132D-02
      0.4573695180D+03  0.1403732281D-01
      0.1039486850D+03  0.6884262226D-01
      0.2921015530D+02  0.2321844432D+00
      0.9286662960D+01  0.4679413484D+00
      0.3163926960D+01  0.3623119853D+00
 SP   3 1.00       0.000000000000
      0.7868272350D+01 -0.1193324198D+00  0.6899906659D-01
      0.1881288540D+01 -0.1608541517D+00  0.3164239610D+00
      0.5442492580D+00  0.1143456438D+01  0.7443082909D+00
 SP   1 1.00       0.000000000000
      0.1687144782D+00  0.1000000000D+01  0.1000000000D+01
 D   1 1.00       0.000000000000
      0.8000000000D+00  0.1000000000D+01
 ****
     65 0
 S   3 1.00       0.000000000000
      0.1873113696D+02  0.3349460434D-01
      0.2825394365D+01  0.2347269535D+00
      0.6401216923D+00  0.8137573261D+00
 S   1 1.00       0.000000000000
      0.1612777588D+00  0.1000000000D+01
 ****
     66 0
 S   3 1.00       0.000000000000
      0.1873113696D+02  0.3349460434D-01
      0.2825394365D+01  0.2347269535D+00
      0.6401216923D+00  0.8137573261D+00
 S   1 1.00       0.000000000000
      0.1612777588D+00  0.1000000000D+01
 ****
     67 0
 S   6 1.00       0.000000000000
      0.3047524880D+04  0.1834737132D-02
      0.4573695180D+03  0.1403732281D-01
      0.1039486850D+03  0.6884262226D-01
      0.2921015530D+02  0.2321844432D+00
      0.9286662960D+01  0.4679413484D+00
      0.3163926960D+01  0.3623119853D+00
 SP   3 1.00       0.000000000000
      0.7868272350D+01 -0.1193324198D+00  0.6899906659D-01
      0.1881288540D+01 -0.1608541517D+00  0.3164239610D+00
      0.5442492580D+00  0.1143456438D+01  0.7443082909D+00
 SP   1 1.00       0.000000000000
      0.1687144782D+00  0.1000000000D+01  0.1000000000D+01
 D   1 1.00       0.000000000000
      0.8000000000D+00  0.1000000000D+01
 ****
     68 0
 S   3 1.00       0.000000000000
      0.1873113696D+02  0.3349460434D-01
      0.2825394365D+01  0.2347269535D+00
      0.6401216923D+00  0.8137573261D+00
 S   1 1.00       0.000000000000
      0.1612777588D+00  0.1000000000D+01
 ****
     69 0
 S   6 1.00       0.000000000000
      0.3047524880D+04  0.1834737132D-02
      0.4573695180D+03  0.1403732281D-01
      0.1039486850D+03  0.6884262226D-01
      0.2921015530D+02  0.2321844432D+00
      0.9286662960D+01  0.4679413484D+00
      0.3163926960D+01  0.3623119853D+00
 SP   3 1.00       0.000000000000
      0.7868272350D+01 -0.1193324198D+00  0.6899906659D-01
      0.1881288540D+01 -0.1608541517D+00  0.3164239610D+00
      0.5442492580D+00  0.1143456438D+01  0.7443082909D+00
 SP   1 1.00       0.000000000000
      0.1687144782D+00  0.1000000000D+01  0.1000000000D+01
 D   1 1.00       0.000000000000
      0.8000000000D+00  0.1000000000D+01
 ****
     70 0
 S   3 1.00       0.000000000000
      0.1873113696D+02  0.3349460434D-01
      0.2825394365D+01  0.2347269535D+00
      0.6401216923D+00  0.8137573261D+00
 S   1 1.00       0.000000000000
      0.1612777588D+00  0.1000000000D+01
 ****
     71 0
 S   3 1.00       0.000000000000
      0.1873113696D+02  0.3349460434D-01
      0.2825394365D+01  0.2347269535D+00
      0.6401216923D+00  0.8137573261D+00
 S   1 1.00       0.000000000000
      0.1612777588D+00  0.1000000000D+01
 ****
     72 0
 S   3 1.00       0.000000000000
      0.1873113696D+02  0.3349460434D-01
      0.2825394365D+01  0.2347269535D+00
      0.6401216923D+00  0.8137573261D+00
 S   1 1.00       0.000000000000
      0.1612777588D+00  0.1000000000D+01
 ****
     73 0
 S   6 1.00       0.000000000000
      0.3047524880D+04  0.1834737132D-02
      0.4573695180D+03  0.1403732281D-01
      0.1039486850D+03  0.6884262226D-01
      0.2921015530D+02  0.2321844432D+00
      0.9286662960D+01  0.4679413484D+00
      0.3163926960D+01  0.3623119853D+00
 SP   3 1.00       0.000000000000
      0.7868272350D+01 -0.1193324198D+00  0.6899906659D-01
      0.1881288540D+01 -0.1608541517D+00  0.3164239610D+00
      0.5442492580D+00  0.1143456438D+01  0.7443082909D+00
 SP   1 1.00       0.000000000000
      0.1687144782D+00  0.1000000000D+01  0.1000000000D+01
 D   1 1.00       0.000000000000
      0.8000000000D+00  0.1000000000D+01
 ****
     74 0
 S   3 1.00       0.000000000000
      0.1873113696D+02  0.3349460434D-01
      0.2825394365D+01  0.2347269535D+00
      0.6401216923D+00  0.8137573261D+00
 S   1 1.00       0.000000000000
      0.1612777588D+00  0.1000000000D+01
 ****
     75 0
 S   3 1.00       0.000000000000
      0.1873113696D+02  0.3349460434D-01
      0.2825394365D+01  0.2347269535D+00
      0.6401216923D+00  0.8137573261D+00
 S   1 1.00       0.000000000000
      0.1612777588D+00  0.1000000000D+01
 ****
     76 0
 S   3 1.00       0.000000000000
      0.1873113696D+02  0.3349460434D-01
      0.2825394365D+01  0.2347269535D+00
      0.6401216923D+00  0.8137573261D+00
 S   1 1.00       0.000000000000
      0.1612777588D+00  0.1000000000D+01
 ****

 AO basis set (Overlap normalization):
 Atom C1       Shell     1 S   6     bf    1 -     1         14.187094565172          4.125692876716         -0.009025388702
      0.3047524880D+04  0.1834737132D-02
      0.4573695180D+03  0.1403732281D-01
      0.1039486850D+03  0.6884262226D-01
      0.2921015530D+02  0.2321844432D+00
      0.9286662960D+01  0.4679413484D+00
      0.3163926960D+01  0.3623119853D+00
 Atom C1       Shell     2 SP   3    bf    2 -     5         14.187094565172          4.125692876716         -0.009025388702
      0.7868272350D+01 -0.1193324198D+00  0.6899906659D-01
      0.1881288540D+01 -0.1608541517D+00  0.3164239610D+00
      0.5442492580D+00  0.1143456438D+01  0.7443082909D+00
 Atom C1       Shell     3 SP   1    bf    6 -     9         14.187094565172          4.125692876716         -0.009025388702
      0.1687144782D+00  0.1000000000D+01  0.1000000000D+01
 Atom C1       Shell     4 D   1     bf   10 -    15         14.187094565172          4.125692876716         -0.009025388702
      0.8000000000D+00  0.1000000000D+01
 Atom H2       Shell     5 S   3     bf   16 -    16         13.958917750222          4.009133378312          2.047172086051
      0.1873113696D+02  0.3349460434D-01
      0.2825394365D+01  0.2347269535D+00
      0.6401216923D+00  0.8137573261D+00
 Atom H2       Shell     6 S   1     bf   17 -    17         13.958917750222          4.009133378312          2.047172086051
      0.1612777588D+00  0.1000000000D+01
 Atom C3       Shell     7 S   6     bf   18 -    18         12.801697427692          1.891174362302         -1.238803654728
      0.3047524880D+04  0.1834737132D-02
      0.4573695180D+03  0.1403732281D-01
      0.1039486850D+03  0.6884262226D-01
      0.2921015530D+02  0.2321844432D+00
      0.9286662960D+01  0.4679413484D+00
      0.3163926960D+01  0.3623119853D+00
 Atom C3       Shell     8 SP   3    bf   19 -    22         12.801697427692          1.891174362302         -1.238803654728
      0.7868272350D+01 -0.1193324198D+00  0.6899906659D-01
      0.1881288540D+01 -0.1608541517D+00  0.3164239610D+00
      0.5442492580D+00  0.1143456438D+01  0.7443082909D+00
 Atom C3       Shell     9 SP   1    bf   23 -    26         12.801697427692          1.891174362302         -1.238803654728
      0.1687144782D+00  0.1000000000D+01  0.1000000000D+01
 Atom C3       Shell    10 D   1     bf   27 -    32         12.801697427692          1.891174362302         -1.238803654728
      0.8000000000D+00  0.1000000000D+01
 Atom H4       Shell    11 S   3     bf   33 -    33         13.534879533236          0.112882885034         -0.479297153927
      0.1873113696D+02  0.3349460434D-01
      0.2825394365D+01  0.2347269535D+00
      0.6401216923D+00  0.8137573261D+00
 Atom H4       Shell    12 S   1     bf   34 -    34         13.534879533236          0.112882885034         -0.479297153927
      0.1612777588D+00  0.1000000000D+01
 Atom H5       Shell    13 S   3     bf   35 -    35         13.261772816519          1.906956466793         -3.269799911849
      0.1873113696D+02  0.3349460434D-01
      0.2825394365D+01  0.2347269535D+00
      0.6401216923D+00  0.8137573261D+00
 Atom H5       Shell    14 S   1     bf   36 -    36         13.261772816519          1.906956466793         -3.269799911849
      0.1612777588D+00  0.1000000000D+01
 Atom C6       Shell    15 S   6     bf   37 -    37          9.957895530007          2.019095385546         -0.888446766732
      0.3047524880D+04  0.1834737132D-02
      0.4573695180D+03  0.1403732281D-01
      0.1039486850D+03  0.6884262226D-01
      0.2921015530D+02  0.2321844432D+00
      0.9286662960D+01  0.4679413484D+00
      0.3163926960D+01  0.3623119853D+00
 Atom C6       Shell    16 SP   3    bf   38 -    41          9.957895530007          2.019095385546         -0.888446766732
      0.7868272350D+01 -0.1193324198D+00  0.6899906659D-01
      0.1881288540D+01 -0.1608541517D+00  0.3164239610D+00
      0.5442492580D+00  0.1143456438D+01  0.7443082909D+00
 Atom C6       Shell    17 SP   1    bf   42 -    45          9.957895530007          2.019095385546         -0.888446766732
      0.1687144782D+00  0.1000000000D+01  0.1000000000D+01
 Atom C6       Shell    18 D   1     bf   46 -    51          9.957895530007          2.019095385546         -0.888446766732
      0.8000000000D+00  0.1000000000D+01
 Atom C7       Shell    19 S   6     bf   52 -    52          8.657191080105          4.507928896553         -1.608050660888
      0.3047524880D+04  0.1834737132D-02
      0.4573695180D+03  0.1403732281D-01
      0.1039486850D+03  0.6884262226D-01
      0.2921015530D+02  0.2321844432D+00
      0.9286662960D+01  0.4679413484D+00
      0.3163926960D+01  0.3623119853D+00
 Atom C7       Shell    20 SP   3    bf   53 -    56          8.657191080105          4.507928896553         -1.608050660888
      0.7868272350D+01 -0.1193324198D+00  0.6899906659D-01
      0.1881288540D+01 -0.1608541517D+00  0.3164239610D+00
      0.5442492580D+00  0.1143456438D+01  0.7443082909D+00
 Atom C7       Shell    21 SP   1    bf   57 -    60          8.657191080105          4.507928896553         -1.608050660888
      0.1687144782D+00  0.1000000000D+01  0.1000000000D+01
 Atom C7       Shell    22 D   1     bf   61 -    66          8.657191080105          4.507928896553         -1.608050660888
      0.8000000000D+00  0.1000000000D+01
 Atom C8       Shell    23 S   6     bf   67 -    67         10.213476132884          6.730648754678         -0.453062804120
      0.3047524880D+04  0.1834737132D-02
      0.4573695180D+03  0.1403732281D-01
      0.1039486850D+03  0.6884262226D-01
      0.2921015530D+02  0.2321844432D+00
      0.9286662960D+01  0.4679413484D+00
      0.3163926960D+01  0.3623119853D+00
 Atom C8       Shell    24 SP   3    bf   68 -    71         10.213476132884          6.730648754678         -0.453062804120
      0.7868272350D+01 -0.1193324198D+00  0.6899906659D-01
      0.1881288540D+01 -0.1608541517D+00  0.3164239610D+00
      0.5442492580D+00  0.1143456438D+01  0.7443082909D+00
 Atom C8       Shell    25 SP   1    bf   72 -    75         10.213476132884          6.730648754678         -0.453062804120
      0.1687144782D+00  0.1000000000D+01  0.1000000000D+01
 Atom C8       Shell    26 D   1     bf   76 -    81         10.213476132884          6.730648754678         -0.453062804120
      0.8000000000D+00  0.1000000000D+01
 Atom H9       Shell    27 S   3     bf   82 -    82          9.907219084452          6.733556740840          1.599623464993
      0.1873113696D+02  0.3349460434D-01
      0.2825394365D+01  0.2347269535D+00
      0.6401216923D+00  0.8137573261D+00
 Atom H9       Shell    28 S   1     bf   83 -    83          9.907219084452          6.733556740840          1.599623464993
      0.1612777588D+00  0.1000000000D+01
 Atom H10      Shell    29 S   3     bf   84 -    84          9.468993748524          8.527076538355         -1.162600051577
      0.1873113696D+02  0.3349460434D-01
      0.2825394365D+01  0.2347269535D+00
      0.6401216923D+00  0.8137573261D+00
 Atom H10      Shell    30 S   1     bf   85 -    85          9.468993748524          8.527076538355         -1.162600051577
      0.1612777588D+00  0.1000000000D+01
 Atom C11      Shell    31 S   6     bf   86 -    86         13.071688741908          6.618589034347         -0.947354179020
      0.3047524880D+04  0.1834737132D-02
      0.4573695180D+03  0.1403732281D-01
      0.1039486850D+03  0.6884262226D-01
      0.2921015530D+02  0.2321844432D+00
      0.9286662960D+01  0.4679413484D+00
      0.3163926960D+01  0.3623119853D+00
 Atom C11      Shell    32 SP   3    bf   87 -    90         13.071688741908          6.618589034347         -0.947354179020
      0.7868272350D+01 -0.1193324198D+00  0.6899906659D-01
      0.1881288540D+01 -0.1608541517D+00  0.3164239610D+00
      0.5442492580D+00  0.1143456438D+01  0.7443082909D+00
 Atom C11      Shell    33 SP   1    bf   91 -    94         13.071688741908          6.618589034347         -0.947354179020
      0.1687144782D+00  0.1000000000D+01  0.1000000000D+01
 Atom C11      Shell    34 D   1     bf   95 -   100         13.071688741908          6.618589034347         -0.947354179020
      0.8000000000D+00  0.1000000000D+01
 Atom H12      Shell    35 S   3     bf  101 -   101         13.469810668892          6.818418332139         -2.978302739454
      0.1873113696D+02  0.3349460434D-01
      0.2825394365D+01  0.2347269535D+00
      0.6401216923D+00  0.8137573261D+00
 Atom H12      Shell    36 S   1     bf  102 -   102         13.469810668892          6.818418332139         -2.978302739454
      0.1612777588D+00  0.1000000000D+01
 Atom H13      Shell    37 S   3     bf  103 -   103         14.016487482073          8.199473861622          0.000000000000
      0.1873113696D+02  0.3349460434D-01
      0.2825394365D+01  0.2347269535D+00
      0.6401216923D+00  0.8137573261D+00
 Atom H13      Shell    38 S   1     bf  104 -   104         14.016487482073          8.199473861622          0.000000000000
      0.1612777588D+00  0.1000000000D+01
 Atom C14      Shell    39 S   6     bf  105 -   105          8.711705994072          0.000000000000          0.000000000000
      0.3047524880D+04  0.1834737132D-02
      0.4573695180D+03  0.1403732281D-01
      0.1039486850D+03  0.6884262226D-01
      0.2921015530D+02  0.2321844432D+00
      0.9286662960D+01  0.4679413484D+00
      0.3163926960D+01  0.3623119853D+00
 Atom C14      Shell    40 SP   3    bf  106 -   109          8.711705994072          0.000000000000          0.000000000000
      0.7868272350D+01 -0.1193324198D+00  0.6899906659D-01
      0.1881288540D+01 -0.1608541517D+00  0.3164239610D+00
      0.5442492580D+00  0.1143456438D+01  0.7443082909D+00
 Atom C14      Shell    41 SP   1    bf  110 -   113          8.711705994072          0.000000000000          0.000000000000
      0.1687144782D+00  0.1000000000D+01  0.1000000000D+01
 Atom C14      Shell    42 D   1     bf  114 -   119          8.711705994072          0.000000000000          0.000000000000
      0.8000000000D+00  0.1000000000D+01
 Atom H15      Shell    43 S   3     bf  120 -   120          9.763421432617         -1.686085937785          0.534240053069
      0.1873113696D+02  0.3349460434D-01
      0.2825394365D+01  0.2347269535D+00
      0.6401216923D+00  0.8137573261D+00
 Atom H15      Shell    44 S   1     bf  121 -   121          9.763421432617         -1.686085937785          0.534240053069
      0.1612777588D+00  0.1000000000D+01
 Atom C16      Shell    45 S   6     bf  122 -   122          5.907253617988         -0.156261019291          0.351156903554
      0.3047524880D+04  0.1834737132D-02
      0.4573695180D+03  0.1403732281D-01
      0.1039486850D+03  0.6884262226D-01
      0.2921015530D+02  0.2321844432D+00
      0.9286662960D+01  0.4679413484D+00
      0.3163926960D+01  0.3623119853D+00
 Atom C16      Shell    46 SP   3    bf  123 -   126          5.907253617988         -0.156261019291          0.351156903554
      0.7868272350D+01 -0.1193324198D+00  0.6899906659D-01
      0.1881288540D+01 -0.1608541517D+00  0.3164239610D+00
      0.5442492580D+00  0.1143456438D+01  0.7443082909D+00
 Atom C16      Shell    47 SP   1    bf  127 -   130          5.907253617988         -0.156261019291          0.351156903554
      0.1687144782D+00  0.1000000000D+01  0.1000000000D+01
 Atom C16      Shell    48 D   1     bf  131 -   136          5.907253617988         -0.156261019291          0.351156903554
      0.8000000000D+00  0.1000000000D+01
 Atom H17      Shell    49 S   3     bf  137 -   137          5.211747624862         -1.916795533773         -0.507324192429
      0.1873113696D+02  0.3349460434D-01
      0.2825394365D+01  0.2347269535D+00
      0.6401216923D+00  0.8137573261D+00
 Atom H17      Shell    50 S   1     bf  138 -   138          5.211747624862         -1.916795533773         -0.507324192429
      0.1612777588D+00  0.1000000000D+01
 Atom C18      Shell    51 S   6     bf  139 -   139          4.468353136939          2.082191734855         -0.837932289604
      0.3047524880D+04  0.1834737132D-02
      0.4573695180D+03  0.1403732281D-01
      0.1039486850D+03  0.6884262226D-01
      0.2921015530D+02  0.2321844432D+00
      0.9286662960D+01  0.4679413484D+00
      0.3163926960D+01  0.3623119853D+00
 Atom C18      Shell    52 SP   3    bf  140 -   143          4.468353136939          2.082191734855         -0.837932289604
      0.7868272350D+01 -0.1193324198D+00  0.6899906659D-01
      0.1881288540D+01 -0.1608541517D+00  0.3164239610D+00
      0.5442492580D+00  0.1143456438D+01  0.7443082909D+00
 Atom C18      Shell    53 SP   1    bf  144 -   147          4.468353136939          2.082191734855         -0.837932289604
      0.1687144782D+00  0.1000000000D+01  0.1000000000D+01
 Atom C18      Shell    54 D   1     bf  148 -   153          4.468353136939          2.082191734855         -0.837932289604
      0.8000000000D+00  0.1000000000D+01
 Atom H19      Shell    55 S   3     bf  154 -   154          4.385854648170          1.642352062584         -2.868252648379
      0.1873113696D+02  0.3349460434D-01
      0.2825394365D+01  0.2347269535D+00
      0.6401216923D+00  0.8137573261D+00
 Atom H19      Shell    56 S   1     bf  155 -   155          4.385854648170          1.642352062584         -2.868252648379
      0.1612777588D+00  0.1000000000D+01
 Atom C20      Shell    57 S   6     bf  156 -   156          5.917443966159          4.605971762265         -0.480681094860
      0.3047524880D+04  0.1834737132D-02
      0.4573695180D+03  0.1403732281D-01
      0.1039486850D+03  0.6884262226D-01
      0.2921015530D+02  0.2321844432D+00
      0.9286662960D+01  0.4679413484D+00
      0.3163926960D+01  0.3623119853D+00
 Atom C20      Shell    58 SP   3    bf  157 -   160          5.917443966159          4.605971762265         -0.480681094860
      0.7868272350D+01 -0.1193324198D+00  0.6899906659D-01
      0.1881288540D+01 -0.1608541517D+00  0.3164239610D+00
      0.5442492580D+00  0.1143456438D+01  0.7443082909D+00
 Atom C20      Shell    59 SP   1    bf  161 -   164          5.917443966159          4.605971762265         -0.480681094860
      0.1687144782D+00  0.1000000000D+01  0.1000000000D+01
 Atom C20      Shell    60 D   1     bf  165 -   170          5.917443966159          4.605971762265         -0.480681094860
      0.8000000000D+00  0.1000000000D+01
 Atom H21      Shell    61 S   3     bf  171 -   171          6.158196379400          4.829246797702          1.566624651521
      0.1873113696D+02  0.3349460434D-01
      0.2825394365D+01  0.2347269535D+00
      0.6401216923D+00  0.8137573261D+00
 Atom H21      Shell    62 S   1     bf  172 -   172          6.158196379400          4.829246797702          1.566624651521
      0.1612777588D+00  0.1000000000D+01
 Atom C22      Shell    63 S   6     bf  173 -   173          4.355300346629          6.890331179824         -1.418416605658
      0.3047524880D+04  0.1834737132D-02
      0.4573695180D+03  0.1403732281D-01
      0.1039486850D+03  0.6884262226D-01
      0.2921015530D+02  0.2321844432D+00
      0.9286662960D+01  0.4679413484D+00
      0.3163926960D+01  0.3623119853D+00
 Atom C22      Shell    64 SP   3    bf  174 -   177          4.355300346629          6.890331179824         -1.418416605658
      0.7868272350D+01 -0.1193324198D+00  0.6899906659D-01
      0.1881288540D+01 -0.1608541517D+00  0.3164239610D+00
      0.5442492580D+00  0.1143456438D+01  0.7443082909D+00
 Atom C22      Shell    65 SP   1    bf  178 -   181          4.355300346629          6.890331179824         -1.418416605658
      0.1687144782D+00  0.1000000000D+01  0.1000000000D+01
 Atom C22      Shell    66 D   1     bf  182 -   187          4.355300346629          6.890331179824         -1.418416605658
      0.8000000000D+00  0.1000000000D+01
 Atom H23      Shell    67 S   3     bf  188 -   188          4.289503011757          6.910222040256         -3.487008624042
      0.1873113696D+02  0.3349460434D-01
      0.2825394365D+01  0.2347269535D+00
      0.6401216923D+00  0.8137573261D+00
 Atom H23      Shell    68 S   1     bf  189 -   189          4.289503011757          6.910222040256         -3.487008624042
      0.1612777588D+00  0.1000000000D+01
 Atom H24      Shell    69 S   3     bf  190 -   190          5.300123199699          8.648159360820         -0.864464516941
      0.1873113696D+02  0.3349460434D-01
      0.2825394365D+01  0.2347269535D+00
      0.6401216923D+00  0.8137573261D+00
 Atom H24      Shell    70 S   1     bf  191 -   191          5.300123199699          8.648159360820         -0.864464516941
      0.1612777588D+00  0.1000000000D+01
 Atom C25      Shell    71 S   6     bf  192 -   192          1.621482626371          6.958343972922         -0.409697387719
      0.3047524880D+04  0.1834737132D-02
      0.4573695180D+03  0.1403732281D-01
      0.1039486850D+03  0.6884262226D-01
      0.2921015530D+02  0.2321844432D+00
      0.9286662960D+01  0.4679413484D+00
      0.3163926960D+01  0.3623119853D+00
 Atom C25      Shell    72 SP   3    bf  193 -   196          1.621482626371          6.958343972922         -0.409697387719
      0.7868272350D+01 -0.1193324198D+00  0.6899906659D-01
      0.1881288540D+01 -0.1608541517D+00  0.3164239610D+00
      0.5442492580D+00  0.1143456438D+01  0.7443082909D+00
 Atom C25      Shell    73 SP   1    bf  197 -   200          1.621482626371          6.958343972922         -0.409697387719
      0.1687144782D+00  0.1000000000D+01  0.1000000000D+01
 Atom C25      Shell    74 D   1     bf  201 -   206          1.621482626371          6.958343972922         -0.409697387719
      0.8000000000D+00  0.1000000000D+01
 Atom H26      Shell    75 S   3     bf  207 -   207          1.647568046861          7.225331907600          1.650972728640
      0.1873113696D+02  0.3349460434D-01
      0.2825394365D+01  0.2347269535D+00
      0.6401216923D+00  0.8137573261D+00
 Atom H26      Shell    76 S   1     bf  208 -   208          1.647568046861          7.225331907600          1.650972728640
      0.1612777588D+00  0.1000000000D+01
 Atom H27      Shell    77 S   3     bf  209 -   209          0.673746401418          8.616177786925         -1.203618258045
      0.1873113696D+02  0.3349460434D-01
      0.2825394365D+01  0.2347269535D+00
      0.6401216923D+00  0.8137573261D+00
 Atom H27      Shell    78 S   1     bf  210 -   210          0.673746401418          8.616177786925         -1.203618258045
      0.1612777588D+00  0.1000000000D+01
 Atom C28      Shell    79 S   6     bf  211 -   211          0.183246950976          4.495375937181         -1.012193517229
      0.3047524880D+04  0.1834737132D-02
      0.4573695180D+03  0.1403732281D-01
      0.1039486850D+03  0.6884262226D-01
      0.2921015530D+02  0.2321844432D+00
      0.9286662960D+01  0.4679413484D+00
      0.3163926960D+01  0.3623119853D+00
 Atom C28      Shell    80 SP   3    bf  212 -   215          0.183246950976          4.495375937181         -1.012193517229
      0.7868272350D+01 -0.1193324198D+00  0.6899906659D-01
      0.1881288540D+01 -0.1608541517D+00  0.3164239610D+00
      0.5442492580D+00  0.1143456438D+01  0.7443082909D+00
 Atom C28      Shell    81 SP   1    bf  216 -   219          0.183246950976          4.495375937181         -1.012193517229
      0.1687144782D+00  0.1000000000D+01  0.1000000000D+01
 Atom C28      Shell    82 D   1     bf  220 -   225          0.183246950976          4.495375937181         -1.012193517229
      0.8000000000D+00  0.1000000000D+01
 Atom C29      Shell    83 S   6     bf  226 -   226          1.755077665712          2.304471338154          0.162080865555
      0.3047524880D+04  0.1834737132D-02
      0.4573695180D+03  0.1403732281D-01
      0.1039486850D+03  0.6884262226D-01
      0.2921015530D+02  0.2321844432D+00
      0.9286662960D+01  0.4679413484D+00
      0.3163926960D+01  0.3623119853D+00
 Atom C29      Shell    84 SP   3    bf  227 -   230          1.755077665712          2.304471338154          0.162080865555
      0.7868272350D+01 -0.1193324198D+00  0.6899906659D-01
      0.1881288540D+01 -0.1608541517D+00  0.3164239610D+00
      0.5442492580D+00  0.1143456438D+01  0.7443082909D+00
 Atom C29      Shell    85 SP   1    bf  231 -   234          1.755077665712          2.304471338154          0.162080865555
      0.1687144782D+00  0.1000000000D+01  0.1000000000D+01
 Atom C29      Shell    86 D   1     bf  235 -   240          1.755077665712          2.304471338154          0.162080865555
      0.8000000000D+00  0.1000000000D+01
 Atom H30      Shell    87 S   3     bf  241 -   241          1.918607818929          2.779678085380          2.180153380139
      0.1873113696D+02  0.3349460434D-01
      0.2825394365D+01  0.2347269535D+00
      0.6401216923D+00  0.8137573261D+00
 Atom H30      Shell    88 S   1     bf  242 -   242          1.918607818929          2.779678085380          2.180153380139
      0.1612777588D+00  0.1000000000D+01
 Atom C31      Shell    89 S   6     bf  243 -   243          0.000000000000          0.000000000000          0.000000000000
      0.3047524880D+04  0.1834737132D-02
      0.4573695180D+03  0.1403732281D-01
      0.1039486850D+03  0.6884262226D-01
      0.2921015530D+02  0.2321844432D+00
      0.9286662960D+01  0.4679413484D+00
      0.3163926960D+01  0.3623119853D+00
 Atom C31      Shell    90 SP   3    bf  244 -   247          0.000000000000          0.000000000000          0.000000000000
      0.7868272350D+01 -0.1193324198D+00  0.6899906659D-01
      0.1881288540D+01 -0.1608541517D+00  0.3164239610D+00
      0.5442492580D+00  0.1143456438D+01  0.7443082909D+00
 Atom C31      Shell    91 SP   1    bf  248 -   251          0.000000000000          0.000000000000          0.000000000000
      0.1687144782D+00  0.1000000000D+01  0.1000000000D+01
 Atom C31      Shell    92 D   1     bf  252 -   257          0.000000000000          0.000000000000          0.000000000000
      0.8000000000D+00  0.1000000000D+01
 Atom H32      Shell    93 S   3     bf  258 -   258          0.490149454265         -1.452500197520          1.384773886904
      0.1873113696D+02  0.3349460434D-01
      0.2825394365D+01  0.2347269535D+00
      0.6401216923D+00  0.8137573261D+00
 Atom H32      Shell    94 S   1     bf  259 -   259          0.490149454265         -1.452500197520          1.384773886904
      0.1612777588D+00  0.1000000000D+01
 Atom H33      Shell    95 S   3     bf  260 -   260          0.118618638485         -0.883239966523         -1.872623752335
      0.1873113696D+02  0.3349460434D-01
      0.2825394365D+01  0.2347269535D+00
      0.6401216923D+00  0.8137573261D+00
 Atom H33      Shell    96 S   1     bf  261 -   261          0.118618638485         -0.883239966523         -1.872623752335
      0.1612777588D+00  0.1000000000D+01
 Atom C34      Shell    97 S   6     bf  262 -   262         -2.667842864513          1.133571949552          0.460824343984
      0.3047524880D+04  0.1834737132D-02
      0.4573695180D+03  0.1403732281D-01
      0.1039486850D+03  0.6884262226D-01
      0.2921015530D+02  0.2321844432D+00
      0.9286662960D+01  0.4679413484D+00
      0.3163926960D+01  0.3623119853D+00
 Atom C34      Shell    98 SP   3    bf  263 -   266         -2.667842864513          1.133571949552          0.460824343984
      0.7868272350D+01 -0.1193324198D+00  0.6899906659D-01
      0.1881288540D+01 -0.1608541517D+00  0.3164239610D+00
      0.5442492580D+00  0.1143456438D+01  0.7443082909D+00
 Atom C34      Shell    99 SP   1    bf  267 -   270         -2.667842864513          1.133571949552          0.460824343984
      0.1687144782D+00  0.1000000000D+01  0.1000000000D+01
 Atom C34      Shell   100 D   1     bf  271 -   276         -2.667842864513          1.133571949552          0.460824343984
      0.8000000000D+00  0.1000000000D+01
 Atom H35      Shell   101 S   3     bf  277 -   277         -4.001561151211          0.502226127063         -0.993865705973
      0.1873113696D+02  0.3349460434D-01
      0.2825394365D+01  0.2347269535D+00
      0.6401216923D+00  0.8137573261D+00
 Atom H35      Shell   102 S   1     bf  278 -   278         -4.001561151211          0.502226127063         -0.993865705973
      0.1612777588D+00  0.1000000000D+01
 Atom H36      Shell   103 S   3     bf  279 -   279         -3.442643259059          0.503406998026          2.271118201032
      0.1873113696D+02  0.3349460434D-01
      0.2825394365D+01  0.2347269535D+00
      0.6401216923D+00  0.8137573261D+00
 Atom H36      Shell   104 S   1     bf  280 -   280         -3.442643259059          0.503406998026          2.271118201032
      0.1612777588D+00  0.1000000000D+01
 Atom C37      Shell   105 S   6     bf  281 -   281         -2.393789565078          4.082595140022          0.395012949550
      0.3047524880D+04  0.1834737132D-02
      0.4573695180D+03  0.1403732281D-01
      0.1039486850D+03  0.6884262226D-01
      0.2921015530D+02  0.2321844432D+00
      0.9286662960D+01  0.4679413484D+00
      0.3163926960D+01  0.3623119853D+00
 Atom C37      Shell   106 SP   3    bf  282 -   285         -2.393789565078          4.082595140022          0.395012949550
      0.7868272350D+01 -0.1193324198D+00  0.6899906659D-01
      0.1881288540D+01 -0.1608541517D+00  0.3164239610D+00
      0.5442492580D+00  0.1143456438D+01  0.7443082909D+00
[...]
 **** Fit      -0.040849
 **** Fit      -0.034156
 **** Fit      -0.028592
 **** Fit       0.012911
 **** Fit       0.015011
 **** Fit       0.017419
 **** Fit       0.019963
 **** Fit       0.022127
 **** Fit       0.022772
 **** Fit      -0.062514
 **** Fit      -0.057218
 **** Fit      -0.049447
 **** Fit      -0.041545
 **** Fit      -0.034587
 **** Fit      -0.028838
 **** Fit       0.013007
 **** Fit       0.015111
 **** Fit       0.017519
 **** Fit       0.020053
 **** Fit       0.022197
 **** Fit       0.022820
 **** Fit       0.020036
 **** Fit      -0.061062
 **** Fit      -0.055923
 **** Fit      -0.048397
 **** Fit      -0.040724
 **** Fit      -0.033946
 **** Fit      -0.028329
 **** Fit       0.012573
 **** Fit       0.014462
 **** Fit       0.016547
 **** Fit       0.018615
 **** Fit       0.020132
 **** Fit       0.020048
 **** Fit       0.016743
 **** Fit       0.008620
 **** Fit      -0.004599
 **** Fit      -0.021042
 **** Fit      -0.056658
 **** Fit      -0.056704
 **** Fit      -0.052091
 **** Fit      -0.045384
 **** Fit      -0.038478
 **** Fit      -0.032294
 **** Fit       0.011703
 **** Fit       0.013222
 **** Fit       0.014781
 **** Fit       0.016128
 **** Fit       0.016746
 **** Fit       0.015744
 **** Fit       0.011914
 **** Fit       0.004218
 **** Fit      -0.007347
 **** Fit      -0.021219
 **** Fit      -0.034690
 **** Fit      -0.044932
 **** Fit      -0.050088
 **** Fit      -0.050076
 **** Fit      -0.046369
 **** Fit      -0.040898
 **** Fit      -0.035128
 **** Fit      -0.029831
 **** Fit       0.011629
 **** Fit       0.012609
 **** Fit       0.013220
 **** Fit       0.013010
 **** Fit       0.011304
 **** Fit       0.007309
 **** Fit       0.000466
 **** Fit      -0.009035
 **** Fit      -0.019970
 **** Fit      -0.030356
 **** Fit      -0.038170
 **** Fit      -0.042166
 **** Fit      -0.042343
 **** Fit      -0.039720
 **** Fit      -0.035626
 **** Fit      -0.031125
 **** Fit      -0.026844
 **** Fit       0.009919
 **** Fit       0.010382
 **** Fit       0.010397
 **** Fit       0.009609
 **** Fit       0.007557
 **** Fit       0.003776
 **** Fit      -0.001970
 **** Fit      -0.009410
 **** Fit      -0.017644
 **** Fit      -0.025327
 **** Fit      -0.031130
 **** Fit      -0.034255
 **** Fit      -0.034691
 **** Fit      -0.033063
 **** Fit      -0.030226
 **** Fit      -0.026921
 **** Fit       0.008336
 **** Fit       0.007946
 **** Fit       0.006847
 **** Fit       0.004750
 **** Fit       0.001413
 **** Fit      -0.003219
 **** Fit      -0.008879
 **** Fit      -0.014934
 **** Fit      -0.020514
 **** Fit      -0.024787
 **** Fit      -0.027251
 **** Fit      -0.027872
 **** Fit      -0.027004
 **** Fit      -0.025170
 **** Fit       0.005967
 **** Fit       0.004762
 **** Fit       0.002807
 **** Fit      -0.000007
 **** Fit      -0.003652
 **** Fit      -0.007900
 **** Fit      -0.012320
 **** Fit      -0.016363
 **** Fit      -0.019516
 **** Fit      -0.021466
 **** Fit      -0.022167
 **** Fit      -0.021810
 **** Fit       0.001538
 **** Fit      -0.000771
 **** Fit      -0.003603
 **** Fit      -0.006782
 **** Fit      -0.010018
 **** Fit      -0.007886
 **** Fit      -0.011178
 **** Fit       0.000928
 **** Fit      -0.001347
 **** Fit      -0.004383
 **** Fit      -0.008116
 **** Fit      -0.012310
 **** Fit      -0.016564
 **** Fit      -0.020383
 **** Fit      -0.023312
 **** Fit      -0.025072
 **** Fit      -0.025626
 **** Fit       0.004151
 **** Fit       0.002600
 **** Fit       0.000150
 **** Fit      -0.003348
 **** Fit      -0.007875
 **** Fit      -0.013155
 **** Fit      -0.018641
 **** Fit      -0.023615
 **** Fit      -0.027398
 **** Fit      -0.029570
 **** Fit      -0.030089
 **** Fit      -0.029238
 **** Fit      -0.027461
 **** Fit       0.006752
 **** Fit       0.006147
 **** Fit       0.004763
 **** Fit       0.002272
 **** Fit      -0.001603
 **** Fit      -0.006938
 **** Fit      -0.013439
 **** Fit      -0.020392
 **** Fit      -0.026791
 **** Fit      -0.031650
 **** Fit      -0.034350
 **** Fit      -0.034834
 **** Fit      -0.033535
 **** Fit      -0.031100
 **** Fit      -0.028138
 **** Fit       0.008352
 **** Fit       0.008601
 **** Fit       0.008373
 **** Fit       0.007315
 **** Fit       0.004969
 **** Fit       0.000882
 **** Fit      -0.005169
 **** Fit      -0.012911
 **** Fit      -0.021458
 **** Fit      -0.029476
 **** Fit      -0.035607
 **** Fit      -0.038965
 **** Fit      -0.039457
 **** Fit      -0.037687
 **** Fit      -0.034556
 **** Fit      -0.030873
 **** Fit       0.009735
 **** Fit       0.010367
 **** Fit       0.010583
 **** Fit       0.009971
 **** Fit       0.007945
 **** Fit       0.003856
 **** Fit      -0.002711
 **** Fit      -0.011543
 **** Fit      -0.021602
 **** Fit      -0.031236
 **** Fit      -0.038701
 **** Fit      -0.042807
 **** Fit      -0.043386
 **** Fit      -0.041211
 **** Fit      -0.037450
 **** Fit      -0.033117
 **** Fit      -0.028865
 **** Fit       0.010833
 **** Fit       0.011797
 **** Fit       0.012422
 **** Fit       0.012258
 **** Fit       0.010620
 **** Fit       0.006686
 **** Fit      -0.000150
 **** Fit      -0.009752
 **** Fit      -0.020972
 **** Fit      -0.031906
 **** Fit      -0.040499
 **** Fit      -0.045292
 **** Fit      -0.046021
 **** Fit      -0.043589
 **** Fit      -0.039379
 **** Fit      -0.034582
 **** Fit      -0.029933
 **** Fit       0.010279
 **** Fit       0.011483
 **** Fit       0.012646
 **** Fit       0.013521
 **** Fit       0.013648
 **** Fit       0.012288
 **** Fit       0.008522
 **** Fit       0.001628
 **** Fit      -0.008314
 **** Fit      -0.020101
 **** Fit      -0.031693
 **** Fit      -0.040878
 **** Fit      -0.046056
 **** Fit      -0.046912
 **** Fit      -0.044404
 **** Fit      -0.040023
 **** Fit      -0.035043
 **** Fit      -0.030236
 **** Fit       0.010378
 **** Fit       0.011591
 **** Fit       0.012765
 **** Fit       0.013654
 **** Fit       0.013798
 **** Fit       0.012471
 **** Fit       0.008765
 **** Fit       0.001972
 **** Fit      -0.007827
 **** Fit      -0.019440
 **** Fit      -0.030849
 **** Fit      -0.039880
 **** Fit      -0.044983
 **** Fit      -0.045869
 **** Fit      -0.043474
 **** Fit      -0.039240
 **** Fit      -0.034400
 **** Fit      -0.029713
 **** Fit       0.011164
 **** Fit       0.012167
 **** Fit       0.012839
 **** Fit       0.012745
 **** Fit       0.011223
 **** Fit       0.007488
 **** Fit       0.000969
 **** Fit      -0.008201
 **** Fit      -0.018913
 **** Fit      -0.029337
 **** Fit      -0.037529
 **** Fit      -0.042156
 **** Fit      -0.043007
 **** Fit      -0.040908
 **** Fit      -0.037116
 **** Fit      -0.032719
 **** Fit      -0.028406
 **** Fit       0.010301
 **** Fit       0.011010
 **** Fit       0.011328
 **** Fit       0.010864
 **** Fit       0.009070
 **** Fit       0.005345
 **** Fit      -0.000688
 **** Fit      -0.008826
 **** Fit      -0.018108
 **** Fit      -0.027013
 **** Fit      -0.033966
 **** Fit      -0.037924
 **** Fit      -0.038747
 **** Fit      -0.037091
 **** Fit      -0.033950
 **** Fit      -0.030208
 **** Fit       0.009159
 **** Fit       0.009533
 **** Fit       0.009474
 **** Fit       0.008655
 **** Fit       0.006662
 **** Fit       0.003089
 **** Fit      -0.002261
 **** Fit      -0.009144
 **** Fit      -0.016776
 **** Fit      -0.023991
 **** Fit      -0.029616
 **** Fit      -0.032895
 **** Fit      -0.033723
 **** Fit      -0.032571
 **** Fit      -0.030160
 **** Fit      -0.027166
 **** Fit       0.007967
 **** Fit       0.007592
 **** Fit       0.006525
 **** Fit       0.004478
 **** Fit       0.001207
 **** Fit      -0.003354
 **** Fit      -0.008956
 **** Fit      -0.014997
 **** Fit      -0.020637
 **** Fit      -0.025056
 **** Fit      -0.027729
 **** Fit      -0.028571
 **** Fit      -0.027885
 **** Fit      -0.026166
 **** Fit       0.005892
 **** Fit       0.004705
 **** Fit       0.002740
 **** Fit      -0.000133
 **** Fit      -0.003902
 **** Fit      -0.008343
 **** Fit      -0.013013
 **** Fit      -0.017334
 **** Fit      -0.020754
 **** Fit      -0.022917
 **** Fit      -0.023751
 **** Fit      -0.023438
 **** Fit       0.001479
 **** Fit      -0.000966
 **** Fit      -0.004014
 **** Fit      -0.007481
 **** Fit      -0.011051
 **** Fit      -0.014333
 **** Fit      -0.016966
 **** Fit      -0.004641
 **** Fit      -0.007660
 **** Fit      -0.010976
 **** Fit      -0.014307
 **** Fit       0.001039
 **** Fit      -0.001124
 **** Fit      -0.004019
 **** Fit      -0.007593
 **** Fit      -0.011631
 **** Fit      -0.015762
 **** Fit      -0.019524
 **** Fit      -0.022484
 **** Fit      -0.024359
 **** Fit      -0.025081
 **** Fit       0.003921
 **** Fit       0.002474
 **** Fit       0.000211
 **** Fit      -0.002995
 **** Fit      -0.007126
 **** Fit      -0.011942
 **** Fit      -0.016974
 **** Fit      -0.021608
 **** Fit      -0.025249
 **** Fit      -0.027505
 **** Fit      -0.028289
 **** Fit      -0.027797
 **** Fit       0.006053
 **** Fit       0.005427
 **** Fit       0.004109
 **** Fit       0.001838
 **** Fit      -0.001594
 **** Fit      -0.006226
 **** Fit      -0.011810
 **** Fit      -0.017777
 **** Fit      -0.023345
 **** Fit      -0.027733
 **** Fit      -0.030419
 **** Fit      -0.031286
 **** Fit      -0.030598
 **** Fit      -0.028828
 **** Fit       0.007288
 **** Fit       0.006888
 **** Fit       0.005758
 **** Fit       0.003566
 **** Fit       0.000015
 **** Fit      -0.005006
 **** Fit      -0.011254
 **** Fit      -0.018077
 **** Fit      -0.024530
 **** Fit      -0.029649
 **** Fit      -0.032770
 **** Fit      -0.033742
 **** Fit      -0.032894
 **** Fit      -0.030809
 **** Fit      -0.028080
 **** Fit       0.008040
 **** Fit       0.008281
 **** Fit       0.008089
 **** Fit       0.007154
 **** Fit       0.005086
 **** Fit       0.001512
 **** Fit      -0.003747
 **** Fit      -0.010464
 **** Fit      -0.017927
 **** Fit      -0.025064
 **** Fit      -0.030765
 **** Fit      -0.034250
 **** Fit      -0.035331
 **** Fit      -0.034385
 **** Fit      -0.032086
 **** Fit      -0.029105
 **** Fit       0.008528
 **** Fit       0.008885
 **** Fit       0.008826
 **** Fit       0.008024
 **** Fit       0.006062
 **** Fit       0.002521
 **** Fit      -0.002815
 **** Fit      -0.009735
 **** Fit      -0.017497
 **** Fit      -0.024969
 **** Fit      -0.030965
 **** Fit      -0.034648
 **** Fit      -0.035809
 **** Fit      -0.034845
 **** Fit      -0.032471
 **** Fit      -0.029397
 **** Fit       0.008638
 **** Fit       0.009011
 **** Fit       0.008972
 **** Fit       0.008197
 **** Fit       0.006275
 **** Fit       0.002792
 **** Fit      -0.002465
 **** Fit      -0.009287
 **** Fit      -0.016942
 **** Fit      -0.024313
 **** Fit      -0.030235
 **** Fit      -0.033891
 **** Fit      -0.035075
 **** Fit      -0.034175
 **** Fit      -0.031885
 **** Fit      -0.028895
 **** Fit       0.008373
 **** Fit       0.008663
 **** Fit       0.008533
 **** Fit       0.007684
 **** Fit       0.005740
 **** Fit       0.002340
 **** Fit      -0.002685
 **** Fit      -0.009118
 **** Fit      -0.016272
 **** Fit      -0.023128
 **** Fit      -0.028630
 **** Fit      -0.032050
 **** Fit      -0.033207
 **** Fit      -0.032445
 **** Fit      -0.030383
 **** Fit      -0.027644
 **** Fit       0.007931
 **** Fit       0.007642
 **** Fit       0.006663
 **** Fit       0.004681
 **** Fit       0.001418
 **** Fit      -0.003231
 **** Fit      -0.009038
 **** Fit      -0.015399
 **** Fit      -0.021444
 **** Fit      -0.026291
 **** Fit      -0.029340
 **** Fit      -0.030442
 **** Fit      -0.029874
 **** Fit      -0.028144
 **** Fit       0.006959
 **** Fit       0.006494
 **** Fit       0.005390
 **** Fit       0.003409
 **** Fit       0.000358
 **** Fit      -0.003799
 **** Fit      -0.008840
 **** Fit      -0.014260
 **** Fit      -0.019363
 **** Fit      -0.023460
 **** Fit      -0.026086
 **** Fit      -0.027122
 **** Fit      -0.026771
 **** Fit       0.005280
 **** Fit       0.004100
 **** Fit       0.002184
 **** Fit      -0.000582
 **** Fit      -0.004186
 **** Fit      -0.008423
 **** Fit      -0.012891
 **** Fit      -0.017062
 **** Fit      -0.020426
 **** Fit      -0.022639
 **** Fit      -0.023604
 **** Fit       0.001161
 **** Fit      -0.001276
 **** Fit      -0.004321
 **** Fit      -0.007798
 **** Fit      -0.011398
 **** Fit      -0.014736
 **** Fit      -0.007236
 **** Fit      -0.010350
 **** Fit      -0.001191
 **** Fit      -0.003820
 **** Fit      -0.007035
 **** Fit      -0.010653
 **** Fit      -0.014362
 **** Fit      -0.017779
 **** Fit      -0.020537
 **** Fit      -0.022383
 **** Fit       0.001846
 **** Fit      -0.000206
 **** Fit      -0.003030
 **** Fit      -0.006591
 **** Fit      -0.010691
 **** Fit      -0.014964
 **** Fit      -0.018935
 **** Fit      -0.022146
 **** Fit      -0.024275
 **** Fit      -0.025219
 **** Fit       0.004180
 **** Fit       0.002881
 **** Fit       0.000817
 **** Fit      -0.002136
 **** Fit      -0.005970
 **** Fit      -0.010480
 **** Fit      -0.015250
 **** Fit      -0.019725
 **** Fit      -0.023354
 **** Fit      -0.025752
 **** Fit      -0.026791
 **** Fit      -0.026607
 **** Fit       0.004975
 **** Fit       0.003754
 **** Fit       0.001715
 **** Fit      -0.001300
 **** Fit      -0.005309
 **** Fit      -0.010105
 **** Fit      -0.015235
 **** Fit      -0.020085
 **** Fit      -0.024035
 **** Fit      -0.026644
 **** Fit      -0.027768
 **** Fit      -0.027557
 **** Fit       0.006019
 **** Fit       0.005480
 **** Fit       0.004321
 **** Fit       0.002320
 **** Fit      -0.000700
 **** Fit      -0.004770
 **** Fit      -0.009686
 **** Fit      -0.014981
 **** Fit      -0.020009
 **** Fit      -0.024117
 **** Fit      -0.026838
 **** Fit      -0.028017
 **** Fit      -0.027810
 **** Fit       0.005624
 **** Fit       0.004492
 **** Fit       0.002526
 **** Fit      -0.000449
 **** Fit      -0.004464
 **** Fit      -0.009317
 **** Fit      -0.014547
 **** Fit      -0.019518
 **** Fit      -0.023588
 **** Fit      -0.026295
 **** Fit      -0.027488
 **** Fit      -0.027316
 **** Fit       0.005407
 **** Fit       0.004267
 **** Fit       0.002332
 **** Fit      -0.000550
 **** Fit      -0.004397
 **** Fit      -0.009010
 **** Fit      -0.013956
 **** Fit      -0.018646
 **** Fit      -0.022489
 **** Fit      -0.025063
 **** Fit      -0.026228
 **** Fit      -0.026118
 **** Fit       0.004899
 **** Fit       0.003733
 **** Fit       0.001839
 **** Fit      -0.000900
 **** Fit      -0.004480
 **** Fit      -0.008708
 **** Fit      -0.013199
 **** Fit      -0.017436
 **** Fit      -0.020912
 **** Fit      -0.023265
 **** Fit      -0.024371
 **** Fit       0.003022
 **** Fit       0.001197
 **** Fit      -0.001348
 **** Fit      -0.004586
 **** Fit      -0.008337
 **** Fit      -0.012271
 **** Fit      -0.015962
 **** Fit      -0.018997
 **** Fit      -0.021081
 **** Fit       0.000545
 **** Fit      -0.001764
 **** Fit      -0.004616
 **** Fit      -0.007852
 **** Fit      -0.011201
 **** Fit      -0.014326
 **** Fit      -0.006567
 **** Fit      -0.009637
 **** Fit      -0.000884
 **** Fit      -0.003297
 **** Fit      -0.006247
 **** Fit      -0.009575
 **** Fit      -0.013010
 **** Fit      -0.016217
 **** Fit      -0.000333
 **** Fit      -0.002808
 **** Fit      -0.005880
 **** Fit      -0.009385
 **** Fit      -0.013032
 **** Fit      -0.016455
 **** Fit      -0.019292
 **** Fit       0.001891
 **** Fit       0.000062
 **** Fit      -0.002426
 **** Fit      -0.005542
 **** Fit      -0.009119
 **** Fit      -0.012861
 **** Fit      -0.016384
 **** Fit      -0.019311
 **** Fit       0.002049
 **** Fit       0.000247
 **** Fit      -0.002208
 **** Fit      -0.005285
 **** Fit      -0.008821
 **** Fit      -0.012523
 **** Fit      -0.016013
 **** Fit      -0.018918
 **** Fit       0.000218
 **** Fit      -0.002159
 **** Fit      -0.005119
 **** Fit      -0.008505
 **** Fit      -0.012038
 **** Fit      -0.015365
 **** Fit       0.000020
 **** Fit      -0.002237
 **** Fit      -0.005012
 **** Fit      -0.008156
 **** Fit      -0.011416
 -----------------------------------------------------------------
 Leave Link  602 at Fri Apr 28 13:25:48 2017, MaxMem=    33554432 cpu:        50.6
 (Enter /home/michal/g09/l9999.exe)

 Test job not archived.
 1\1\GINC-LINUX\SP\RHF\6-31G(d)\C27H46O3\MICHAL\28-Apr-2017\0\\#P HF/6-
 31G* SCF(Conver=6) NoSymm Test Pop=chelpg IOp(6/33=2) GFInput GFPrint\
 \MEP - Input generated by R.E.D.-III.x MOLECULE\\0,1\C,0,7.5074871,2.1
 8322264,-0.00477603\H,0,7.38674113,2.12154201,1.08331681\C,0,6.7743665
 1,1.00076637,-0.65554666\H,0,7.16234977,0.05973505,-0.25363313\H,0,7.0
 1782792,1.0091179,-1.73030359\C,0,5.26949136,1.06845926,-0.47014578\C,
 0,4.58118821,2.38549323,-0.85094376\C,0,5.40473879,3.56170592,-0.23975
 051\H,0,5.24267454,3.56324476,0.84648428\H,0,5.01077568,4.51233456,-0.
 61522145\C,0,6.91723976,3.50240647,-0.50131824\H,0,7.12791681,3.608151
 58,-1.57604993\H,0,7.41720572,4.33897469,0.\C,0,4.61003626,0.,0.\H,0,5
 .1665801,-0.89223825,0.28270766\C,0,3.12598398,-0.08268977,0.18582423\
 H,0,2.75793806,-1.01432451,-0.2684644\C,0,2.36455064,1.10184841,-0.443
 41467\H,0,2.32089432,0.86909528,-1.51781393\C,0,3.13137648,2.43737528,
 -0.25436548\H,0,3.25877717,2.55552734,0.82902206\C,0,2.30472568,3.6462
 0622,-0.75059374\H,0,2.26990723,3.65673201,-1.84524549\H,0,2.8047044,4
 .57640883,-0.45745492\C,0,0.85805165,3.68219704,-0.21680252\H,0,0.8718
 5546,3.82348097,0.87365714\H,0,0.35653124,4.55948491,-0.63692735\C,0,0
 .09697011,2.37885049,-0.53562974\C,0,0.9287471,1.21947371,0.0857695\H,
 0,1.01528353,1.47094229,1.15368748\C,0,0.,0.,0.\H,0,0.25937592,-0.7686
 3,0.73279078\H,0,0.06277028,-0.46739046,-0.99094981\C,0,-1.41176164,0.
 59986044,0.24385774\H,0,-2.11753496,0.26576662,-0.52593108\H,0,-1.8217
 6835,0.26639151,1.20182399\C,0,-1.26673888,2.1604163,0.20903185\H,0,-1
 .10871771,2.51076365,1.24175307\C,0,-0.09980297,2.21950545,-2.06116128
 \H,0,0.84818026,2.14514273,-2.59985212\H,0,-0.68207874,1.32673789,-2.3
 0814277\H,0,-0.63639127,3.08095935,-2.47235067\C,0,-2.54947076,2.86346
 689,-0.30835117\H,0,-2.75410868,2.47469049,-1.31576315\C,0,-2.40987028
 ,4.39192715,-0.40888321\H,0,-2.12922431,4.82621567,0.55911539\H,0,-3.3
 5106757,4.85647324,-0.71801045\H,0,-1.65459128,4.68945879,-1.13933013\
 C,0,4.57336458,2.50430106,-2.39910444\H,0,4.2603877,3.50235635,-2.7206
 4475\H,0,5.56562836,2.32680559,-2.82161042\H,0,3.89684596,1.77167288,-
 2.85028888\O,0,2.7952192,-0.3853234,1.56311489\O,0,3.3349785,0.6708766
 ,2.4303993\H,0,2.58396246,0.76503141,3.03799934\O,0,8.92162205,2.10443
 161,-0.20591101\H,0,9.10322857,2.17048494,-1.15396579\C,0,-3.7511179,2
 .4904162,0.59775712\H,0,-3.80574845,1.39957993,0.69149192\H,0,-3.54610
 121,2.8721873,1.60925283\C,0,-5.14256222,2.99030813,0.15985666\H,0,-5.
 85515358,2.68833888,0.937782\H,0,-5.16438761,4.0862434,0.1465681\C,0,-
 5.60766176,2.43905617,-1.19812708\H,0,-5.50136044,1.34417884,-1.186951
 73\H,0,-4.93438388,2.79991603,-1.98717452\C,0,-7.05750109,2.78087355,-
 1.61711807\H,0,-7.20008716,2.32291316,-2.60718493\C,0,-8.11003194,2.16
 336437,-0.68135515\H,0,-8.08117977,2.6147473,0.31698927\H,0,-9.1201845
 5,2.31600318,-1.07823973\H,0,-7.95662574,1.08397874,-0.56539186\C,0,-7
 .28492247,4.29275866,-1.78259981\H,0,-7.22106311,4.8184383,-0.82288797
 \H,0,-8.27824014,4.49422145,-2.1996269\H,0,-6.54362914,4.7366144,-2.45
 763317\\Version=EM64L-G09RevD.01\HF=-1273.6777203\RMSD=5.381e-07\Dipol
 e=-0.8691092,0.4381864,-0.7530682\Quadrupole=-14.7603495,6.2774593,8.4
 828902,1.2969646,-12.603424,-0.5830127\PG=C01 [X(C27H46O3)]\\@


 THERE'S NOTHING WRONG WITH FOLLOWING A TRAIN OF THOUGHT...
 AS LONG AS IT ULTIMATELY PULLS INTO THE STATION.
 Job cpu time:       0 days  0 hours 12 minutes  6.6 seconds.
 File lengths (MBytes):  RWF=    159 Int=      0 D2E=      0 Chk=     11 Scr=      1
 Normal termination of Gaussian 09 at Fri Apr 28 13:25:48 2017.
