 Entering Gaussian System, Link 0=/home/michal/g09/g09
 Input=JOB2-gau_m1-20-4.com
 Output=JOB2-gau_m1-20-4.log
 Initial command:
 /home/michal/g09/l1.exe "/home/michal/gauss_scratch/Gau-21727.inp" -scrdir="/home/michal/gauss_scratch/"
 Entering Link 1 = /home/michal/g09/l1.exe PID=     21728.
  
 Copyright (c) 1988,1990,1992,1993,1995,1998,2003,2009,2013,
            Gaussian, Inc.  All Rights Reserved.
  
 This is part of the Gaussian(R) 09 program.  It is based on
 the Gaussian(R) 03 system (copyright 2003, Gaussian, Inc.),
 the Gaussian(R) 98 system (copyright 1998, Gaussian, Inc.),
 the Gaussian(R) 94 system (copyright 1995, Gaussian, Inc.),
 the Gaussian 92(TM) system (copyright 1992, Gaussian, Inc.),
 the Gaussian 90(TM) system (copyright 1990, Gaussian, Inc.),
 the Gaussian 88(TM) system (copyright 1988, Gaussian, Inc.),
 the Gaussian 86(TM) system (copyright 1986, Carnegie Mellon
 University), and the Gaussian 82(TM) system (copyright 1983,
 Carnegie Mellon University). Gaussian is a federally registered
 trademark of Gaussian, Inc.
  
 This software contains proprietary and confidential information,
 including trade secrets, belonging to Gaussian, Inc.
  
 This software is provided under written license and may be
 used, copied, transmitted, or stored only in accord with that
 written license.
  
 The following legend is applicable only to US Government
 contracts under FAR:
  
                    RESTRICTED RIGHTS LEGEND
  
 Use, reproduction and disclosure by the US Government is
 subject to restrictions as set forth in subparagraphs (a)
 and (c) of the Commercial Computer Software - Restricted
 Rights clause in FAR 52.227-19.
  
 Gaussian, Inc.
 340 Quinnipiac St., Bldg. 40, Wallingford CT 06492
  
  
 ---------------------------------------------------------------
 Warning -- This program may not be used in any manner that
 competes with the business of Gaussian, Inc. or will provide
 assistance to any competitor of Gaussian, Inc.  The licensee
 of this program is prohibited from giving any competitor of
 Gaussian, Inc. access to this program.  By using this program,
 the user acknowledges that Gaussian, Inc. is engaged in the
 business of creating and licensing software in the field of
 computational chemistry and represents and warrants to the
 licensee that it is not a competitor of Gaussian, Inc. and that
 it will not use this program in any manner prohibited above.
 ---------------------------------------------------------------
  

 Cite this work as:
 Gaussian 09, Revision D.01,
 M. J. Frisch, G. W. Trucks, H. B. Schlegel, G. E. Scuseria, 
 M. A. Robb, J. R. Cheeseman, G. Scalmani, V. Barone, B. Mennucci, 
 G. A. Petersson, H. Nakatsuji, M. Caricato, X. Li, H. P. Hratchian, 
 A. F. Izmaylov, J. Bloino, G. Zheng, J. L. Sonnenberg, M. Hada, 
 M. Ehara, K. Toyota, R. Fukuda, J. Hasegawa, M. Ishida, T. Nakajima, 
 Y. Honda, O. Kitao, H. Nakai, T. Vreven, J. A. Montgomery, Jr., 
 J. E. Peralta, F. Ogliaro, M. Bearpark, J. J. Heyd, E. Brothers, 
 K. N. Kudin, V. N. Staroverov, T. Keith, R. Kobayashi, J. Normand, 
 K. Raghavachari, A. Rendell, J. C. Burant, S. S. Iyengar, J. Tomasi, 
 M. Cossi, N. Rega, J. M. Millam, M. Klene, J. E. Knox, J. B. Cross, 
 V. Bakken, C. Adamo, J. Jaramillo, R. Gomperts, R. E. Stratmann, 
 O. Yazyev, A. J. Austin, R. Cammi, C. Pomelli, J. W. Ochterski, 
 R. L. Martin, K. Morokuma, V. G. Zakrzewski, G. A. Voth, 
 P. Salvador, J. J. Dannenberg, S. Dapprich, A. D. Daniels, 
 O. Farkas, J. B. Foresman, J. V. Ortiz, J. Cioslowski, 
 and D. J. Fox, Gaussian, Inc., Wallingford CT, 2013.
 
 ******************************************
 Gaussian 09:  EM64L-G09RevD.01 24-Apr-2013
                28-Apr-2017 
 ******************************************
 %Mem=256MB
 %NProc=12
 Will use up to   12 processors via shared memory.
 ----------------------------------------------------------------------
 #P HF/6-31G* SCF(Conver=6) NoSymm Test Pop=chelpg IOp(6/33=2) GFInput 
 GFPrint
 ----------------------------------------------------------------------
 1/38=1/1;
 2/12=2,15=1,17=6,18=5,40=1/2;
 3/5=1,6=6,7=1,11=9,16=1,24=110,25=1,30=1/1,2,3;
 4//1;
 5/5=2,6=6,38=5/2;
 6/7=2,8=2,9=2,10=2,15=8,20=3,28=1,33=2/1,2;
 99/5=1,9=1/99;
 Leave Link    1 at Fri Apr 28 13:10:32 2017, MaxMem=    33554432 cpu:         0.7
 (Enter /home/michal/g09/l101.exe)
 ----------------------------------------------
 MEP - Input generated by R.E.D.-III.x MOLECULE
 ----------------------------------------------
 Symbolic Z-matrix:
 Charge =  0 Multiplicity = 1
 C                     1.01422  -0.88304  -1.68701 
 H                     1.1444    0.08732  -2.18167 
 C                     2.2501   -1.75302  -1.96617 
 H                     2.38886  -1.86038  -3.04646 
 H                     2.04503  -2.76127  -1.57307 
 C                     3.5082   -1.19327  -1.3281 
 C                     3.43427  -0.86512   0.16836 
 C                     2.12914  -0.04911   0.42255 
 H                     2.26599   0.95561   0. 
 H                     1.98906   0.08397   1.50073 
 C                     0.85579  -0.65958  -0.18311 
 H                     0.62175  -1.61992   0.29971 
 H                     0.        0.        0. 
 C                     4.61102  -1.0128   -2.07125 
 H                     4.58362  -1.26819  -3.12895 
 C                     5.91194  -0.46992  -1.55419 
 H                     6.75199  -1.03475  -1.97792 
 C                     5.99434  -0.49049  -0.01696 
 H                     6.14573  -1.54704   0.24555 
 C                     4.6634    0.0077    0.6054 
 H                     4.49219   1.0077    0.18058 
 C                     4.77411   0.18318   2.13861 
 H                     4.78449  -0.79654   2.62702 
 H                     3.88012   0.69546   2.51257 
 C                     6.01811   0.96755   2.60363 
 H                     5.95147   2.00711   2.25238 
 H                     6.00949   1.00734   3.69733 
 C                     7.32222   0.34756   2.05989 
 C                     7.18129   0.32918   0.51181 
 H                     6.98604   1.37238   0.22765 
 C                     8.58954   0.        0. 
 H                     8.74486   0.34845  -1.02482 
 H                     8.7642   -1.08358   0.00234 
 C                     9.52029   0.71664   1.01614 
 H                     10.2944   0.03421   1.38745 
 H                     10.04578   1.55225   0.54495 
 C                     8.62126   1.21676   2.19928 
 H                     8.31814   2.25273   1.97963 
 C                     7.55441  -1.06023   2.65494 
 H                     6.76116  -1.76334   2.38792 
 H                     8.49865  -1.49614   2.31487 
 H                     7.59127  -1.01806   3.74853 
 C                     9.38134   1.2514    3.55096 
 H                     9.75216   0.23488   3.75375 
 C                     8.49622   1.67956   4.73501 
 H                     8.02722   2.65249   4.5412 
 H                     9.08156   1.77188   5.65465 
 H                     7.69955   0.96014   4.93707 
 C                     3.37422  -2.20313   0.9554 
 H                     3.12155  -2.03559   2.00658 
 H                     2.61845  -2.87851   0.54745 
 H                     4.33228  -2.73056   0.91349 
 O                     6.09896   0.91321  -1.96309 
 O                     6.27932   0.92542  -3.40708 
 H                     5.43852   1.31839  -3.69442 
 O                    -0.16329  -1.42634  -2.28938 
 H                    -0.35587  -2.28093  -1.87857 
 C                     10.62043   2.17539   3.44423 
 H                     11.16441   1.9477    2.52073 
 H                     10.27612   3.21635   3.34447 
 C                     11.619    2.08029   4.60931 
 H                     11.13323   2.36818   5.5481 
 H                     11.92993   1.03171   4.73085 
 C                     12.86566   2.95068   4.38907 
 H                     12.5625   4.00548   4.30228 
 H                     13.31172   2.68357   3.42035 
 C                     13.95574   2.83522   5.47414 
 H                     14.21184   1.76907   5.57532 
 C                     15.22746   3.58231   5.04159 
 H                     15.0285   4.6551    4.92192 
 H                     16.02531   3.47422   5.78522 
 H                     15.60677   3.20577   4.0847 
 C                     13.47949   3.33766   6.84689 
 H                     13.18548   4.39408   6.79282 
 H                     14.27824   3.25415   7.59271 
 H                     12.62083   2.77051   7.21984 
 
 NAtoms=     76 NQM=       76 NQMF=       0 NMMI=      0 NMMIF=      0
                NMic=       0 NMicF=      0.
                    Isotopes and Nuclear Properties:
 (Nuclear quadrupole moments (NQMom) in fm**2, nuclear magnetic moments (NMagM)
  in nuclear magnetons)

  Atom         1           2           3           4           5           6           7           8           9          10
 IAtWgt=          12           1          12           1           1          12          12          12           1           1
 AtmWgt=  12.0000000   1.0078250  12.0000000   1.0078250   1.0078250  12.0000000  12.0000000  12.0000000   1.0078250   1.0078250
 NucSpn=           0           1           0           1           1           0           0           0           1           1
 AtZEff=   0.0000000   0.0000000   0.0000000   0.0000000   0.0000000   0.0000000   0.0000000   0.0000000   0.0000000   0.0000000
 NQMom=    0.0000000   0.0000000   0.0000000   0.0000000   0.0000000   0.0000000   0.0000000   0.0000000   0.0000000   0.0000000
 NMagM=    0.0000000   2.7928460   0.0000000   2.7928460   2.7928460   0.0000000   0.0000000   0.0000000   2.7928460   2.7928460
 AtZNuc=   6.0000000   1.0000000   6.0000000   1.0000000   1.0000000   6.0000000   6.0000000   6.0000000   1.0000000   1.0000000

  Atom        11          12          13          14          15          16          17          18          19          20
 IAtWgt=          12           1           1          12           1          12           1          12           1          12
 AtmWgt=  12.0000000   1.0078250   1.0078250  12.0000000   1.0078250  12.0000000   1.0078250  12.0000000   1.0078250  12.0000000
 NucSpn=           0           1           1           0           1           0           1           0           1           0
 AtZEff=   0.0000000   0.0000000   0.0000000   0.0000000   0.0000000   0.0000000   0.0000000   0.0000000   0.0000000   0.0000000
 NQMom=    0.0000000   0.0000000   0.0000000   0.0000000   0.0000000   0.0000000   0.0000000   0.0000000   0.0000000   0.0000000
 NMagM=    0.0000000   2.7928460   2.7928460   0.0000000   2.7928460   0.0000000   2.7928460   0.0000000   2.7928460   0.0000000
 AtZNuc=   6.0000000   1.0000000   1.0000000   6.0000000   1.0000000   6.0000000   1.0000000   6.0000000   1.0000000   6.0000000

  Atom        21          22          23          24          25          26          27          28          29          30
 IAtWgt=           1          12           1           1          12           1           1          12          12           1
 AtmWgt=   1.0078250  12.0000000   1.0078250   1.0078250  12.0000000   1.0078250   1.0078250  12.0000000  12.0000000   1.0078250
 NucSpn=           1           0           1           1           0           1           1           0           0           1
 AtZEff=   0.0000000   0.0000000   0.0000000   0.0000000   0.0000000   0.0000000   0.0000000   0.0000000   0.0000000   0.0000000
 NQMom=    0.0000000   0.0000000   0.0000000   0.0000000   0.0000000   0.0000000   0.0000000   0.0000000   0.0000000   0.0000000
 NMagM=    2.7928460   0.0000000   2.7928460   2.7928460   0.0000000   2.7928460   2.7928460   0.0000000   0.0000000   2.7928460
 AtZNuc=   1.0000000   6.0000000   1.0000000   1.0000000   6.0000000   1.0000000   1.0000000   6.0000000   6.0000000   1.0000000

  Atom        31          32          33          34          35          36          37          38          39          40
 IAtWgt=          12           1           1          12           1           1          12           1          12           1
 AtmWgt=  12.0000000   1.0078250   1.0078250  12.0000000   1.0078250   1.0078250  12.0000000   1.0078250  12.0000000   1.0078250
 NucSpn=           0           1           1           0           1           1           0           1           0           1
 AtZEff=   0.0000000   0.0000000   0.0000000   0.0000000   0.0000000   0.0000000   0.0000000   0.0000000   0.0000000   0.0000000
 NQMom=    0.0000000   0.0000000   0.0000000   0.0000000   0.0000000   0.0000000   0.0000000   0.0000000   0.0000000   0.0000000
 NMagM=    0.0000000   2.7928460   2.7928460   0.0000000   2.7928460   2.7928460   0.0000000   2.7928460   0.0000000   2.7928460
 AtZNuc=   6.0000000   1.0000000   1.0000000   6.0000000   1.0000000   1.0000000   6.0000000   1.0000000   6.0000000   1.0000000

  Atom        41          42          43          44          45          46          47          48          49          50
 IAtWgt=           1           1          12           1          12           1           1           1          12           1
 AtmWgt=   1.0078250   1.0078250  12.0000000   1.0078250  12.0000000   1.0078250   1.0078250   1.0078250  12.0000000   1.0078250
 NucSpn=           1           1           0           1           0           1           1           1           0           1
 AtZEff=   0.0000000   0.0000000   0.0000000   0.0000000   0.0000000   0.0000000   0.0000000   0.0000000   0.0000000   0.0000000
 NQMom=    0.0000000   0.0000000   0.0000000   0.0000000   0.0000000   0.0000000   0.0000000   0.0000000   0.0000000   0.0000000
 NMagM=    2.7928460   2.7928460   0.0000000   2.7928460   0.0000000   2.7928460   2.7928460   2.7928460   0.0000000   2.7928460
 AtZNuc=   1.0000000   1.0000000   6.0000000   1.0000000   6.0000000   1.0000000   1.0000000   1.0000000   6.0000000   1.0000000

  Atom        51          52          53          54          55          56          57          58          59          60
 IAtWgt=           1           1          16          16           1          16           1          12           1           1
 AtmWgt=   1.0078250   1.0078250  15.9949146  15.9949146   1.0078250  15.9949146   1.0078250  12.0000000   1.0078250   1.0078250
 NucSpn=           1           1           0           0           1           0           1           0           1           1
 AtZEff=   0.0000000   0.0000000   0.0000000   0.0000000   0.0000000   0.0000000   0.0000000   0.0000000   0.0000000   0.0000000
 NQMom=    0.0000000   0.0000000   0.0000000   0.0000000   0.0000000   0.0000000   0.0000000   0.0000000   0.0000000   0.0000000
 NMagM=    2.7928460   2.7928460   0.0000000   0.0000000   2.7928460   0.0000000   2.7928460   0.0000000   2.7928460   2.7928460
 AtZNuc=   1.0000000   1.0000000   8.0000000   8.0000000   1.0000000   8.0000000   1.0000000   6.0000000   1.0000000   1.0000000

  Atom        61          62          63          64          65          66          67          68          69          70
 IAtWgt=          12           1           1          12           1           1          12           1          12           1
 AtmWgt=  12.0000000   1.0078250   1.0078250  12.0000000   1.0078250   1.0078250  12.0000000   1.0078250  12.0000000   1.0078250
 NucSpn=           0           1           1           0           1           1           0           1           0           1
 AtZEff=   0.0000000   0.0000000   0.0000000   0.0000000   0.0000000   0.0000000   0.0000000   0.0000000   0.0000000   0.0000000
 NQMom=    0.0000000   0.0000000   0.0000000   0.0000000   0.0000000   0.0000000   0.0000000   0.0000000   0.0000000   0.0000000
 NMagM=    0.0000000   2.7928460   2.7928460   0.0000000   2.7928460   2.7928460   0.0000000   2.7928460   0.0000000   2.7928460
 AtZNuc=   6.0000000   1.0000000   1.0000000   6.0000000   1.0000000   1.0000000   6.0000000   1.0000000   6.0000000   1.0000000

  Atom        71          72          73          74          75          76
 IAtWgt=           1           1          12           1           1           1
 AtmWgt=   1.0078250   1.0078250  12.0000000   1.0078250   1.0078250   1.0078250
 NucSpn=           1           1           0           1           1           1
 AtZEff=   0.0000000   0.0000000   0.0000000   0.0000000   0.0000000   0.0000000
 NQMom=    0.0000000   0.0000000   0.0000000   0.0000000   0.0000000   0.0000000
 NMagM=    2.7928460   2.7928460   0.0000000   2.7928460   2.7928460   2.7928460
 AtZNuc=   1.0000000   1.0000000   6.0000000   1.0000000   1.0000000   1.0000000
 Leave Link  101 at Fri Apr 28 13:10:32 2017, MaxMem=    33554432 cpu:         1.1
 (Enter /home/michal/g09/l202.exe)
 Symmetry turned off by external request.
 Stoichiometry    C27H46O3
 Framework group  C1[X(C27H46O3)]
 Deg. of freedom   222
 Full point group                 C1      NOp   1
                          Input orientation:                          
 ---------------------------------------------------------------------
 Center     Atomic      Atomic             Coordinates (Angstroms)
 Number     Number       Type             X           Y           Z
 ---------------------------------------------------------------------
      1          6           0        1.014220   -0.883042   -1.687015
      2          1           0        1.144404    0.087320   -2.181669
      3          6           0        2.250101   -1.753025   -1.966168
      4          1           0        2.388861   -1.860376   -3.046456
      5          1           0        2.045033   -2.761269   -1.573068
      6          6           0        3.508200   -1.193266   -1.328099
      7          6           0        3.434270   -0.865116    0.168364
      8          6           0        2.129139   -0.049110    0.422547
      9          1           0        2.265986    0.955612    0.000000
     10          1           0        1.989060    0.083969    1.500727
     11          6           0        0.855789   -0.659578   -0.183114
     12          1           0        0.621750   -1.619925    0.299710
     13          1           0        0.000000    0.000000    0.000000
     14          6           0        4.611023   -1.012797   -2.071250
     15          1           0        4.583622   -1.268192   -3.128951
     16          6           0        5.911938   -0.469924   -1.554188
     17          1           0        6.751985   -1.034746   -1.977921
     18          6           0        5.994342   -0.490487   -0.016956
     19          1           0        6.145727   -1.547040    0.245549
     20          6           0        4.663397    0.007700    0.605405
     21          1           0        4.492188    1.007701    0.180577
     22          6           0        4.774108    0.183180    2.138607
     23          1           0        4.784488   -0.796539    2.627020
     24          1           0        3.880117    0.695462    2.512572
     25          6           0        6.018114    0.967549    2.603632
     26          1           0        5.951466    2.007114    2.252380
     27          1           0        6.009485    1.007341    3.697332
     28          6           0        7.322221    0.347560    2.059892
     29          6           0        7.181293    0.329184    0.511810
     30          1           0        6.986037    1.372382    0.227646
     31          6           0        8.589539    0.000000    0.000000
     32          1           0        8.744861    0.348447   -1.024819
     33          1           0        8.764198   -1.083577    0.002342
     34          6           0        9.520291    0.716640    1.016142
     35          1           0       10.294404    0.034215    1.387447
     36          1           0       10.045781    1.552252    0.544952
     37          6           0        8.621256    1.216757    2.199284
     38          1           0        8.318141    2.252729    1.979629
     39          6           0        7.554411   -1.060227    2.654936
     40          1           0        6.761161   -1.763336    2.387917
     41          1           0        8.498646   -1.496136    2.314869
     42          1           0        7.591270   -1.018057    3.748532
     43          6           0        9.381345    1.251402    3.550958
     44          1           0        9.752157    0.234880    3.753754
     45          6           0        8.496217    1.679556    4.735008
     46          1           0        8.027218    2.652495    4.541205
     47          1           0        9.081562    1.771880    5.654654
     48          1           0        7.699548    0.960136    4.937075
     49          6           0        3.374218   -2.203135    0.955400
     50          1           0        3.121547   -2.035593    2.006576
     51          1           0        2.618446   -2.878514    0.547455
     52          1           0        4.332285   -2.730562    0.913490
     53          8           0        6.098956    0.913207   -1.963092
     54          8           0        6.279316    0.925418   -3.407079
     55          1           0        5.438522    1.318394   -3.694417
     56          8           0       -0.163286   -1.426345   -2.289379
     57          1           0       -0.355872   -2.280926   -1.878570
     58          6           0       10.620432    2.175390    3.444232
     59          1           0       11.164413    1.947700    2.520728
     60          1           0       10.276124    3.216354    3.344465
     61          6           0       11.618996    2.080293    4.609305
     62          1           0       11.133227    2.368176    5.548095
     63          1           0       11.929935    1.031711    4.730849
     64          6           0       12.865661    2.950676    4.389070
     65          1           0       12.562500    4.005484    4.302283
     66          1           0       13.311718    2.683573    3.420349
     67          6           0       13.955742    2.835220    5.474135
     68          1           0       14.211841    1.769072    5.575318
     69          6           0       15.227464    3.582309    5.041585
     70          1           0       15.028501    4.655097    4.921924
     71          1           0       16.025309    3.474224    5.785223
     72          1           0       15.606767    3.205765    4.084696
     73          6           0       13.479487    3.337662    6.846891
     74          1           0       13.185485    4.394079    6.792824
     75          1           0       14.278245    3.254152    7.592709
     76          1           0       12.620834    2.770510    7.219840
 ---------------------------------------------------------------------
 Rotational constants (GHZ):      0.4275884      0.0502708      0.0469611
 Leave Link  202 at Fri Apr 28 13:10:32 2017, MaxMem=    33554432 cpu:         0.1
 (Enter /home/michal/g09/l301.exe)
 Standard basis: 6-31G(d) (6D, 7F)
 Ernie: Thresh=  0.10000D-02 Tol=  0.10000D-05 Strict=F.
 AO basis set in the form of general basis input (Overlap normalization):
      1 0
 S   6 1.00       0.000000000000
      0.3047524880D+04  0.1834737132D-02
      0.4573695180D+03  0.1403732281D-01
      0.1039486850D+03  0.6884262226D-01
      0.2921015530D+02  0.2321844432D+00
      0.9286662960D+01  0.4679413484D+00
      0.3163926960D+01  0.3623119853D+00
 SP   3 1.00       0.000000000000
      0.7868272350D+01 -0.1193324198D+00  0.6899906659D-01
      0.1881288540D+01 -0.1608541517D+00  0.3164239610D+00
      0.5442492580D+00  0.1143456438D+01  0.7443082909D+00
 SP   1 1.00       0.000000000000
      0.1687144782D+00  0.1000000000D+01  0.1000000000D+01
 D   1 1.00       0.000000000000
      0.8000000000D+00  0.1000000000D+01
 ****
      2 0
 S   3 1.00       0.000000000000
      0.1873113696D+02  0.3349460434D-01
      0.2825394365D+01  0.2347269535D+00
      0.6401216923D+00  0.8137573261D+00
 S   1 1.00       0.000000000000
      0.1612777588D+00  0.1000000000D+01
 ****
      3 0
 S   6 1.00       0.000000000000
      0.3047524880D+04  0.1834737132D-02
      0.4573695180D+03  0.1403732281D-01
      0.1039486850D+03  0.6884262226D-01
      0.2921015530D+02  0.2321844432D+00
      0.9286662960D+01  0.4679413484D+00
      0.3163926960D+01  0.3623119853D+00
 SP   3 1.00       0.000000000000
      0.7868272350D+01 -0.1193324198D+00  0.6899906659D-01
      0.1881288540D+01 -0.1608541517D+00  0.3164239610D+00
      0.5442492580D+00  0.1143456438D+01  0.7443082909D+00
 SP   1 1.00       0.000000000000
      0.1687144782D+00  0.1000000000D+01  0.1000000000D+01
 D   1 1.00       0.000000000000
      0.8000000000D+00  0.1000000000D+01
 ****
      4 0
 S   3 1.00       0.000000000000
      0.1873113696D+02  0.3349460434D-01
      0.2825394365D+01  0.2347269535D+00
      0.6401216923D+00  0.8137573261D+00
 S   1 1.00       0.000000000000
      0.1612777588D+00  0.1000000000D+01
 ****
      5 0
 S   3 1.00       0.000000000000
      0.1873113696D+02  0.3349460434D-01
      0.2825394365D+01  0.2347269535D+00
      0.6401216923D+00  0.8137573261D+00
 S   1 1.00       0.000000000000
      0.1612777588D+00  0.1000000000D+01
 ****
      6 0
 S   6 1.00       0.000000000000
      0.3047524880D+04  0.1834737132D-02
      0.4573695180D+03  0.1403732281D-01
      0.1039486850D+03  0.6884262226D-01
      0.2921015530D+02  0.2321844432D+00
      0.9286662960D+01  0.4679413484D+00
      0.3163926960D+01  0.3623119853D+00
 SP   3 1.00       0.000000000000
      0.7868272350D+01 -0.1193324198D+00  0.6899906659D-01
      0.1881288540D+01 -0.1608541517D+00  0.3164239610D+00
      0.5442492580D+00  0.1143456438D+01  0.7443082909D+00
 SP   1 1.00       0.000000000000
      0.1687144782D+00  0.1000000000D+01  0.1000000000D+01
 D   1 1.00       0.000000000000
      0.8000000000D+00  0.1000000000D+01
 ****
      7 0
 S   6 1.00       0.000000000000
      0.3047524880D+04  0.1834737132D-02
      0.4573695180D+03  0.1403732281D-01
      0.1039486850D+03  0.6884262226D-01
      0.2921015530D+02  0.2321844432D+00
      0.9286662960D+01  0.4679413484D+00
      0.3163926960D+01  0.3623119853D+00
 SP   3 1.00       0.000000000000
      0.7868272350D+01 -0.1193324198D+00  0.6899906659D-01
      0.1881288540D+01 -0.1608541517D+00  0.3164239610D+00
      0.5442492580D+00  0.1143456438D+01  0.7443082909D+00
 SP   1 1.00       0.000000000000
      0.1687144782D+00  0.1000000000D+01  0.1000000000D+01
 D   1 1.00       0.000000000000
      0.8000000000D+00  0.1000000000D+01
 ****
      8 0
 S   6 1.00       0.000000000000
      0.3047524880D+04  0.1834737132D-02
      0.4573695180D+03  0.1403732281D-01
      0.1039486850D+03  0.6884262226D-01
      0.2921015530D+02  0.2321844432D+00
      0.9286662960D+01  0.4679413484D+00
      0.3163926960D+01  0.3623119853D+00
 SP   3 1.00       0.000000000000
      0.7868272350D+01 -0.1193324198D+00  0.6899906659D-01
      0.1881288540D+01 -0.1608541517D+00  0.3164239610D+00
      0.5442492580D+00  0.1143456438D+01  0.7443082909D+00
 SP   1 1.00       0.000000000000
      0.1687144782D+00  0.1000000000D+01  0.1000000000D+01
 D   1 1.00       0.000000000000
      0.8000000000D+00  0.1000000000D+01
 ****
      9 0
 S   3 1.00       0.000000000000
      0.1873113696D+02  0.3349460434D-01
      0.2825394365D+01  0.2347269535D+00
      0.6401216923D+00  0.8137573261D+00
 S   1 1.00       0.000000000000
      0.1612777588D+00  0.1000000000D+01
 ****
     10 0
 S   3 1.00       0.000000000000
      0.1873113696D+02  0.3349460434D-01
      0.2825394365D+01  0.2347269535D+00
      0.6401216923D+00  0.8137573261D+00
 S   1 1.00       0.000000000000
      0.1612777588D+00  0.1000000000D+01
 ****
     11 0
 S   6 1.00       0.000000000000
      0.3047524880D+04  0.1834737132D-02
      0.4573695180D+03  0.1403732281D-01
      0.1039486850D+03  0.6884262226D-01
      0.2921015530D+02  0.2321844432D+00
      0.9286662960D+01  0.4679413484D+00
      0.3163926960D+01  0.3623119853D+00
 SP   3 1.00       0.000000000000
      0.7868272350D+01 -0.1193324198D+00  0.6899906659D-01
      0.1881288540D+01 -0.1608541517D+00  0.3164239610D+00
      0.5442492580D+00  0.1143456438D+01  0.7443082909D+00
 SP   1 1.00       0.000000000000
      0.1687144782D+00  0.1000000000D+01  0.1000000000D+01
 D   1 1.00       0.000000000000
      0.8000000000D+00  0.1000000000D+01
 ****
     12 0
 S   3 1.00       0.000000000000
      0.1873113696D+02  0.3349460434D-01
      0.2825394365D+01  0.2347269535D+00
      0.6401216923D+00  0.8137573261D+00
 S   1 1.00       0.000000000000
      0.1612777588D+00  0.1000000000D+01
 ****
     13 0
 S   3 1.00       0.000000000000
      0.1873113696D+02  0.3349460434D-01
      0.2825394365D+01  0.2347269535D+00
      0.6401216923D+00  0.8137573261D+00
 S   1 1.00       0.000000000000
      0.1612777588D+00  0.1000000000D+01
 ****
     14 0
 S   6 1.00       0.000000000000
      0.3047524880D+04  0.1834737132D-02
      0.4573695180D+03  0.1403732281D-01
      0.1039486850D+03  0.6884262226D-01
      0.2921015530D+02  0.2321844432D+00
      0.9286662960D+01  0.4679413484D+00
      0.3163926960D+01  0.3623119853D+00
 SP   3 1.00       0.000000000000
      0.7868272350D+01 -0.1193324198D+00  0.6899906659D-01
      0.1881288540D+01 -0.1608541517D+00  0.3164239610D+00
      0.5442492580D+00  0.1143456438D+01  0.7443082909D+00
 SP   1 1.00       0.000000000000
      0.1687144782D+00  0.1000000000D+01  0.1000000000D+01
 D   1 1.00       0.000000000000
      0.8000000000D+00  0.1000000000D+01
 ****
     15 0
 S   3 1.00       0.000000000000
      0.1873113696D+02  0.3349460434D-01
      0.2825394365D+01  0.2347269535D+00
      0.6401216923D+00  0.8137573261D+00
 S   1 1.00       0.000000000000
      0.1612777588D+00  0.1000000000D+01
 ****
     16 0
 S   6 1.00       0.000000000000
      0.3047524880D+04  0.1834737132D-02
      0.4573695180D+03  0.1403732281D-01
      0.1039486850D+03  0.6884262226D-01
      0.2921015530D+02  0.2321844432D+00
      0.9286662960D+01  0.4679413484D+00
      0.3163926960D+01  0.3623119853D+00
 SP   3 1.00       0.000000000000
      0.7868272350D+01 -0.1193324198D+00  0.6899906659D-01
      0.1881288540D+01 -0.1608541517D+00  0.3164239610D+00
      0.5442492580D+00  0.1143456438D+01  0.7443082909D+00
 SP   1 1.00       0.000000000000
      0.1687144782D+00  0.1000000000D+01  0.1000000000D+01
 D   1 1.00       0.000000000000
      0.8000000000D+00  0.1000000000D+01
 ****
     17 0
 S   3 1.00       0.000000000000
      0.1873113696D+02  0.3349460434D-01
      0.2825394365D+01  0.2347269535D+00
      0.6401216923D+00  0.8137573261D+00
 S   1 1.00       0.000000000000
      0.1612777588D+00  0.1000000000D+01
 ****
     18 0
 S   6 1.00       0.000000000000
      0.3047524880D+04  0.1834737132D-02
      0.4573695180D+03  0.1403732281D-01
      0.1039486850D+03  0.6884262226D-01
      0.2921015530D+02  0.2321844432D+00
      0.9286662960D+01  0.4679413484D+00
      0.3163926960D+01  0.3623119853D+00
 SP   3 1.00       0.000000000000
      0.7868272350D+01 -0.1193324198D+00  0.6899906659D-01
      0.1881288540D+01 -0.1608541517D+00  0.3164239610D+00
      0.5442492580D+00  0.1143456438D+01  0.7443082909D+00
 SP   1 1.00       0.000000000000
      0.1687144782D+00  0.1000000000D+01  0.1000000000D+01
 D   1 1.00       0.000000000000
      0.8000000000D+00  0.1000000000D+01
 ****
     19 0
 S   3 1.00       0.000000000000
      0.1873113696D+02  0.3349460434D-01
      0.2825394365D+01  0.2347269535D+00
      0.6401216923D+00  0.8137573261D+00
 S   1 1.00       0.000000000000
      0.1612777588D+00  0.1000000000D+01
 ****
     20 0
 S   6 1.00       0.000000000000
      0.3047524880D+04  0.1834737132D-02
      0.4573695180D+03  0.1403732281D-01
      0.1039486850D+03  0.6884262226D-01
      0.2921015530D+02  0.2321844432D+00
      0.9286662960D+01  0.4679413484D+00
      0.3163926960D+01  0.3623119853D+00
 SP   3 1.00       0.000000000000
      0.7868272350D+01 -0.1193324198D+00  0.6899906659D-01
      0.1881288540D+01 -0.1608541517D+00  0.3164239610D+00
      0.5442492580D+00  0.1143456438D+01  0.7443082909D+00
 SP   1 1.00       0.000000000000
      0.1687144782D+00  0.1000000000D+01  0.1000000000D+01
 D   1 1.00       0.000000000000
      0.8000000000D+00  0.1000000000D+01
 ****
     21 0
 S   3 1.00       0.000000000000
      0.1873113696D+02  0.3349460434D-01
      0.2825394365D+01  0.2347269535D+00
      0.6401216923D+00  0.8137573261D+00
 S   1 1.00       0.000000000000
      0.1612777588D+00  0.1000000000D+01
 ****
     22 0
 S   6 1.00       0.000000000000
      0.3047524880D+04  0.1834737132D-02
      0.4573695180D+03  0.1403732281D-01
      0.1039486850D+03  0.6884262226D-01
      0.2921015530D+02  0.2321844432D+00
      0.9286662960D+01  0.4679413484D+00
      0.3163926960D+01  0.3623119853D+00
 SP   3 1.00       0.000000000000
      0.7868272350D+01 -0.1193324198D+00  0.6899906659D-01
      0.1881288540D+01 -0.1608541517D+00  0.3164239610D+00
      0.5442492580D+00  0.1143456438D+01  0.7443082909D+00
 SP   1 1.00       0.000000000000
      0.1687144782D+00  0.1000000000D+01  0.1000000000D+01
 D   1 1.00       0.000000000000
      0.8000000000D+00  0.1000000000D+01
 ****
     23 0
 S   3 1.00       0.000000000000
      0.1873113696D+02  0.3349460434D-01
      0.2825394365D+01  0.2347269535D+00
      0.6401216923D+00  0.8137573261D+00
 S   1 1.00       0.000000000000
      0.1612777588D+00  0.1000000000D+01
 ****
     24 0
 S   3 1.00       0.000000000000
      0.1873113696D+02  0.3349460434D-01
      0.2825394365D+01  0.2347269535D+00
      0.6401216923D+00  0.8137573261D+00
 S   1 1.00       0.000000000000
      0.1612777588D+00  0.1000000000D+01
 ****
     25 0
 S   6 1.00       0.000000000000
      0.3047524880D+04  0.1834737132D-02
      0.4573695180D+03  0.1403732281D-01
      0.1039486850D+03  0.6884262226D-01
      0.2921015530D+02  0.2321844432D+00
      0.9286662960D+01  0.4679413484D+00
      0.3163926960D+01  0.3623119853D+00
 SP   3 1.00       0.000000000000
      0.7868272350D+01 -0.1193324198D+00  0.6899906659D-01
      0.1881288540D+01 -0.1608541517D+00  0.3164239610D+00
      0.5442492580D+00  0.1143456438D+01  0.7443082909D+00
 SP   1 1.00       0.000000000000
      0.1687144782D+00  0.1000000000D+01  0.1000000000D+01
 D   1 1.00       0.000000000000
      0.8000000000D+00  0.1000000000D+01
 ****
     26 0
 S   3 1.00       0.000000000000
      0.1873113696D+02  0.3349460434D-01
      0.2825394365D+01  0.2347269535D+00
      0.6401216923D+00  0.8137573261D+00
 S   1 1.00       0.000000000000
      0.1612777588D+00  0.1000000000D+01
 ****
     27 0
 S   3 1.00       0.000000000000
      0.1873113696D+02  0.3349460434D-01
      0.2825394365D+01  0.2347269535D+00
      0.6401216923D+00  0.8137573261D+00
 S   1 1.00       0.000000000000
      0.1612777588D+00  0.1000000000D+01
 ****
     28 0
 S   6 1.00       0.000000000000
      0.3047524880D+04  0.1834737132D-02
      0.4573695180D+03  0.1403732281D-01
      0.1039486850D+03  0.6884262226D-01
      0.2921015530D+02  0.2321844432D+00
      0.9286662960D+01  0.4679413484D+00
      0.3163926960D+01  0.3623119853D+00
 SP   3 1.00       0.000000000000
      0.7868272350D+01 -0.1193324198D+00  0.6899906659D-01
      0.1881288540D+01 -0.1608541517D+00  0.3164239610D+00
      0.5442492580D+00  0.1143456438D+01  0.7443082909D+00
 SP   1 1.00       0.000000000000
      0.1687144782D+00  0.1000000000D+01  0.1000000000D+01
 D   1 1.00       0.000000000000
      0.8000000000D+00  0.1000000000D+01
 ****
     29 0
 S   6 1.00       0.000000000000
      0.3047524880D+04  0.1834737132D-02
      0.4573695180D+03  0.1403732281D-01
      0.1039486850D+03  0.6884262226D-01
      0.2921015530D+02  0.2321844432D+00
      0.9286662960D+01  0.4679413484D+00
      0.3163926960D+01  0.3623119853D+00
 SP   3 1.00       0.000000000000
      0.7868272350D+01 -0.1193324198D+00  0.6899906659D-01
      0.1881288540D+01 -0.1608541517D+00  0.3164239610D+00
      0.5442492580D+00  0.1143456438D+01  0.7443082909D+00
 SP   1 1.00       0.000000000000
      0.1687144782D+00  0.1000000000D+01  0.1000000000D+01
 D   1 1.00       0.000000000000
      0.8000000000D+00  0.1000000000D+01
 ****
     30 0
 S   3 1.00       0.000000000000
      0.1873113696D+02  0.3349460434D-01
      0.2825394365D+01  0.2347269535D+00
      0.6401216923D+00  0.8137573261D+00
 S   1 1.00       0.000000000000
      0.1612777588D+00  0.1000000000D+01
 ****
     31 0
 S   6 1.00       0.000000000000
      0.3047524880D+04  0.1834737132D-02
      0.4573695180D+03  0.1403732281D-01
      0.1039486850D+03  0.6884262226D-01
      0.2921015530D+02  0.2321844432D+00
      0.9286662960D+01  0.4679413484D+00
      0.3163926960D+01  0.3623119853D+00
 SP   3 1.00       0.000000000000
      0.7868272350D+01 -0.1193324198D+00  0.6899906659D-01
      0.1881288540D+01 -0.1608541517D+00  0.3164239610D+00
      0.5442492580D+00  0.1143456438D+01  0.7443082909D+00
 SP   1 1.00       0.000000000000
      0.1687144782D+00  0.1000000000D+01  0.1000000000D+01
 D   1 1.00       0.000000000000
      0.8000000000D+00  0.1000000000D+01
 ****
     32 0
 S   3 1.00       0.000000000000
      0.1873113696D+02  0.3349460434D-01
      0.2825394365D+01  0.2347269535D+00
      0.6401216923D+00  0.8137573261D+00
 S   1 1.00       0.000000000000
      0.1612777588D+00  0.1000000000D+01
 ****
     33 0
 S   3 1.00       0.000000000000
      0.1873113696D+02  0.3349460434D-01
      0.2825394365D+01  0.2347269535D+00
      0.6401216923D+00  0.8137573261D+00
 S   1 1.00       0.000000000000
      0.1612777588D+00  0.1000000000D+01
 ****
     34 0
 S   6 1.00       0.000000000000
      0.3047524880D+04  0.1834737132D-02
      0.4573695180D+03  0.1403732281D-01
      0.1039486850D+03  0.6884262226D-01
      0.2921015530D+02  0.2321844432D+00
      0.9286662960D+01  0.4679413484D+00
      0.3163926960D+01  0.3623119853D+00
 SP   3 1.00       0.000000000000
      0.7868272350D+01 -0.1193324198D+00  0.6899906659D-01
      0.1881288540D+01 -0.1608541517D+00  0.3164239610D+00
      0.5442492580D+00  0.1143456438D+01  0.7443082909D+00
 SP   1 1.00       0.000000000000
      0.1687144782D+00  0.1000000000D+01  0.1000000000D+01
 D   1 1.00       0.000000000000
      0.8000000000D+00  0.1000000000D+01
 ****
     35 0
 S   3 1.00       0.000000000000
      0.1873113696D+02  0.3349460434D-01
      0.2825394365D+01  0.2347269535D+00
      0.6401216923D+00  0.8137573261D+00
 S   1 1.00       0.000000000000
      0.1612777588D+00  0.1000000000D+01
 ****
     36 0
 S   3 1.00       0.000000000000
      0.1873113696D+02  0.3349460434D-01
      0.2825394365D+01  0.2347269535D+00
      0.6401216923D+00  0.8137573261D+00
 S   1 1.00       0.000000000000
      0.1612777588D+00  0.1000000000D+01
 ****
     37 0
 S   6 1.00       0.000000000000
      0.3047524880D+04  0.1834737132D-02
      0.4573695180D+03  0.1403732281D-01
      0.1039486850D+03  0.6884262226D-01
      0.2921015530D+02  0.2321844432D+00
      0.9286662960D+01  0.4679413484D+00
      0.3163926960D+01  0.3623119853D+00
 SP   3 1.00       0.000000000000
      0.7868272350D+01 -0.1193324198D+00  0.6899906659D-01
      0.1881288540D+01 -0.1608541517D+00  0.3164239610D+00
      0.5442492580D+00  0.1143456438D+01  0.7443082909D+00
 SP   1 1.00       0.000000000000
      0.1687144782D+00  0.1000000000D+01  0.1000000000D+01
 D   1 1.00       0.000000000000
      0.8000000000D+00  0.1000000000D+01
 ****
     38 0
 S   3 1.00       0.000000000000
      0.1873113696D+02  0.3349460434D-01
      0.2825394365D+01  0.2347269535D+00
      0.6401216923D+00  0.8137573261D+00
 S   1 1.00       0.000000000000
      0.1612777588D+00  0.1000000000D+01
 ****
     39 0
 S   6 1.00       0.000000000000
      0.3047524880D+04  0.1834737132D-02
      0.4573695180D+03  0.1403732281D-01
      0.1039486850D+03  0.6884262226D-01
      0.2921015530D+02  0.2321844432D+00
      0.9286662960D+01  0.4679413484D+00
      0.3163926960D+01  0.3623119853D+00
 SP   3 1.00       0.000000000000
      0.7868272350D+01 -0.1193324198D+00  0.6899906659D-01
      0.1881288540D+01 -0.1608541517D+00  0.3164239610D+00
      0.5442492580D+00  0.1143456438D+01  0.7443082909D+00
 SP   1 1.00       0.000000000000
      0.1687144782D+00  0.1000000000D+01  0.1000000000D+01
 D   1 1.00       0.000000000000
      0.8000000000D+00  0.1000000000D+01
 ****
     40 0
 S   3 1.00       0.000000000000
      0.1873113696D+02  0.3349460434D-01
      0.2825394365D+01  0.2347269535D+00
      0.6401216923D+00  0.8137573261D+00
 S   1 1.00       0.000000000000
      0.1612777588D+00  0.1000000000D+01
 ****
     41 0
 S   3 1.00       0.000000000000
      0.1873113696D+02  0.3349460434D-01
      0.2825394365D+01  0.2347269535D+00
      0.6401216923D+00  0.8137573261D+00
 S   1 1.00       0.000000000000
      0.1612777588D+00  0.1000000000D+01
 ****
     42 0
 S   3 1.00       0.000000000000
      0.1873113696D+02  0.3349460434D-01
      0.2825394365D+01  0.2347269535D+00
      0.6401216923D+00  0.8137573261D+00
 S   1 1.00       0.000000000000
      0.1612777588D+00  0.1000000000D+01
 ****
     43 0
 S   6 1.00       0.000000000000
      0.3047524880D+04  0.1834737132D-02
      0.4573695180D+03  0.1403732281D-01
      0.1039486850D+03  0.6884262226D-01
      0.2921015530D+02  0.2321844432D+00
      0.9286662960D+01  0.4679413484D+00
      0.3163926960D+01  0.3623119853D+00
 SP   3 1.00       0.000000000000
      0.7868272350D+01 -0.1193324198D+00  0.6899906659D-01
      0.1881288540D+01 -0.1608541517D+00  0.3164239610D+00
      0.5442492580D+00  0.1143456438D+01  0.7443082909D+00
 SP   1 1.00       0.000000000000
      0.1687144782D+00  0.1000000000D+01  0.1000000000D+01
 D   1 1.00       0.000000000000
      0.8000000000D+00  0.1000000000D+01
 ****
     44 0
 S   3 1.00       0.000000000000
      0.1873113696D+02  0.3349460434D-01
      0.2825394365D+01  0.2347269535D+00
      0.6401216923D+00  0.8137573261D+00
 S   1 1.00       0.000000000000
      0.1612777588D+00  0.1000000000D+01
 ****
     45 0
 S   6 1.00       0.000000000000
      0.3047524880D+04  0.1834737132D-02
      0.4573695180D+03  0.1403732281D-01
      0.1039486850D+03  0.6884262226D-01
      0.2921015530D+02  0.2321844432D+00
      0.9286662960D+01  0.4679413484D+00
      0.3163926960D+01  0.3623119853D+00
 SP   3 1.00       0.000000000000
      0.7868272350D+01 -0.1193324198D+00  0.6899906659D-01
      0.1881288540D+01 -0.1608541517D+00  0.3164239610D+00
      0.5442492580D+00  0.1143456438D+01  0.7443082909D+00
 SP   1 1.00       0.000000000000
      0.1687144782D+00  0.1000000000D+01  0.1000000000D+01
 D   1 1.00       0.000000000000
      0.8000000000D+00  0.1000000000D+01
 ****
     46 0
 S   3 1.00       0.000000000000
      0.1873113696D+02  0.3349460434D-01
      0.2825394365D+01  0.2347269535D+00
      0.6401216923D+00  0.8137573261D+00
 S   1 1.00       0.000000000000
      0.1612777588D+00  0.1000000000D+01
 ****
     47 0
 S   3 1.00       0.000000000000
      0.1873113696D+02  0.3349460434D-01
      0.2825394365D+01  0.2347269535D+00
      0.6401216923D+00  0.8137573261D+00
 S   1 1.00       0.000000000000
      0.1612777588D+00  0.1000000000D+01
 ****
     48 0
 S   3 1.00       0.000000000000
      0.1873113696D+02  0.3349460434D-01
      0.2825394365D+01  0.2347269535D+00
      0.6401216923D+00  0.8137573261D+00
 S   1 1.00       0.000000000000
      0.1612777588D+00  0.1000000000D+01
 ****
     49 0
 S   6 1.00       0.000000000000
      0.3047524880D+04  0.1834737132D-02
      0.4573695180D+03  0.1403732281D-01
      0.1039486850D+03  0.6884262226D-01
      0.2921015530D+02  0.2321844432D+00
      0.9286662960D+01  0.4679413484D+00
      0.3163926960D+01  0.3623119853D+00
 SP   3 1.00       0.000000000000
      0.7868272350D+01 -0.1193324198D+00  0.6899906659D-01
      0.1881288540D+01 -0.1608541517D+00  0.3164239610D+00
      0.5442492580D+00  0.1143456438D+01  0.7443082909D+00
 SP   1 1.00       0.000000000000
      0.1687144782D+00  0.1000000000D+01  0.1000000000D+01
 D   1 1.00       0.000000000000
      0.8000000000D+00  0.1000000000D+01
 ****
     50 0
 S   3 1.00       0.000000000000
      0.1873113696D+02  0.3349460434D-01
      0.2825394365D+01  0.2347269535D+00
      0.6401216923D+00  0.8137573261D+00
 S   1 1.00       0.000000000000
      0.1612777588D+00  0.1000000000D+01
 ****
     51 0
 S   3 1.00       0.000000000000
      0.1873113696D+02  0.3349460434D-01
      0.2825394365D+01  0.2347269535D+00
      0.6401216923D+00  0.8137573261D+00
 S   1 1.00       0.000000000000
      0.1612777588D+00  0.1000000000D+01
 ****
     52 0
 S   3 1.00       0.000000000000
      0.1873113696D+02  0.3349460434D-01
      0.2825394365D+01  0.2347269535D+00
      0.6401216923D+00  0.8137573261D+00
 S   1 1.00       0.000000000000
      0.1612777588D+00  0.1000000000D+01
 ****
     53 0
 S   6 1.00       0.000000000000
      0.5484671660D+04  0.1831074430D-02
      0.8252349460D+03  0.1395017220D-01
      0.1880469580D+03  0.6844507810D-01
      0.5296450000D+02  0.2327143360D+00
      0.1689757040D+02  0.4701928980D+00
      0.5799635340D+01  0.3585208530D+00
 SP   3 1.00       0.000000000000
      0.1553961625D+02 -0.1107775495D+00  0.7087426823D-01
      0.3599933586D+01 -0.1480262627D+00  0.3397528391D+00
      0.1013761750D+01  0.1130767015D+01  0.7271585773D+00
 SP   1 1.00       0.000000000000
      0.2700058226D+00  0.1000000000D+01  0.1000000000D+01
 D   1 1.00       0.000000000000
      0.8000000000D+00  0.1000000000D+01
 ****
     54 0
 S   6 1.00       0.000000000000
      0.5484671660D+04  0.1831074430D-02
      0.8252349460D+03  0.1395017220D-01
      0.1880469580D+03  0.6844507810D-01
      0.5296450000D+02  0.2327143360D+00
      0.1689757040D+02  0.4701928980D+00
      0.5799635340D+01  0.3585208530D+00
 SP   3 1.00       0.000000000000
      0.1553961625D+02 -0.1107775495D+00  0.7087426823D-01
      0.3599933586D+01 -0.1480262627D+00  0.3397528391D+00
      0.1013761750D+01  0.1130767015D+01  0.7271585773D+00
 SP   1 1.00       0.000000000000
      0.2700058226D+00  0.1000000000D+01  0.1000000000D+01
 D   1 1.00       0.000000000000
      0.8000000000D+00  0.1000000000D+01
 ****
     55 0
 S   3 1.00       0.000000000000
      0.1873113696D+02  0.3349460434D-01
      0.2825394365D+01  0.2347269535D+00
      0.6401216923D+00  0.8137573261D+00
 S   1 1.00       0.000000000000
      0.1612777588D+00  0.1000000000D+01
 ****
     56 0
 S   6 1.00       0.000000000000
      0.5484671660D+04  0.1831074430D-02
      0.8252349460D+03  0.1395017220D-01
      0.1880469580D+03  0.6844507810D-01
      0.5296450000D+02  0.2327143360D+00
      0.1689757040D+02  0.4701928980D+00
      0.5799635340D+01  0.3585208530D+00
 SP   3 1.00       0.000000000000
      0.1553961625D+02 -0.1107775495D+00  0.7087426823D-01
      0.3599933586D+01 -0.1480262627D+00  0.3397528391D+00
      0.1013761750D+01  0.1130767015D+01  0.7271585773D+00
 SP   1 1.00       0.000000000000
      0.2700058226D+00  0.1000000000D+01  0.1000000000D+01
 D   1 1.00       0.000000000000
      0.8000000000D+00  0.1000000000D+01
 ****
     57 0
 S   3 1.00       0.000000000000
      0.1873113696D+02  0.3349460434D-01
      0.2825394365D+01  0.2347269535D+00
      0.6401216923D+00  0.8137573261D+00
 S   1 1.00       0.000000000000
      0.1612777588D+00  0.1000000000D+01
 ****
     58 0
 S   6 1.00       0.000000000000
      0.3047524880D+04  0.1834737132D-02
      0.4573695180D+03  0.1403732281D-01
      0.1039486850D+03  0.6884262226D-01
      0.2921015530D+02  0.2321844432D+00
      0.9286662960D+01  0.4679413484D+00
      0.3163926960D+01  0.3623119853D+00
 SP   3 1.00       0.000000000000
      0.7868272350D+01 -0.1193324198D+00  0.6899906659D-01
      0.1881288540D+01 -0.1608541517D+00  0.3164239610D+00
      0.5442492580D+00  0.1143456438D+01  0.7443082909D+00
 SP   1 1.00       0.000000000000
      0.1687144782D+00  0.1000000000D+01  0.1000000000D+01
 D   1 1.00       0.000000000000
      0.8000000000D+00  0.1000000000D+01
 ****
     59 0
 S   3 1.00       0.000000000000
      0.1873113696D+02  0.3349460434D-01
      0.2825394365D+01  0.2347269535D+00
      0.6401216923D+00  0.8137573261D+00
 S   1 1.00       0.000000000000
      0.1612777588D+00  0.1000000000D+01
 ****
     60 0
 S   3 1.00       0.000000000000
      0.1873113696D+02  0.3349460434D-01
      0.2825394365D+01  0.2347269535D+00
      0.6401216923D+00  0.8137573261D+00
 S   1 1.00       0.000000000000
      0.1612777588D+00  0.1000000000D+01
 ****
     61 0
 S   6 1.00       0.000000000000
      0.3047524880D+04  0.1834737132D-02
      0.4573695180D+03  0.1403732281D-01
      0.1039486850D+03  0.6884262226D-01
      0.2921015530D+02  0.2321844432D+00
      0.9286662960D+01  0.4679413484D+00
      0.3163926960D+01  0.3623119853D+00
 SP   3 1.00       0.000000000000
      0.7868272350D+01 -0.1193324198D+00  0.6899906659D-01
      0.1881288540D+01 -0.1608541517D+00  0.3164239610D+00
      0.5442492580D+00  0.1143456438D+01  0.7443082909D+00
 SP   1 1.00       0.000000000000
      0.1687144782D+00  0.1000000000D+01  0.1000000000D+01
 D   1 1.00       0.000000000000
      0.8000000000D+00  0.1000000000D+01
 ****
     62 0
 S   3 1.00       0.000000000000
      0.1873113696D+02  0.3349460434D-01
      0.2825394365D+01  0.2347269535D+00
      0.6401216923D+00  0.8137573261D+00
 S   1 1.00       0.000000000000
      0.1612777588D+00  0.1000000000D+01
 ****
     63 0
 S   3 1.00       0.000000000000
      0.1873113696D+02  0.3349460434D-01
      0.2825394365D+01  0.2347269535D+00
      0.6401216923D+00  0.8137573261D+00
 S   1 1.00       0.000000000000
      0.1612777588D+00  0.1000000000D+01
 ****
     64 0
 S   6 1.00       0.000000000000
      0.3047524880D+04  0.1834737132D-02
      0.4573695180D+03  0.1403732281D-01
      0.1039486850D+03  0.6884262226D-01
      0.2921015530D+02  0.2321844432D+00
      0.9286662960D+01  0.4679413484D+00
      0.3163926960D+01  0.3623119853D+00
 SP   3 1.00       0.000000000000
      0.7868272350D+01 -0.1193324198D+00  0.6899906659D-01
      0.1881288540D+01 -0.1608541517D+00  0.3164239610D+00
      0.5442492580D+00  0.1143456438D+01  0.7443082909D+00
 SP   1 1.00       0.000000000000
      0.1687144782D+00  0.1000000000D+01  0.1000000000D+01
 D   1 1.00       0.000000000000
      0.8000000000D+00  0.1000000000D+01
 ****
     65 0
 S   3 1.00       0.000000000000
      0.1873113696D+02  0.3349460434D-01
      0.2825394365D+01  0.2347269535D+00
      0.6401216923D+00  0.8137573261D+00
 S   1 1.00       0.000000000000
      0.1612777588D+00  0.1000000000D+01
 ****
     66 0
 S   3 1.00       0.000000000000
      0.1873113696D+02  0.3349460434D-01
      0.2825394365D+01  0.2347269535D+00
      0.6401216923D+00  0.8137573261D+00
 S   1 1.00       0.000000000000
      0.1612777588D+00  0.1000000000D+01
 ****
     67 0
 S   6 1.00       0.000000000000
      0.3047524880D+04  0.1834737132D-02
      0.4573695180D+03  0.1403732281D-01
      0.1039486850D+03  0.6884262226D-01
      0.2921015530D+02  0.2321844432D+00
      0.9286662960D+01  0.4679413484D+00
      0.3163926960D+01  0.3623119853D+00
 SP   3 1.00       0.000000000000
      0.7868272350D+01 -0.1193324198D+00  0.6899906659D-01
      0.1881288540D+01 -0.1608541517D+00  0.3164239610D+00
      0.5442492580D+00  0.1143456438D+01  0.7443082909D+00
 SP   1 1.00       0.000000000000
      0.1687144782D+00  0.1000000000D+01  0.1000000000D+01
 D   1 1.00       0.000000000000
      0.8000000000D+00  0.1000000000D+01
 ****
     68 0
 S   3 1.00       0.000000000000
      0.1873113696D+02  0.3349460434D-01
      0.2825394365D+01  0.2347269535D+00
      0.6401216923D+00  0.8137573261D+00
 S   1 1.00       0.000000000000
      0.1612777588D+00  0.1000000000D+01
 ****
     69 0
 S   6 1.00       0.000000000000
      0.3047524880D+04  0.1834737132D-02
      0.4573695180D+03  0.1403732281D-01
      0.1039486850D+03  0.6884262226D-01
      0.2921015530D+02  0.2321844432D+00
      0.9286662960D+01  0.4679413484D+00
      0.3163926960D+01  0.3623119853D+00
 SP   3 1.00       0.000000000000
      0.7868272350D+01 -0.1193324198D+00  0.6899906659D-01
      0.1881288540D+01 -0.1608541517D+00  0.3164239610D+00
      0.5442492580D+00  0.1143456438D+01  0.7443082909D+00
 SP   1 1.00       0.000000000000
      0.1687144782D+00  0.1000000000D+01  0.1000000000D+01
 D   1 1.00       0.000000000000
      0.8000000000D+00  0.1000000000D+01
 ****
     70 0
 S   3 1.00       0.000000000000
      0.1873113696D+02  0.3349460434D-01
      0.2825394365D+01  0.2347269535D+00
      0.6401216923D+00  0.8137573261D+00
 S   1 1.00       0.000000000000
      0.1612777588D+00  0.1000000000D+01
 ****
     71 0
 S   3 1.00       0.000000000000
      0.1873113696D+02  0.3349460434D-01
      0.2825394365D+01  0.2347269535D+00
      0.6401216923D+00  0.8137573261D+00
 S   1 1.00       0.000000000000
      0.1612777588D+00  0.1000000000D+01
 ****
     72 0
 S   3 1.00       0.000000000000
      0.1873113696D+02  0.3349460434D-01
      0.2825394365D+01  0.2347269535D+00
      0.6401216923D+00  0.8137573261D+00
 S   1 1.00       0.000000000000
      0.1612777588D+00  0.1000000000D+01
 ****
     73 0
 S   6 1.00       0.000000000000
      0.3047524880D+04  0.1834737132D-02
      0.4573695180D+03  0.1403732281D-01
      0.1039486850D+03  0.6884262226D-01
      0.2921015530D+02  0.2321844432D+00
      0.9286662960D+01  0.4679413484D+00
      0.3163926960D+01  0.3623119853D+00
 SP   3 1.00       0.000000000000
      0.7868272350D+01 -0.1193324198D+00  0.6899906659D-01
      0.1881288540D+01 -0.1608541517D+00  0.3164239610D+00
      0.5442492580D+00  0.1143456438D+01  0.7443082909D+00
 SP   1 1.00       0.000000000000
      0.1687144782D+00  0.1000000000D+01  0.1000000000D+01
 D   1 1.00       0.000000000000
      0.8000000000D+00  0.1000000000D+01
 ****
     74 0
 S   3 1.00       0.000000000000
      0.1873113696D+02  0.3349460434D-01
      0.2825394365D+01  0.2347269535D+00
      0.6401216923D+00  0.8137573261D+00
 S   1 1.00       0.000000000000
      0.1612777588D+00  0.1000000000D+01
 ****
     75 0
 S   3 1.00       0.000000000000
      0.1873113696D+02  0.3349460434D-01
      0.2825394365D+01  0.2347269535D+00
      0.6401216923D+00  0.8137573261D+00
 S   1 1.00       0.000000000000
      0.1612777588D+00  0.1000000000D+01
 ****
     76 0
 S   3 1.00       0.000000000000
      0.1873113696D+02  0.3349460434D-01
      0.2825394365D+01  0.2347269535D+00
      0.6401216923D+00  0.8137573261D+00
 S   1 1.00       0.000000000000
      0.1612777588D+00  0.1000000000D+01
 ****

 AO basis set (Overlap normalization):
 Atom C1       Shell     1 S   6     bf    1 -     1          1.916597906214         -1.668707581630         -3.187996143097
      0.3047524880D+04  0.1834737132D-02
      0.4573695180D+03  0.1403732281D-01
      0.1039486850D+03  0.6884262226D-01
      0.2921015530D+02  0.2321844432D+00
      0.9286662960D+01  0.4679413484D+00
      0.3163926960D+01  0.3623119853D+00
 Atom C1       Shell     2 SP   3    bf    2 -     5          1.916597906214         -1.668707581630         -3.187996143097
      0.7868272350D+01 -0.1193324198D+00  0.6899906659D-01
      0.1881288540D+01 -0.1608541517D+00  0.3164239610D+00
      0.5442492580D+00  0.1143456438D+01  0.7443082909D+00
 Atom C1       Shell     3 SP   1    bf    6 -     9          1.916597906214         -1.668707581630         -3.187996143097
      0.1687144782D+00  0.1000000000D+01  0.1000000000D+01
 Atom C1       Shell     4 D   1     bf   10 -    15          1.916597906214         -1.668707581630         -3.187996143097
      0.8000000000D+00  0.1000000000D+01
 Atom H2       Shell     5 S   3     bf   16 -    16          2.162609710742          0.165010791437         -4.122757054887
      0.1873113696D+02  0.3349460434D-01
      0.2825394365D+01  0.2347269535D+00
      0.6401216923D+00  0.8137573261D+00
 Atom H2       Shell     6 S   1     bf   17 -    17          2.162609710742          0.165010791437         -4.122757054887
      0.1612777588D+00  0.1000000000D+01
 Atom C3       Shell     7 S   6     bf   18 -    18          4.252074321181         -3.312736662773         -3.715519391394
      0.3047524880D+04  0.1834737132D-02
      0.4573695180D+03  0.1403732281D-01
      0.1039486850D+03  0.6884262226D-01
      0.2921015530D+02  0.2321844432D+00
      0.9286662960D+01  0.4679413484D+00
      0.3163926960D+01  0.3623119853D+00
 Atom C3       Shell     8 SP   3    bf   19 -    22          4.252074321181         -3.312736662773         -3.715519391394
      0.7868272350D+01 -0.1193324198D+00  0.6899906659D-01
      0.1881288540D+01 -0.1608541517D+00  0.3164239610D+00
      0.5442492580D+00  0.1143456438D+01  0.7443082909D+00
 Atom C3       Shell     9 SP   1    bf   23 -    26          4.252074321181         -3.312736662773         -3.715519391394
      0.1687144782D+00  0.1000000000D+01  0.1000000000D+01
 Atom C3       Shell    10 D   1     bf   27 -    32          4.252074321181         -3.312736662773         -3.715519391394
      0.8000000000D+00  0.1000000000D+01
 Atom H4       Shell    11 S   3     bf   33 -    33          4.514292398127         -3.515600955221         -5.756967610373
      0.1873113696D+02  0.3349460434D-01
      0.2825394365D+01  0.2347269535D+00
      0.6401216923D+00  0.8137573261D+00
 Atom H4       Shell    12 S   1     bf   34 -    34          4.514292398127         -3.515600955221         -5.756967610373
      0.1612777588D+00  0.1000000000D+01
 Atom H5       Shell    13 S   3     bf   35 -    35          3.864552491686         -5.218041565617         -2.972667935173
      0.1873113696D+02  0.3349460434D-01
      0.2825394365D+01  0.2347269535D+00
      0.6401216923D+00  0.8137573261D+00
 Atom H5       Shell    14 S   1     bf   36 -    36          3.864552491686         -5.218041565617         -2.972667935173
      0.1612777588D+00  0.1000000000D+01
 Atom C6       Shell    15 S   6     bf   37 -    37          6.629537294978         -2.254946208246         -2.509743198387
      0.3047524880D+04  0.1834737132D-02
      0.4573695180D+03  0.1403732281D-01
      0.1039486850D+03  0.6884262226D-01
      0.2921015530D+02  0.2321844432D+00
      0.9286662960D+01  0.4679413484D+00
      0.3163926960D+01  0.3623119853D+00
 Atom C6       Shell    16 SP   3    bf   38 -    41          6.629537294978         -2.254946208246         -2.509743198387
      0.7868272350D+01 -0.1193324198D+00  0.6899906659D-01
      0.1881288540D+01 -0.1608541517D+00  0.3164239610D+00
      0.5442492580D+00  0.1143456438D+01  0.7443082909D+00
 Atom C6       Shell    17 SP   1    bf   42 -    45          6.629537294978         -2.254946208246         -2.509743198387
      0.1687144782D+00  0.1000000000D+01  0.1000000000D+01
 Atom C6       Shell    18 D   1     bf   46 -    51          6.629537294978         -2.254946208246         -2.509743198387
      0.8000000000D+00  0.1000000000D+01
 Atom C7       Shell    19 S   6     bf   52 -    52          6.489830541173         -1.634832199794          0.318162719911
      0.3047524880D+04  0.1834737132D-02
      0.4573695180D+03  0.1403732281D-01
      0.1039486850D+03  0.6884262226D-01
      0.2921015530D+02  0.2321844432D+00
      0.9286662960D+01  0.4679413484D+00
      0.3163926960D+01  0.3623119853D+00
 Atom C7       Shell    20 SP   3    bf   53 -    56          6.489830541173         -1.634832199794          0.318162719911
      0.7868272350D+01 -0.1193324198D+00  0.6899906659D-01
      0.1881288540D+01 -0.1608541517D+00  0.3164239610D+00
      0.5442492580D+00  0.1143456438D+01  0.7443082909D+00
 Atom C7       Shell    21 SP   1    bf   57 -    60          6.489830541173         -1.634832199794          0.318162719911
      0.1687144782D+00  0.1000000000D+01  0.1000000000D+01
 Atom C7       Shell    22 D   1     bf   61 -    66          6.489830541173         -1.634832199794          0.318162719911
      0.8000000000D+00  0.1000000000D+01
 Atom C8       Shell    23 S   6     bf   67 -    67          4.023489552154         -0.092804903920          0.798498694088
      0.3047524880D+04  0.1834737132D-02
      0.4573695180D+03  0.1403732281D-01
      0.1039486850D+03  0.6884262226D-01
      0.2921015530D+02  0.2321844432D+00
      0.9286662960D+01  0.4679413484D+00
      0.3163926960D+01  0.3623119853D+00
 Atom C8       Shell    24 SP   3    bf   68 -    71          4.023489552154         -0.092804903920          0.798498694088
      0.7868272350D+01 -0.1193324198D+00  0.6899906659D-01
      0.1881288540D+01 -0.1608541517D+00  0.3164239610D+00
      0.5442492580D+00  0.1143456438D+01  0.7443082909D+00
 Atom C8       Shell    25 SP   1    bf   72 -    75          4.023489552154         -0.092804903920          0.798498694088
      0.1687144782D+00  0.1000000000D+01  0.1000000000D+01
 Atom C8       Shell    26 D   1     bf   76 -    81          4.023489552154         -0.092804903920          0.798498694088
      0.8000000000D+00  0.1000000000D+01
 Atom H9       Shell    27 S   3     bf   82 -    82          4.282092753083          1.805844553559          0.000000000000
      0.1873113696D+02  0.3349460434D-01
      0.2825394365D+01  0.2347269535D+00
      0.6401216923D+00  0.8137573261D+00
 Atom H9       Shell    28 S   1     bf   83 -    83          4.282092753083          1.805844553559          0.000000000000
      0.1612777588D+00  0.1000000000D+01
 Atom H10      Shell    29 S   3     bf   84 -    84          3.758779020925          0.158678432550          2.835963086919
      0.1873113696D+02  0.3349460434D-01
      0.2825394365D+01  0.2347269535D+00
      0.6401216923D+00  0.8137573261D+00
 Atom H10      Shell    30 S   1     bf   85 -    85          3.758779020925          0.158678432550          2.835963086919
      0.1612777588D+00  0.1000000000D+01
 Atom C11      Shell    31 S   6     bf   86 -    86          1.617206081646         -1.246421424228         -0.346035632351
      0.3047524880D+04  0.1834737132D-02
      0.4573695180D+03  0.1403732281D-01
      0.1039486850D+03  0.6884262226D-01
      0.2921015530D+02  0.2321844432D+00
      0.9286662960D+01  0.4679413484D+00
      0.3163926960D+01  0.3623119853D+00
 Atom C11      Shell    32 SP   3    bf   87 -    90          1.617206081646         -1.246421424228         -0.346035632351
      0.7868272350D+01 -0.1193324198D+00  0.6899906659D-01
      0.1881288540D+01 -0.1608541517D+00  0.3164239610D+00
      0.5442492580D+00  0.1143456438D+01  0.7443082909D+00
 Atom C11      Shell    33 SP   1    bf   91 -    94          1.617206081646         -1.246421424228         -0.346035632351
      0.1687144782D+00  0.1000000000D+01  0.1000000000D+01
 Atom C11      Shell    34 D   1     bf   95 -   100          1.617206081646         -1.246421424228         -0.346035632351
      0.8000000000D+00  0.1000000000D+01
 Atom H12      Shell    35 S   3     bf  101 -   101          1.174937090841         -3.061214341253          0.566369044499
      0.1873113696D+02  0.3349460434D-01
      0.2825394365D+01  0.2347269535D+00
      0.6401216923D+00  0.8137573261D+00
 Atom H12      Shell    36 S   1     bf  102 -   102          1.174937090841         -3.061214341253          0.566369044499
      0.1612777588D+00  0.1000000000D+01
 Atom H13      Shell    37 S   3     bf  103 -   103          0.000000000000          0.000000000000          0.000000000000
      0.1873113696D+02  0.3349460434D-01
      0.2825394365D+01  0.2347269535D+00
      0.6401216923D+00  0.8137573261D+00
 Atom H13      Shell    38 S   1     bf  104 -   104          0.000000000000          0.000000000000          0.000000000000
      0.1612777588D+00  0.1000000000D+01
 Atom C14      Shell    39 S   6     bf  105 -   105          8.713570038827         -1.913908731441         -3.914094931486
      0.3047524880D+04  0.1834737132D-02
      0.4573695180D+03  0.1403732281D-01
      0.1039486850D+03  0.6884262226D-01
      0.2921015530D+02  0.2321844432D+00
      0.9286662960D+01  0.4679413484D+00
      0.3163926960D+01  0.3623119853D+00
 Atom C14      Shell    40 SP   3    bf  106 -   109          8.713570038827         -1.913908731441         -3.914094931486
      0.7868272350D+01 -0.1193324198D+00  0.6899906659D-01
      0.1881288540D+01 -0.1608541517D+00  0.3164239610D+00
      0.5442492580D+00  0.1143456438D+01  0.7443082909D+00
 Atom C14      Shell    41 SP   1    bf  110 -   113          8.713570038827         -1.913908731441         -3.914094931486
      0.1687144782D+00  0.1000000000D+01  0.1000000000D+01
 Atom C14      Shell    42 D   1     bf  114 -   119          8.713570038827         -1.913908731441         -3.914094931486
      0.8000000000D+00  0.1000000000D+01
 Atom H15      Shell    43 S   3     bf  120 -   120          8.661790031005         -2.396535242663         -5.912861285801
      0.1873113696D+02  0.3349460434D-01
      0.2825394365D+01  0.2347269535D+00
      0.6401216923D+00  0.8137573261D+00
 Atom H15      Shell    44 S   1     bf  121 -   121          8.661790031005         -2.396535242663         -5.912861285801
      0.1612777588D+00  0.1000000000D+01
 Atom C16      Shell    45 S   6     bf  122 -   122         11.171944377107         -0.888027209736         -2.936990567189
      0.3047524880D+04  0.1834737132D-02
      0.4573695180D+03  0.1403732281D-01
      0.1039486850D+03  0.6884262226D-01
      0.2921015530D+02  0.2321844432D+00
      0.9286662960D+01  0.4679413484D+00
      0.3163926960D+01  0.3623119853D+00
 Atom C16      Shell    46 SP   3    bf  123 -   126         11.171944377107         -0.888027209736         -2.936990567189
      0.7868272350D+01 -0.1193324198D+00  0.6899906659D-01
      0.1881288540D+01 -0.1608541517D+00  0.3164239610D+00
      0.5442492580D+00  0.1143456438D+01  0.7443082909D+00
 Atom C16      Shell    47 SP   1    bf  127 -   130         11.171944377107         -0.888027209736         -2.936990567189
      0.1687144782D+00  0.1000000000D+01  0.1000000000D+01
 Atom C16      Shell    48 D   1     bf  131 -   136         11.171944377107         -0.888027209736         -2.936990567189
      0.8000000000D+00  0.1000000000D+01
 Atom H17      Shell    49 S   3     bf  137 -   137         12.759402805708         -1.955386727174         -3.737728416668
      0.1873113696D+02  0.3349460434D-01
      0.2825394365D+01  0.2347269535D+00
      0.6401216923D+00  0.8137573261D+00
 Atom H17      Shell    50 S   1     bf  138 -   138         12.759402805708         -1.955386727174         -3.737728416668
      0.1612777588D+00  0.1000000000D+01
 Atom C18      Shell    51 S   6     bf  139 -   139         11.327665293772         -0.926885270261         -0.032041912850
      0.3047524880D+04  0.1834737132D-02
      0.4573695180D+03  0.1403732281D-01
      0.1039486850D+03  0.6884262226D-01
      0.2921015530D+02  0.2321844432D+00
      0.9286662960D+01  0.4679413484D+00
      0.3163926960D+01  0.3623119853D+00
 Atom C18      Shell    52 SP   3    bf  140 -   143         11.327665293772         -0.926885270261         -0.032041912850
      0.7868272350D+01 -0.1193324198D+00  0.6899906659D-01
      0.1881288540D+01 -0.1608541517D+00  0.3164239610D+00
      0.5442492580D+00  0.1143456438D+01  0.7443082909D+00
 Atom C18      Shell    53 SP   1    bf  144 -   147         11.327665293772         -0.926885270261         -0.032041912850
      0.1687144782D+00  0.1000000000D+01  0.1000000000D+01
 Atom C18      Shell    54 D   1     bf  148 -   153         11.327665293772         -0.926885270261         -0.032041912850
      0.8000000000D+00  0.1000000000D+01
 Atom H19      Shell    55 S   3     bf  154 -   154         11.613740218282         -2.923481311907          0.464020135437
      0.1873113696D+02  0.3349460434D-01
      0.2825394365D+01  0.2347269535D+00
      0.6401216923D+00  0.8137573261D+00
 Atom H19      Shell    56 S   1     bf  155 -   155         11.613740218282         -2.923481311907          0.464020135437
      0.1612777588D+00  0.1000000000D+01
 Atom C20      Shell    57 S   6     bf  156 -   156          8.812543103331          0.014550040846          1.144049101459
      0.3047524880D+04  0.1834737132D-02
      0.4573695180D+03  0.1403732281D-01
      0.1039486850D+03  0.6884262226D-01
      0.2921015530D+02  0.2321844432D+00
      0.9286662960D+01  0.4679413484D+00
      0.3163926960D+01  0.3623119853D+00
 Atom C20      Shell    58 SP   3    bf  157 -   160          8.812543103331          0.014550040846          1.144049101459
      0.7868272350D+01 -0.1193324198D+00  0.6899906659D-01
      0.1881288540D+01 -0.1608541517D+00  0.3164239610D+00
      0.5442492580D+00  0.1143456438D+01  0.7443082909D+00
 Atom C20      Shell    59 SP   1    bf  161 -   164          8.812543103331          0.014550040846          1.144049101459
      0.1687144782D+00  0.1000000000D+01  0.1000000000D+01
 Atom C20      Shell    60 D   1     bf  165 -   170          8.812543103331          0.014550040846          1.144049101459
      0.8000000000D+00  0.1000000000D+01
 Atom H21      Shell    61 S   3     bf  171 -   171          8.489004282648          1.904278611479          0.341240754645
      0.1873113696D+02  0.3349460434D-01
      0.2825394365D+01  0.2347269535D+00
      0.6401216923D+00  0.8137573261D+00
 Atom H21      Shell    62 S   1     bf  172 -   172          8.489004282648          1.904278611479          0.341240754645
      0.1612777588D+00  0.1000000000D+01
 Atom C22      Shell    63 S   6     bf  173 -   173          9.021756913380          0.346159201542          4.041381743742
      0.3047524880D+04  0.1834737132D-02
      0.4573695180D+03  0.1403732281D-01
      0.1039486850D+03  0.6884262226D-01
      0.2921015530D+02  0.2321844432D+00
      0.9286662960D+01  0.4679413484D+00
      0.3163926960D+01  0.3623119853D+00
 Atom C22      Shell    64 SP   3    bf  174 -   177          9.021756913380          0.346159201542          4.041381743742
      0.7868272350D+01 -0.1193324198D+00  0.6899906659D-01
      0.1881288540D+01 -0.1608541517D+00  0.3164239610D+00
      0.5442492580D+00  0.1143456438D+01  0.7443082909D+00
 Atom C22      Shell    65 SP   1    bf  178 -   181          9.021756913380          0.346159201542          4.041381743742
      0.1687144782D+00  0.1000000000D+01  0.1000000000D+01
 Atom C22      Shell    66 D   1     bf  182 -   187          9.021756913380          0.346159201542          4.041381743742
      0.8000000000D+00  0.1000000000D+01
 Atom H23      Shell    67 S   3     bf  188 -   188          9.041372346228         -1.505239751580          4.964347986565
      0.1873113696D+02  0.3349460434D-01
      0.2825394365D+01  0.2347269535D+00
      0.6401216923D+00  0.8137573261D+00
 Atom H23      Shell    68 S   1     bf  189 -   189          9.041372346228         -1.505239751580          4.964347986565
      0.1612777588D+00  0.1000000000D+01
 Atom H24      Shell    69 S   3     bf  190 -   190          7.332357548691          1.314232300089          4.748073460486
      0.1873113696D+02  0.3349460434D-01
      0.2825394365D+01  0.2347269535D+00
      0.6401216923D+00  0.8137573261D+00
 Atom H24      Shell    70 S   1     bf  191 -   191          7.332357548691          1.314232300089          4.748073460486
      0.1612777588D+00  0.1000000000D+01
 Atom C25      Shell    71 S   6     bf  192 -   192         11.372588033478          1.828403197065          4.920151147358
      0.3047524880D+04  0.1834737132D-02
      0.4573695180D+03  0.1403732281D-01
      0.1039486850D+03  0.6884262226D-01
      0.2921015530D+02  0.2321844432D+00
      0.9286662960D+01  0.4679413484D+00
      0.3163926960D+01  0.3623119853D+00
 Atom C25      Shell    72 SP   3    bf  193 -   196         11.372588033478          1.828403197065          4.920151147358
      0.7868272350D+01 -0.1193324198D+00  0.6899906659D-01
      0.1881288540D+01 -0.1608541517D+00  0.3164239610D+00
      0.5442492580D+00  0.1143456438D+01  0.7443082909D+00
 Atom C25      Shell    73 SP   1    bf  197 -   200         11.372588033478          1.828403197065          4.920151147358
      0.1687144782D+00  0.1000000000D+01  0.1000000000D+01
 Atom C25      Shell    74 D   1     bf  201 -   206         11.372588033478          1.828403197065          4.920151147358
      0.8000000000D+00  0.1000000000D+01
 Atom H26      Shell    75 S   3     bf  207 -   207         11.246641509482          3.792896608960          4.256380647990
      0.1873113696D+02  0.3349460434D-01
      0.2825394365D+01  0.2347269535D+00
      0.6401216923D+00  0.8137573261D+00
 Atom H26      Shell    76 S   1     bf  208 -   208         11.246641509482          3.792896608960          4.256380647990
      0.1612777588D+00  0.1000000000D+01
 Atom H27      Shell    77 S   3     bf  209 -   209         11.356281718958          1.903597988818          6.986944411026
      0.1873113696D+02  0.3349460434D-01
      0.2825394365D+01  0.2347269535D+00
      0.6401216923D+00  0.8137573261D+00
 Atom H27      Shell    78 S   1     bf  210 -   210         11.356281718958          1.903597988818          6.986944411026
      0.1612777588D+00  0.1000000000D+01
 Atom C28      Shell    79 S   6     bf  211 -   211         13.836992223286          0.656793781664          3.892630949637
      0.3047524880D+04  0.1834737132D-02
      0.4573695180D+03  0.1403732281D-01
      0.1039486850D+03  0.6884262226D-01
      0.2921015530D+02  0.2321844432D+00
      0.9286662960D+01  0.4679413484D+00
      0.3163926960D+01  0.3623119853D+00
 Atom C28      Shell    80 SP   3    bf  212 -   215         13.836992223286          0.656793781664          3.892630949637
      0.7868272350D+01 -0.1193324198D+00  0.6899906659D-01
      0.1881288540D+01 -0.1608541517D+00  0.3164239610D+00
      0.5442492580D+00  0.1143456438D+01  0.7443082909D+00
 Atom C28      Shell    81 SP   1    bf  216 -   219         13.836992223286          0.656793781664          3.892630949637
      0.1687144782D+00  0.1000000000D+01  0.1000000000D+01
 Atom C28      Shell    82 D   1     bf  220 -   225         13.836992223286          0.656793781664          3.892630949637
      0.8000000000D+00  0.1000000000D+01
 Atom C29      Shell    83 S   6     bf  226 -   226         13.570677560235          0.622068363218          0.967179825004
      0.3047524880D+04  0.1834737132D-02
      0.4573695180D+03  0.1403732281D-01
      0.1039486850D+03  0.6884262226D-01
      0.2921015530D+02  0.2321844432D+00
      0.9286662960D+01  0.4679413484D+00
      0.3163926960D+01  0.3623119853D+00
 Atom C29      Shell    84 SP   3    bf  227 -   230         13.570677560235          0.622068363218          0.967179825004
      0.7868272350D+01 -0.1193324198D+00  0.6899906659D-01
      0.1881288540D+01 -0.1608541517D+00  0.3164239610D+00
      0.5442492580D+00  0.1143456438D+01  0.7443082909D+00
 Atom C29      Shell    85 SP   1    bf  231 -   234         13.570677560235          0.622068363218          0.967179825004
      0.1687144782D+00  0.1000000000D+01  0.1000000000D+01
 Atom C29      Shell    86 D   1     bf  235 -   240         13.570677560235          0.622068363218          0.967179825004
      0.8000000000D+00  0.1000000000D+01
 Atom H30      Shell    87 S   3     bf  241 -   241         13.201696457439          2.593425827346          0.430188840911
      0.1873113696D+02  0.3349460434D-01
      0.2825394365D+01  0.2347269535D+00
      0.6401216923D+00  0.8137573261D+00
 Atom H30      Shell    88 S   1     bf  242 -   242         13.201696457439          2.593425827346          0.430188840911
      0.1612777588D+00  0.1000000000D+01
 Atom C31      Shell    89 S   6     bf  243 -   243         16.231875524055          0.000000000000          0.000000000000
      0.3047524880D+04  0.1834737132D-02
      0.4573695180D+03  0.1403732281D-01
      0.1039486850D+03  0.6884262226D-01
      0.2921015530D+02  0.2321844432D+00
      0.9286662960D+01  0.4679413484D+00
      0.3163926960D+01  0.3623119853D+00
 Atom C31      Shell    90 SP   3    bf  244 -   247         16.231875524055          0.000000000000          0.000000000000
      0.7868272350D+01 -0.1193324198D+00  0.6899906659D-01
      0.1881288540D+01 -0.1608541517D+00  0.3164239610D+00
      0.5442492580D+00  0.1143456438D+01  0.7443082909D+00
 Atom C31      Shell    91 SP   1    bf  248 -   251         16.231875524055          0.000000000000          0.000000000000
      0.1687144782D+00  0.1000000000D+01  0.1000000000D+01
 Atom C31      Shell    92 D   1     bf  252 -   257         16.231875524055          0.000000000000          0.000000000000
      0.8000000000D+00  0.1000000000D+01
 Atom H32      Shell    93 S   3     bf  258 -   258         16.525391453084          0.658468740421         -1.936627264675
      0.1873113696D+02  0.3349460434D-01
      0.2825394365D+01  0.2347269535D+00
      0.6401216923D+00  0.8137573261D+00
 Atom H32      Shell    94 S   1     bf  259 -   259         16.525391453084          0.658468740421         -1.936627264675
      0.1612777588D+00  0.1000000000D+01
 Atom H33      Shell    95 S   3     bf  260 -   260         16.561934636891         -2.047663490435          0.004426324418
      0.1873113696D+02  0.3349460434D-01
      0.2825394365D+01  0.2347269535D+00
      0.6401216923D+00  0.8137573261D+00
 Atom H33      Shell    96 S   1     bf  261 -   261         16.561934636891         -2.047663490435          0.004426324418
      0.1612777588D+00  0.1000000000D+01
 Atom C34      Shell    97 S   6     bf  262 -   262         17.990742430814          1.354253864994          1.920230054328
      0.3047524880D+04  0.1834737132D-02
      0.4573695180D+03  0.1403732281D-01
      0.1039486850D+03  0.6884262226D-01
      0.2921015530D+02  0.2321844432D+00
      0.9286662960D+01  0.4679413484D+00
      0.3163926960D+01  0.3623119853D+00
 Atom C34      Shell    98 SP   3    bf  263 -   266         17.990742430814          1.354253864994          1.920230054328
      0.7868272350D+01 -0.1193324198D+00  0.6899906659D-01
      0.1881288540D+01 -0.1608541517D+00  0.3164239610D+00
      0.5442492580D+00  0.1143456438D+01  0.7443082909D+00
 Atom C34      Shell    99 SP   1    bf  267 -   270         17.990742430814          1.354253864994          1.920230054328
      0.1687144782D+00  0.1000000000D+01  0.1000000000D+01
 Atom C34      Shell   100 D   1     bf  271 -   276         17.990742430814          1.354253864994          1.920230054328
      0.8000000000D+00  0.1000000000D+01
 Atom H35      Shell   101 S   3     bf  277 -   277         19.453604601433          0.064656507205          2.621894343668
      0.1873113696D+02  0.3349460434D-01
      0.2825394365D+01  0.2347269535D+00
      0.6401216923D+00  0.8137573261D+00
 Atom H35      Shell   102 S   1     bf  278 -   278         19.453604601433          0.064656507205          2.621894343668
      0.1612777588D+00  0.1000000000D+01
 Atom H36      Shell   103 S   3     bf  279 -   279         18.983774824254          2.933330696792          1.029810942637
      0.1873113696D+02  0.3349460434D-01
      0.2825394365D+01  0.2347269535D+00
      0.6401216923D+00  0.8137573261D+00
 Atom H36      Shell   104 S   1     bf  280 -   280         18.983774824254          2.933330696792          1.029810942637
      0.1612777588D+00  0.1000000000D+01
 Atom C37      Shell   105 S   6     bf  281 -   281         16.291812156785          2.299337670347          4.156044883074
      0.3047524880D+04  0.1834737132D-02
      0.4573695180D+03  0.1403732281D-01
      0.1039486850D+03  0.6884262226D-01
      0.2921015530D+02  0.2321844432D+00
      0.9286662960D+01  0.4679413484D+00
      0.3163926960D+01  0.3623119853D+00
 Atom C37      Shell   106 SP   3    bf  282 -   285         16.291812156785          2.299337670347          4.156044883074
      0.7868272350D+01 -0.1193324198D+00  0.6899906659D-01
      0.1881288540D+01 -0.1608541517D+00  0.3164239610D+00
      0.5442492580D+00  0.1143456438D+01  0.7443082909D+00
[...]
 **** Fit      -0.004554
 **** Fit      -0.002954
 **** Fit      -0.000183
 **** Fit       0.004761
 **** Fit       0.003977
 **** Fit       0.002995
 **** Fit       0.002193
 **** Fit       0.001630
 **** Fit       0.001249
 **** Fit       0.000987
 **** Fit      -0.001099
 **** Fit      -0.001212
 **** Fit      -0.001416
 **** Fit      -0.001754
 **** Fit      -0.002269
 **** Fit      -0.002974
 **** Fit      -0.003802
 **** Fit      -0.004571
 **** Fit      -0.004983
 **** Fit      -0.004682
 **** Fit      -0.003377
 **** Fit      -0.001134
 **** Fit       0.001316
 **** Fit       0.002941
 **** Fit       0.003333
 **** Fit       0.002907
 **** Fit       0.002247
 **** Fit       0.001671
 **** Fit       0.001252
 **** Fit       0.000963
 **** Fit       0.000762
 **** Fit      -0.001491
 **** Fit      -0.001748
 **** Fit      -0.002127
 **** Fit      -0.002649
 **** Fit      -0.003301
 **** Fit      -0.004007
 **** Fit      -0.004620
 **** Fit      -0.004940
 **** Fit      -0.004752
 **** Fit      -0.003876
 **** Fit      -0.002343
 **** Fit      -0.000576
 **** Fit       0.000787
 **** Fit       0.001413
 **** Fit       0.001453
 **** Fit       0.001233
 **** Fit       0.000974
 **** Fit       0.000759
 **** Fit       0.000600
 **** Fit      -0.001701
 **** Fit      -0.001979
 **** Fit      -0.002359
 **** Fit      -0.002845
 **** Fit      -0.003412
 **** Fit      -0.003990
 **** Fit      -0.004475
 **** Fit      -0.004742
 **** Fit      -0.004669
 **** Fit      -0.004156
 **** Fit      -0.003207
 **** Fit      -0.002025
 **** Fit      -0.000951
 **** Fit      -0.000228
 **** Fit       0.000134
 **** Fit       0.000261
 **** Fit       0.000276
 **** Fit       0.000252
 **** Fit       0.000220
 **** Fit      -0.002097
 **** Fit      -0.002445
 **** Fit      -0.002866
 **** Fit      -0.003331
 **** Fit      -0.003789
 **** Fit      -0.004167
 **** Fit      -0.004390
 **** Fit      -0.004390
 **** Fit      -0.004108
 **** Fit      -0.003535
 **** Fit      -0.002759
 **** Fit      -0.001951
 **** Fit      -0.001273
 **** Fit      -0.000790
 **** Fit      -0.000483
 **** Fit      -0.000298
 **** Fit      -0.000189
 **** Fit      -0.000124
 **** Fit      -0.002752
 **** Fit      -0.003115
 **** Fit      -0.003463
 **** Fit      -0.003748
 **** Fit      -0.003925
 **** Fit      -0.003952
 **** Fit      -0.003794
 **** Fit      -0.003439
 **** Fit      -0.002925
 **** Fit      -0.002338
 **** Fit      -0.001778
 **** Fit      -0.001311
 **** Fit      -0.000956
 **** Fit      -0.000702
 **** Fit      -0.000523
 **** Fit      -0.003075
 **** Fit      -0.003279
 **** Fit      -0.003407
 **** Fit      -0.003434
 **** Fit      -0.003338
 **** Fit      -0.003111
 **** Fit      -0.002767
 **** Fit      -0.002351
 **** Fit      -0.001923
 **** Fit      -0.001531
 **** Fit      -0.001203
 **** Fit      -0.000943
 **** Fit      -0.002817
 **** Fit      -0.002900
 **** Fit      -0.002916
 **** Fit      -0.002852
 **** Fit      -0.002701
 **** Fit      -0.002470
 **** Fit      -0.002181
 **** Fit      -0.001868
 **** Fit      -0.001564
 **** Fit      -0.002448
 **** Fit      -0.002452
 **** Fit      -0.002404
 **** Fit      -0.002301
 **** Fit      -0.000727
 **** Fit      -0.000941
 **** Fit      -0.001144
 **** Fit      -0.001287
 **** Fit      -0.001325
 **** Fit      -0.001235
 **** Fit      -0.001026
 **** Fit      -0.000735
 **** Fit      -0.000416
 **** Fit      -0.000119
 **** Fit       0.000123
 **** Fit      -0.000444
 **** Fit      -0.000616
 **** Fit      -0.000861
 **** Fit      -0.001153
 **** Fit      -0.001436
 **** Fit      -0.001636
 **** Fit      -0.001685
 **** Fit      -0.001548
 **** Fit      -0.001240
 **** Fit      -0.000823
 **** Fit      -0.000383
 **** Fit       0.000003
 **** Fit       0.000293
 **** Fit       0.000481
 **** Fit       0.000583
 **** Fit      -0.000380
 **** Fit      -0.000494
 **** Fit      -0.000705
 **** Fit      -0.001016
 **** Fit      -0.001397
 **** Fit      -0.001773
 **** Fit      -0.002038
 **** Fit      -0.002089
 **** Fit      -0.001874
 **** Fit      -0.001419
 **** Fit      -0.000827
 **** Fit      -0.000235
 **** Fit       0.000246
 **** Fit       0.000568
 **** Fit       0.000742
 **** Fit       0.000806
 **** Fit       0.000803
 **** Fit      -0.000441
 **** Fit      -0.000574
 **** Fit      -0.000824
 **** Fit      -0.001202
 **** Fit      -0.001675
 **** Fit      -0.002146
 **** Fit      -0.002471
 **** Fit      -0.002506
 **** Fit      -0.002173
 **** Fit      -0.001514
 **** Fit      -0.000693
 **** Fit       0.000076
 **** Fit       0.000640
 **** Fit       0.000957
 **** Fit       0.001075
 **** Fit       0.001067
 **** Fit       0.000997
 **** Fit      -0.000491
 **** Fit      -0.000549
 **** Fit      -0.000705
 **** Fit      -0.000995
 **** Fit      -0.001434
 **** Fit      -0.001986
 **** Fit      -0.002537
 **** Fit      -0.002903
 **** Fit      -0.002893
 **** Fit      -0.002400
 **** Fit      -0.001487
 **** Fit      -0.000399
 **** Fit       0.000551
 **** Fit       0.001162
 **** Fit       0.001421
 **** Fit       0.001435
 **** Fit       0.001324
 **** Fit       0.001170
 **** Fit       0.001015
 **** Fit      -0.000635
 **** Fit      -0.000717
 **** Fit      -0.000903
 **** Fit      -0.001231
 **** Fit      -0.001718
 **** Fit      -0.002325
 **** Fit      -0.002919
 **** Fit      -0.003290
 **** Fit      -0.003210
 **** Fit      -0.002544
 **** Fit      -0.001375
 **** Fit      -0.000033
 **** Fit       0.001065
 **** Fit       0.001678
 **** Fit       0.001841
 **** Fit       0.001729
 **** Fit       0.001509
 **** Fit       0.001277
 **** Fit       0.001071
 **** Fit      -0.000824
 **** Fit      -0.000941
 **** Fit      -0.001164
 **** Fit      -0.001528
 **** Fit      -0.002046
 **** Fit      -0.002668
 **** Fit      -0.003258
 **** Fit      -0.003597
 **** Fit      -0.003445
 **** Fit      -0.002657
 **** Fit      -0.001322
 **** Fit       0.000177
 **** Fit       0.001354
 **** Fit       0.001948
 **** Fit       0.002031
 **** Fit       0.001833
 **** Fit       0.001546
 **** Fit       0.001271
 **** Fit       0.001041
 **** Fit      -0.001043
 **** Fit      -0.001200
 **** Fit      -0.001461
 **** Fit      -0.001853
 **** Fit      -0.002375
 **** Fit      -0.002974
 **** Fit      -0.003516
 **** Fit      -0.003801
 **** Fit      -0.003611
 **** Fit      -0.002811
 **** Fit      -0.001483
 **** Fit       0.000003
 **** Fit       0.001169
 **** Fit       0.001759
 **** Fit       0.001845
 **** Fit       0.001658
 **** Fit       0.001386
 **** Fit       0.001128
 **** Fit       0.000914
 **** Fit      -0.001265
 **** Fit      -0.001458
 **** Fit      -0.001748
 **** Fit      -0.002149
 **** Fit      -0.002650
 **** Fit      -0.003193
 **** Fit      -0.003662
 **** Fit      -0.003892
 **** Fit      -0.003714
 **** Fit      -0.003019
 **** Fit      -0.001872
 **** Fit      -0.000565
 **** Fit       0.000508
 **** Fit       0.001116
 **** Fit       0.001293
 **** Fit       0.001216
 **** Fit       0.001041
 **** Fit       0.000857
 **** Fit       0.000699
 **** Fit      -0.001678
 **** Fit      -0.001978
 **** Fit      -0.002367
 **** Fit      -0.002824
 **** Fit      -0.003294
 **** Fit      -0.003683
 **** Fit      -0.003871
 **** Fit      -0.003738
 **** Fit      -0.003211
 **** Fit      -0.002328
 **** Fit      -0.001286
 **** Fit      -0.000363
 **** Fit       0.000253
 **** Fit       0.000548
 **** Fit       0.000622
 **** Fit       0.000584
 **** Fit       0.000507
 **** Fit       0.000426
 **** Fit      -0.002125
 **** Fit      -0.002481
 **** Fit      -0.002879
 **** Fit      -0.003270
 **** Fit      -0.003585
 **** Fit      -0.003741
 **** Fit      -0.003660
 **** Fit      -0.003295
 **** Fit      -0.002665
 **** Fit      -0.001887
 **** Fit      -0.001135
 **** Fit      -0.000549
 **** Fit      -0.000175
 **** Fit       0.000025
 **** Fit       0.000112
 **** Fit       0.000138
 **** Fit      -0.002490
 **** Fit      -0.002821
 **** Fit      -0.003137
 **** Fit      -0.003386
 **** Fit      -0.003515
 **** Fit      -0.003474
 **** Fit      -0.003232
 **** Fit      -0.002797
 **** Fit      -0.002233
 **** Fit      -0.001645
 **** Fit      -0.001128
 **** Fit      -0.000736
 **** Fit      -0.000468
 **** Fit      -0.000298
 **** Fit      -0.000195
 **** Fit      -0.003217
 **** Fit      -0.003197
 **** Fit      -0.003036
 **** Fit      -0.002737
 **** Fit      -0.002334
 **** Fit      -0.001886
 **** Fit      -0.001459
 **** Fit      -0.001096
 **** Fit      -0.000814
 **** Fit      -0.000608
 **** Fit      -0.002867
 **** Fit      -0.002757
 **** Fit      -0.002549
 **** Fit      -0.002261
 **** Fit      -0.001927
 **** Fit      -0.001589
 **** Fit      -0.001281
 **** Fit      -0.001020
 **** Fit      -0.002091
 **** Fit      -0.001221
 **** Fit      -0.000987
 **** Fit      -0.000682
 **** Fit      -0.000360
 **** Fit      -0.000067
 **** Fit       0.000164
 **** Fit      -0.000824
 **** Fit      -0.001040
 **** Fit      -0.001280
 **** Fit      -0.001496
 **** Fit      -0.001627
 **** Fit      -0.001617
 **** Fit      -0.001442
 **** Fit      -0.001121
 **** Fit      -0.000712
 **** Fit      -0.000296
 **** Fit       0.000061
 **** Fit       0.000322
 **** Fit       0.000485
 **** Fit      -0.000764
 **** Fit      -0.000960
 **** Fit      -0.001219
 **** Fit      -0.001511
 **** Fit      -0.001773
 **** Fit      -0.001926
 **** Fit      -0.001897
 **** Fit      -0.001653
 **** Fit      -0.001222
 **** Fit      -0.000690
 **** Fit      -0.000170
 **** Fit       0.000248
 **** Fit       0.000527
 **** Fit       0.000674
 **** Fit       0.000724
 **** Fit      -0.000898
 **** Fit      -0.001125
 **** Fit      -0.001424
 **** Fit      -0.001760
 **** Fit      -0.002059
 **** Fit      -0.002225
 **** Fit      -0.002165
 **** Fit      -0.001840
 **** Fit      -0.001286
 **** Fit      -0.000624
 **** Fit      -0.000002
 **** Fit       0.000466
 **** Fit       0.000744
 **** Fit       0.000860
 **** Fit       0.000867
 **** Fit       0.000815
 **** Fit      -0.001067
 **** Fit      -0.001322
 **** Fit      -0.001652
 **** Fit      -0.002017
 **** Fit      -0.002337
 **** Fit      -0.002500
 **** Fit      -0.002403
 **** Fit      -0.001999
 **** Fit      -0.001334
 **** Fit      -0.000557
 **** Fit       0.000147
 **** Fit       0.000646
 **** Fit       0.000911
 **** Fit       0.000990
 **** Fit       0.000955
 **** Fit       0.000868
 **** Fit      -0.001069
 **** Fit      -0.001263
 **** Fit      -0.001540
 **** Fit      -0.001888
 **** Fit      -0.002263
 **** Fit      -0.002581
 **** Fit      -0.002730
 **** Fit      -0.002600
 **** Fit      -0.002143
 **** Fit      -0.001410
 **** Fit      -0.000567
 **** Fit       0.000182
 **** Fit       0.000695
 **** Fit       0.000948
 **** Fit       0.001005
 **** Fit       0.000948
 **** Fit       0.000844
 **** Fit      -0.001469
 **** Fit      -0.001758
 **** Fit      -0.002108
 **** Fit      -0.002473
 **** Fit      -0.002771
 **** Fit      -0.002897
 **** Fit      -0.002752
 **** Fit      -0.002288
 **** Fit      -0.001557
 **** Fit      -0.000717
 **** Fit       0.000029
 **** Fit       0.000544
 **** Fit       0.000803
 **** Fit       0.000869
 **** Fit       0.000823
 **** Fit       0.000730
 **** Fit      -0.001660
 **** Fit      -0.001950
 **** Fit      -0.002286
 **** Fit      -0.002622
 **** Fit      -0.002887
 **** Fit      -0.002991
 **** Fit      -0.002852
 **** Fit      -0.002431
 **** Fit      -0.001769
 **** Fit      -0.001002
 **** Fit      -0.000303
 **** Fit       0.000202
 **** Fit       0.000485
 **** Fit       0.000590
 **** Fit       0.000588
 **** Fit       0.000535
 **** Fit      -0.002090
 **** Fit      -0.002398
 **** Fit      -0.002696
 **** Fit      -0.002923
 **** Fit      -0.003009
 **** Fit      -0.002893
 **** Fit      -0.002544
 **** Fit      -0.001994
 **** Fit      -0.001343
 **** Fit      -0.000724
 **** Fit      -0.000242
 **** Fit       0.000066
 **** Fit       0.000225
 **** Fit       0.000283
 **** Fit       0.000286
 **** Fit      -0.002436
 **** Fit      -0.002690
 **** Fit      -0.002879
 **** Fit      -0.002952
 **** Fit      -0.002864
 **** Fit      -0.002595
 **** Fit      -0.002165
 **** Fit      -0.001641
 **** Fit      -0.001118
 **** Fit      -0.000677
 **** Fit      -0.000357
 **** Fit      -0.000153
 **** Fit      -0.000038
 **** Fit      -0.002826
 **** Fit      -0.002764
 **** Fit      -0.002565
 **** Fit      -0.002240
 **** Fit      -0.001833
 **** Fit      -0.001407
 **** Fit      -0.001020
 **** Fit      -0.000709
 **** Fit      -0.000483
 **** Fit      -0.000328
 **** Fit      -0.002603
 **** Fit      -0.002457
 **** Fit      -0.002215
 **** Fit      -0.001905
 **** Fit      -0.001567
 **** Fit      -0.001241
 **** Fit      -0.000958
 **** Fit      -0.001878
 **** Fit      -0.001614
 **** Fit      -0.001150
 **** Fit      -0.000919
 **** Fit      -0.000631
 **** Fit      -0.000334
 **** Fit      -0.000069
 **** Fit      -0.001486
 **** Fit      -0.001304
 **** Fit      -0.001010
 **** Fit      -0.000653
 **** Fit      -0.000295
 **** Fit       0.000013
 **** Fit       0.000240
 **** Fit       0.000384
 **** Fit      -0.001527
 **** Fit      -0.001685
 **** Fit      -0.001749
 **** Fit      -0.001676
 **** Fit      -0.001448
 **** Fit      -0.001090
 **** Fit      -0.000664
 **** Fit      -0.000248
 **** Fit       0.000095
 **** Fit       0.000335
 **** Fit       0.000473
 **** Fit      -0.001504
 **** Fit      -0.001719
 **** Fit      -0.001886
 **** Fit      -0.001947
 **** Fit      -0.001852
 **** Fit      -0.001583
 **** Fit      -0.001170
 **** Fit      -0.000687
 **** Fit      -0.000225
 **** Fit       0.000145
 **** Fit       0.000391
 **** Fit       0.000521
 **** Fit       0.000564
 **** Fit      -0.001679
 **** Fit      -0.001900
 **** Fit      -0.002066
 **** Fit      -0.002118
 **** Fit      -0.002006
 **** Fit      -0.001711
 **** Fit      -0.001266
 **** Fit      -0.000750
 **** Fit      -0.000261
 **** Fit       0.000123
 **** Fit       0.000372
 **** Fit       0.000499
 **** Fit       0.000537
 **** Fit      -0.001837
 **** Fit      -0.002053
 **** Fit      -0.002211
 **** Fit      -0.002253
 **** Fit      -0.002133
 **** Fit      -0.001834
 **** Fit      -0.001388
 **** Fit      -0.000872
 **** Fit      -0.000383
 **** Fit       0.000004
 **** Fit       0.000258
 **** Fit       0.000392
 **** Fit       0.000437
 **** Fit      -0.002343
 **** Fit      -0.002226
 **** Fit      -0.001946
 **** Fit      -0.001531
 **** Fit      -0.001047
 **** Fit      -0.000581
 **** Fit      -0.000203
 **** Fit       0.000057
 **** Fit       0.000206
 **** Fit       0.000272
 **** Fit      -0.002381
 **** Fit      -0.002278
 **** Fit      -0.002034
 **** Fit      -0.001670
 **** Fit      -0.001242
 **** Fit      -0.000820
 **** Fit      -0.000462
 **** Fit      -0.000199
 **** Fit      -0.000030
 **** Fit      -0.002283
 **** Fit      -0.002081
 **** Fit      -0.001779
 **** Fit      -0.001417
 **** Fit      -0.001048
 **** Fit      -0.000720
 **** Fit      -0.000462
 **** Fit      -0.000278
 **** Fit      -0.002077
 **** Fit      -0.001835
 **** Fit      -0.001538
 **** Fit      -0.001226
 **** Fit      -0.000936
 **** Fit      -0.000691
 **** Fit      -0.000940
 **** Fit      -0.000653
 **** Fit      -0.000365
 **** Fit      -0.000113
 **** Fit      -0.001293
 **** Fit      -0.001020
 **** Fit      -0.000702
 **** Fit      -0.000387
 **** Fit      -0.000116
 **** Fit       0.000087
 **** Fit      -0.001603
 **** Fit      -0.001400
 **** Fit      -0.001109
 **** Fit      -0.000773
 **** Fit      -0.000442
 **** Fit      -0.000161
 **** Fit       0.000049
 **** Fit      -0.001707
 **** Fit      -0.001502
 **** Fit      -0.001209
 **** Fit      -0.000872
 **** Fit      -0.000539
 **** Fit      -0.000255
 **** Fit      -0.000042
 **** Fit      -0.001593
 **** Fit      -0.001315
 **** Fit      -0.000993
 **** Fit      -0.000673
 **** Fit      -0.000394
 **** Fit      -0.000180
 **** Fit      -0.001665
 **** Fit      -0.001414
 **** Fit      -0.001121
 **** Fit      -0.000824
 **** Fit      -0.000559
 -----------------------------------------------------------------
 Leave Link  602 at Fri Apr 28 13:11:31 2017, MaxMem=    33554432 cpu:        41.0
 (Enter /home/michal/g09/l9999.exe)

 Test job not archived.
 1\1\GINC-LINUX\SP\RHF\6-31G(d)\C27H46O3\MICHAL\28-Apr-2017\0\\#P HF/6-
 31G* SCF(Conver=6) NoSymm Test Pop=chelpg IOp(6/33=2) GFInput GFPrint\
 \MEP - Input generated by R.E.D.-III.x MOLECULE\\0,1\C,0,1.01421993,-0
 .88304202,-1.6870149\H,0,1.14440377,0.08731995,-2.18166907\C,0,2.25010
 082,-1.75302474,-1.96616818\H,0,2.38886065,-1.8603759,-3.04645605\H,0,
 2.0450331,-2.76126867,-1.57306812\C,0,3.50820004,-1.19326614,-1.328098
 9\C,0,3.43427041,-0.86511594,0.16836446\C,0,2.12913897,-0.04911024,0.4
 2254731\H,0,2.26598589,0.95561178,0.\H,0,1.98906019,0.08396901,1.50072
 703\C,0,0.8557886,-0.65957781,-0.18311417\H,0,0.62174993,-1.61992486,0
 .29970959\H,0,0.,0.,0.\C,0,4.61102267,-1.01279688,-2.07124983\H,0,4.58
 362187,-1.26819183,-3.12895143\C,0,5.91193834,-0.46992376,-1.55418847\
 H,0,6.75198516,-1.03474609,-1.97792069\C,0,5.9943423,-0.49048656,-0.01
 695585\H,0,6.14572663,-1.54703968,0.24554888\C,0,4.66339696,0.00769955
 ,0.60540471\H,0,4.49218759,1.00770084,0.18057683\C,0,4.77410814,0.1831
 7956,2.13860711\H,0,4.78448818,-0.79653857,2.62701981\H,0,3.8801165,0.
 69546178,2.51257226\C,0,6.01811439,0.9675493,2.60363185\H,0,5.95146636
 ,2.00711444,2.25237963\H,0,6.00948546,1.00734067,3.69733174\C,0,7.3222
 2092,0.3475603,2.05989158\C,0,7.18129327,0.3291844,0.51180952\H,0,6.98
 603688,1.37238184,0.22764613\C,0,8.58953858,0.,0.\H,0,8.74486052,0.348
 44665,-1.02481901\H,0,8.76419834,-1.08357685,0.00234231\C,0,9.52029086
 ,0.71664028,1.01614198\H,0,10.29440418,0.03421475,1.38744673\H,0,10.04
 578097,1.55225175,0.54495248\C,0,8.62125568,1.21675709,2.19928423\H,0,
 8.31814093,2.2527292,1.97962869\C,0,7.55441073,-1.06022656,2.65493606\
 H,0,6.76116113,-1.76333589,2.38791749\H,0,8.49864606,-1.49613593,2.314
 86921\H,0,7.5912698,-1.01805747,3.74853218\C,0,9.38134479,1.25140207,3
 .55095794\H,0,9.75215693,0.23488027,3.75375411\C,0,8.49621672,1.679556
 13,4.73500759\H,0,8.02721801,2.65249493,4.54120471\H,0,9.08156245,1.77
 187957,5.65465387\H,0,7.69954771,0.96013571,4.93707456\C,0,3.37421844,
 -2.20313457,0.95539996\H,0,3.1215468,-2.03559256,2.00657625\H,0,2.6184
 4591,-2.87851438,0.54745458\H,0,4.33228485,-2.73056222,0.91349023\O,0,
 6.09895644,0.91320719,-1.96309165\O,0,6.27931574,0.92541815,-3.4070785
 5\H,0,5.43852234,1.31839374,-3.69441666\O,0,-0.16328623,-1.42634454,-2
 .28937881\H,0,-0.35587189,-2.28092556,-1.87857039\C,0,10.6204318,2.175
 38955,3.44423221\H,0,11.16441298,1.94769984,2.52072779\H,0,10.27612374
 ,3.2163536,3.34446531\C,0,11.61899646,2.08029289,4.6093054\H,0,11.1332
 2704,2.36817572,5.54809501\H,0,11.92993484,1.03171134,4.73084914\C,0,1
 2.86566131,2.95067584,4.38906998\H,0,12.56250024,4.00548396,4.30228345
 \H,0,13.31171778,2.68357282,3.42034872\C,0,13.95574224,2.83522046,5.47
 413532\H,0,14.21184059,1.76907185,5.5753181\C,0,15.22746361,3.58230864
 ,5.04158526\H,0,15.02850143,4.65509733,4.92192395\H,0,16.02530927,3.47
 422447,5.78522346\H,0,15.60676733,3.2057651,4.08469637\C,0,13.47948744
 ,3.33766187,6.84689058\H,0,13.18548477,4.39407863,6.79282372\H,0,14.27
 824476,3.25415208,7.59270882\H,0,12.62083448,2.77051042,7.21984021\\Ve
 rsion=EM64L-G09RevD.01\HF=-1273.6848204\RMSD=5.611e-07\Dipole=-0.37998
 99,-0.6251544,0.706232\Quadrupole=-10.0638126,8.4130963,1.6507163,-5.9
 708049,3.9910912,-0.8105097\PG=C01 [X(C27H46O3)]\\@


 EVERYBODY NEEDS BEAUTY AS WELL AS BREAD, PLACES TO PLAY IN AND PRAY IN,
 WHERE NATURE MAY HEAL AND CHEER AND GIVE STRENGTH TO BODY AND SOUL ALIKE.

                                    -- JOHN MUIR
 Job cpu time:       0 days  0 hours 11 minutes 46.7 seconds.
 File lengths (MBytes):  RWF=    159 Int=      0 D2E=      0 Chk=     11 Scr=      1
 Normal termination of Gaussian 09 at Fri Apr 28 13:11:31 2017.
