 Entering Gaussian System, Link 0=/home/michal/g09/g09
 Input=JOB2-gau_m1-15-4.com
 Output=JOB2-gau_m1-15-4.log
 Initial command:
 /home/michal/g09/l1.exe "/home/michal/gauss_scratch/Gau-19022.inp" -scrdir="/home/michal/gauss_scratch/"
 Entering Link 1 = /home/michal/g09/l1.exe PID=     19023.
  
 Copyright (c) 1988,1990,1992,1993,1995,1998,2003,2009,2013,
            Gaussian, Inc.  All Rights Reserved.
  
 This is part of the Gaussian(R) 09 program.  It is based on
 the Gaussian(R) 03 system (copyright 2003, Gaussian, Inc.),
 the Gaussian(R) 98 system (copyright 1998, Gaussian, Inc.),
 the Gaussian(R) 94 system (copyright 1995, Gaussian, Inc.),
 the Gaussian 92(TM) system (copyright 1992, Gaussian, Inc.),
 the Gaussian 90(TM) system (copyright 1990, Gaussian, Inc.),
 the Gaussian 88(TM) system (copyright 1988, Gaussian, Inc.),
 the Gaussian 86(TM) system (copyright 1986, Carnegie Mellon
 University), and the Gaussian 82(TM) system (copyright 1983,
 Carnegie Mellon University). Gaussian is a federally registered
 trademark of Gaussian, Inc.
  
 This software contains proprietary and confidential information,
 including trade secrets, belonging to Gaussian, Inc.
  
 This software is provided under written license and may be
 used, copied, transmitted, or stored only in accord with that
 written license.
  
 The following legend is applicable only to US Government
 contracts under FAR:
  
                    RESTRICTED RIGHTS LEGEND
  
 Use, reproduction and disclosure by the US Government is
 subject to restrictions as set forth in subparagraphs (a)
 and (c) of the Commercial Computer Software - Restricted
 Rights clause in FAR 52.227-19.
  
 Gaussian, Inc.
 340 Quinnipiac St., Bldg. 40, Wallingford CT 06492
  
  
 ---------------------------------------------------------------
 Warning -- This program may not be used in any manner that
 competes with the business of Gaussian, Inc. or will provide
 assistance to any competitor of Gaussian, Inc.  The licensee
 of this program is prohibited from giving any competitor of
 Gaussian, Inc. access to this program.  By using this program,
 the user acknowledges that Gaussian, Inc. is engaged in the
 business of creating and licensing software in the field of
 computational chemistry and represents and warrants to the
 licensee that it is not a competitor of Gaussian, Inc. and that
 it will not use this program in any manner prohibited above.
 ---------------------------------------------------------------
  

 Cite this work as:
 Gaussian 09, Revision D.01,
 M. J. Frisch, G. W. Trucks, H. B. Schlegel, G. E. Scuseria, 
 M. A. Robb, J. R. Cheeseman, G. Scalmani, V. Barone, B. Mennucci, 
 G. A. Petersson, H. Nakatsuji, M. Caricato, X. Li, H. P. Hratchian, 
 A. F. Izmaylov, J. Bloino, G. Zheng, J. L. Sonnenberg, M. Hada, 
 M. Ehara, K. Toyota, R. Fukuda, J. Hasegawa, M. Ishida, T. Nakajima, 
 Y. Honda, O. Kitao, H. Nakai, T. Vreven, J. A. Montgomery, Jr., 
 J. E. Peralta, F. Ogliaro, M. Bearpark, J. J. Heyd, E. Brothers, 
 K. N. Kudin, V. N. Staroverov, T. Keith, R. Kobayashi, J. Normand, 
 K. Raghavachari, A. Rendell, J. C. Burant, S. S. Iyengar, J. Tomasi, 
 M. Cossi, N. Rega, J. M. Millam, M. Klene, J. E. Knox, J. B. Cross, 
 V. Bakken, C. Adamo, J. Jaramillo, R. Gomperts, R. E. Stratmann, 
 O. Yazyev, A. J. Austin, R. Cammi, C. Pomelli, J. W. Ochterski, 
 R. L. Martin, K. Morokuma, V. G. Zakrzewski, G. A. Voth, 
 P. Salvador, J. J. Dannenberg, S. Dapprich, A. D. Daniels, 
 O. Farkas, J. B. Foresman, J. V. Ortiz, J. Cioslowski, 
 and D. J. Fox, Gaussian, Inc., Wallingford CT, 2013.
 
 ******************************************
 Gaussian 09:  EM64L-G09RevD.01 24-Apr-2013
                28-Apr-2017 
 ******************************************
 %Mem=256MB
 %NProc=12
 Will use up to   12 processors via shared memory.
 ----------------------------------------------------------------------
 #P HF/6-31G* SCF(Conver=6) NoSymm Test Pop=chelpg IOp(6/33=2) GFInput 
 GFPrint
 ----------------------------------------------------------------------
 1/38=1/1;
 2/12=2,15=1,17=6,18=5,40=1/2;
 3/5=1,6=6,7=1,11=9,16=1,24=110,25=1,30=1/1,2,3;
 4//1;
 5/5=2,6=6,38=5/2;
 6/7=2,8=2,9=2,10=2,15=8,20=3,28=1,33=2/1,2;
 99/5=1,9=1/99;
 Leave Link    1 at Fri Apr 28 12:50:03 2017, MaxMem=    33554432 cpu:         0.7
 (Enter /home/michal/g09/l101.exe)
 ----------------------------------------------
 MEP - Input generated by R.E.D.-III.x MOLECULE
 ----------------------------------------------
 Symbolic Z-matrix:
 Charge =  0 Multiplicity = 1
 C                     1.01275  -0.82734  -1.71544 
 H                     1.11375   0.15427  -2.19377 
 C                     2.26596  -1.66191  -2.02641 
 H                     2.39459  -1.74297  -3.11018 
 H                     2.0908   -2.68236  -1.65107 
 C                     3.5145   -1.08195  -1.39036 
 C                     3.45478  -0.79012   0.11326 
 C                     2.13383  -0.01064   0.39999 
 H                     2.2436    1.00636   0. 
 H                     2.00256   0.09282   1.48242 
 C                     0.86784  -0.63682  -0.20565 
 H                     0.65995  -1.61156   0.26029 
 H                     0.        0.        0. 
 C                     4.59865  -0.84216  -2.14355 
 H                     4.56171  -1.03741  -3.2138 
 C                     5.87603  -0.24993  -1.62619 
 H                     6.74026  -0.70112  -2.12594 
 C                     6.00176  -0.37499  -0.09567 
 H                     6.14666  -1.44794   0.09873 
 C                     4.67125   0.10056   0.55049 
 H                     4.48667   1.09745   0.12389 
 C                     4.76906   0.28758   2.08261 
 H                     4.75423  -0.68431   2.58589 
 H                     3.88137   0.82312   2.43857 
 C                     6.02279   1.05287   2.54852 
 H                     5.98146   2.08923   2.18413 
 H                     6.00943   1.10483   3.64184 
 C                     7.31209   0.39503   2.02106 
 C                     7.20613   0.39328   0.46781 
 H                     7.06081   1.44544   0.18456 
 C                     8.61661   0.        0. 
 H                     8.82287   0.34312  -1.0154 
 H                     8.73653  -1.09121   0.00585 
 C                     9.54944   0.66564   1.04901 
 H                     10.26858  -0.05989   1.44769 
 H                     10.1409   1.47043   0.60143 
 C                     8.63701   1.21432   2.19551 
 H                     8.37647   2.25525   1.95448 
 C                     7.48089  -1.02512   2.60951 
 H                     6.68443  -1.70507   2.29665 
 H                     8.42899  -1.48215   2.31122 
 H                     7.4655   -0.9938    3.70441 
 C                     9.35462   1.22348   3.56846 
 H                     9.63173   0.18443   3.7996 
 C                     8.4765    1.7276    4.72948 
 H                     8.00959   2.69261   4.5034 
 H                     9.07862   1.85473   5.63711 
 H                     7.67477   1.02455   4.96916 
 C                     3.4349   -2.14559   0.87192 
 H                     3.20312  -2.00396   1.93162 
 H                     2.6807   -2.82467   0.467 
 H                     4.40004  -2.65609   0.7984 
 O                     5.8056    1.13482  -2.08141 
 O                     7.15853   1.63645  -2.33822 
 H                     7.06616   1.87703  -3.27411 
 O                    -0.15841  -1.38946  -2.31317 
 H                    -0.32947  -2.25159  -1.90866 
 C                     10.69498   2.0075    3.52306 
 H                     11.17957   1.88956   4.50344 
 H                     11.36478   1.52763   2.80074 
 C                     10.59673   3.51041   3.20981 
 H                     10.21276   3.65942   2.19315 
 H                     9.86062   3.97466   3.87795 
 C                     11.92429   4.2735    3.38089 
 H                     12.26292   4.15097   4.42002 
 H                     11.73102   5.34879   3.25067 
 C                     13.08399   3.87895   2.44154 
 H                     13.27963   2.80429   2.56579 
 C                     12.75107   4.13055   0.96231 
 H                     12.53008   5.19184   0.78862 
 H                     13.5955   3.85792   0.31898 
 H                     11.88385   3.55155   0.62924 
 C                     14.36595   4.62844   2.83893 
 H                     14.23288   5.71308   2.73487 
 H                     15.21131   4.33567   2.20568 
 H                     14.64086   4.42578   3.88048 
 
 NAtoms=     76 NQM=       76 NQMF=       0 NMMI=      0 NMMIF=      0
                NMic=       0 NMicF=      0.
                    Isotopes and Nuclear Properties:
 (Nuclear quadrupole moments (NQMom) in fm**2, nuclear magnetic moments (NMagM)
  in nuclear magnetons)

  Atom         1           2           3           4           5           6           7           8           9          10
 IAtWgt=          12           1          12           1           1          12          12          12           1           1
 AtmWgt=  12.0000000   1.0078250  12.0000000   1.0078250   1.0078250  12.0000000  12.0000000  12.0000000   1.0078250   1.0078250
 NucSpn=           0           1           0           1           1           0           0           0           1           1
 AtZEff=   0.0000000   0.0000000   0.0000000   0.0000000   0.0000000   0.0000000   0.0000000   0.0000000   0.0000000   0.0000000
 NQMom=    0.0000000   0.0000000   0.0000000   0.0000000   0.0000000   0.0000000   0.0000000   0.0000000   0.0000000   0.0000000
 NMagM=    0.0000000   2.7928460   0.0000000   2.7928460   2.7928460   0.0000000   0.0000000   0.0000000   2.7928460   2.7928460
 AtZNuc=   6.0000000   1.0000000   6.0000000   1.0000000   1.0000000   6.0000000   6.0000000   6.0000000   1.0000000   1.0000000

  Atom        11          12          13          14          15          16          17          18          19          20
 IAtWgt=          12           1           1          12           1          12           1          12           1          12
 AtmWgt=  12.0000000   1.0078250   1.0078250  12.0000000   1.0078250  12.0000000   1.0078250  12.0000000   1.0078250  12.0000000
 NucSpn=           0           1           1           0           1           0           1           0           1           0
 AtZEff=   0.0000000   0.0000000   0.0000000   0.0000000   0.0000000   0.0000000   0.0000000   0.0000000   0.0000000   0.0000000
 NQMom=    0.0000000   0.0000000   0.0000000   0.0000000   0.0000000   0.0000000   0.0000000   0.0000000   0.0000000   0.0000000
 NMagM=    0.0000000   2.7928460   2.7928460   0.0000000   2.7928460   0.0000000   2.7928460   0.0000000   2.7928460   0.0000000
 AtZNuc=   6.0000000   1.0000000   1.0000000   6.0000000   1.0000000   6.0000000   1.0000000   6.0000000   1.0000000   6.0000000

  Atom        21          22          23          24          25          26          27          28          29          30
 IAtWgt=           1          12           1           1          12           1           1          12          12           1
 AtmWgt=   1.0078250  12.0000000   1.0078250   1.0078250  12.0000000   1.0078250   1.0078250  12.0000000  12.0000000   1.0078250
 NucSpn=           1           0           1           1           0           1           1           0           0           1
 AtZEff=   0.0000000   0.0000000   0.0000000   0.0000000   0.0000000   0.0000000   0.0000000   0.0000000   0.0000000   0.0000000
 NQMom=    0.0000000   0.0000000   0.0000000   0.0000000   0.0000000   0.0000000   0.0000000   0.0000000   0.0000000   0.0000000
 NMagM=    2.7928460   0.0000000   2.7928460   2.7928460   0.0000000   2.7928460   2.7928460   0.0000000   0.0000000   2.7928460
 AtZNuc=   1.0000000   6.0000000   1.0000000   1.0000000   6.0000000   1.0000000   1.0000000   6.0000000   6.0000000   1.0000000

  Atom        31          32          33          34          35          36          37          38          39          40
 IAtWgt=          12           1           1          12           1           1          12           1          12           1
 AtmWgt=  12.0000000   1.0078250   1.0078250  12.0000000   1.0078250   1.0078250  12.0000000   1.0078250  12.0000000   1.0078250
 NucSpn=           0           1           1           0           1           1           0           1           0           1
 AtZEff=   0.0000000   0.0000000   0.0000000   0.0000000   0.0000000   0.0000000   0.0000000   0.0000000   0.0000000   0.0000000
 NQMom=    0.0000000   0.0000000   0.0000000   0.0000000   0.0000000   0.0000000   0.0000000   0.0000000   0.0000000   0.0000000
 NMagM=    0.0000000   2.7928460   2.7928460   0.0000000   2.7928460   2.7928460   0.0000000   2.7928460   0.0000000   2.7928460
 AtZNuc=   6.0000000   1.0000000   1.0000000   6.0000000   1.0000000   1.0000000   6.0000000   1.0000000   6.0000000   1.0000000

  Atom        41          42          43          44          45          46          47          48          49          50
 IAtWgt=           1           1          12           1          12           1           1           1          12           1
 AtmWgt=   1.0078250   1.0078250  12.0000000   1.0078250  12.0000000   1.0078250   1.0078250   1.0078250  12.0000000   1.0078250
 NucSpn=           1           1           0           1           0           1           1           1           0           1
 AtZEff=   0.0000000   0.0000000   0.0000000   0.0000000   0.0000000   0.0000000   0.0000000   0.0000000   0.0000000   0.0000000
 NQMom=    0.0000000   0.0000000   0.0000000   0.0000000   0.0000000   0.0000000   0.0000000   0.0000000   0.0000000   0.0000000
 NMagM=    2.7928460   2.7928460   0.0000000   2.7928460   0.0000000   2.7928460   2.7928460   2.7928460   0.0000000   2.7928460
 AtZNuc=   1.0000000   1.0000000   6.0000000   1.0000000   6.0000000   1.0000000   1.0000000   1.0000000   6.0000000   1.0000000

  Atom        51          52          53          54          55          56          57          58          59          60
 IAtWgt=           1           1          16          16           1          16           1          12           1           1
 AtmWgt=   1.0078250   1.0078250  15.9949146  15.9949146   1.0078250  15.9949146   1.0078250  12.0000000   1.0078250   1.0078250
 NucSpn=           1           1           0           0           1           0           1           0           1           1
 AtZEff=   0.0000000   0.0000000   0.0000000   0.0000000   0.0000000   0.0000000   0.0000000   0.0000000   0.0000000   0.0000000
 NQMom=    0.0000000   0.0000000   0.0000000   0.0000000   0.0000000   0.0000000   0.0000000   0.0000000   0.0000000   0.0000000
 NMagM=    2.7928460   2.7928460   0.0000000   0.0000000   2.7928460   0.0000000   2.7928460   0.0000000   2.7928460   2.7928460
 AtZNuc=   1.0000000   1.0000000   8.0000000   8.0000000   1.0000000   8.0000000   1.0000000   6.0000000   1.0000000   1.0000000

  Atom        61          62          63          64          65          66          67          68          69          70
 IAtWgt=          12           1           1          12           1           1          12           1          12           1
 AtmWgt=  12.0000000   1.0078250   1.0078250  12.0000000   1.0078250   1.0078250  12.0000000   1.0078250  12.0000000   1.0078250
 NucSpn=           0           1           1           0           1           1           0           1           0           1
 AtZEff=   0.0000000   0.0000000   0.0000000   0.0000000   0.0000000   0.0000000   0.0000000   0.0000000   0.0000000   0.0000000
 NQMom=    0.0000000   0.0000000   0.0000000   0.0000000   0.0000000   0.0000000   0.0000000   0.0000000   0.0000000   0.0000000
 NMagM=    0.0000000   2.7928460   2.7928460   0.0000000   2.7928460   2.7928460   0.0000000   2.7928460   0.0000000   2.7928460
 AtZNuc=   6.0000000   1.0000000   1.0000000   6.0000000   1.0000000   1.0000000   6.0000000   1.0000000   6.0000000   1.0000000

  Atom        71          72          73          74          75          76
 IAtWgt=           1           1          12           1           1           1
 AtmWgt=   1.0078250   1.0078250  12.0000000   1.0078250   1.0078250   1.0078250
 NucSpn=           1           1           0           1           1           1
 AtZEff=   0.0000000   0.0000000   0.0000000   0.0000000   0.0000000   0.0000000
 NQMom=    0.0000000   0.0000000   0.0000000   0.0000000   0.0000000   0.0000000
 NMagM=    2.7928460   2.7928460   0.0000000   2.7928460   2.7928460   2.7928460
 AtZNuc=   1.0000000   1.0000000   6.0000000   1.0000000   1.0000000   1.0000000
 Leave Link  101 at Fri Apr 28 12:50:03 2017, MaxMem=    33554432 cpu:         1.0
 (Enter /home/michal/g09/l202.exe)
 Symmetry turned off by external request.
 Stoichiometry    C27H46O3
 Framework group  C1[X(C27H46O3)]
 Deg. of freedom   222
 Full point group                 C1      NOp   1
                          Input orientation:                          
 ---------------------------------------------------------------------
 Center     Atomic      Atomic             Coordinates (Angstroms)
 Number     Number       Type             X           Y           Z
 ---------------------------------------------------------------------
      1          6           0        1.012748   -0.827342   -1.715439
      2          1           0        1.113752    0.154272   -2.193771
      3          6           0        2.265962   -1.661914   -2.026409
      4          1           0        2.394587   -1.742965   -3.110177
      5          1           0        2.090800   -2.682361   -1.651070
      6          6           0        3.514500   -1.081952   -1.390356
      7          6           0        3.454777   -0.790122    0.113262
      8          6           0        2.133826   -0.010639    0.399992
      9          1           0        2.243602    1.006361    0.000000
     10          1           0        2.002557    0.092816    1.482424
     11          6           0        0.867843   -0.636819   -0.205647
     12          1           0        0.659948   -1.611557    0.260286
     13          1           0        0.000000    0.000000    0.000000
     14          6           0        4.598651   -0.842163   -2.143547
     15          1           0        4.561706   -1.037409   -3.213797
     16          6           0        5.876030   -0.249928   -1.626195
     17          1           0        6.740257   -0.701117   -2.125941
     18          6           0        6.001760   -0.374989   -0.095675
     19          1           0        6.146659   -1.447940    0.098732
     20          6           0        4.671252    0.100557    0.550487
     21          1           0        4.486671    1.097451    0.123886
     22          6           0        4.769061    0.287581    2.082607
     23          1           0        4.754230   -0.684308    2.585890
     24          1           0        3.881373    0.823122    2.438573
     25          6           0        6.022790    1.052873    2.548521
     26          1           0        5.981456    2.089227    2.184135
     27          1           0        6.009427    1.104832    3.641845
     28          6           0        7.312093    0.395028    2.021063
     29          6           0        7.206130    0.393275    0.467807
     30          1           0        7.060810    1.445438    0.184564
     31          6           0        8.616605    0.000000    0.000000
     32          1           0        8.822866    0.343120   -1.015399
     33          1           0        8.736533   -1.091210    0.005849
     34          6           0        9.549438    0.665637    1.049009
     35          1           0       10.268577   -0.059891    1.447695
     36          1           0       10.140903    1.470427    0.601429
     37          6           0        8.637009    1.214325    2.195509
     38          1           0        8.376467    2.255251    1.954480
     39          6           0        7.480893   -1.025125    2.609513
     40          1           0        6.684426   -1.705067    2.296654
     41          1           0        8.428989   -1.482153    2.311217
     42          1           0        7.465499   -0.993801    3.704408
     43          6           0        9.354618    1.223480    3.568459
     44          1           0        9.631735    0.184425    3.799602
     45          6           0        8.476500    1.727602    4.729484
     46          1           0        8.009588    2.692605    4.503398
     47          1           0        9.078622    1.854726    5.637107
     48          1           0        7.674773    1.024551    4.969155
     49          6           0        3.434901   -2.145592    0.871920
     50          1           0        3.203117   -2.003960    1.931618
     51          1           0        2.680697   -2.824666    0.467001
     52          1           0        4.400043   -2.656086    0.798396
     53          8           0        5.805596    1.134820   -2.081409
     54          8           0        7.158535    1.636448   -2.338224
     55          1           0        7.066163    1.877030   -3.274115
     56          8           0       -0.158411   -1.389461   -2.313169
     57          1           0       -0.329472   -2.251590   -1.908656
     58          6           0       10.694984    2.007501    3.523061
     59          1           0       11.179575    1.889563    4.503442
     60          1           0       11.364779    1.527635    2.800740
     61          6           0       10.596733    3.510413    3.209810
     62          1           0       10.212756    3.659415    2.193147
     63          1           0        9.860620    3.974659    3.877955
     64          6           0       11.924292    4.273499    3.380891
     65          1           0       12.262919    4.150966    4.420018
     66          1           0       11.731022    5.348793    3.250665
     67          6           0       13.083986    3.878948    2.441542
     68          1           0       13.279626    2.804288    2.565788
     69          6           0       12.751074    4.130550    0.962307
     70          1           0       12.530076    5.191839    0.788623
     71          1           0       13.595500    3.857918    0.318979
     72          1           0       11.883849    3.551546    0.629239
     73          6           0       14.365950    4.628438    2.838933
     74          1           0       14.232885    5.713085    2.734868
     75          1           0       15.211309    4.335675    2.205677
     76          1           0       14.640857    4.425783    3.880479
 ---------------------------------------------------------------------
 Rotational constants (GHZ):      0.3737590      0.0601282      0.0556076
 Leave Link  202 at Fri Apr 28 12:50:03 2017, MaxMem=    33554432 cpu:         0.0
 (Enter /home/michal/g09/l301.exe)
 Standard basis: 6-31G(d) (6D, 7F)
 Ernie: Thresh=  0.10000D-02 Tol=  0.10000D-05 Strict=F.
 AO basis set in the form of general basis input (Overlap normalization):
      1 0
 S   6 1.00       0.000000000000
      0.3047524880D+04  0.1834737132D-02
      0.4573695180D+03  0.1403732281D-01
      0.1039486850D+03  0.6884262226D-01
      0.2921015530D+02  0.2321844432D+00
      0.9286662960D+01  0.4679413484D+00
      0.3163926960D+01  0.3623119853D+00
 SP   3 1.00       0.000000000000
      0.7868272350D+01 -0.1193324198D+00  0.6899906659D-01
      0.1881288540D+01 -0.1608541517D+00  0.3164239610D+00
      0.5442492580D+00  0.1143456438D+01  0.7443082909D+00
 SP   1 1.00       0.000000000000
      0.1687144782D+00  0.1000000000D+01  0.1000000000D+01
 D   1 1.00       0.000000000000
      0.8000000000D+00  0.1000000000D+01
 ****
      2 0
 S   3 1.00       0.000000000000
      0.1873113696D+02  0.3349460434D-01
      0.2825394365D+01  0.2347269535D+00
      0.6401216923D+00  0.8137573261D+00
 S   1 1.00       0.000000000000
      0.1612777588D+00  0.1000000000D+01
 ****
      3 0
 S   6 1.00       0.000000000000
      0.3047524880D+04  0.1834737132D-02
      0.4573695180D+03  0.1403732281D-01
      0.1039486850D+03  0.6884262226D-01
      0.2921015530D+02  0.2321844432D+00
      0.9286662960D+01  0.4679413484D+00
      0.3163926960D+01  0.3623119853D+00
 SP   3 1.00       0.000000000000
      0.7868272350D+01 -0.1193324198D+00  0.6899906659D-01
      0.1881288540D+01 -0.1608541517D+00  0.3164239610D+00
      0.5442492580D+00  0.1143456438D+01  0.7443082909D+00
 SP   1 1.00       0.000000000000
      0.1687144782D+00  0.1000000000D+01  0.1000000000D+01
 D   1 1.00       0.000000000000
      0.8000000000D+00  0.1000000000D+01
 ****
      4 0
 S   3 1.00       0.000000000000
      0.1873113696D+02  0.3349460434D-01
      0.2825394365D+01  0.2347269535D+00
      0.6401216923D+00  0.8137573261D+00
 S   1 1.00       0.000000000000
      0.1612777588D+00  0.1000000000D+01
 ****
      5 0
 S   3 1.00       0.000000000000
      0.1873113696D+02  0.3349460434D-01
      0.2825394365D+01  0.2347269535D+00
      0.6401216923D+00  0.8137573261D+00
 S   1 1.00       0.000000000000
      0.1612777588D+00  0.1000000000D+01
 ****
      6 0
 S   6 1.00       0.000000000000
      0.3047524880D+04  0.1834737132D-02
      0.4573695180D+03  0.1403732281D-01
      0.1039486850D+03  0.6884262226D-01
      0.2921015530D+02  0.2321844432D+00
      0.9286662960D+01  0.4679413484D+00
      0.3163926960D+01  0.3623119853D+00
 SP   3 1.00       0.000000000000
      0.7868272350D+01 -0.1193324198D+00  0.6899906659D-01
      0.1881288540D+01 -0.1608541517D+00  0.3164239610D+00
      0.5442492580D+00  0.1143456438D+01  0.7443082909D+00
 SP   1 1.00       0.000000000000
      0.1687144782D+00  0.1000000000D+01  0.1000000000D+01
 D   1 1.00       0.000000000000
      0.8000000000D+00  0.1000000000D+01
 ****
      7 0
 S   6 1.00       0.000000000000
      0.3047524880D+04  0.1834737132D-02
      0.4573695180D+03  0.1403732281D-01
      0.1039486850D+03  0.6884262226D-01
      0.2921015530D+02  0.2321844432D+00
      0.9286662960D+01  0.4679413484D+00
      0.3163926960D+01  0.3623119853D+00
 SP   3 1.00       0.000000000000
      0.7868272350D+01 -0.1193324198D+00  0.6899906659D-01
      0.1881288540D+01 -0.1608541517D+00  0.3164239610D+00
      0.5442492580D+00  0.1143456438D+01  0.7443082909D+00
 SP   1 1.00       0.000000000000
      0.1687144782D+00  0.1000000000D+01  0.1000000000D+01
 D   1 1.00       0.000000000000
      0.8000000000D+00  0.1000000000D+01
 ****
      8 0
 S   6 1.00       0.000000000000
      0.3047524880D+04  0.1834737132D-02
      0.4573695180D+03  0.1403732281D-01
      0.1039486850D+03  0.6884262226D-01
      0.2921015530D+02  0.2321844432D+00
      0.9286662960D+01  0.4679413484D+00
      0.3163926960D+01  0.3623119853D+00
 SP   3 1.00       0.000000000000
      0.7868272350D+01 -0.1193324198D+00  0.6899906659D-01
      0.1881288540D+01 -0.1608541517D+00  0.3164239610D+00
      0.5442492580D+00  0.1143456438D+01  0.7443082909D+00
 SP   1 1.00       0.000000000000
      0.1687144782D+00  0.1000000000D+01  0.1000000000D+01
 D   1 1.00       0.000000000000
      0.8000000000D+00  0.1000000000D+01
 ****
      9 0
 S   3 1.00       0.000000000000
      0.1873113696D+02  0.3349460434D-01
      0.2825394365D+01  0.2347269535D+00
      0.6401216923D+00  0.8137573261D+00
 S   1 1.00       0.000000000000
      0.1612777588D+00  0.1000000000D+01
 ****
     10 0
 S   3 1.00       0.000000000000
      0.1873113696D+02  0.3349460434D-01
      0.2825394365D+01  0.2347269535D+00
      0.6401216923D+00  0.8137573261D+00
 S   1 1.00       0.000000000000
      0.1612777588D+00  0.1000000000D+01
 ****
     11 0
 S   6 1.00       0.000000000000
      0.3047524880D+04  0.1834737132D-02
      0.4573695180D+03  0.1403732281D-01
      0.1039486850D+03  0.6884262226D-01
      0.2921015530D+02  0.2321844432D+00
      0.9286662960D+01  0.4679413484D+00
      0.3163926960D+01  0.3623119853D+00
 SP   3 1.00       0.000000000000
      0.7868272350D+01 -0.1193324198D+00  0.6899906659D-01
      0.1881288540D+01 -0.1608541517D+00  0.3164239610D+00
      0.5442492580D+00  0.1143456438D+01  0.7443082909D+00
 SP   1 1.00       0.000000000000
      0.1687144782D+00  0.1000000000D+01  0.1000000000D+01
 D   1 1.00       0.000000000000
      0.8000000000D+00  0.1000000000D+01
 ****
     12 0
 S   3 1.00       0.000000000000
      0.1873113696D+02  0.3349460434D-01
      0.2825394365D+01  0.2347269535D+00
      0.6401216923D+00  0.8137573261D+00
 S   1 1.00       0.000000000000
      0.1612777588D+00  0.1000000000D+01
 ****
     13 0
 S   3 1.00       0.000000000000
      0.1873113696D+02  0.3349460434D-01
      0.2825394365D+01  0.2347269535D+00
      0.6401216923D+00  0.8137573261D+00
 S   1 1.00       0.000000000000
      0.1612777588D+00  0.1000000000D+01
 ****
     14 0
 S   6 1.00       0.000000000000
      0.3047524880D+04  0.1834737132D-02
      0.4573695180D+03  0.1403732281D-01
      0.1039486850D+03  0.6884262226D-01
      0.2921015530D+02  0.2321844432D+00
      0.9286662960D+01  0.4679413484D+00
      0.3163926960D+01  0.3623119853D+00
 SP   3 1.00       0.000000000000
      0.7868272350D+01 -0.1193324198D+00  0.6899906659D-01
      0.1881288540D+01 -0.1608541517D+00  0.3164239610D+00
      0.5442492580D+00  0.1143456438D+01  0.7443082909D+00
 SP   1 1.00       0.000000000000
      0.1687144782D+00  0.1000000000D+01  0.1000000000D+01
 D   1 1.00       0.000000000000
      0.8000000000D+00  0.1000000000D+01
 ****
     15 0
 S   3 1.00       0.000000000000
      0.1873113696D+02  0.3349460434D-01
      0.2825394365D+01  0.2347269535D+00
      0.6401216923D+00  0.8137573261D+00
 S   1 1.00       0.000000000000
      0.1612777588D+00  0.1000000000D+01
 ****
     16 0
 S   6 1.00       0.000000000000
      0.3047524880D+04  0.1834737132D-02
      0.4573695180D+03  0.1403732281D-01
      0.1039486850D+03  0.6884262226D-01
      0.2921015530D+02  0.2321844432D+00
      0.9286662960D+01  0.4679413484D+00
      0.3163926960D+01  0.3623119853D+00
 SP   3 1.00       0.000000000000
      0.7868272350D+01 -0.1193324198D+00  0.6899906659D-01
      0.1881288540D+01 -0.1608541517D+00  0.3164239610D+00
      0.5442492580D+00  0.1143456438D+01  0.7443082909D+00
 SP   1 1.00       0.000000000000
      0.1687144782D+00  0.1000000000D+01  0.1000000000D+01
 D   1 1.00       0.000000000000
      0.8000000000D+00  0.1000000000D+01
 ****
     17 0
 S   3 1.00       0.000000000000
      0.1873113696D+02  0.3349460434D-01
      0.2825394365D+01  0.2347269535D+00
      0.6401216923D+00  0.8137573261D+00
 S   1 1.00       0.000000000000
      0.1612777588D+00  0.1000000000D+01
 ****
     18 0
 S   6 1.00       0.000000000000
      0.3047524880D+04  0.1834737132D-02
      0.4573695180D+03  0.1403732281D-01
      0.1039486850D+03  0.6884262226D-01
      0.2921015530D+02  0.2321844432D+00
      0.9286662960D+01  0.4679413484D+00
      0.3163926960D+01  0.3623119853D+00
 SP   3 1.00       0.000000000000
      0.7868272350D+01 -0.1193324198D+00  0.6899906659D-01
      0.1881288540D+01 -0.1608541517D+00  0.3164239610D+00
      0.5442492580D+00  0.1143456438D+01  0.7443082909D+00
 SP   1 1.00       0.000000000000
      0.1687144782D+00  0.1000000000D+01  0.1000000000D+01
 D   1 1.00       0.000000000000
      0.8000000000D+00  0.1000000000D+01
 ****
     19 0
 S   3 1.00       0.000000000000
      0.1873113696D+02  0.3349460434D-01
      0.2825394365D+01  0.2347269535D+00
      0.6401216923D+00  0.8137573261D+00
 S   1 1.00       0.000000000000
      0.1612777588D+00  0.1000000000D+01
 ****
     20 0
 S   6 1.00       0.000000000000
      0.3047524880D+04  0.1834737132D-02
      0.4573695180D+03  0.1403732281D-01
      0.1039486850D+03  0.6884262226D-01
      0.2921015530D+02  0.2321844432D+00
      0.9286662960D+01  0.4679413484D+00
      0.3163926960D+01  0.3623119853D+00
 SP   3 1.00       0.000000000000
      0.7868272350D+01 -0.1193324198D+00  0.6899906659D-01
      0.1881288540D+01 -0.1608541517D+00  0.3164239610D+00
      0.5442492580D+00  0.1143456438D+01  0.7443082909D+00
 SP   1 1.00       0.000000000000
      0.1687144782D+00  0.1000000000D+01  0.1000000000D+01
 D   1 1.00       0.000000000000
      0.8000000000D+00  0.1000000000D+01
 ****
     21 0
 S   3 1.00       0.000000000000
      0.1873113696D+02  0.3349460434D-01
      0.2825394365D+01  0.2347269535D+00
      0.6401216923D+00  0.8137573261D+00
 S   1 1.00       0.000000000000
      0.1612777588D+00  0.1000000000D+01
 ****
     22 0
 S   6 1.00       0.000000000000
      0.3047524880D+04  0.1834737132D-02
      0.4573695180D+03  0.1403732281D-01
      0.1039486850D+03  0.6884262226D-01
      0.2921015530D+02  0.2321844432D+00
      0.9286662960D+01  0.4679413484D+00
      0.3163926960D+01  0.3623119853D+00
 SP   3 1.00       0.000000000000
      0.7868272350D+01 -0.1193324198D+00  0.6899906659D-01
      0.1881288540D+01 -0.1608541517D+00  0.3164239610D+00
      0.5442492580D+00  0.1143456438D+01  0.7443082909D+00
 SP   1 1.00       0.000000000000
      0.1687144782D+00  0.1000000000D+01  0.1000000000D+01
 D   1 1.00       0.000000000000
      0.8000000000D+00  0.1000000000D+01
 ****
     23 0
 S   3 1.00       0.000000000000
      0.1873113696D+02  0.3349460434D-01
      0.2825394365D+01  0.2347269535D+00
      0.6401216923D+00  0.8137573261D+00
 S   1 1.00       0.000000000000
      0.1612777588D+00  0.1000000000D+01
 ****
     24 0
 S   3 1.00       0.000000000000
      0.1873113696D+02  0.3349460434D-01
      0.2825394365D+01  0.2347269535D+00
      0.6401216923D+00  0.8137573261D+00
 S   1 1.00       0.000000000000
      0.1612777588D+00  0.1000000000D+01
 ****
     25 0
 S   6 1.00       0.000000000000
      0.3047524880D+04  0.1834737132D-02
      0.4573695180D+03  0.1403732281D-01
      0.1039486850D+03  0.6884262226D-01
      0.2921015530D+02  0.2321844432D+00
      0.9286662960D+01  0.4679413484D+00
      0.3163926960D+01  0.3623119853D+00
 SP   3 1.00       0.000000000000
      0.7868272350D+01 -0.1193324198D+00  0.6899906659D-01
      0.1881288540D+01 -0.1608541517D+00  0.3164239610D+00
      0.5442492580D+00  0.1143456438D+01  0.7443082909D+00
 SP   1 1.00       0.000000000000
      0.1687144782D+00  0.1000000000D+01  0.1000000000D+01
 D   1 1.00       0.000000000000
      0.8000000000D+00  0.1000000000D+01
 ****
     26 0
 S   3 1.00       0.000000000000
      0.1873113696D+02  0.3349460434D-01
      0.2825394365D+01  0.2347269535D+00
      0.6401216923D+00  0.8137573261D+00
 S   1 1.00       0.000000000000
      0.1612777588D+00  0.1000000000D+01
 ****
     27 0
 S   3 1.00       0.000000000000
      0.1873113696D+02  0.3349460434D-01
      0.2825394365D+01  0.2347269535D+00
      0.6401216923D+00  0.8137573261D+00
 S   1 1.00       0.000000000000
      0.1612777588D+00  0.1000000000D+01
 ****
     28 0
 S   6 1.00       0.000000000000
      0.3047524880D+04  0.1834737132D-02
      0.4573695180D+03  0.1403732281D-01
      0.1039486850D+03  0.6884262226D-01
      0.2921015530D+02  0.2321844432D+00
      0.9286662960D+01  0.4679413484D+00
      0.3163926960D+01  0.3623119853D+00
 SP   3 1.00       0.000000000000
      0.7868272350D+01 -0.1193324198D+00  0.6899906659D-01
      0.1881288540D+01 -0.1608541517D+00  0.3164239610D+00
      0.5442492580D+00  0.1143456438D+01  0.7443082909D+00
 SP   1 1.00       0.000000000000
      0.1687144782D+00  0.1000000000D+01  0.1000000000D+01
 D   1 1.00       0.000000000000
      0.8000000000D+00  0.1000000000D+01
 ****
     29 0
 S   6 1.00       0.000000000000
      0.3047524880D+04  0.1834737132D-02
      0.4573695180D+03  0.1403732281D-01
      0.1039486850D+03  0.6884262226D-01
      0.2921015530D+02  0.2321844432D+00
      0.9286662960D+01  0.4679413484D+00
      0.3163926960D+01  0.3623119853D+00
 SP   3 1.00       0.000000000000
      0.7868272350D+01 -0.1193324198D+00  0.6899906659D-01
      0.1881288540D+01 -0.1608541517D+00  0.3164239610D+00
      0.5442492580D+00  0.1143456438D+01  0.7443082909D+00
 SP   1 1.00       0.000000000000
      0.1687144782D+00  0.1000000000D+01  0.1000000000D+01
 D   1 1.00       0.000000000000
      0.8000000000D+00  0.1000000000D+01
 ****
     30 0
 S   3 1.00       0.000000000000
      0.1873113696D+02  0.3349460434D-01
      0.2825394365D+01  0.2347269535D+00
      0.6401216923D+00  0.8137573261D+00
 S   1 1.00       0.000000000000
      0.1612777588D+00  0.1000000000D+01
 ****
     31 0
 S   6 1.00       0.000000000000
      0.3047524880D+04  0.1834737132D-02
      0.4573695180D+03  0.1403732281D-01
      0.1039486850D+03  0.6884262226D-01
      0.2921015530D+02  0.2321844432D+00
      0.9286662960D+01  0.4679413484D+00
      0.3163926960D+01  0.3623119853D+00
 SP   3 1.00       0.000000000000
      0.7868272350D+01 -0.1193324198D+00  0.6899906659D-01
      0.1881288540D+01 -0.1608541517D+00  0.3164239610D+00
      0.5442492580D+00  0.1143456438D+01  0.7443082909D+00
 SP   1 1.00       0.000000000000
      0.1687144782D+00  0.1000000000D+01  0.1000000000D+01
 D   1 1.00       0.000000000000
      0.8000000000D+00  0.1000000000D+01
 ****
     32 0
 S   3 1.00       0.000000000000
      0.1873113696D+02  0.3349460434D-01
      0.2825394365D+01  0.2347269535D+00
      0.6401216923D+00  0.8137573261D+00
 S   1 1.00       0.000000000000
      0.1612777588D+00  0.1000000000D+01
 ****
     33 0
 S   3 1.00       0.000000000000
      0.1873113696D+02  0.3349460434D-01
      0.2825394365D+01  0.2347269535D+00
      0.6401216923D+00  0.8137573261D+00
 S   1 1.00       0.000000000000
      0.1612777588D+00  0.1000000000D+01
 ****
     34 0
 S   6 1.00       0.000000000000
      0.3047524880D+04  0.1834737132D-02
      0.4573695180D+03  0.1403732281D-01
      0.1039486850D+03  0.6884262226D-01
      0.2921015530D+02  0.2321844432D+00
      0.9286662960D+01  0.4679413484D+00
      0.3163926960D+01  0.3623119853D+00
 SP   3 1.00       0.000000000000
      0.7868272350D+01 -0.1193324198D+00  0.6899906659D-01
      0.1881288540D+01 -0.1608541517D+00  0.3164239610D+00
      0.5442492580D+00  0.1143456438D+01  0.7443082909D+00
 SP   1 1.00       0.000000000000
      0.1687144782D+00  0.1000000000D+01  0.1000000000D+01
 D   1 1.00       0.000000000000
      0.8000000000D+00  0.1000000000D+01
 ****
     35 0
 S   3 1.00       0.000000000000
      0.1873113696D+02  0.3349460434D-01
      0.2825394365D+01  0.2347269535D+00
      0.6401216923D+00  0.8137573261D+00
 S   1 1.00       0.000000000000
      0.1612777588D+00  0.1000000000D+01
 ****
     36 0
 S   3 1.00       0.000000000000
      0.1873113696D+02  0.3349460434D-01
      0.2825394365D+01  0.2347269535D+00
      0.6401216923D+00  0.8137573261D+00
 S   1 1.00       0.000000000000
      0.1612777588D+00  0.1000000000D+01
 ****
     37 0
 S   6 1.00       0.000000000000
      0.3047524880D+04  0.1834737132D-02
      0.4573695180D+03  0.1403732281D-01
      0.1039486850D+03  0.6884262226D-01
      0.2921015530D+02  0.2321844432D+00
      0.9286662960D+01  0.4679413484D+00
      0.3163926960D+01  0.3623119853D+00
 SP   3 1.00       0.000000000000
      0.7868272350D+01 -0.1193324198D+00  0.6899906659D-01
      0.1881288540D+01 -0.1608541517D+00  0.3164239610D+00
      0.5442492580D+00  0.1143456438D+01  0.7443082909D+00
 SP   1 1.00       0.000000000000
      0.1687144782D+00  0.1000000000D+01  0.1000000000D+01
 D   1 1.00       0.000000000000
      0.8000000000D+00  0.1000000000D+01
 ****
     38 0
 S   3 1.00       0.000000000000
      0.1873113696D+02  0.3349460434D-01
      0.2825394365D+01  0.2347269535D+00
      0.6401216923D+00  0.8137573261D+00
 S   1 1.00       0.000000000000
      0.1612777588D+00  0.1000000000D+01
 ****
     39 0
 S   6 1.00       0.000000000000
      0.3047524880D+04  0.1834737132D-02
      0.4573695180D+03  0.1403732281D-01
      0.1039486850D+03  0.6884262226D-01
      0.2921015530D+02  0.2321844432D+00
      0.9286662960D+01  0.4679413484D+00
      0.3163926960D+01  0.3623119853D+00
 SP   3 1.00       0.000000000000
      0.7868272350D+01 -0.1193324198D+00  0.6899906659D-01
      0.1881288540D+01 -0.1608541517D+00  0.3164239610D+00
      0.5442492580D+00  0.1143456438D+01  0.7443082909D+00
 SP   1 1.00       0.000000000000
      0.1687144782D+00  0.1000000000D+01  0.1000000000D+01
 D   1 1.00       0.000000000000
      0.8000000000D+00  0.1000000000D+01
 ****
     40 0
 S   3 1.00       0.000000000000
      0.1873113696D+02  0.3349460434D-01
      0.2825394365D+01  0.2347269535D+00
      0.6401216923D+00  0.8137573261D+00
 S   1 1.00       0.000000000000
      0.1612777588D+00  0.1000000000D+01
 ****
     41 0
 S   3 1.00       0.000000000000
      0.1873113696D+02  0.3349460434D-01
      0.2825394365D+01  0.2347269535D+00
      0.6401216923D+00  0.8137573261D+00
 S   1 1.00       0.000000000000
      0.1612777588D+00  0.1000000000D+01
 ****
     42 0
 S   3 1.00       0.000000000000
      0.1873113696D+02  0.3349460434D-01
      0.2825394365D+01  0.2347269535D+00
      0.6401216923D+00  0.8137573261D+00
 S   1 1.00       0.000000000000
      0.1612777588D+00  0.1000000000D+01
 ****
     43 0
 S   6 1.00       0.000000000000
      0.3047524880D+04  0.1834737132D-02
      0.4573695180D+03  0.1403732281D-01
      0.1039486850D+03  0.6884262226D-01
      0.2921015530D+02  0.2321844432D+00
      0.9286662960D+01  0.4679413484D+00
      0.3163926960D+01  0.3623119853D+00
 SP   3 1.00       0.000000000000
      0.7868272350D+01 -0.1193324198D+00  0.6899906659D-01
      0.1881288540D+01 -0.1608541517D+00  0.3164239610D+00
      0.5442492580D+00  0.1143456438D+01  0.7443082909D+00
 SP   1 1.00       0.000000000000
      0.1687144782D+00  0.1000000000D+01  0.1000000000D+01
 D   1 1.00       0.000000000000
      0.8000000000D+00  0.1000000000D+01
 ****
     44 0
 S   3 1.00       0.000000000000
      0.1873113696D+02  0.3349460434D-01
      0.2825394365D+01  0.2347269535D+00
      0.6401216923D+00  0.8137573261D+00
 S   1 1.00       0.000000000000
      0.1612777588D+00  0.1000000000D+01
 ****
     45 0
 S   6 1.00       0.000000000000
      0.3047524880D+04  0.1834737132D-02
      0.4573695180D+03  0.1403732281D-01
      0.1039486850D+03  0.6884262226D-01
      0.2921015530D+02  0.2321844432D+00
      0.9286662960D+01  0.4679413484D+00
      0.3163926960D+01  0.3623119853D+00
 SP   3 1.00       0.000000000000
      0.7868272350D+01 -0.1193324198D+00  0.6899906659D-01
      0.1881288540D+01 -0.1608541517D+00  0.3164239610D+00
      0.5442492580D+00  0.1143456438D+01  0.7443082909D+00
 SP   1 1.00       0.000000000000
      0.1687144782D+00  0.1000000000D+01  0.1000000000D+01
 D   1 1.00       0.000000000000
      0.8000000000D+00  0.1000000000D+01
 ****
     46 0
 S   3 1.00       0.000000000000
      0.1873113696D+02  0.3349460434D-01
      0.2825394365D+01  0.2347269535D+00
      0.6401216923D+00  0.8137573261D+00
 S   1 1.00       0.000000000000
      0.1612777588D+00  0.1000000000D+01
 ****
     47 0
 S   3 1.00       0.000000000000
      0.1873113696D+02  0.3349460434D-01
      0.2825394365D+01  0.2347269535D+00
      0.6401216923D+00  0.8137573261D+00
 S   1 1.00       0.000000000000
      0.1612777588D+00  0.1000000000D+01
 ****
     48 0
 S   3 1.00       0.000000000000
      0.1873113696D+02  0.3349460434D-01
      0.2825394365D+01  0.2347269535D+00
      0.6401216923D+00  0.8137573261D+00
 S   1 1.00       0.000000000000
      0.1612777588D+00  0.1000000000D+01
 ****
     49 0
 S   6 1.00       0.000000000000
      0.3047524880D+04  0.1834737132D-02
      0.4573695180D+03  0.1403732281D-01
      0.1039486850D+03  0.6884262226D-01
      0.2921015530D+02  0.2321844432D+00
      0.9286662960D+01  0.4679413484D+00
      0.3163926960D+01  0.3623119853D+00
 SP   3 1.00       0.000000000000
      0.7868272350D+01 -0.1193324198D+00  0.6899906659D-01
      0.1881288540D+01 -0.1608541517D+00  0.3164239610D+00
      0.5442492580D+00  0.1143456438D+01  0.7443082909D+00
 SP   1 1.00       0.000000000000
      0.1687144782D+00  0.1000000000D+01  0.1000000000D+01
 D   1 1.00       0.000000000000
      0.8000000000D+00  0.1000000000D+01
 ****
     50 0
 S   3 1.00       0.000000000000
      0.1873113696D+02  0.3349460434D-01
      0.2825394365D+01  0.2347269535D+00
      0.6401216923D+00  0.8137573261D+00
 S   1 1.00       0.000000000000
      0.1612777588D+00  0.1000000000D+01
 ****
     51 0
 S   3 1.00       0.000000000000
      0.1873113696D+02  0.3349460434D-01
      0.2825394365D+01  0.2347269535D+00
      0.6401216923D+00  0.8137573261D+00
 S   1 1.00       0.000000000000
      0.1612777588D+00  0.1000000000D+01
 ****
     52 0
 S   3 1.00       0.000000000000
      0.1873113696D+02  0.3349460434D-01
      0.2825394365D+01  0.2347269535D+00
      0.6401216923D+00  0.8137573261D+00
 S   1 1.00       0.000000000000
      0.1612777588D+00  0.1000000000D+01
 ****
     53 0
 S   6 1.00       0.000000000000
      0.5484671660D+04  0.1831074430D-02
      0.8252349460D+03  0.1395017220D-01
      0.1880469580D+03  0.6844507810D-01
      0.5296450000D+02  0.2327143360D+00
      0.1689757040D+02  0.4701928980D+00
      0.5799635340D+01  0.3585208530D+00
 SP   3 1.00       0.000000000000
      0.1553961625D+02 -0.1107775495D+00  0.7087426823D-01
      0.3599933586D+01 -0.1480262627D+00  0.3397528391D+00
      0.1013761750D+01  0.1130767015D+01  0.7271585773D+00
 SP   1 1.00       0.000000000000
      0.2700058226D+00  0.1000000000D+01  0.1000000000D+01
 D   1 1.00       0.000000000000
      0.8000000000D+00  0.1000000000D+01
 ****
     54 0
 S   6 1.00       0.000000000000
      0.5484671660D+04  0.1831074430D-02
      0.8252349460D+03  0.1395017220D-01
      0.1880469580D+03  0.6844507810D-01
      0.5296450000D+02  0.2327143360D+00
      0.1689757040D+02  0.4701928980D+00
      0.5799635340D+01  0.3585208530D+00
 SP   3 1.00       0.000000000000
      0.1553961625D+02 -0.1107775495D+00  0.7087426823D-01
      0.3599933586D+01 -0.1480262627D+00  0.3397528391D+00
      0.1013761750D+01  0.1130767015D+01  0.7271585773D+00
 SP   1 1.00       0.000000000000
      0.2700058226D+00  0.1000000000D+01  0.1000000000D+01
 D   1 1.00       0.000000000000
      0.8000000000D+00  0.1000000000D+01
 ****
     55 0
 S   3 1.00       0.000000000000
      0.1873113696D+02  0.3349460434D-01
      0.2825394365D+01  0.2347269535D+00
      0.6401216923D+00  0.8137573261D+00
 S   1 1.00       0.000000000000
      0.1612777588D+00  0.1000000000D+01
 ****
     56 0
 S   6 1.00       0.000000000000
      0.5484671660D+04  0.1831074430D-02
      0.8252349460D+03  0.1395017220D-01
      0.1880469580D+03  0.6844507810D-01
      0.5296450000D+02  0.2327143360D+00
      0.1689757040D+02  0.4701928980D+00
      0.5799635340D+01  0.3585208530D+00
 SP   3 1.00       0.000000000000
      0.1553961625D+02 -0.1107775495D+00  0.7087426823D-01
      0.3599933586D+01 -0.1480262627D+00  0.3397528391D+00
      0.1013761750D+01  0.1130767015D+01  0.7271585773D+00
 SP   1 1.00       0.000000000000
      0.2700058226D+00  0.1000000000D+01  0.1000000000D+01
 D   1 1.00       0.000000000000
      0.8000000000D+00  0.1000000000D+01
 ****
     57 0
 S   3 1.00       0.000000000000
      0.1873113696D+02  0.3349460434D-01
      0.2825394365D+01  0.2347269535D+00
      0.6401216923D+00  0.8137573261D+00
 S   1 1.00       0.000000000000
      0.1612777588D+00  0.1000000000D+01
 ****
     58 0
 S   6 1.00       0.000000000000
      0.3047524880D+04  0.1834737132D-02
      0.4573695180D+03  0.1403732281D-01
      0.1039486850D+03  0.6884262226D-01
      0.2921015530D+02  0.2321844432D+00
      0.9286662960D+01  0.4679413484D+00
      0.3163926960D+01  0.3623119853D+00
 SP   3 1.00       0.000000000000
      0.7868272350D+01 -0.1193324198D+00  0.6899906659D-01
      0.1881288540D+01 -0.1608541517D+00  0.3164239610D+00
      0.5442492580D+00  0.1143456438D+01  0.7443082909D+00
 SP   1 1.00       0.000000000000
      0.1687144782D+00  0.1000000000D+01  0.1000000000D+01
 D   1 1.00       0.000000000000
      0.8000000000D+00  0.1000000000D+01
 ****
     59 0
 S   3 1.00       0.000000000000
      0.1873113696D+02  0.3349460434D-01
      0.2825394365D+01  0.2347269535D+00
      0.6401216923D+00  0.8137573261D+00
 S   1 1.00       0.000000000000
      0.1612777588D+00  0.1000000000D+01
 ****
     60 0
 S   3 1.00       0.000000000000
      0.1873113696D+02  0.3349460434D-01
      0.2825394365D+01  0.2347269535D+00
      0.6401216923D+00  0.8137573261D+00
 S   1 1.00       0.000000000000
      0.1612777588D+00  0.1000000000D+01
 ****
     61 0
 S   6 1.00       0.000000000000
      0.3047524880D+04  0.1834737132D-02
      0.4573695180D+03  0.1403732281D-01
      0.1039486850D+03  0.6884262226D-01
      0.2921015530D+02  0.2321844432D+00
      0.9286662960D+01  0.4679413484D+00
      0.3163926960D+01  0.3623119853D+00
 SP   3 1.00       0.000000000000
      0.7868272350D+01 -0.1193324198D+00  0.6899906659D-01
      0.1881288540D+01 -0.1608541517D+00  0.3164239610D+00
      0.5442492580D+00  0.1143456438D+01  0.7443082909D+00
 SP   1 1.00       0.000000000000
      0.1687144782D+00  0.1000000000D+01  0.1000000000D+01
 D   1 1.00       0.000000000000
      0.8000000000D+00  0.1000000000D+01
 ****
     62 0
 S   3 1.00       0.000000000000
      0.1873113696D+02  0.3349460434D-01
      0.2825394365D+01  0.2347269535D+00
      0.6401216923D+00  0.8137573261D+00
 S   1 1.00       0.000000000000
      0.1612777588D+00  0.1000000000D+01
 ****
     63 0
 S   3 1.00       0.000000000000
      0.1873113696D+02  0.3349460434D-01
      0.2825394365D+01  0.2347269535D+00
      0.6401216923D+00  0.8137573261D+00
 S   1 1.00       0.000000000000
      0.1612777588D+00  0.1000000000D+01
 ****
     64 0
 S   6 1.00       0.000000000000
      0.3047524880D+04  0.1834737132D-02
      0.4573695180D+03  0.1403732281D-01
      0.1039486850D+03  0.6884262226D-01
      0.2921015530D+02  0.2321844432D+00
      0.9286662960D+01  0.4679413484D+00
      0.3163926960D+01  0.3623119853D+00
 SP   3 1.00       0.000000000000
      0.7868272350D+01 -0.1193324198D+00  0.6899906659D-01
      0.1881288540D+01 -0.1608541517D+00  0.3164239610D+00
      0.5442492580D+00  0.1143456438D+01  0.7443082909D+00
 SP   1 1.00       0.000000000000
      0.1687144782D+00  0.1000000000D+01  0.1000000000D+01
 D   1 1.00       0.000000000000
      0.8000000000D+00  0.1000000000D+01
 ****
     65 0
 S   3 1.00       0.000000000000
      0.1873113696D+02  0.3349460434D-01
      0.2825394365D+01  0.2347269535D+00
      0.6401216923D+00  0.8137573261D+00
 S   1 1.00       0.000000000000
      0.1612777588D+00  0.1000000000D+01
 ****
     66 0
 S   3 1.00       0.000000000000
      0.1873113696D+02  0.3349460434D-01
      0.2825394365D+01  0.2347269535D+00
      0.6401216923D+00  0.8137573261D+00
 S   1 1.00       0.000000000000
      0.1612777588D+00  0.1000000000D+01
 ****
     67 0
 S   6 1.00       0.000000000000
      0.3047524880D+04  0.1834737132D-02
      0.4573695180D+03  0.1403732281D-01
      0.1039486850D+03  0.6884262226D-01
      0.2921015530D+02  0.2321844432D+00
      0.9286662960D+01  0.4679413484D+00
      0.3163926960D+01  0.3623119853D+00
 SP   3 1.00       0.000000000000
      0.7868272350D+01 -0.1193324198D+00  0.6899906659D-01
      0.1881288540D+01 -0.1608541517D+00  0.3164239610D+00
      0.5442492580D+00  0.1143456438D+01  0.7443082909D+00
 SP   1 1.00       0.000000000000
      0.1687144782D+00  0.1000000000D+01  0.1000000000D+01
 D   1 1.00       0.000000000000
      0.8000000000D+00  0.1000000000D+01
 ****
     68 0
 S   3 1.00       0.000000000000
      0.1873113696D+02  0.3349460434D-01
      0.2825394365D+01  0.2347269535D+00
      0.6401216923D+00  0.8137573261D+00
 S   1 1.00       0.000000000000
      0.1612777588D+00  0.1000000000D+01
 ****
     69 0
 S   6 1.00       0.000000000000
      0.3047524880D+04  0.1834737132D-02
      0.4573695180D+03  0.1403732281D-01
      0.1039486850D+03  0.6884262226D-01
      0.2921015530D+02  0.2321844432D+00
      0.9286662960D+01  0.4679413484D+00
      0.3163926960D+01  0.3623119853D+00
 SP   3 1.00       0.000000000000
      0.7868272350D+01 -0.1193324198D+00  0.6899906659D-01
      0.1881288540D+01 -0.1608541517D+00  0.3164239610D+00
      0.5442492580D+00  0.1143456438D+01  0.7443082909D+00
 SP   1 1.00       0.000000000000
      0.1687144782D+00  0.1000000000D+01  0.1000000000D+01
 D   1 1.00       0.000000000000
      0.8000000000D+00  0.1000000000D+01
 ****
     70 0
 S   3 1.00       0.000000000000
      0.1873113696D+02  0.3349460434D-01
      0.2825394365D+01  0.2347269535D+00
      0.6401216923D+00  0.8137573261D+00
 S   1 1.00       0.000000000000
      0.1612777588D+00  0.1000000000D+01
 ****
     71 0
 S   3 1.00       0.000000000000
      0.1873113696D+02  0.3349460434D-01
      0.2825394365D+01  0.2347269535D+00
      0.6401216923D+00  0.8137573261D+00
 S   1 1.00       0.000000000000
      0.1612777588D+00  0.1000000000D+01
 ****
     72 0
 S   3 1.00       0.000000000000
      0.1873113696D+02  0.3349460434D-01
      0.2825394365D+01  0.2347269535D+00
      0.6401216923D+00  0.8137573261D+00
 S   1 1.00       0.000000000000
      0.1612777588D+00  0.1000000000D+01
 ****
     73 0
 S   6 1.00       0.000000000000
      0.3047524880D+04  0.1834737132D-02
      0.4573695180D+03  0.1403732281D-01
      0.1039486850D+03  0.6884262226D-01
      0.2921015530D+02  0.2321844432D+00
      0.9286662960D+01  0.4679413484D+00
      0.3163926960D+01  0.3623119853D+00
 SP   3 1.00       0.000000000000
      0.7868272350D+01 -0.1193324198D+00  0.6899906659D-01
      0.1881288540D+01 -0.1608541517D+00  0.3164239610D+00
      0.5442492580D+00  0.1143456438D+01  0.7443082909D+00
 SP   1 1.00       0.000000000000
      0.1687144782D+00  0.1000000000D+01  0.1000000000D+01
 D   1 1.00       0.000000000000
      0.8000000000D+00  0.1000000000D+01
 ****
     74 0
 S   3 1.00       0.000000000000
      0.1873113696D+02  0.3349460434D-01
      0.2825394365D+01  0.2347269535D+00
      0.6401216923D+00  0.8137573261D+00
 S   1 1.00       0.000000000000
      0.1612777588D+00  0.1000000000D+01
 ****
     75 0
 S   3 1.00       0.000000000000
      0.1873113696D+02  0.3349460434D-01
      0.2825394365D+01  0.2347269535D+00
      0.6401216923D+00  0.8137573261D+00
 S   1 1.00       0.000000000000
      0.1612777588D+00  0.1000000000D+01
 ****
     76 0
 S   3 1.00       0.000000000000
      0.1873113696D+02  0.3349460434D-01
      0.2825394365D+01  0.2347269535D+00
      0.6401216923D+00  0.8137573261D+00
 S   1 1.00       0.000000000000
      0.1612777588D+00  0.1000000000D+01
 ****

 AO basis set (Overlap normalization):
 Atom C1       Shell     1 S   6     bf    1 -     1          1.913815908093         -1.563449911617         -3.241710134438
      0.3047524880D+04  0.1834737132D-02
      0.4573695180D+03  0.1403732281D-01
      0.1039486850D+03  0.6884262226D-01
      0.2921015530D+02  0.2321844432D+00
      0.9286662960D+01  0.4679413484D+00
      0.3163926960D+01  0.3623119853D+00
 Atom C1       Shell     2 SP   3    bf    2 -     5          1.913815908093         -1.563449911617         -3.241710134438
      0.7868272350D+01 -0.1193324198D+00  0.6899906659D-01
      0.1881288540D+01 -0.1608541517D+00  0.3164239610D+00
      0.5442492580D+00  0.1143456438D+01  0.7443082909D+00
 Atom C1       Shell     3 SP   1    bf    6 -     9          1.913815908093         -1.563449911617         -3.241710134438
      0.1687144782D+00  0.1000000000D+01  0.1000000000D+01
 Atom C1       Shell     4 D   1     bf   10 -    15          1.913815908093         -1.563449911617         -3.241710134438
      0.8000000000D+00  0.1000000000D+01
 Atom H2       Shell     5 S   3     bf   16 -    16          2.104686486721          0.291530979596         -4.145627238643
      0.1873113696D+02  0.3349460434D-01
      0.2825394365D+01  0.2347269535D+00
      0.6401216923D+00  0.8137573261D+00
 Atom H2       Shell     6 S   1     bf   17 -    17          2.104686486721          0.291530979596         -4.145627238643
      0.1612777588D+00  0.1000000000D+01
 Atom C3       Shell     7 S   6     bf   18 -    18          4.282046700457         -3.140561730593         -3.829357627475
      0.3047524880D+04  0.1834737132D-02
      0.4573695180D+03  0.1403732281D-01
      0.1039486850D+03  0.6884262226D-01
      0.2921015530D+02  0.2321844432D+00
      0.9286662960D+01  0.4679413484D+00
      0.3163926960D+01  0.3623119853D+00
 Atom C3       Shell     8 SP   3    bf   19 -    22          4.282046700457         -3.140561730593         -3.829357627475
      0.7868272350D+01 -0.1193324198D+00  0.6899906659D-01
      0.1881288540D+01 -0.1608541517D+00  0.3164239610D+00
      0.5442492580D+00  0.1143456438D+01  0.7443082909D+00
 Atom C3       Shell     9 SP   1    bf   23 -    26          4.282046700457         -3.140561730593         -3.829357627475
      0.1687144782D+00  0.1000000000D+01  0.1000000000D+01
 Atom C3       Shell    10 D   1     bf   27 -    32          4.282046700457         -3.140561730593         -3.829357627475
      0.8000000000D+00  0.1000000000D+01
 Atom H4       Shell    11 S   3     bf   33 -    33          4.525112743197         -3.293726773767         -5.877382055601
      0.1873113696D+02  0.3349460434D-01
      0.2825394365D+01  0.2347269535D+00
      0.6401216923D+00  0.8137573261D+00
 Atom H4       Shell    12 S   1     bf   34 -    34          4.525112743197         -3.293726773767         -5.877382055601
      0.1612777588D+00  0.1000000000D+01
 Atom H5       Shell    13 S   3     bf   35 -    35          3.951039776583         -5.068927660636         -3.120069691586
      0.1873113696D+02  0.3349460434D-01
      0.2825394365D+01  0.2347269535D+00
      0.6401216923D+00  0.8137573261D+00
 Atom H5       Shell    14 S   1     bf   36 -    36          3.951039776583         -5.068927660636         -3.120069691586
      0.1612777588D+00  0.1000000000D+01
 Atom C6       Shell    15 S   6     bf   37 -    37          6.641443231020         -2.044593271284         -2.627391859344
      0.3047524880D+04  0.1834737132D-02
      0.4573695180D+03  0.1403732281D-01
      0.1039486850D+03  0.6884262226D-01
      0.2921015530D+02  0.2321844432D+00
      0.9286662960D+01  0.4679413484D+00
      0.3163926960D+01  0.3623119853D+00
 Atom C6       Shell    16 SP   3    bf   38 -    41          6.641443231020         -2.044593271284         -2.627391859344
      0.7868272350D+01 -0.1193324198D+00  0.6899906659D-01
      0.1881288540D+01 -0.1608541517D+00  0.3164239610D+00
      0.5442492580D+00  0.1143456438D+01  0.7443082909D+00
 Atom C6       Shell    17 SP   1    bf   42 -    45          6.641443231020         -2.044593271284         -2.627391859344
      0.1687144782D+00  0.1000000000D+01  0.1000000000D+01
 Atom C6       Shell    18 D   1     bf   46 -    51          6.641443231020         -2.044593271284         -2.627391859344
      0.8000000000D+00  0.1000000000D+01
 Atom C7       Shell    19 S   6     bf   52 -    52          6.528582040042         -1.493114267157          0.214033367578
      0.3047524880D+04  0.1834737132D-02
      0.4573695180D+03  0.1403732281D-01
      0.1039486850D+03  0.6884262226D-01
      0.2921015530D+02  0.2321844432D+00
      0.9286662960D+01  0.4679413484D+00
      0.3163926960D+01  0.3623119853D+00
 Atom C7       Shell    20 SP   3    bf   53 -    56          6.528582040042         -1.493114267157          0.214033367578
      0.7868272350D+01 -0.1193324198D+00  0.6899906659D-01
      0.1881288540D+01 -0.1608541517D+00  0.3164239610D+00
      0.5442492580D+00  0.1143456438D+01  0.7443082909D+00
 Atom C7       Shell    21 SP   1    bf   57 -    60          6.528582040042         -1.493114267157          0.214033367578
      0.1687144782D+00  0.1000000000D+01  0.1000000000D+01
 Atom C7       Shell    22 D   1     bf   61 -    66          6.528582040042         -1.493114267157          0.214033367578
      0.8000000000D+00  0.1000000000D+01
 Atom C8       Shell    23 S   6     bf   67 -    67          4.032346604053         -0.020104739636          0.755875392037
      0.3047524880D+04  0.1834737132D-02
      0.4573695180D+03  0.1403732281D-01
      0.1039486850D+03  0.6884262226D-01
      0.2921015530D+02  0.2321844432D+00
      0.9286662960D+01  0.4679413484D+00
      0.3163926960D+01  0.3623119853D+00
 Atom C8       Shell    24 SP   3    bf   68 -    71          4.032346604053         -0.020104739636          0.755875392037
      0.7868272350D+01 -0.1193324198D+00  0.6899906659D-01
      0.1881288540D+01 -0.1608541517D+00  0.3164239610D+00
      0.5442492580D+00  0.1143456438D+01  0.7443082909D+00
 Atom C8       Shell    25 SP   1    bf   72 -    75          4.032346604053         -0.020104739636          0.755875392037
      0.1687144782D+00  0.1000000000D+01  0.1000000000D+01
 Atom C8       Shell    26 D   1     bf   76 -    81          4.032346604053         -0.020104739636          0.755875392037
      0.8000000000D+00  0.1000000000D+01
 Atom H9       Shell    27 S   3     bf   82 -    82          4.239792575304          1.901747606783          0.000000000000
      0.1873113696D+02  0.3349460434D-01
      0.2825394365D+01  0.2347269535D+00
      0.6401216923D+00  0.8137573261D+00
 Atom H9       Shell    28 S   1     bf   83 -    83          4.239792575304          1.901747606783          0.000000000000
      0.1612777588D+00  0.1000000000D+01
 Atom H10      Shell    29 S   3     bf   84 -    84          3.784283898651          0.175397293181          2.801375901940
      0.1873113696D+02  0.3349460434D-01
      0.2825394365D+01  0.2347269535D+00
      0.6401216923D+00  0.8137573261D+00
 Atom H10      Shell    30 S   1     bf   85 -    85          3.784283898651          0.175397293181          2.801375901940
      0.1612777588D+00  0.1000000000D+01
 Atom C11      Shell    31 S   6     bf   86 -    86          1.639985993184         -1.203413468424         -0.388617360426
      0.3047524880D+04  0.1834737132D-02
      0.4573695180D+03  0.1403732281D-01
      0.1039486850D+03  0.6884262226D-01
      0.2921015530D+02  0.2321844432D+00
      0.9286662960D+01  0.4679413484D+00
      0.3163926960D+01  0.3623119853D+00
 Atom C11      Shell    32 SP   3    bf   87 -    90          1.639985993184         -1.203413468424         -0.388617360426
      0.7868272350D+01 -0.1193324198D+00  0.6899906659D-01
      0.1881288540D+01 -0.1608541517D+00  0.3164239610D+00
      0.5442492580D+00  0.1143456438D+01  0.7443082909D+00
 Atom C11      Shell    33 SP   1    bf   91 -    94          1.639985993184         -1.203413468424         -0.388617360426
      0.1687144782D+00  0.1000000000D+01  0.1000000000D+01
 Atom C11      Shell    34 D   1     bf   95 -   100          1.639985993184         -1.203413468424         -0.388617360426
      0.8000000000D+00  0.1000000000D+01
 Atom H12      Shell    35 S   3     bf  101 -   101          1.247121227610         -3.045401169665          0.491869671964
      0.1873113696D+02  0.3349460434D-01
      0.2825394365D+01  0.2347269535D+00
      0.6401216923D+00  0.8137573261D+00
 Atom H12      Shell    36 S   1     bf  102 -   102          1.247121227610         -3.045401169665          0.491869671964
      0.1612777588D+00  0.1000000000D+01
 Atom H13      Shell    37 S   3     bf  103 -   103          0.000000000000          0.000000000000          0.000000000000
      0.1873113696D+02  0.3349460434D-01
      0.2825394365D+01  0.2347269535D+00
      0.6401216923D+00  0.8137573261D+00
 Atom H13      Shell    38 S   1     bf  104 -   104          0.000000000000          0.000000000000          0.000000000000
      0.1612777588D+00  0.1000000000D+01
 Atom C14      Shell    39 S   6     bf  105 -   105          8.690191329769         -1.591457561530         -4.050717217606
      0.3047524880D+04  0.1834737132D-02
      0.4573695180D+03  0.1403732281D-01
      0.1039486850D+03  0.6884262226D-01
      0.2921015530D+02  0.2321844432D+00
      0.9286662960D+01  0.4679413484D+00
      0.3163926960D+01  0.3623119853D+00
 Atom C14      Shell    40 SP   3    bf  106 -   109          8.690191329769         -1.591457561530         -4.050717217606
      0.7868272350D+01 -0.1193324198D+00  0.6899906659D-01
      0.1881288540D+01 -0.1608541517D+00  0.3164239610D+00
      0.5442492580D+00  0.1143456438D+01  0.7443082909D+00
 Atom C14      Shell    41 SP   1    bf  110 -   113          8.690191329769         -1.591457561530         -4.050717217606
      0.1687144782D+00  0.1000000000D+01  0.1000000000D+01
 Atom C14      Shell    42 D   1     bf  114 -   119          8.690191329769         -1.591457561530         -4.050717217606
      0.8000000000D+00  0.1000000000D+01
 Atom H15      Shell    43 S   3     bf  120 -   120          8.620375964707         -1.960419615887         -6.073196856991
      0.1873113696D+02  0.3349460434D-01
      0.2825394365D+01  0.2347269535D+00
      0.6401216923D+00  0.8137573261D+00
 Atom H15      Shell    44 S   1     bf  121 -   121          8.620375964707         -1.960419615887         -6.073196856991
      0.1612777588D+00  0.1000000000D+01
 Atom C16      Shell    45 S   6     bf  122 -   122         11.104087127367         -0.472295189481         -3.073062565058
      0.3047524880D+04  0.1834737132D-02
      0.4573695180D+03  0.1403732281D-01
      0.1039486850D+03  0.6884262226D-01
      0.2921015530D+02  0.2321844432D+00
      0.9286662960D+01  0.4679413484D+00
      0.3163926960D+01  0.3623119853D+00
 Atom C16      Shell    46 SP   3    bf  123 -   126         11.104087127367         -0.472295189481         -3.073062565058
      0.7868272350D+01 -0.1193324198D+00  0.6899906659D-01
      0.1881288540D+01 -0.1608541517D+00  0.3164239610D+00
      0.5442492580D+00  0.1143456438D+01  0.7443082909D+00
 Atom C16      Shell    47 SP   1    bf  127 -   130         11.104087127367         -0.472295189481         -3.073062565058
      0.1687144782D+00  0.1000000000D+01  0.1000000000D+01
 Atom C16      Shell    48 D   1     bf  131 -   136         11.104087127367         -0.472295189481         -3.073062565058
      0.8000000000D+00  0.1000000000D+01
 Atom H17      Shell    49 S   3     bf  137 -   137         12.737240211005         -1.324918682473         -4.017447096153
      0.1873113696D+02  0.3349460434D-01
      0.2825394365D+01  0.2347269535D+00
      0.6401216923D+00  0.8137573261D+00
 Atom H17      Shell    50 S   1     bf  138 -   138         12.737240211005         -1.324918682473         -4.017447096153
      0.1612777588D+00  0.1000000000D+01
 Atom C18      Shell    51 S   6     bf  139 -   139         11.341682072801         -0.708626739612         -0.180799188716
      0.3047524880D+04  0.1834737132D-02
      0.4573695180D+03  0.1403732281D-01
      0.1039486850D+03  0.6884262226D-01
      0.2921015530D+02  0.2321844432D+00
      0.9286662960D+01  0.4679413484D+00
      0.3163926960D+01  0.3623119853D+00
 Atom C18      Shell    52 SP   3    bf  140 -   143         11.341682072801         -0.708626739612         -0.180799188716
      0.7868272350D+01 -0.1193324198D+00  0.6899906659D-01
      0.1881288540D+01 -0.1608541517D+00  0.3164239610D+00
      0.5442492580D+00  0.1143456438D+01  0.7443082909D+00
 Atom C18      Shell    53 SP   1    bf  144 -   147         11.341682072801         -0.708626739612         -0.180799188716
      0.1687144782D+00  0.1000000000D+01  0.1000000000D+01
 Atom C18      Shell    54 D   1     bf  148 -   153         11.341682072801         -0.708626739612         -0.180799188716
      0.8000000000D+00  0.1000000000D+01
 Atom H19      Shell    55 S   3     bf  154 -   154         11.615503011511         -2.736209773392          0.186576138196
      0.1873113696D+02  0.3349460434D-01
      0.2825394365D+01  0.2347269535D+00
      0.6401216923D+00  0.8137573261D+00
 Atom H19      Shell    56 S   1     bf  155 -   155         11.615503011511         -2.736209773392          0.186576138196
      0.1612777588D+00  0.1000000000D+01
 Atom C20      Shell    57 S   6     bf  156 -   156          8.827386127318          0.190025341923          1.040269159488
      0.3047524880D+04  0.1834737132D-02
      0.4573695180D+03  0.1403732281D-01
      0.1039486850D+03  0.6884262226D-01
      0.2921015530D+02  0.2321844432D+00
      0.9286662960D+01  0.4679413484D+00
      0.3163926960D+01  0.3623119853D+00
 Atom C20      Shell    58 SP   3    bf  157 -   160          8.827386127318          0.190025341923          1.040269159488
      0.7868272350D+01 -0.1193324198D+00  0.6899906659D-01
      0.1881288540D+01 -0.1608541517D+00  0.3164239610D+00
      0.5442492580D+00  0.1143456438D+01  0.7443082909D+00
 Atom C20      Shell    59 SP   1    bf  161 -   164          8.827386127318          0.190025341923          1.040269159488
      0.1687144782D+00  0.1000000000D+01  0.1000000000D+01
 Atom C20      Shell    60 D   1     bf  165 -   170          8.827386127318          0.190025341923          1.040269159488
      0.8000000000D+00  0.1000000000D+01
 Atom H21      Shell    61 S   3     bf  171 -   171          8.478579400566          2.073881626392          0.234110819569
      0.1873113696D+02  0.3349460434D-01
      0.2825394365D+01  0.2347269535D+00
      0.6401216923D+00  0.8137573261D+00
 Atom H21      Shell    62 S   1     bf  172 -   172          8.478579400566          2.073881626392          0.234110819569
      0.1612777588D+00  0.1000000000D+01
 Atom C22      Shell    63 S   6     bf  173 -   173          9.012219276615          0.543449425508          3.935557760602
      0.3047524880D+04  0.1834737132D-02
      0.4573695180D+03  0.1403732281D-01
      0.1039486850D+03  0.6884262226D-01
      0.2921015530D+02  0.2321844432D+00
      0.9286662960D+01  0.4679413484D+00
      0.3163926960D+01  0.3623119853D+00
 Atom C22      Shell    64 SP   3    bf  174 -   177          9.012219276615          0.543449425508          3.935557760602
      0.7868272350D+01 -0.1193324198D+00  0.6899906659D-01
      0.1881288540D+01 -0.1608541517D+00  0.3164239610D+00
      0.5442492580D+00  0.1143456438D+01  0.7443082909D+00
 Atom C22      Shell    65 SP   1    bf  178 -   181          9.012219276615          0.543449425508          3.935557760602
      0.1687144782D+00  0.1000000000D+01  0.1000000000D+01
 Atom C22      Shell    66 D   1     bf  182 -   187          9.012219276615          0.543449425508          3.935557760602
      0.8000000000D+00  0.1000000000D+01
 Atom H23      Shell    67 S   3     bf  188 -   188          8.984193164078         -1.293155447536          4.886623116083
      0.1873113696D+02  0.3349460434D-01
      0.2825394365D+01  0.2347269535D+00
      0.6401216923D+00  0.8137573261D+00
 Atom H23      Shell    68 S   1     bf  189 -   189          8.984193164078         -1.293155447536          4.886623116083
      0.1612777588D+00  0.1000000000D+01
 Atom H24      Shell    69 S   3     bf  190 -   190          7.334731630529          1.555475305131          4.608234388056
      0.1873113696D+02  0.3349460434D-01
      0.2825394365D+01  0.2347269535D+00
      0.6401216923D+00  0.8137573261D+00
 Atom H24      Shell    70 S   1     bf  191 -   191          7.334731630529          1.555475305131          4.608234388056
      0.1612777588D+00  0.1000000000D+01
 Atom C25      Shell    71 S   6     bf  192 -   192         11.381422729917          1.989641698299          4.816007527593
      0.3047524880D+04  0.1834737132D-02
      0.4573695180D+03  0.1403732281D-01
      0.1039486850D+03  0.6884262226D-01
      0.2921015530D+02  0.2321844432D+00
      0.9286662960D+01  0.4679413484D+00
      0.3163926960D+01  0.3623119853D+00
 Atom C25      Shell    72 SP   3    bf  193 -   196         11.381422729917          1.989641698299          4.816007527593
      0.7868272350D+01 -0.1193324198D+00  0.6899906659D-01
      0.1881288540D+01 -0.1608541517D+00  0.3164239610D+00
      0.5442492580D+00  0.1143456438D+01  0.7443082909D+00
 Atom C25      Shell    73 SP   1    bf  197 -   200         11.381422729917          1.989641698299          4.816007527593
      0.1687144782D+00  0.1000000000D+01  0.1000000000D+01
 Atom C25      Shell    74 D   1     bf  201 -   206         11.381422729917          1.989641698299          4.816007527593
      0.8000000000D+00  0.1000000000D+01
 Atom H26      Shell    75 S   3     bf  207 -   207         11.303314112748          3.948066349204          4.127416911661
      0.1873113696D+02  0.3349460434D-01
      0.2825394365D+01  0.2347269535D+00
      0.6401216923D+00  0.8137573261D+00
 Atom H26      Shell    76 S   1     bf  208 -   208         11.303314112748          3.948066349204          4.127416911661
      0.1612777588D+00  0.1000000000D+01
 Atom H27      Shell    77 S   3     bf  209 -   209         11.356171037699          2.087830148513          6.882088893631
      0.1873113696D+02  0.3349460434D-01
      0.2825394365D+01  0.2347269535D+00
      0.6401216923D+00  0.8137573261D+00
 Atom H27      Shell    78 S   1     bf  210 -   210         11.356171037699          2.087830148513          6.882088893631
      0.1612777588D+00  0.1000000000D+01
 Atom C28      Shell    79 S   6     bf  211 -   211         13.817852434505          0.746495112767          3.819254622445
      0.3047524880D+04  0.1834737132D-02
      0.4573695180D+03  0.1403732281D-01
      0.1039486850D+03  0.6884262226D-01
      0.2921015530D+02  0.2321844432D+00
      0.9286662960D+01  0.4679413484D+00
      0.3163926960D+01  0.3623119853D+00
 Atom C28      Shell    80 SP   3    bf  212 -   215         13.817852434505          0.746495112767          3.819254622445
      0.7868272350D+01 -0.1193324198D+00  0.6899906659D-01
      0.1881288540D+01 -0.1608541517D+00  0.3164239610D+00
      0.5442492580D+00  0.1143456438D+01  0.7443082909D+00
 Atom C28      Shell    81 SP   1    bf  216 -   219         13.817852434505          0.746495112767          3.819254622445
      0.1687144782D+00  0.1000000000D+01  0.1000000000D+01
 Atom C28      Shell    82 D   1     bf  220 -   225         13.817852434505          0.746495112767          3.819254622445
      0.8000000000D+00  0.1000000000D+01
 Atom C29      Shell    83 S   6     bf  226 -   226         13.617611403184          0.743182895287          0.884026187081
      0.3047524880D+04  0.1834737132D-02
      0.4573695180D+03  0.1403732281D-01
      0.1039486850D+03  0.6884262226D-01
      0.2921015530D+02  0.2321844432D+00
      0.9286662960D+01  0.4679413484D+00
      0.3163926960D+01  0.3623119853D+00
 Atom C29      Shell    84 SP   3    bf  227 -   230         13.617611403184          0.743182895287          0.884026187081
      0.7868272350D+01 -0.1193324198D+00  0.6899906659D-01
      0.1881288540D+01 -0.1608541517D+00  0.3164239610D+00
      0.5442492580D+00  0.1143456438D+01  0.7443082909D+00
 Atom C29      Shell    85 SP   1    bf  231 -   234         13.617611403184          0.743182895287          0.884026187081
      0.1687144782D+00  0.1000000000D+01  0.1000000000D+01
 Atom C29      Shell    86 D   1     bf  235 -   240         13.617611403184          0.743182895287          0.884026187081
      0.8000000000D+00  0.1000000000D+01
 Atom H30      Shell    87 S   3     bf  241 -   241         13.342997308621          2.731481791991          0.348774733688
      0.1873113696D+02  0.3349460434D-01
      0.2825394365D+01  0.2347269535D+00
      0.6401216923D+00  0.8137573261D+00
 Atom H30      Shell    88 S   1     bf  242 -   242         13.342997308621          2.731481791991          0.348774733688
      0.1612777588D+00  0.1000000000D+01
 Atom C31      Shell    89 S   6     bf  243 -   243         16.283023664150          0.000000000000          0.000000000000
      0.3047524880D+04  0.1834737132D-02
      0.4573695180D+03  0.1403732281D-01
      0.1039486850D+03  0.6884262226D-01
      0.2921015530D+02  0.2321844432D+00
      0.9286662960D+01  0.4679413484D+00
      0.3163926960D+01  0.3623119853D+00
 Atom C31      Shell    90 SP   3    bf  244 -   247         16.283023664150          0.000000000000          0.000000000000
      0.7868272350D+01 -0.1193324198D+00  0.6899906659D-01
      0.1881288540D+01 -0.1608541517D+00  0.3164239610D+00
      0.5442492580D+00  0.1143456438D+01  0.7443082909D+00
 Atom C31      Shell    91 SP   1    bf  248 -   251         16.283023664150          0.000000000000          0.000000000000
      0.1687144782D+00  0.1000000000D+01  0.1000000000D+01
 Atom C31      Shell    92 D   1     bf  252 -   257         16.283023664150          0.000000000000          0.000000000000
      0.8000000000D+00  0.1000000000D+01
 Atom H32      Shell    93 S   3     bf  258 -   258         16.672801070758          0.648403454325         -1.918826592524
      0.1873113696D+02  0.3349460434D-01
      0.2825394365D+01  0.2347269535D+00
      0.6401216923D+00  0.8137573261D+00
 Atom H32      Shell    94 S   1     bf  259 -   259         16.672801070758          0.648403454325         -1.918826592524
      0.1612777588D+00  0.1000000000D+01
 Atom H33      Shell    95 S   3     bf  260 -   260         16.509654890993         -2.062088658179          0.011053291610
      0.1873113696D+02  0.3349460434D-01
      0.2825394365D+01  0.2347269535D+00
      0.6401216923D+00  0.8137573261D+00
 Atom H33      Shell    96 S   1     bf  261 -   261         16.509654890993         -2.062088658179          0.011053291610
      0.1612777588D+00  0.1000000000D+01
 Atom C34      Shell    97 S   6     bf  262 -   262         18.045821900464          1.257872238628          1.982339985494
      0.3047524880D+04  0.1834737132D-02
      0.4573695180D+03  0.1403732281D-01
      0.1039486850D+03  0.6884262226D-01
      0.2921015530D+02  0.2321844432D+00
      0.9286662960D+01  0.4679413484D+00
      0.3163926960D+01  0.3623119853D+00
 Atom C34      Shell    98 SP   3    bf  263 -   266         18.045821900464          1.257872238628          1.982339985494
      0.7868272350D+01 -0.1193324198D+00  0.6899906659D-01
      0.1881288540D+01 -0.1608541517D+00  0.3164239610D+00
      0.5442492580D+00  0.1143456438D+01  0.7443082909D+00
 Atom C34      Shell    99 SP   1    bf  267 -   270         18.045821900464          1.257872238628          1.982339985494
      0.1687144782D+00  0.1000000000D+01  0.1000000000D+01
 Atom C34      Shell   100 D   1     bf  271 -   276         18.045821900464          1.257872238628          1.982339985494
      0.8000000000D+00  0.1000000000D+01
 Atom H35      Shell   101 S   3     bf  277 -   277         19.404797775325         -0.113177020907          2.735746166879
      0.1873113696D+02  0.3349460434D-01
      0.2825394365D+01  0.2347269535D+00
      0.6401216923D+00  0.8137573261D+00
 Atom H35      Shell   102 S   1     bf  278 -   278         19.404797775325         -0.113177020907          2.735746166879
      0.1612777588D+00  0.1000000000D+01
 Atom H36      Shell   103 S   3     bf  279 -   279         19.163528597576          2.778703818175          1.136535796019
      0.1873113696D+02  0.3349460434D-01
      0.2825394365D+01  0.2347269535D+00
      0.6401216923D+00  0.8137573261D+00
 Atom H36      Shell   104 S   1     bf  280 -   280         19.163528597576          2.778703818175          1.136535796019
      0.1612777588D+00  0.1000000000D+01
 Atom C37      Shell   105 S   6     bf  281 -   281         16.321581730652          2.294741289474          4.148909995292
      0.3047524880D+04  0.1834737132D-02
      0.4573695180D+03  0.1403732281D-01
      0.1039486850D+03  0.6884262226D-01
      0.2921015530D+02  0.2321844432D+00
      0.9286662960D+01  0.4679413484D+00
      0.3163926960D+01  0.3623119853D+00
 Atom C37      Shell   106 SP   3    bf  282 -   285         16.321581730652          2.294741289474          4.148909995292
      0.7868272350D+01 -0.1193324198D+00  0.6899906659D-01
      0.1881288540D+01 -0.1608541517D+00  0.3164239610D+00
      0.5442492580D+00  0.1143456438D+01  0.7443082909D+00
[...]
 **** Fit      -0.000685
 **** Fit      -0.000559
 **** Fit       0.000080
 **** Fit       0.000272
 **** Fit       0.000582
 **** Fit       0.001094
 **** Fit       0.001910
 **** Fit       0.003066
 **** Fit       0.004299
 **** Fit      -0.002197
 **** Fit      -0.004307
 **** Fit      -0.005058
 **** Fit      -0.004755
 **** Fit      -0.003897
 **** Fit      -0.002916
 **** Fit      -0.002074
 **** Fit      -0.001461
 **** Fit      -0.001060
 **** Fit      -0.000814
 **** Fit      -0.000668
 **** Fit      -0.000228
 **** Fit      -0.000114
 **** Fit       0.000082
 **** Fit       0.000414
 **** Fit       0.000950
 **** Fit       0.001694
 **** Fit       0.002425
 **** Fit       0.002557
 **** Fit      -0.000799
 **** Fit      -0.003191
 **** Fit      -0.004777
 **** Fit      -0.005283
 **** Fit      -0.004933
 **** Fit      -0.004107
 **** Fit      -0.003161
 **** Fit      -0.002327
 **** Fit      -0.001698
 **** Fit      -0.001267
 **** Fit      -0.000989
 **** Fit      -0.000814
 **** Fit      -0.000524
 **** Fit      -0.000467
 **** Fit      -0.000353
 **** Fit      -0.000166
 **** Fit       0.000067
 **** Fit       0.000191
 **** Fit      -0.000114
 **** Fit      -0.001125
 **** Fit      -0.002685
 **** Fit      -0.004202
 **** Fit      -0.005147
 **** Fit      -0.005365
 **** Fit      -0.004982
 **** Fit      -0.004234
 **** Fit      -0.003371
 **** Fit      -0.002580
 **** Fit      -0.001953
 **** Fit      -0.001499
 **** Fit      -0.001188
 **** Fit      -0.000898
 **** Fit      -0.000963
 **** Fit      -0.001038
 **** Fit      -0.001133
 **** Fit      -0.001286
 **** Fit      -0.001579
 **** Fit      -0.002128
 **** Fit      -0.002978
 **** Fit      -0.003974
 **** Fit      -0.004817
 **** Fit      -0.005273
 **** Fit      -0.005277
 **** Fit      -0.004889
 **** Fit      -0.004240
 **** Fit      -0.003487
 **** Fit      -0.002769
 **** Fit      -0.002170
 **** Fit      -0.001712
 **** Fit      -0.001378
 **** Fit      -0.001340
 **** Fit      -0.001533
 **** Fit      -0.001789
 **** Fit      -0.002134
 **** Fit      -0.002596
 **** Fit      -0.003184
 **** Fit      -0.003852
 **** Fit      -0.004482
 **** Fit      -0.004933
 **** Fit      -0.005115
 **** Fit      -0.005011
 **** Fit      -0.004652
 **** Fit      -0.004108
 **** Fit      -0.003476
 **** Fit      -0.002853
 **** Fit      -0.002309
 **** Fit      -0.001869
 **** Fit      -0.001575
 **** Fit      -0.001817
 **** Fit      -0.002126
 **** Fit      -0.002512
 **** Fit      -0.002976
 **** Fit      -0.003488
 **** Fit      -0.003990
 **** Fit      -0.004402
 **** Fit      -0.004658
 **** Fit      -0.004722
 **** Fit      -0.004593
 **** Fit      -0.004290
 **** Fit      -0.003852
 **** Fit      -0.003342
 **** Fit      -0.002825
 **** Fit      -0.002352
 **** Fit      -0.001922
 **** Fit      -0.002216
 **** Fit      -0.002564
 **** Fit      -0.002953
 **** Fit      -0.003353
 **** Fit      -0.003718
 **** Fit      -0.003999
 **** Fit      -0.004161
 **** Fit      -0.004187
 **** Fit      -0.004078
 **** Fit      -0.003844
 **** Fit      -0.003511
 **** Fit      -0.003115
 **** Fit      -0.002702
 **** Fit      -0.002430
 **** Fit      -0.002728
 **** Fit      -0.003021
 **** Fit      -0.003279
 **** Fit      -0.003475
 **** Fit      -0.003589
 **** Fit      -0.003609
 **** Fit      -0.003535
 **** Fit      -0.003370
 **** Fit      -0.002637
 **** Fit      -0.002817
 **** Fit      -0.002955
 **** Fit      -0.003039
 **** Fit      -0.003062
 **** Fit      -0.003020
 **** Fit      -0.002913
 **** Fit      -0.002497
 **** Fit      -0.002562
 **** Fit      -0.002587
 **** Fit       0.000131
 **** Fit      -0.000032
 **** Fit      -0.000264
 **** Fit      -0.000550
 **** Fit      -0.000853
 **** Fit      -0.001126
 **** Fit      -0.001323
 **** Fit       0.000428
 **** Fit       0.000350
 **** Fit       0.000176
 **** Fit      -0.000109
 **** Fit      -0.000490
 **** Fit      -0.000915
 **** Fit      -0.001304
 **** Fit      -0.001586
 **** Fit      -0.001720
 **** Fit       0.000633
 **** Fit       0.000680
 **** Fit       0.000651
 **** Fit       0.000493
 **** Fit       0.000163
 **** Fit      -0.000333
 **** Fit      -0.000923
 **** Fit      -0.001479
 **** Fit      -0.001882
 **** Fit      -0.002067
 **** Fit      -0.002041
 **** Fit      -0.001856
 **** Fit      -0.001587
 **** Fit      -0.001299
 **** Fit       0.000673
 **** Fit       0.000827
 **** Fit       0.000963
 **** Fit       0.001025
 **** Fit       0.000926
 **** Fit       0.000576
 **** Fit      -0.000048
 **** Fit      -0.000849
 **** Fit      -0.001630
 **** Fit      -0.002197
 **** Fit      -0.002453
 **** Fit      -0.002412
 **** Fit      -0.002162
 **** Fit      -0.001810
 **** Fit      -0.001447
 **** Fit      -0.001129
 **** Fit       0.000549
 **** Fit       0.000743
 **** Fit       0.000974
 **** Fit       0.001220
 **** Fit       0.001411
 **** Fit       0.001421
 **** Fit       0.001092
 **** Fit       0.000346
 **** Fit      -0.000700
 **** Fit      -0.001754
 **** Fit      -0.002519
 **** Fit      -0.002858
 **** Fit      -0.002800
 **** Fit      -0.002476
 **** Fit      -0.002036
 **** Fit      -0.001596
 **** Fit      -0.001223
 **** Fit      -0.000939
 **** Fit       0.000494
 **** Fit       0.000721
 **** Fit       0.001013
 **** Fit       0.001356
 **** Fit       0.001679
 **** Fit       0.001819
 **** Fit       0.001543
 **** Fit       0.000702
 **** Fit      -0.000574
 **** Fit      -0.001891
 **** Fit      -0.002844
 **** Fit      -0.003253
 **** Fit      -0.003174
 **** Fit      -0.002779
 **** Fit      -0.002257
 **** Fit      -0.001749
 **** Fit      -0.001329
 **** Fit      -0.001015
 **** Fit       0.000349
 **** Fit       0.000577
 **** Fit       0.000885
 **** Fit       0.001267
 **** Fit       0.001655
 **** Fit       0.001871
 **** Fit       0.001635
 **** Fit       0.000745
 **** Fit      -0.000666
 **** Fit      -0.002132
 **** Fit      -0.003181
 **** Fit      -0.003614
 **** Fit      -0.003503
 **** Fit      -0.003052
 **** Fit      -0.002470
 **** Fit      -0.001911
 **** Fit      -0.001453
 **** Fit      -0.001115
 **** Fit       0.000117
 **** Fit       0.000306
 **** Fit       0.000567
 **** Fit       0.000895
 **** Fit       0.001230
 **** Fit       0.001399
 **** Fit       0.001135
 **** Fit       0.000246
 **** Fit      -0.001134
 **** Fit      -0.002545
 **** Fit      -0.003532
 **** Fit      -0.003911
 **** Fit      -0.003760
 **** Fit      -0.003276
 **** Fit      -0.002667
 **** Fit      -0.002082
 **** Fit      -0.001601
 **** Fit      -0.001242
 **** Fit      -0.000989
 **** Fit      -0.000176
 **** Fit      -0.000061
 **** Fit       0.000098
 **** Fit       0.000292
 **** Fit       0.000462
 **** Fit       0.000471
 **** Fit       0.000118
 **** Fit      -0.000721
 **** Fit      -0.001910
 **** Fit      -0.003074
 **** Fit      -0.003856
 **** Fit      -0.004118
 **** Fit      -0.003923
 **** Fit      -0.003437
 **** Fit      -0.002834
 **** Fit      -0.002252
 **** Fit      -0.001763
 **** Fit      -0.001389
 **** Fit      -0.000492
 **** Fit      -0.000466
 **** Fit      -0.000430
 **** Fit      -0.000402
 **** Fit      -0.000431
 **** Fit      -0.000611
 **** Fit      -0.001052
 **** Fit      -0.001796
 **** Fit      -0.002717
 **** Fit      -0.003555
 **** Fit      -0.004081
 **** Fit      -0.004208
 **** Fit      -0.003981
 **** Fit      -0.003518
 **** Fit      -0.002953
 **** Fit      -0.002398
 **** Fit      -0.001919
 **** Fit      -0.001541
 **** Fit      -0.000843
 **** Fit      -0.000917
 **** Fit      -0.001030
 **** Fit      -0.001218
 **** Fit      -0.001529
 **** Fit      -0.002004
 **** Fit      -0.002627
 **** Fit      -0.003293
 **** Fit      -0.003843
 **** Fit      -0.004150
 **** Fit      -0.004168
 **** Fit      -0.003930
 **** Fit      -0.003510
 **** Fit      -0.003004
 **** Fit      -0.002495
 **** Fit      -0.002043
 **** Fit      -0.001673
 **** Fit      -0.001144
 **** Fit      -0.001293
 **** Fit      -0.001494
 **** Fit      -0.001765
 **** Fit      -0.002126
 **** Fit      -0.002575
 **** Fit      -0.003072
 **** Fit      -0.003540
 **** Fit      -0.003888
 **** Fit      -0.004049
 **** Fit      -0.004005
 **** Fit      -0.003777
 **** Fit      -0.003412
 **** Fit      -0.002975
 **** Fit      -0.002528
 **** Fit      -0.002117
 **** Fit      -0.001534
 **** Fit      -0.001767
 **** Fit      -0.002057
 **** Fit      -0.002403
 **** Fit      -0.002788
 **** Fit      -0.003172
 **** Fit      -0.003502
 **** Fit      -0.003724
 **** Fit      -0.003806
 **** Fit      -0.003739
 **** Fit      -0.003539
 **** Fit      -0.003235
 **** Fit      -0.002871
 **** Fit      -0.002143
 **** Fit      -0.002441
 **** Fit      -0.002750
 **** Fit      -0.003040
 **** Fit      -0.003274
 **** Fit      -0.003423
 **** Fit      -0.003467
 **** Fit      -0.003404
 **** Fit      -0.002569
 **** Fit      -0.002783
 **** Fit      -0.002952
 **** Fit      -0.003057
 **** Fit       0.000162
 **** Fit       0.000014
 **** Fit      -0.000210
 **** Fit      -0.000494
 **** Fit      -0.000804
 **** Fit      -0.001089
 **** Fit      -0.001304
 **** Fit       0.000392
 **** Fit       0.000332
 **** Fit       0.000180
 **** Fit      -0.000080
 **** Fit      -0.000438
 **** Fit      -0.000844
 **** Fit      -0.001225
 **** Fit      -0.001513
 **** Fit      -0.001664
 **** Fit       0.000496
 **** Fit       0.000542
 **** Fit       0.000518
 **** Fit       0.000378
 **** Fit       0.000087
 **** Fit      -0.000348
 **** Fit      -0.000867
 **** Fit      -0.001364
 **** Fit      -0.001739
 **** Fit      -0.001932
 **** Fit      -0.001942
 **** Fit       0.000444
 **** Fit       0.000561
 **** Fit       0.000654
 **** Fit       0.000677
 **** Fit       0.000562
 **** Fit       0.000253
 **** Fit      -0.000258
 **** Fit      -0.000894
 **** Fit      -0.001515
 **** Fit      -0.001980
 **** Fit      -0.002215
 **** Fit      -0.002219
 **** Fit      -0.002050
 **** Fit      -0.001785
 **** Fit       0.000404
 **** Fit       0.000548
 **** Fit       0.000678
 **** Fit       0.000740
 **** Fit       0.000652
 **** Fit       0.000334
 **** Fit      -0.000236
 **** Fit      -0.000972
 **** Fit      -0.001696
 **** Fit      -0.002236
 **** Fit      -0.002499
 **** Fit      -0.002491
 **** Fit      -0.002284
 **** Fit      -0.001973
 **** Fit      -0.001638
 **** Fit       0.000281
 **** Fit       0.000426
 **** Fit       0.000563
 **** Fit       0.000637
 **** Fit       0.000557
 **** Fit       0.000230
 **** Fit      -0.000374
 **** Fit      -0.001161
 **** Fit      -0.001936
 **** Fit      -0.002504
 **** Fit      -0.002768
 **** Fit      -0.002739
 **** Fit      -0.002499
 **** Fit      -0.002151
 **** Fit      -0.001783
 **** Fit      -0.001449
 **** Fit       0.000074
 **** Fit       0.000188
 **** Fit       0.000292
 **** Fit       0.000333
 **** Fit       0.000226
 **** Fit      -0.000118
 **** Fit      -0.000722
 **** Fit      -0.001493
 **** Fit      -0.002239
 **** Fit      -0.002772
 **** Fit      -0.003002
 **** Fit      -0.002944
 **** Fit      -0.002680
 **** Fit      -0.002310
 **** Fit      -0.001922
 **** Fit      -0.001571
 **** Fit      -0.000196
 **** Fit      -0.000140
 **** Fit      -0.000103
 **** Fit      -0.000133
 **** Fit      -0.000297
 **** Fit      -0.000661
 **** Fit      -0.001234
 **** Fit      -0.001924
 **** Fit      -0.002568
 **** Fit      -0.003010
 **** Fit      -0.003179
 **** Fit      -0.003089
 **** Fit      -0.002812
 **** Fit      -0.002439
 **** Fit      -0.002048
 **** Fit      -0.001691
 **** Fit      -0.000493
 **** Fit      -0.000506
 **** Fit      -0.000551
 **** Fit      -0.000663
 **** Fit      -0.000889
 **** Fit      -0.001264
 **** Fit      -0.001777
 **** Fit      -0.002349
 **** Fit      -0.002853
 **** Fit      -0.003180
 **** Fit      -0.003278
 **** Fit      -0.003161
 **** Fit      -0.002886
 **** Fit      -0.002526
 **** Fit      -0.002147
 **** Fit      -0.000852
 **** Fit      -0.000968
 **** Fit      -0.001147
 **** Fit      -0.001414
 **** Fit      -0.001778
 **** Fit      -0.002217
 **** Fit      -0.002664
 **** Fit      -0.003033
 **** Fit      -0.003251
 **** Fit      -0.003288
 **** Fit      -0.003155
 **** Fit      -0.002895
 **** Fit      -0.002561
 **** Fit      -0.001133
 **** Fit      -0.001295
 **** Fit      -0.001511
 **** Fit      -0.001788
 **** Fit      -0.002121
 **** Fit      -0.002481
 **** Fit      -0.002819
 **** Fit      -0.003078
 **** Fit      -0.003214
 **** Fit      -0.003210
 **** Fit      -0.001730
 **** Fit      -0.001991
 **** Fit      -0.002278
 **** Fit      -0.002567
 **** Fit      -0.002819
 **** Fit      -0.002999
 **** Fit      -0.003082
 **** Fit      -0.002286
 **** Fit      -0.002511
 **** Fit      -0.002699
 **** Fit      -0.000038
 **** Fit      -0.000240
 **** Fit      -0.000499
 **** Fit      -0.000783
 **** Fit      -0.001048
 **** Fit       0.000237
 **** Fit       0.000177
 **** Fit       0.000040
 **** Fit      -0.000188
 **** Fit      -0.000494
 **** Fit      -0.000840
 **** Fit      -0.001168
 **** Fit      -0.001422
 **** Fit       0.000272
 **** Fit       0.000226
 **** Fit       0.000089
 **** Fit      -0.000159
 **** Fit      -0.000510
 **** Fit      -0.000916
 **** Fit      -0.001305
 **** Fit      -0.001604
 **** Fit      -0.001771
 **** Fit       0.000218
 **** Fit       0.000245
 **** Fit       0.000209
 **** Fit       0.000072
 **** Fit      -0.000193
 **** Fit      -0.000578
 **** Fit      -0.001032
 **** Fit      -0.001467
 **** Fit      -0.001799
 **** Fit      -0.001978
 **** Fit      -0.001999
 **** Fit       0.000109
 **** Fit       0.000133
 **** Fit       0.000094
 **** Fit      -0.000048
 **** Fit      -0.000326
 **** Fit      -0.000731
 **** Fit      -0.001207
 **** Fit      -0.001661
 **** Fit      -0.002003
 **** Fit      -0.002179
 **** Fit      -0.002187
 **** Fit      -0.000072
 **** Fit      -0.000068
 **** Fit      -0.000126
 **** Fit      -0.000285
 **** Fit      -0.000571
 **** Fit      -0.000977
 **** Fit      -0.001445
 **** Fit      -0.001883
 **** Fit      -0.002204
 **** Fit      -0.002360
 **** Fit      -0.002348
 **** Fit      -0.000306
 **** Fit      -0.000338
 **** Fit      -0.000429
 **** Fit      -0.000611
 **** Fit      -0.000901
 **** Fit      -0.001288
 **** Fit      -0.001718
 **** Fit      -0.002108
 **** Fit      -0.002384
 **** Fit      -0.002505
 **** Fit      -0.002471
 **** Fit      -0.000638
 **** Fit      -0.000766
 **** Fit      -0.000968
 **** Fit      -0.001255
 **** Fit      -0.001607
 **** Fit      -0.001978
 **** Fit      -0.002302
 **** Fit      -0.002520
 **** Fit      -0.002600
 **** Fit      -0.000923
 **** Fit      -0.001079
 **** Fit      -0.001294
 **** Fit      -0.001565
 **** Fit      -0.001874
 **** Fit      -0.002180
 **** Fit      -0.002433
 **** Fit      -0.002592
 **** Fit      -0.002636
 **** Fit      -0.001327
 **** Fit      -0.001540
 **** Fit      -0.001787
 **** Fit      -0.002049
 **** Fit      -0.002293
 **** Fit      -0.002484
 **** Fit      -0.002594
 **** Fit      -0.002122
 **** Fit      -0.000178
 **** Fit      -0.000370
 **** Fit      -0.000615
 **** Fit      -0.000885
 **** Fit      -0.001140
 **** Fit      -0.000099
 **** Fit      -0.000232
 **** Fit      -0.000437
 **** Fit      -0.000702
 **** Fit      -0.000997
 **** Fit      -0.001275
 **** Fit      -0.001491
 **** Fit      -0.000204
 **** Fit      -0.000345
 **** Fit      -0.000559
 **** Fit      -0.000836
 **** Fit      -0.001142
 **** Fit      -0.001428
 **** Fit      -0.001647
 **** Fit      -0.000368
 **** Fit      -0.000518
 **** Fit      -0.000738
 **** Fit      -0.001015
 **** Fit      -0.001316
 **** Fit      -0.001593
 **** Fit      -0.001800
 **** Fit      -0.000577
 **** Fit      -0.000736
 **** Fit      -0.000956
 **** Fit      -0.001223
 **** Fit      -0.001504
 **** Fit      -0.001756
 **** Fit      -0.001939
 **** Fit      -0.000969
 **** Fit      -0.001183
 **** Fit      -0.001430
 **** Fit      -0.001680
 **** Fit      -0.001897
 **** Fit      -0.001385
 **** Fit      -0.001606
 **** Fit      -0.001820
 -----------------------------------------------------------------
 Leave Link  602 at Fri Apr 28 12:51:08 2017, MaxMem=    33554432 cpu:        41.3
 (Enter /home/michal/g09/l9999.exe)

 Test job not archived.
 1\1\GINC-LINUX\SP\RHF\6-31G(d)\C27H46O3\MICHAL\28-Apr-2017\0\\#P HF/6-
 31G* SCF(Conver=6) NoSymm Test Pop=chelpg IOp(6/33=2) GFInput GFPrint\
 \MEP - Input generated by R.E.D.-III.x MOLECULE\\0,1\C,0,1.01274776,-0
 .82734206,-1.71543912\H,0,1.11375212,0.15427155,-2.19377145\C,0,2.2659
 6152,-1.66191369,-2.02640878\H,0,2.39458653,-1.74296514,-3.11017663\H,
 0,2.0908002,-2.68236099,-1.65106977\C,0,3.51450039,-1.08195216,-1.3903
 5589\C,0,3.45477682,-0.79012204,0.11326158\C,0,2.13382592,-0.01063897,
 0.39999203\H,0,2.2436016,1.00636149,0.\H,0,2.00255679,0.09281625,1.482
 42428\C,0,0.86784321,-0.63681898,-0.20564745\H,0,0.65994813,-1.6115568
 9,0.26028622\H,0,0.,0.,0.\C,0,4.59865119,-0.84216307,-2.14354723\H,0,4
 .56170649,-1.03740938,-3.21379736\C,0,5.87602983,-0.24992785,-1.626194
 67\H,0,6.74025722,-0.70111677,-2.12594144\C,0,6.00175966,-0.37498912,-
 0.09567481\H,0,6.14665946,-1.44793985,0.09873184\C,0,4.67125155,0.1005
 5708,0.55048673\H,0,4.48667098,1.09745089,0.12388611\C,0,4.76906104,0.
 28758105,2.08260747\H,0,4.75423026,-0.68430839,2.58588958\H,0,3.881372
 81,0.82312208,2.43857261\C,0,6.02278951,1.05287304,2.54852142\H,0,5.98
 145621,2.08922673,2.18413496\H,0,6.00942689,1.10483213,3.64184459\C,0,
 7.31209258,0.3950282,2.0210625\C,0,7.20612959,0.39327545,0.46780651\H,
 0,7.06081007,1.44543791,0.18456364\C,0,8.61660501,0.,0.\H,0,8.82286633
 ,0.34312033,-1.0153993\H,0,8.73653309,-1.09121032,0.00584915\C,0,9.549
 43766,0.66563732,1.04900914\H,0,10.26857672,-0.0598907,1.44769452\H,0,
 10.14090257,1.47042673,0.60142884\C,0,8.63700906,1.21432479,2.19550861
 \H,0,8.37646692,2.2552507,1.95448028\C,0,7.48089283,-1.02512488,2.6095
 1296\H,0,6.68442577,-1.7050669,2.29665427\H,0,8.42898921,-1.48215293,2
 .31121701\H,0,7.4654986,-0.99380057,3.70440849\C,0,9.35461843,1.223480
 13,3.56845887\H,0,9.63173472,0.18442519,3.79960207\C,0,8.4764998,1.727
 6024,4.72948407\H,0,8.00958754,2.69260529,4.50339812\H,0,9.07862222,1.
 85472621,5.63710652\H,0,7.6747732,1.02455072,4.96915514\C,0,3.43490119
 ,-2.14559249,0.87191955\H,0,3.20311733,-2.00395956,1.93161766\H,0,2.68
 069715,-2.8246655,0.46700099\H,0,4.40004281,-2.65608584,0.79839639\O,0
 ,5.80559599,1.13482016,-2.08140906\O,0,7.15853484,1.63644753,-2.338224
 49\H,0,7.06616331,1.87703003,-3.27411457\O,0,-0.15841143,-1.38946112,-
 2.31316922\H,0,-0.32947168,-2.25159014,-1.90865609\C,0,10.69498393,2.0
 0750062,3.52306084\H,0,11.17957467,1.88956315,4.50344151\H,0,11.364779
 4,1.52763455,2.80074008\C,0,10.59673255,3.51041275,3.20981029\H,0,10.2
 1275602,3.65941542,2.19314664\H,0,9.86061991,3.97465941,3.87795492\C,0
 ,11.92429174,4.27349857,3.38089081\H,0,12.26291908,4.15096606,4.420018
 38\H,0,11.73102208,5.34879256,3.25066542\C,0,13.08398648,3.87894799,2.
 44154189\H,0,13.2796255,2.80428815,2.56578842\C,0,12.75107372,4.130550
 01,0.96230728\H,0,12.5300758,5.1918389,0.78862347\H,0,13.59549972,3.85
 791786,0.31897863\H,0,11.88384908,3.55154573,0.62923896\C,0,14.3659503
 4,4.62843847,2.83893261\H,0,14.23288454,5.71308495,2.73486806\H,0,15.2
 1130895,4.33567477,2.2056772\H,0,14.64085732,4.42578298,3.88047918\\Ve
 rsion=EM64L-G09RevD.01\HF=-1273.6791383\RMSD=5.492e-07\Dipole=0.192341
 ,-0.7073216,0.1699529\Quadrupole=-4.0946467,2.1808707,1.913776,-5.2300
 298,-8.0149261,-1.2508661\PG=C01 [X(C27H46O3)]\\@


 ... UNTIL SCIENCE IS MIXED WITH EMOTION AND APPEALS TO THE HEART AND
 IMAGINATION , IT IS LIKE DEAD INORGANIC MATTER; AND WHEN IT IS SO MIXED
 AND SO TRANSFORMED IT IS LITERATURE.

                                  -- JOHN BURROUGHS
 Job cpu time:       0 days  0 hours 12 minutes 47.0 seconds.
 File lengths (MBytes):  RWF=    159 Int=      0 D2E=      0 Chk=     11 Scr=      1
 Normal termination of Gaussian 09 at Fri Apr 28 12:51:08 2017.
