 Entering Gaussian System, Link 0=/home/michal/g09/g09
 Input=JOB2-gau_m1-5-2.com
 Output=JOB2-gau_m1-5-2.log
 Initial command:
 /home/michal/g09/l1.exe "/home/michal/gauss_scratch/Gau-31295.inp" -scrdir="/home/michal/gauss_scratch/"
 Entering Link 1 = /home/michal/g09/l1.exe PID=     31296.
  
 Copyright (c) 1988,1990,1992,1993,1995,1998,2003,2009,2013,
            Gaussian, Inc.  All Rights Reserved.
  
 This is part of the Gaussian(R) 09 program.  It is based on
 the Gaussian(R) 03 system (copyright 2003, Gaussian, Inc.),
 the Gaussian(R) 98 system (copyright 1998, Gaussian, Inc.),
 the Gaussian(R) 94 system (copyright 1995, Gaussian, Inc.),
 the Gaussian 92(TM) system (copyright 1992, Gaussian, Inc.),
 the Gaussian 90(TM) system (copyright 1990, Gaussian, Inc.),
 the Gaussian 88(TM) system (copyright 1988, Gaussian, Inc.),
 the Gaussian 86(TM) system (copyright 1986, Carnegie Mellon
 University), and the Gaussian 82(TM) system (copyright 1983,
 Carnegie Mellon University). Gaussian is a federally registered
 trademark of Gaussian, Inc.
  
 This software contains proprietary and confidential information,
 including trade secrets, belonging to Gaussian, Inc.
  
 This software is provided under written license and may be
 used, copied, transmitted, or stored only in accord with that
 written license.
  
 The following legend is applicable only to US Government
 contracts under FAR:
  
                    RESTRICTED RIGHTS LEGEND
  
 Use, reproduction and disclosure by the US Government is
 subject to restrictions as set forth in subparagraphs (a)
 and (c) of the Commercial Computer Software - Restricted
 Rights clause in FAR 52.227-19.
  
 Gaussian, Inc.
 340 Quinnipiac St., Bldg. 40, Wallingford CT 06492
  
  
 ---------------------------------------------------------------
 Warning -- This program may not be used in any manner that
 competes with the business of Gaussian, Inc. or will provide
 assistance to any competitor of Gaussian, Inc.  The licensee
 of this program is prohibited from giving any competitor of
 Gaussian, Inc. access to this program.  By using this program,
 the user acknowledges that Gaussian, Inc. is engaged in the
 business of creating and licensing software in the field of
 computational chemistry and represents and warrants to the
 licensee that it is not a competitor of Gaussian, Inc. and that
 it will not use this program in any manner prohibited above.
 ---------------------------------------------------------------
  

 Cite this work as:
 Gaussian 09, Revision D.01,
 M. J. Frisch, G. W. Trucks, H. B. Schlegel, G. E. Scuseria, 
 M. A. Robb, J. R. Cheeseman, G. Scalmani, V. Barone, B. Mennucci, 
 G. A. Petersson, H. Nakatsuji, M. Caricato, X. Li, H. P. Hratchian, 
 A. F. Izmaylov, J. Bloino, G. Zheng, J. L. Sonnenberg, M. Hada, 
 M. Ehara, K. Toyota, R. Fukuda, J. Hasegawa, M. Ishida, T. Nakajima, 
 Y. Honda, O. Kitao, H. Nakai, T. Vreven, J. A. Montgomery, Jr., 
 J. E. Peralta, F. Ogliaro, M. Bearpark, J. J. Heyd, E. Brothers, 
 K. N. Kudin, V. N. Staroverov, T. Keith, R. Kobayashi, J. Normand, 
 K. Raghavachari, A. Rendell, J. C. Burant, S. S. Iyengar, J. Tomasi, 
 M. Cossi, N. Rega, J. M. Millam, M. Klene, J. E. Knox, J. B. Cross, 
 V. Bakken, C. Adamo, J. Jaramillo, R. Gomperts, R. E. Stratmann, 
 O. Yazyev, A. J. Austin, R. Cammi, C. Pomelli, J. W. Ochterski, 
 R. L. Martin, K. Morokuma, V. G. Zakrzewski, G. A. Voth, 
 P. Salvador, J. J. Dannenberg, S. Dapprich, A. D. Daniels, 
 O. Farkas, J. B. Foresman, J. V. Ortiz, J. Cioslowski, 
 and D. J. Fox, Gaussian, Inc., Wallingford CT, 2013.
 
 ******************************************
 Gaussian 09:  EM64L-G09RevD.01 24-Apr-2013
                17-May-2017 
 ******************************************
 %Mem=256MB
 %NProc=12
 Will use up to   12 processors via shared memory.
 ----------------------------------------------------------------------
 #P HF/6-31G* SCF(Conver=6) NoSymm Test Pop=chelpg IOp(6/33=2) GFInput 
 GFPrint
 ----------------------------------------------------------------------
 1/38=1/1;
 2/12=2,15=1,17=6,18=5,40=1/2;
 3/5=1,6=6,7=1,11=9,16=1,24=110,25=1,30=1/1,2,3;
 4//1;
 5/5=2,6=6,38=5/2;
 6/7=2,8=2,9=2,10=2,15=8,20=3,28=1,33=2/1,2;
 99/5=1,9=1/99;
 Leave Link    1 at Wed May 17 11:46:38 2017, MaxMem=    33554432 cpu:         0.6
 (Enter /home/michal/g09/l101.exe)
 ----------------------------------------------
 MEP - Input generated by R.E.D.-III.x MOLECULE
 ----------------------------------------------
 Symbolic Z-matrix:
 Charge =  0 Multiplicity = 1
 O                     6.68032   0.90019   0. 
 H                     7.03522   0.        0. 
 O                     9.84197   0.37606  -6.40779 
 H                     9.97232  -0.58071  -6.46904 
 C                     2.42524   0.51577  -1.60426 
 C                     3.7818    1.14765  -1.1762 
 H                     3.75133   2.17946  -1.56788 
 C                     5.03264   0.51029  -1.80728 
 H                     5.11973  -0.53547  -1.47759 
 C                     4.91445   0.55474  -3.35652 
 H                     4.94983   1.62316  -3.62627 
 C                     1.43333   1.4029   -0.77398 
 H                     1.39118   2.37586  -1.28944 
 C                     2.33496   0.6535   -3.13693 
 H                     2.28228   1.72212  -3.39099 
 H                     1.42361   0.19501  -3.53354 
 C                     6.13373  -0.10416  -4.09111 
 C                     3.67568   1.26152   0.35252 
 H                     4.35481   2.01142   0.76451 
 H                     3.94547   0.31336   0.82962 
 C                     3.54835   0.01901  -3.84296 
 H                     3.50589  -1.06685  -3.70488 
 H                     3.44984   0.18963  -4.92075 
 C                     2.1814    1.60846   0.58836 
 H                     1.74711   0.96707   1.36449 
 H                     2.07032   2.63728   0.94405 
 C                     6.31652   1.23277  -1.35473 
 H                     6.1181    2.31287  -1.30494 
 C                    -0.03202   0.93643  -0.5762 
 H                     0.        0.        0. 
 C                     2.30944  -0.96621  -1.17842 
 H                     3.12512  -1.57724  -1.57376 
 H                     2.31955  -1.08055  -0.09051 
 H                     1.37418  -1.40316  -1.54322 
 C                     7.44438   0.37088  -3.45442 
 C                     6.12343   0.35326  -5.58351 
 H                     5.96597   1.44041  -5.60824 
 H                     5.26677  -0.09611  -6.09675 
 C                     7.48783   0.98708  -2.26409 
 H                     8.44438   1.33364  -1.87294 
 C                     6.07778  -1.65394  -4.02344 
 H                     5.24947  -2.04953  -4.61923 
 H                     6.99563  -2.10646  -4.40778 
 H                     5.95427  -2.00164  -2.99319 
 C                     8.72219   0.12694  -4.23513 
 H                     9.5707    0.59929  -3.7305 
 H                     8.93645  -0.95359  -4.26982 
 C                     7.40462   0.03423  -6.36945 
 H                     7.53767  -1.05379  -6.46371 
 H                     7.32643   0.4296   -7.38857 
 C                    -0.83493   1.97574   0.26709 
 H                    -0.14947   2.71018   0.70219 
 H                    -1.48899   2.55163  -0.4015 
 C                     8.63465   0.62862  -5.68413 
 H                     8.54965   1.72214  -5.67778 
 C                    -0.76931   0.64898  -1.89708 
 H                    -0.72849   1.51887  -2.56449 
 H                    -1.82511   0.42838  -1.71248 
 H                    -0.34947  -0.20474  -2.43499 
 C                    -1.6598    1.38579   1.42964 
 H                    -0.97587   0.82585   2.08233 
 H                    -2.03925   2.21329   2.04287 
 C                    -2.82833   0.45552   1.05358 
 H                    -3.21759   0.00084   1.97667 
 H                    -2.44603  -0.38027   0.45192 
 C                    -4.01463   1.10218   0.30631 
 H                    -3.62962   1.59249  -0.59918 
 C                    -4.72646   2.17266   1.1495 
 H                    -5.11834   1.7388    2.07875 
 H                    -5.57274   2.60241   0.60155 
 H                    -4.05944   2.99675   1.42182 
 C                    -5.01224   0.02187  -0.14197 
 H                    -5.43134  -0.5062    0.72427 
 H                    -5.84806   0.45809  -0.70084 
 H                    -4.53196  -0.72479  -0.78496 
 
 NAtoms=     75 NQM=       75 NQMF=       0 NMMI=      0 NMMIF=      0
                NMic=       0 NMicF=      0.
                    Isotopes and Nuclear Properties:
 (Nuclear quadrupole moments (NQMom) in fm**2, nuclear magnetic moments (NMagM)
  in nuclear magnetons)

  Atom         1           2           3           4           5           6           7           8           9          10
 IAtWgt=          16           1          16           1          12          12           1          12           1          12
 AtmWgt=  15.9949146   1.0078250  15.9949146   1.0078250  12.0000000  12.0000000   1.0078250  12.0000000   1.0078250  12.0000000
 NucSpn=           0           1           0           1           0           0           1           0           1           0
 AtZEff=   0.0000000   0.0000000   0.0000000   0.0000000   0.0000000   0.0000000   0.0000000   0.0000000   0.0000000   0.0000000
 NQMom=    0.0000000   0.0000000   0.0000000   0.0000000   0.0000000   0.0000000   0.0000000   0.0000000   0.0000000   0.0000000
 NMagM=    0.0000000   2.7928460   0.0000000   2.7928460   0.0000000   0.0000000   2.7928460   0.0000000   2.7928460   0.0000000
 AtZNuc=   8.0000000   1.0000000   8.0000000   1.0000000   6.0000000   6.0000000   1.0000000   6.0000000   1.0000000   6.0000000

  Atom        11          12          13          14          15          16          17          18          19          20
 IAtWgt=           1          12           1          12           1           1          12          12           1           1
 AtmWgt=   1.0078250  12.0000000   1.0078250  12.0000000   1.0078250   1.0078250  12.0000000  12.0000000   1.0078250   1.0078250
 NucSpn=           1           0           1           0           1           1           0           0           1           1
 AtZEff=   0.0000000   0.0000000   0.0000000   0.0000000   0.0000000   0.0000000   0.0000000   0.0000000   0.0000000   0.0000000
 NQMom=    0.0000000   0.0000000   0.0000000   0.0000000   0.0000000   0.0000000   0.0000000   0.0000000   0.0000000   0.0000000
 NMagM=    2.7928460   0.0000000   2.7928460   0.0000000   2.7928460   2.7928460   0.0000000   0.0000000   2.7928460   2.7928460
 AtZNuc=   1.0000000   6.0000000   1.0000000   6.0000000   1.0000000   1.0000000   6.0000000   6.0000000   1.0000000   1.0000000

  Atom        21          22          23          24          25          26          27          28          29          30
 IAtWgt=          12           1           1          12           1           1          12           1          12           1
 AtmWgt=  12.0000000   1.0078250   1.0078250  12.0000000   1.0078250   1.0078250  12.0000000   1.0078250  12.0000000   1.0078250
 NucSpn=           0           1           1           0           1           1           0           1           0           1
 AtZEff=   0.0000000   0.0000000   0.0000000   0.0000000   0.0000000   0.0000000   0.0000000   0.0000000   0.0000000   0.0000000
 NQMom=    0.0000000   0.0000000   0.0000000   0.0000000   0.0000000   0.0000000   0.0000000   0.0000000   0.0000000   0.0000000
 NMagM=    0.0000000   2.7928460   2.7928460   0.0000000   2.7928460   2.7928460   0.0000000   2.7928460   0.0000000   2.7928460
 AtZNuc=   6.0000000   1.0000000   1.0000000   6.0000000   1.0000000   1.0000000   6.0000000   1.0000000   6.0000000   1.0000000

  Atom        31          32          33          34          35          36          37          38          39          40
 IAtWgt=          12           1           1           1          12          12           1           1          12           1
 AtmWgt=  12.0000000   1.0078250   1.0078250   1.0078250  12.0000000  12.0000000   1.0078250   1.0078250  12.0000000   1.0078250
 NucSpn=           0           1           1           1           0           0           1           1           0           1
 AtZEff=   0.0000000   0.0000000   0.0000000   0.0000000   0.0000000   0.0000000   0.0000000   0.0000000   0.0000000   0.0000000
 NQMom=    0.0000000   0.0000000   0.0000000   0.0000000   0.0000000   0.0000000   0.0000000   0.0000000   0.0000000   0.0000000
 NMagM=    0.0000000   2.7928460   2.7928460   2.7928460   0.0000000   0.0000000   2.7928460   2.7928460   0.0000000   2.7928460
 AtZNuc=   6.0000000   1.0000000   1.0000000   1.0000000   6.0000000   6.0000000   1.0000000   1.0000000   6.0000000   1.0000000

  Atom        41          42          43          44          45          46          47          48          49          50
 IAtWgt=          12           1           1           1          12           1           1          12           1           1
 AtmWgt=  12.0000000   1.0078250   1.0078250   1.0078250  12.0000000   1.0078250   1.0078250  12.0000000   1.0078250   1.0078250
 NucSpn=           0           1           1           1           0           1           1           0           1           1
 AtZEff=   0.0000000   0.0000000   0.0000000   0.0000000   0.0000000   0.0000000   0.0000000   0.0000000   0.0000000   0.0000000
 NQMom=    0.0000000   0.0000000   0.0000000   0.0000000   0.0000000   0.0000000   0.0000000   0.0000000   0.0000000   0.0000000
 NMagM=    0.0000000   2.7928460   2.7928460   2.7928460   0.0000000   2.7928460   2.7928460   0.0000000   2.7928460   2.7928460
 AtZNuc=   6.0000000   1.0000000   1.0000000   1.0000000   6.0000000   1.0000000   1.0000000   6.0000000   1.0000000   1.0000000

  Atom        51          52          53          54          55          56          57          58          59          60
 IAtWgt=          12           1           1          12           1          12           1           1           1          12
 AtmWgt=  12.0000000   1.0078250   1.0078250  12.0000000   1.0078250  12.0000000   1.0078250   1.0078250   1.0078250  12.0000000
 NucSpn=           0           1           1           0           1           0           1           1           1           0
 AtZEff=   0.0000000   0.0000000   0.0000000   0.0000000   0.0000000   0.0000000   0.0000000   0.0000000   0.0000000   0.0000000
 NQMom=    0.0000000   0.0000000   0.0000000   0.0000000   0.0000000   0.0000000   0.0000000   0.0000000   0.0000000   0.0000000
 NMagM=    0.0000000   2.7928460   2.7928460   0.0000000   2.7928460   0.0000000   2.7928460   2.7928460   2.7928460   0.0000000
 AtZNuc=   6.0000000   1.0000000   1.0000000   6.0000000   1.0000000   6.0000000   1.0000000   1.0000000   1.0000000   6.0000000

  Atom        61          62          63          64          65          66          67          68          69          70
 IAtWgt=           1           1          12           1           1          12           1          12           1           1
 AtmWgt=   1.0078250   1.0078250  12.0000000   1.0078250   1.0078250  12.0000000   1.0078250  12.0000000   1.0078250   1.0078250
 NucSpn=           1           1           0           1           1           0           1           0           1           1
 AtZEff=   0.0000000   0.0000000   0.0000000   0.0000000   0.0000000   0.0000000   0.0000000   0.0000000   0.0000000   0.0000000
 NQMom=    0.0000000   0.0000000   0.0000000   0.0000000   0.0000000   0.0000000   0.0000000   0.0000000   0.0000000   0.0000000
 NMagM=    2.7928460   2.7928460   0.0000000   2.7928460   2.7928460   0.0000000   2.7928460   0.0000000   2.7928460   2.7928460
 AtZNuc=   1.0000000   1.0000000   6.0000000   1.0000000   1.0000000   6.0000000   1.0000000   6.0000000   1.0000000   1.0000000

  Atom        71          72          73          74          75
 IAtWgt=           1          12           1           1           1
 AtmWgt=   1.0078250  12.0000000   1.0078250   1.0078250   1.0078250
 NucSpn=           1           0           1           1           1
 AtZEff=   0.0000000   0.0000000   0.0000000   0.0000000   0.0000000
 NQMom=    0.0000000   0.0000000   0.0000000   0.0000000   0.0000000
 NMagM=    2.7928460   0.0000000   2.7928460   2.7928460   2.7928460
 AtZNuc=   1.0000000   6.0000000   1.0000000   1.0000000   1.0000000
 Leave Link  101 at Wed May 17 11:46:38 2017, MaxMem=    33554432 cpu:         1.0
 (Enter /home/michal/g09/l202.exe)
 Symmetry turned off by external request.
 Stoichiometry    C27H46O2
 Framework group  C1[X(C27H46O2)]
 Deg. of freedom   219
 Full point group                 C1      NOp   1
                          Input orientation:                          
 ---------------------------------------------------------------------
 Center     Atomic      Atomic             Coordinates (Angstroms)
 Number     Number       Type             X           Y           Z
 ---------------------------------------------------------------------
      1          8           0        6.680325    0.900192    0.000000
      2          1           0        7.035219    0.000000    0.000000
      3          8           0        9.841966    0.376062   -6.407791
      4          1           0        9.972320   -0.580713   -6.469043
      5          6           0        2.425235    0.515766   -1.604261
      6          6           0        3.781800    1.147654   -1.176198
      7          1           0        3.751332    2.179460   -1.567876
      8          6           0        5.032636    0.510285   -1.807279
      9          1           0        5.119732   -0.535471   -1.477593
     10          6           0        4.914447    0.554741   -3.356521
     11          1           0        4.949834    1.623163   -3.626272
     12          6           0        1.433332    1.402895   -0.773978
     13          1           0        1.391183    2.375855   -1.289443
     14          6           0        2.334963    0.653503   -3.136933
     15          1           0        2.282281    1.722117   -3.390992
     16          1           0        1.423609    0.195011   -3.533537
     17          6           0        6.133729   -0.104161   -4.091107
     18          6           0        3.675682    1.261517    0.352524
     19          1           0        4.354810    2.011420    0.764510
     20          1           0        3.945466    0.313356    0.829625
     21          6           0        3.548348    0.019008   -3.842961
     22          1           0        3.505891   -1.066846   -3.704884
     23          1           0        3.449835    0.189633   -4.920750
     24          6           0        2.181400    1.608457    0.588365
     25          1           0        1.747112    0.967073    1.364492
     26          1           0        2.070319    2.637279    0.944053
     27          6           0        6.316517    1.232772   -1.354734
     28          1           0        6.118099    2.312875   -1.304938
     29          6           0       -0.032022    0.936426   -0.576196
     30          1           0        0.000000    0.000000    0.000000
     31          6           0        2.309436   -0.966210   -1.178418
     32          1           0        3.125122   -1.577237   -1.573756
     33          1           0        2.319553   -1.080551   -0.090515
     34          1           0        1.374185   -1.403156   -1.543222
     35          6           0        7.444377    0.370878   -3.454420
     36          6           0        6.123432    0.353265   -5.583510
     37          1           0        5.965974    1.440407   -5.608245
     38          1           0        5.266767   -0.096109   -6.096754
     39          6           0        7.487833    0.987082   -2.264086
     40          1           0        8.444376    1.333636   -1.872940
     41          6           0        6.077785   -1.653940   -4.023444
     42          1           0        5.249473   -2.049534   -4.619230
     43          1           0        6.995626   -2.106463   -4.407780
     44          1           0        5.954272   -2.001637   -2.993192
     45          6           0        8.722194    0.126938   -4.235128
     46          1           0        9.570696    0.599291   -3.730504
     47          1           0        8.936451   -0.953587   -4.269823
     48          6           0        7.404617    0.034233   -6.369445
     49          1           0        7.537670   -1.053793   -6.463714
     50          1           0        7.326426    0.429599   -7.388573
     51          6           0       -0.834929    1.975736    0.267092
     52          1           0       -0.149465    2.710179    0.702191
     53          1           0       -1.488994    2.551627   -0.401504
     54          6           0        8.634647    0.628624   -5.684135
     55          1           0        8.549651    1.722141   -5.677781
     56          6           0       -0.769309    0.648980   -1.897085
     57          1           0       -0.728489    1.518868   -2.564486
     58          1           0       -1.825106    0.428377   -1.712481
     59          1           0       -0.349468   -0.204744   -2.434989
     60          6           0       -1.659805    1.385794    1.429639
     61          1           0       -0.975867    0.825854    2.082329
     62          1           0       -2.039248    2.213290    2.042870
     63          6           0       -2.828333    0.455518    1.053579
     64          1           0       -3.217585    0.000843    1.976668
     65          1           0       -2.446028   -0.380272    0.451919
     66          6           0       -4.014633    1.102183    0.306315
     67          1           0       -3.629617    1.592493   -0.599182
     68          6           0       -4.726465    2.172658    1.149500
     69          1           0       -5.118341    1.738801    2.078750
     70          1           0       -5.572741    2.602412    0.601554
     71          1           0       -4.059443    2.996749    1.421816
     72          6           0       -5.012238    0.021870   -0.141966
     73          1           0       -5.431336   -0.506196    0.724266
     74          1           0       -5.848059    0.458090   -0.700837
     75          1           0       -4.531964   -0.724789   -0.784959
 ---------------------------------------------------------------------
 Rotational constants (GHZ):      0.4625916      0.0565509      0.0526791
 Leave Link  202 at Wed May 17 11:46:38 2017, MaxMem=    33554432 cpu:         0.0
 (Enter /home/michal/g09/l301.exe)
 Standard basis: 6-31G(d) (6D, 7F)
 Ernie: Thresh=  0.10000D-02 Tol=  0.10000D-05 Strict=F.
 AO basis set in the form of general basis input (Overlap normalization):
      1 0
 S   6 1.00       0.000000000000
      0.5484671660D+04  0.1831074430D-02
      0.8252349460D+03  0.1395017220D-01
      0.1880469580D+03  0.6844507810D-01
      0.5296450000D+02  0.2327143360D+00
      0.1689757040D+02  0.4701928980D+00
      0.5799635340D+01  0.3585208530D+00
 SP   3 1.00       0.000000000000
      0.1553961625D+02 -0.1107775495D+00  0.7087426823D-01
      0.3599933586D+01 -0.1480262627D+00  0.3397528391D+00
      0.1013761750D+01  0.1130767015D+01  0.7271585773D+00
 SP   1 1.00       0.000000000000
      0.2700058226D+00  0.1000000000D+01  0.1000000000D+01
 D   1 1.00       0.000000000000
      0.8000000000D+00  0.1000000000D+01
 ****
      2 0
 S   3 1.00       0.000000000000
      0.1873113696D+02  0.3349460434D-01
      0.2825394365D+01  0.2347269535D+00
      0.6401216923D+00  0.8137573261D+00
 S   1 1.00       0.000000000000
      0.1612777588D+00  0.1000000000D+01
 ****
      3 0
 S   6 1.00       0.000000000000
      0.5484671660D+04  0.1831074430D-02
      0.8252349460D+03  0.1395017220D-01
      0.1880469580D+03  0.6844507810D-01
      0.5296450000D+02  0.2327143360D+00
      0.1689757040D+02  0.4701928980D+00
      0.5799635340D+01  0.3585208530D+00
 SP   3 1.00       0.000000000000
      0.1553961625D+02 -0.1107775495D+00  0.7087426823D-01
      0.3599933586D+01 -0.1480262627D+00  0.3397528391D+00
      0.1013761750D+01  0.1130767015D+01  0.7271585773D+00
 SP   1 1.00       0.000000000000
      0.2700058226D+00  0.1000000000D+01  0.1000000000D+01
 D   1 1.00       0.000000000000
      0.8000000000D+00  0.1000000000D+01
 ****
      4 0
 S   3 1.00       0.000000000000
      0.1873113696D+02  0.3349460434D-01
      0.2825394365D+01  0.2347269535D+00
      0.6401216923D+00  0.8137573261D+00
 S   1 1.00       0.000000000000
      0.1612777588D+00  0.1000000000D+01
 ****
      5 0
 S   6 1.00       0.000000000000
      0.3047524880D+04  0.1834737132D-02
      0.4573695180D+03  0.1403732281D-01
      0.1039486850D+03  0.6884262226D-01
      0.2921015530D+02  0.2321844432D+00
      0.9286662960D+01  0.4679413484D+00
      0.3163926960D+01  0.3623119853D+00
 SP   3 1.00       0.000000000000
      0.7868272350D+01 -0.1193324198D+00  0.6899906659D-01
      0.1881288540D+01 -0.1608541517D+00  0.3164239610D+00
      0.5442492580D+00  0.1143456438D+01  0.7443082909D+00
 SP   1 1.00       0.000000000000
      0.1687144782D+00  0.1000000000D+01  0.1000000000D+01
 D   1 1.00       0.000000000000
      0.8000000000D+00  0.1000000000D+01
 ****
      6 0
 S   6 1.00       0.000000000000
      0.3047524880D+04  0.1834737132D-02
      0.4573695180D+03  0.1403732281D-01
      0.1039486850D+03  0.6884262226D-01
      0.2921015530D+02  0.2321844432D+00
      0.9286662960D+01  0.4679413484D+00
      0.3163926960D+01  0.3623119853D+00
 SP   3 1.00       0.000000000000
      0.7868272350D+01 -0.1193324198D+00  0.6899906659D-01
      0.1881288540D+01 -0.1608541517D+00  0.3164239610D+00
      0.5442492580D+00  0.1143456438D+01  0.7443082909D+00
 SP   1 1.00       0.000000000000
      0.1687144782D+00  0.1000000000D+01  0.1000000000D+01
 D   1 1.00       0.000000000000
      0.8000000000D+00  0.1000000000D+01
 ****
      7 0
 S   3 1.00       0.000000000000
      0.1873113696D+02  0.3349460434D-01
      0.2825394365D+01  0.2347269535D+00
      0.6401216923D+00  0.8137573261D+00
 S   1 1.00       0.000000000000
      0.1612777588D+00  0.1000000000D+01
 ****
      8 0
 S   6 1.00       0.000000000000
      0.3047524880D+04  0.1834737132D-02
      0.4573695180D+03  0.1403732281D-01
      0.1039486850D+03  0.6884262226D-01
      0.2921015530D+02  0.2321844432D+00
      0.9286662960D+01  0.4679413484D+00
      0.3163926960D+01  0.3623119853D+00
 SP   3 1.00       0.000000000000
      0.7868272350D+01 -0.1193324198D+00  0.6899906659D-01
      0.1881288540D+01 -0.1608541517D+00  0.3164239610D+00
      0.5442492580D+00  0.1143456438D+01  0.7443082909D+00
 SP   1 1.00       0.000000000000
      0.1687144782D+00  0.1000000000D+01  0.1000000000D+01
 D   1 1.00       0.000000000000
      0.8000000000D+00  0.1000000000D+01
 ****
      9 0
 S   3 1.00       0.000000000000
      0.1873113696D+02  0.3349460434D-01
      0.2825394365D+01  0.2347269535D+00
      0.6401216923D+00  0.8137573261D+00
 S   1 1.00       0.000000000000
      0.1612777588D+00  0.1000000000D+01
 ****
     10 0
 S   6 1.00       0.000000000000
      0.3047524880D+04  0.1834737132D-02
      0.4573695180D+03  0.1403732281D-01
      0.1039486850D+03  0.6884262226D-01
      0.2921015530D+02  0.2321844432D+00
      0.9286662960D+01  0.4679413484D+00
      0.3163926960D+01  0.3623119853D+00
 SP   3 1.00       0.000000000000
      0.7868272350D+01 -0.1193324198D+00  0.6899906659D-01
      0.1881288540D+01 -0.1608541517D+00  0.3164239610D+00
      0.5442492580D+00  0.1143456438D+01  0.7443082909D+00
 SP   1 1.00       0.000000000000
      0.1687144782D+00  0.1000000000D+01  0.1000000000D+01
 D   1 1.00       0.000000000000
      0.8000000000D+00  0.1000000000D+01
 ****
     11 0
 S   3 1.00       0.000000000000
      0.1873113696D+02  0.3349460434D-01
      0.2825394365D+01  0.2347269535D+00
      0.6401216923D+00  0.8137573261D+00
 S   1 1.00       0.000000000000
      0.1612777588D+00  0.1000000000D+01
 ****
     12 0
 S   6 1.00       0.000000000000
      0.3047524880D+04  0.1834737132D-02
      0.4573695180D+03  0.1403732281D-01
      0.1039486850D+03  0.6884262226D-01
      0.2921015530D+02  0.2321844432D+00
      0.9286662960D+01  0.4679413484D+00
      0.3163926960D+01  0.3623119853D+00
 SP   3 1.00       0.000000000000
      0.7868272350D+01 -0.1193324198D+00  0.6899906659D-01
      0.1881288540D+01 -0.1608541517D+00  0.3164239610D+00
      0.5442492580D+00  0.1143456438D+01  0.7443082909D+00
 SP   1 1.00       0.000000000000
      0.1687144782D+00  0.1000000000D+01  0.1000000000D+01
 D   1 1.00       0.000000000000
      0.8000000000D+00  0.1000000000D+01
 ****
     13 0
 S   3 1.00       0.000000000000
      0.1873113696D+02  0.3349460434D-01
      0.2825394365D+01  0.2347269535D+00
      0.6401216923D+00  0.8137573261D+00
 S   1 1.00       0.000000000000
      0.1612777588D+00  0.1000000000D+01
 ****
     14 0
 S   6 1.00       0.000000000000
      0.3047524880D+04  0.1834737132D-02
      0.4573695180D+03  0.1403732281D-01
      0.1039486850D+03  0.6884262226D-01
      0.2921015530D+02  0.2321844432D+00
      0.9286662960D+01  0.4679413484D+00
      0.3163926960D+01  0.3623119853D+00
 SP   3 1.00       0.000000000000
      0.7868272350D+01 -0.1193324198D+00  0.6899906659D-01
      0.1881288540D+01 -0.1608541517D+00  0.3164239610D+00
      0.5442492580D+00  0.1143456438D+01  0.7443082909D+00
 SP   1 1.00       0.000000000000
      0.1687144782D+00  0.1000000000D+01  0.1000000000D+01
 D   1 1.00       0.000000000000
      0.8000000000D+00  0.1000000000D+01
 ****
     15 0
 S   3 1.00       0.000000000000
      0.1873113696D+02  0.3349460434D-01
      0.2825394365D+01  0.2347269535D+00
      0.6401216923D+00  0.8137573261D+00
 S   1 1.00       0.000000000000
      0.1612777588D+00  0.1000000000D+01
 ****
     16 0
 S   3 1.00       0.000000000000
      0.1873113696D+02  0.3349460434D-01
      0.2825394365D+01  0.2347269535D+00
      0.6401216923D+00  0.8137573261D+00
 S   1 1.00       0.000000000000
      0.1612777588D+00  0.1000000000D+01
 ****
     17 0
 S   6 1.00       0.000000000000
      0.3047524880D+04  0.1834737132D-02
      0.4573695180D+03  0.1403732281D-01
      0.1039486850D+03  0.6884262226D-01
      0.2921015530D+02  0.2321844432D+00
      0.9286662960D+01  0.4679413484D+00
      0.3163926960D+01  0.3623119853D+00
 SP   3 1.00       0.000000000000
      0.7868272350D+01 -0.1193324198D+00  0.6899906659D-01
      0.1881288540D+01 -0.1608541517D+00  0.3164239610D+00
      0.5442492580D+00  0.1143456438D+01  0.7443082909D+00
 SP   1 1.00       0.000000000000
      0.1687144782D+00  0.1000000000D+01  0.1000000000D+01
 D   1 1.00       0.000000000000
      0.8000000000D+00  0.1000000000D+01
 ****
     18 0
 S   6 1.00       0.000000000000
      0.3047524880D+04  0.1834737132D-02
      0.4573695180D+03  0.1403732281D-01
      0.1039486850D+03  0.6884262226D-01
      0.2921015530D+02  0.2321844432D+00
      0.9286662960D+01  0.4679413484D+00
      0.3163926960D+01  0.3623119853D+00
 SP   3 1.00       0.000000000000
      0.7868272350D+01 -0.1193324198D+00  0.6899906659D-01
      0.1881288540D+01 -0.1608541517D+00  0.3164239610D+00
      0.5442492580D+00  0.1143456438D+01  0.7443082909D+00
 SP   1 1.00       0.000000000000
      0.1687144782D+00  0.1000000000D+01  0.1000000000D+01
 D   1 1.00       0.000000000000
      0.8000000000D+00  0.1000000000D+01
 ****
     19 0
 S   3 1.00       0.000000000000
      0.1873113696D+02  0.3349460434D-01
      0.2825394365D+01  0.2347269535D+00
      0.6401216923D+00  0.8137573261D+00
 S   1 1.00       0.000000000000
      0.1612777588D+00  0.1000000000D+01
 ****
     20 0
 S   3 1.00       0.000000000000
      0.1873113696D+02  0.3349460434D-01
      0.2825394365D+01  0.2347269535D+00
      0.6401216923D+00  0.8137573261D+00
 S   1 1.00       0.000000000000
      0.1612777588D+00  0.1000000000D+01
 ****
     21 0
 S   6 1.00       0.000000000000
      0.3047524880D+04  0.1834737132D-02
      0.4573695180D+03  0.1403732281D-01
      0.1039486850D+03  0.6884262226D-01
      0.2921015530D+02  0.2321844432D+00
      0.9286662960D+01  0.4679413484D+00
      0.3163926960D+01  0.3623119853D+00
 SP   3 1.00       0.000000000000
      0.7868272350D+01 -0.1193324198D+00  0.6899906659D-01
      0.1881288540D+01 -0.1608541517D+00  0.3164239610D+00
      0.5442492580D+00  0.1143456438D+01  0.7443082909D+00
 SP   1 1.00       0.000000000000
      0.1687144782D+00  0.1000000000D+01  0.1000000000D+01
 D   1 1.00       0.000000000000
      0.8000000000D+00  0.1000000000D+01
 ****
     22 0
 S   3 1.00       0.000000000000
      0.1873113696D+02  0.3349460434D-01
      0.2825394365D+01  0.2347269535D+00
      0.6401216923D+00  0.8137573261D+00
 S   1 1.00       0.000000000000
      0.1612777588D+00  0.1000000000D+01
 ****
     23 0
 S   3 1.00       0.000000000000
      0.1873113696D+02  0.3349460434D-01
      0.2825394365D+01  0.2347269535D+00
      0.6401216923D+00  0.8137573261D+00
 S   1 1.00       0.000000000000
      0.1612777588D+00  0.1000000000D+01
 ****
     24 0
 S   6 1.00       0.000000000000
      0.3047524880D+04  0.1834737132D-02
      0.4573695180D+03  0.1403732281D-01
      0.1039486850D+03  0.6884262226D-01
      0.2921015530D+02  0.2321844432D+00
      0.9286662960D+01  0.4679413484D+00
      0.3163926960D+01  0.3623119853D+00
 SP   3 1.00       0.000000000000
      0.7868272350D+01 -0.1193324198D+00  0.6899906659D-01
      0.1881288540D+01 -0.1608541517D+00  0.3164239610D+00
      0.5442492580D+00  0.1143456438D+01  0.7443082909D+00
 SP   1 1.00       0.000000000000
      0.1687144782D+00  0.1000000000D+01  0.1000000000D+01
 D   1 1.00       0.000000000000
      0.8000000000D+00  0.1000000000D+01
 ****
     25 0
 S   3 1.00       0.000000000000
      0.1873113696D+02  0.3349460434D-01
      0.2825394365D+01  0.2347269535D+00
      0.6401216923D+00  0.8137573261D+00
 S   1 1.00       0.000000000000
      0.1612777588D+00  0.1000000000D+01
 ****
     26 0
 S   3 1.00       0.000000000000
      0.1873113696D+02  0.3349460434D-01
      0.2825394365D+01  0.2347269535D+00
      0.6401216923D+00  0.8137573261D+00
 S   1 1.00       0.000000000000
      0.1612777588D+00  0.1000000000D+01
 ****
     27 0
 S   6 1.00       0.000000000000
      0.3047524880D+04  0.1834737132D-02
      0.4573695180D+03  0.1403732281D-01
      0.1039486850D+03  0.6884262226D-01
      0.2921015530D+02  0.2321844432D+00
      0.9286662960D+01  0.4679413484D+00
      0.3163926960D+01  0.3623119853D+00
 SP   3 1.00       0.000000000000
      0.7868272350D+01 -0.1193324198D+00  0.6899906659D-01
      0.1881288540D+01 -0.1608541517D+00  0.3164239610D+00
      0.5442492580D+00  0.1143456438D+01  0.7443082909D+00
 SP   1 1.00       0.000000000000
      0.1687144782D+00  0.1000000000D+01  0.1000000000D+01
 D   1 1.00       0.000000000000
      0.8000000000D+00  0.1000000000D+01
 ****
     28 0
 S   3 1.00       0.000000000000
      0.1873113696D+02  0.3349460434D-01
      0.2825394365D+01  0.2347269535D+00
      0.6401216923D+00  0.8137573261D+00
 S   1 1.00       0.000000000000
      0.1612777588D+00  0.1000000000D+01
 ****
     29 0
 S   6 1.00       0.000000000000
      0.3047524880D+04  0.1834737132D-02
      0.4573695180D+03  0.1403732281D-01
      0.1039486850D+03  0.6884262226D-01
      0.2921015530D+02  0.2321844432D+00
      0.9286662960D+01  0.4679413484D+00
      0.3163926960D+01  0.3623119853D+00
 SP   3 1.00       0.000000000000
      0.7868272350D+01 -0.1193324198D+00  0.6899906659D-01
      0.1881288540D+01 -0.1608541517D+00  0.3164239610D+00
      0.5442492580D+00  0.1143456438D+01  0.7443082909D+00
 SP   1 1.00       0.000000000000
      0.1687144782D+00  0.1000000000D+01  0.1000000000D+01
 D   1 1.00       0.000000000000
      0.8000000000D+00  0.1000000000D+01
 ****
     30 0
 S   3 1.00       0.000000000000
      0.1873113696D+02  0.3349460434D-01
      0.2825394365D+01  0.2347269535D+00
      0.6401216923D+00  0.8137573261D+00
 S   1 1.00       0.000000000000
      0.1612777588D+00  0.1000000000D+01
 ****
     31 0
 S   6 1.00       0.000000000000
      0.3047524880D+04  0.1834737132D-02
      0.4573695180D+03  0.1403732281D-01
      0.1039486850D+03  0.6884262226D-01
      0.2921015530D+02  0.2321844432D+00
      0.9286662960D+01  0.4679413484D+00
      0.3163926960D+01  0.3623119853D+00
 SP   3 1.00       0.000000000000
      0.7868272350D+01 -0.1193324198D+00  0.6899906659D-01
      0.1881288540D+01 -0.1608541517D+00  0.3164239610D+00
      0.5442492580D+00  0.1143456438D+01  0.7443082909D+00
 SP   1 1.00       0.000000000000
      0.1687144782D+00  0.1000000000D+01  0.1000000000D+01
 D   1 1.00       0.000000000000
      0.8000000000D+00  0.1000000000D+01
 ****
     32 0
 S   3 1.00       0.000000000000
      0.1873113696D+02  0.3349460434D-01
      0.2825394365D+01  0.2347269535D+00
      0.6401216923D+00  0.8137573261D+00
 S   1 1.00       0.000000000000
      0.1612777588D+00  0.1000000000D+01
 ****
     33 0
 S   3 1.00       0.000000000000
      0.1873113696D+02  0.3349460434D-01
      0.2825394365D+01  0.2347269535D+00
      0.6401216923D+00  0.8137573261D+00
 S   1 1.00       0.000000000000
      0.1612777588D+00  0.1000000000D+01
 ****
     34 0
 S   3 1.00       0.000000000000
      0.1873113696D+02  0.3349460434D-01
      0.2825394365D+01  0.2347269535D+00
      0.6401216923D+00  0.8137573261D+00
 S   1 1.00       0.000000000000
      0.1612777588D+00  0.1000000000D+01
 ****
     35 0
 S   6 1.00       0.000000000000
      0.3047524880D+04  0.1834737132D-02
      0.4573695180D+03  0.1403732281D-01
      0.1039486850D+03  0.6884262226D-01
      0.2921015530D+02  0.2321844432D+00
      0.9286662960D+01  0.4679413484D+00
      0.3163926960D+01  0.3623119853D+00
 SP   3 1.00       0.000000000000
      0.7868272350D+01 -0.1193324198D+00  0.6899906659D-01
      0.1881288540D+01 -0.1608541517D+00  0.3164239610D+00
      0.5442492580D+00  0.1143456438D+01  0.7443082909D+00
 SP   1 1.00       0.000000000000
      0.1687144782D+00  0.1000000000D+01  0.1000000000D+01
 D   1 1.00       0.000000000000
      0.8000000000D+00  0.1000000000D+01
 ****
     36 0
 S   6 1.00       0.000000000000
      0.3047524880D+04  0.1834737132D-02
      0.4573695180D+03  0.1403732281D-01
      0.1039486850D+03  0.6884262226D-01
      0.2921015530D+02  0.2321844432D+00
      0.9286662960D+01  0.4679413484D+00
      0.3163926960D+01  0.3623119853D+00
 SP   3 1.00       0.000000000000
      0.7868272350D+01 -0.1193324198D+00  0.6899906659D-01
      0.1881288540D+01 -0.1608541517D+00  0.3164239610D+00
      0.5442492580D+00  0.1143456438D+01  0.7443082909D+00
 SP   1 1.00       0.000000000000
      0.1687144782D+00  0.1000000000D+01  0.1000000000D+01
 D   1 1.00       0.000000000000
      0.8000000000D+00  0.1000000000D+01
 ****
     37 0
 S   3 1.00       0.000000000000
      0.1873113696D+02  0.3349460434D-01
      0.2825394365D+01  0.2347269535D+00
      0.6401216923D+00  0.8137573261D+00
 S   1 1.00       0.000000000000
      0.1612777588D+00  0.1000000000D+01
 ****
     38 0
 S   3 1.00       0.000000000000
      0.1873113696D+02  0.3349460434D-01
      0.2825394365D+01  0.2347269535D+00
      0.6401216923D+00  0.8137573261D+00
 S   1 1.00       0.000000000000
      0.1612777588D+00  0.1000000000D+01
 ****
     39 0
 S   6 1.00       0.000000000000
      0.3047524880D+04  0.1834737132D-02
      0.4573695180D+03  0.1403732281D-01
      0.1039486850D+03  0.6884262226D-01
      0.2921015530D+02  0.2321844432D+00
      0.9286662960D+01  0.4679413484D+00
      0.3163926960D+01  0.3623119853D+00
 SP   3 1.00       0.000000000000
      0.7868272350D+01 -0.1193324198D+00  0.6899906659D-01
      0.1881288540D+01 -0.1608541517D+00  0.3164239610D+00
      0.5442492580D+00  0.1143456438D+01  0.7443082909D+00
 SP   1 1.00       0.000000000000
      0.1687144782D+00  0.1000000000D+01  0.1000000000D+01
 D   1 1.00       0.000000000000
      0.8000000000D+00  0.1000000000D+01
 ****
     40 0
 S   3 1.00       0.000000000000
      0.1873113696D+02  0.3349460434D-01
      0.2825394365D+01  0.2347269535D+00
      0.6401216923D+00  0.8137573261D+00
 S   1 1.00       0.000000000000
      0.1612777588D+00  0.1000000000D+01
 ****
     41 0
 S   6 1.00       0.000000000000
      0.3047524880D+04  0.1834737132D-02
      0.4573695180D+03  0.1403732281D-01
      0.1039486850D+03  0.6884262226D-01
      0.2921015530D+02  0.2321844432D+00
      0.9286662960D+01  0.4679413484D+00
      0.3163926960D+01  0.3623119853D+00
 SP   3 1.00       0.000000000000
      0.7868272350D+01 -0.1193324198D+00  0.6899906659D-01
      0.1881288540D+01 -0.1608541517D+00  0.3164239610D+00
      0.5442492580D+00  0.1143456438D+01  0.7443082909D+00
 SP   1 1.00       0.000000000000
      0.1687144782D+00  0.1000000000D+01  0.1000000000D+01
 D   1 1.00       0.000000000000
      0.8000000000D+00  0.1000000000D+01
 ****
     42 0
 S   3 1.00       0.000000000000
      0.1873113696D+02  0.3349460434D-01
      0.2825394365D+01  0.2347269535D+00
      0.6401216923D+00  0.8137573261D+00
 S   1 1.00       0.000000000000
      0.1612777588D+00  0.1000000000D+01
 ****
     43 0
 S   3 1.00       0.000000000000
      0.1873113696D+02  0.3349460434D-01
      0.2825394365D+01  0.2347269535D+00
      0.6401216923D+00  0.8137573261D+00
 S   1 1.00       0.000000000000
      0.1612777588D+00  0.1000000000D+01
 ****
     44 0
 S   3 1.00       0.000000000000
      0.1873113696D+02  0.3349460434D-01
      0.2825394365D+01  0.2347269535D+00
      0.6401216923D+00  0.8137573261D+00
 S   1 1.00       0.000000000000
      0.1612777588D+00  0.1000000000D+01
 ****
     45 0
 S   6 1.00       0.000000000000
      0.3047524880D+04  0.1834737132D-02
      0.4573695180D+03  0.1403732281D-01
      0.1039486850D+03  0.6884262226D-01
      0.2921015530D+02  0.2321844432D+00
      0.9286662960D+01  0.4679413484D+00
      0.3163926960D+01  0.3623119853D+00
 SP   3 1.00       0.000000000000
      0.7868272350D+01 -0.1193324198D+00  0.6899906659D-01
      0.1881288540D+01 -0.1608541517D+00  0.3164239610D+00
      0.5442492580D+00  0.1143456438D+01  0.7443082909D+00
 SP   1 1.00       0.000000000000
      0.1687144782D+00  0.1000000000D+01  0.1000000000D+01
 D   1 1.00       0.000000000000
      0.8000000000D+00  0.1000000000D+01
 ****
     46 0
 S   3 1.00       0.000000000000
      0.1873113696D+02  0.3349460434D-01
      0.2825394365D+01  0.2347269535D+00
      0.6401216923D+00  0.8137573261D+00
 S   1 1.00       0.000000000000
      0.1612777588D+00  0.1000000000D+01
 ****
     47 0
 S   3 1.00       0.000000000000
      0.1873113696D+02  0.3349460434D-01
      0.2825394365D+01  0.2347269535D+00
      0.6401216923D+00  0.8137573261D+00
 S   1 1.00       0.000000000000
      0.1612777588D+00  0.1000000000D+01
 ****
     48 0
 S   6 1.00       0.000000000000
      0.3047524880D+04  0.1834737132D-02
      0.4573695180D+03  0.1403732281D-01
      0.1039486850D+03  0.6884262226D-01
      0.2921015530D+02  0.2321844432D+00
      0.9286662960D+01  0.4679413484D+00
      0.3163926960D+01  0.3623119853D+00
 SP   3 1.00       0.000000000000
      0.7868272350D+01 -0.1193324198D+00  0.6899906659D-01
      0.1881288540D+01 -0.1608541517D+00  0.3164239610D+00
      0.5442492580D+00  0.1143456438D+01  0.7443082909D+00
 SP   1 1.00       0.000000000000
      0.1687144782D+00  0.1000000000D+01  0.1000000000D+01
 D   1 1.00       0.000000000000
      0.8000000000D+00  0.1000000000D+01
 ****
     49 0
 S   3 1.00       0.000000000000
      0.1873113696D+02  0.3349460434D-01
      0.2825394365D+01  0.2347269535D+00
      0.6401216923D+00  0.8137573261D+00
 S   1 1.00       0.000000000000
      0.1612777588D+00  0.1000000000D+01
 ****
     50 0
 S   3 1.00       0.000000000000
      0.1873113696D+02  0.3349460434D-01
      0.2825394365D+01  0.2347269535D+00
      0.6401216923D+00  0.8137573261D+00
 S   1 1.00       0.000000000000
      0.1612777588D+00  0.1000000000D+01
 ****
     51 0
 S   6 1.00       0.000000000000
      0.3047524880D+04  0.1834737132D-02
      0.4573695180D+03  0.1403732281D-01
      0.1039486850D+03  0.6884262226D-01
      0.2921015530D+02  0.2321844432D+00
      0.9286662960D+01  0.4679413484D+00
      0.3163926960D+01  0.3623119853D+00
 SP   3 1.00       0.000000000000
      0.7868272350D+01 -0.1193324198D+00  0.6899906659D-01
      0.1881288540D+01 -0.1608541517D+00  0.3164239610D+00
      0.5442492580D+00  0.1143456438D+01  0.7443082909D+00
 SP   1 1.00       0.000000000000
      0.1687144782D+00  0.1000000000D+01  0.1000000000D+01
 D   1 1.00       0.000000000000
      0.8000000000D+00  0.1000000000D+01
 ****
     52 0
 S   3 1.00       0.000000000000
      0.1873113696D+02  0.3349460434D-01
      0.2825394365D+01  0.2347269535D+00
      0.6401216923D+00  0.8137573261D+00
 S   1 1.00       0.000000000000
      0.1612777588D+00  0.1000000000D+01
 ****
     53 0
 S   3 1.00       0.000000000000
      0.1873113696D+02  0.3349460434D-01
      0.2825394365D+01  0.2347269535D+00
      0.6401216923D+00  0.8137573261D+00
 S   1 1.00       0.000000000000
      0.1612777588D+00  0.1000000000D+01
 ****
     54 0
 S   6 1.00       0.000000000000
      0.3047524880D+04  0.1834737132D-02
      0.4573695180D+03  0.1403732281D-01
      0.1039486850D+03  0.6884262226D-01
      0.2921015530D+02  0.2321844432D+00
      0.9286662960D+01  0.4679413484D+00
      0.3163926960D+01  0.3623119853D+00
 SP   3 1.00       0.000000000000
      0.7868272350D+01 -0.1193324198D+00  0.6899906659D-01
      0.1881288540D+01 -0.1608541517D+00  0.3164239610D+00
      0.5442492580D+00  0.1143456438D+01  0.7443082909D+00
 SP   1 1.00       0.000000000000
      0.1687144782D+00  0.1000000000D+01  0.1000000000D+01
 D   1 1.00       0.000000000000
      0.8000000000D+00  0.1000000000D+01
 ****
     55 0
 S   3 1.00       0.000000000000
      0.1873113696D+02  0.3349460434D-01
      0.2825394365D+01  0.2347269535D+00
      0.6401216923D+00  0.8137573261D+00
 S   1 1.00       0.000000000000
      0.1612777588D+00  0.1000000000D+01
 ****
     56 0
 S   6 1.00       0.000000000000
      0.3047524880D+04  0.1834737132D-02
      0.4573695180D+03  0.1403732281D-01
      0.1039486850D+03  0.6884262226D-01
      0.2921015530D+02  0.2321844432D+00
      0.9286662960D+01  0.4679413484D+00
      0.3163926960D+01  0.3623119853D+00
 SP   3 1.00       0.000000000000
      0.7868272350D+01 -0.1193324198D+00  0.6899906659D-01
      0.1881288540D+01 -0.1608541517D+00  0.3164239610D+00
      0.5442492580D+00  0.1143456438D+01  0.7443082909D+00
 SP   1 1.00       0.000000000000
      0.1687144782D+00  0.1000000000D+01  0.1000000000D+01
 D   1 1.00       0.000000000000
      0.8000000000D+00  0.1000000000D+01
 ****
     57 0
 S   3 1.00       0.000000000000
      0.1873113696D+02  0.3349460434D-01
      0.2825394365D+01  0.2347269535D+00
      0.6401216923D+00  0.8137573261D+00
 S   1 1.00       0.000000000000
      0.1612777588D+00  0.1000000000D+01
 ****
     58 0
 S   3 1.00       0.000000000000
      0.1873113696D+02  0.3349460434D-01
      0.2825394365D+01  0.2347269535D+00
      0.6401216923D+00  0.8137573261D+00
 S   1 1.00       0.000000000000
      0.1612777588D+00  0.1000000000D+01
 ****
     59 0
 S   3 1.00       0.000000000000
      0.1873113696D+02  0.3349460434D-01
      0.2825394365D+01  0.2347269535D+00
      0.6401216923D+00  0.8137573261D+00
 S   1 1.00       0.000000000000
      0.1612777588D+00  0.1000000000D+01
 ****
     60 0
 S   6 1.00       0.000000000000
      0.3047524880D+04  0.1834737132D-02
      0.4573695180D+03  0.1403732281D-01
      0.1039486850D+03  0.6884262226D-01
      0.2921015530D+02  0.2321844432D+00
      0.9286662960D+01  0.4679413484D+00
      0.3163926960D+01  0.3623119853D+00
 SP   3 1.00       0.000000000000
      0.7868272350D+01 -0.1193324198D+00  0.6899906659D-01
      0.1881288540D+01 -0.1608541517D+00  0.3164239610D+00
      0.5442492580D+00  0.1143456438D+01  0.7443082909D+00
 SP   1 1.00       0.000000000000
      0.1687144782D+00  0.1000000000D+01  0.1000000000D+01
 D   1 1.00       0.000000000000
      0.8000000000D+00  0.1000000000D+01
 ****
     61 0
 S   3 1.00       0.000000000000
      0.1873113696D+02  0.3349460434D-01
      0.2825394365D+01  0.2347269535D+00
      0.6401216923D+00  0.8137573261D+00
 S   1 1.00       0.000000000000
      0.1612777588D+00  0.1000000000D+01
 ****
     62 0
 S   3 1.00       0.000000000000
      0.1873113696D+02  0.3349460434D-01
      0.2825394365D+01  0.2347269535D+00
      0.6401216923D+00  0.8137573261D+00
 S   1 1.00       0.000000000000
      0.1612777588D+00  0.1000000000D+01
 ****
     63 0
 S   6 1.00       0.000000000000
      0.3047524880D+04  0.1834737132D-02
      0.4573695180D+03  0.1403732281D-01
      0.1039486850D+03  0.6884262226D-01
      0.2921015530D+02  0.2321844432D+00
      0.9286662960D+01  0.4679413484D+00
      0.3163926960D+01  0.3623119853D+00
 SP   3 1.00       0.000000000000
      0.7868272350D+01 -0.1193324198D+00  0.6899906659D-01
      0.1881288540D+01 -0.1608541517D+00  0.3164239610D+00
      0.5442492580D+00  0.1143456438D+01  0.7443082909D+00
 SP   1 1.00       0.000000000000
      0.1687144782D+00  0.1000000000D+01  0.1000000000D+01
 D   1 1.00       0.000000000000
      0.8000000000D+00  0.1000000000D+01
 ****
     64 0
 S   3 1.00       0.000000000000
      0.1873113696D+02  0.3349460434D-01
      0.2825394365D+01  0.2347269535D+00
      0.6401216923D+00  0.8137573261D+00
 S   1 1.00       0.000000000000
      0.1612777588D+00  0.1000000000D+01
 ****
     65 0
 S   3 1.00       0.000000000000
      0.1873113696D+02  0.3349460434D-01
      0.2825394365D+01  0.2347269535D+00
      0.6401216923D+00  0.8137573261D+00
 S   1 1.00       0.000000000000
      0.1612777588D+00  0.1000000000D+01
 ****
     66 0
 S   6 1.00       0.000000000000
      0.3047524880D+04  0.1834737132D-02
      0.4573695180D+03  0.1403732281D-01
      0.1039486850D+03  0.6884262226D-01
      0.2921015530D+02  0.2321844432D+00
      0.9286662960D+01  0.4679413484D+00
      0.3163926960D+01  0.3623119853D+00
 SP   3 1.00       0.000000000000
      0.7868272350D+01 -0.1193324198D+00  0.6899906659D-01
      0.1881288540D+01 -0.1608541517D+00  0.3164239610D+00
      0.5442492580D+00  0.1143456438D+01  0.7443082909D+00
 SP   1 1.00       0.000000000000
      0.1687144782D+00  0.1000000000D+01  0.1000000000D+01
 D   1 1.00       0.000000000000
      0.8000000000D+00  0.1000000000D+01
 ****
     67 0
 S   3 1.00       0.000000000000
      0.1873113696D+02  0.3349460434D-01
      0.2825394365D+01  0.2347269535D+00
      0.6401216923D+00  0.8137573261D+00
 S   1 1.00       0.000000000000
      0.1612777588D+00  0.1000000000D+01
 ****
     68 0
 S   6 1.00       0.000000000000
      0.3047524880D+04  0.1834737132D-02
      0.4573695180D+03  0.1403732281D-01
      0.1039486850D+03  0.6884262226D-01
      0.2921015530D+02  0.2321844432D+00
      0.9286662960D+01  0.4679413484D+00
      0.3163926960D+01  0.3623119853D+00
 SP   3 1.00       0.000000000000
      0.7868272350D+01 -0.1193324198D+00  0.6899906659D-01
      0.1881288540D+01 -0.1608541517D+00  0.3164239610D+00
      0.5442492580D+00  0.1143456438D+01  0.7443082909D+00
 SP   1 1.00       0.000000000000
      0.1687144782D+00  0.1000000000D+01  0.1000000000D+01
 D   1 1.00       0.000000000000
      0.8000000000D+00  0.1000000000D+01
 ****
     69 0
 S   3 1.00       0.000000000000
      0.1873113696D+02  0.3349460434D-01
      0.2825394365D+01  0.2347269535D+00
      0.6401216923D+00  0.8137573261D+00
 S   1 1.00       0.000000000000
      0.1612777588D+00  0.1000000000D+01
 ****
     70 0
 S   3 1.00       0.000000000000
      0.1873113696D+02  0.3349460434D-01
      0.2825394365D+01  0.2347269535D+00
      0.6401216923D+00  0.8137573261D+00
 S   1 1.00       0.000000000000
      0.1612777588D+00  0.1000000000D+01
 ****
     71 0
 S   3 1.00       0.000000000000
      0.1873113696D+02  0.3349460434D-01
      0.2825394365D+01  0.2347269535D+00
      0.6401216923D+00  0.8137573261D+00
 S   1 1.00       0.000000000000
      0.1612777588D+00  0.1000000000D+01
 ****
     72 0
 S   6 1.00       0.000000000000
      0.3047524880D+04  0.1834737132D-02
      0.4573695180D+03  0.1403732281D-01
      0.1039486850D+03  0.6884262226D-01
      0.2921015530D+02  0.2321844432D+00
      0.9286662960D+01  0.4679413484D+00
      0.3163926960D+01  0.3623119853D+00
 SP   3 1.00       0.000000000000
      0.7868272350D+01 -0.1193324198D+00  0.6899906659D-01
      0.1881288540D+01 -0.1608541517D+00  0.3164239610D+00
      0.5442492580D+00  0.1143456438D+01  0.7443082909D+00
 SP   1 1.00       0.000000000000
      0.1687144782D+00  0.1000000000D+01  0.1000000000D+01
 D   1 1.00       0.000000000000
      0.8000000000D+00  0.1000000000D+01
 ****
     73 0
 S   3 1.00       0.000000000000
      0.1873113696D+02  0.3349460434D-01
      0.2825394365D+01  0.2347269535D+00
      0.6401216923D+00  0.8137573261D+00
 S   1 1.00       0.000000000000
      0.1612777588D+00  0.1000000000D+01
 ****
     74 0
 S   3 1.00       0.000000000000
      0.1873113696D+02  0.3349460434D-01
      0.2825394365D+01  0.2347269535D+00
      0.6401216923D+00  0.8137573261D+00
 S   1 1.00       0.000000000000
      0.1612777588D+00  0.1000000000D+01
 ****
     75 0
 S   3 1.00       0.000000000000
      0.1873113696D+02  0.3349460434D-01
      0.2825394365D+01  0.2347269535D+00
      0.6401216923D+00  0.8137573261D+00
 S   1 1.00       0.000000000000
      0.1612777588D+00  0.1000000000D+01
 ****

 AO basis set (Overlap normalization):
 Atom O1       Shell     1 S   6     bf    1 -     1         12.623984388519          1.701115477741          0.000000000000
      0.5484671660D+04  0.1831074430D-02
      0.8252349460D+03  0.1395017220D-01
      0.1880469580D+03  0.6844507810D-01
      0.5296450000D+02  0.2327143360D+00
      0.1689757040D+02  0.4701928980D+00
      0.5799635340D+01  0.3585208530D+00
 Atom O1       Shell     2 SP   3    bf    2 -     5         12.623984388519          1.701115477741          0.000000000000
      0.1553961625D+02 -0.1107775495D+00  0.7087426823D-01
      0.3599933586D+01 -0.1480262627D+00  0.3397528391D+00
      0.1013761750D+01  0.1130767015D+01  0.7271585773D+00
 Atom O1       Shell     3 SP   1    bf    6 -     9         12.623984388519          1.701115477741          0.000000000000
      0.2700058226D+00  0.1000000000D+01  0.1000000000D+01
 Atom O1       Shell     4 D   1     bf   10 -    15         12.623984388519          1.701115477741          0.000000000000
      0.8000000000D+00  0.1000000000D+01
 Atom H2       Shell     5 S   3     bf   16 -    16         13.294636741339          0.000000000000          0.000000000000
      0.1873113696D+02  0.3349460434D-01
      0.2825394365D+01  0.2347269535D+00
      0.6401216923D+00  0.8137573261D+00
 Atom H2       Shell     6 S   1     bf   17 -    17         13.294636741339          0.000000000000          0.000000000000
      0.1612777588D+00  0.1000000000D+01
 Atom O3       Shell     7 S   6     bf   18 -    18         18.598619461001          0.710653659862        -12.108970125667
      0.5484671660D+04  0.1831074430D-02
      0.8252349460D+03  0.1395017220D-01
      0.1880469580D+03  0.6844507810D-01
      0.5296450000D+02  0.2327143360D+00
      0.1689757040D+02  0.4701928980D+00
      0.5799635340D+01  0.3585208530D+00
 Atom O3       Shell     8 SP   3    bf   19 -    22         18.598619461001          0.710653659862        -12.108970125667
      0.1553961625D+02 -0.1107775495D+00  0.7087426823D-01
      0.3599933586D+01 -0.1480262627D+00  0.3397528391D+00
      0.1013761750D+01  0.1130767015D+01  0.7271585773D+00
 Atom O3       Shell     9 SP   1    bf   23 -    26         18.598619461001          0.710653659862        -12.108970125667
      0.2700058226D+00  0.1000000000D+01  0.1000000000D+01
 Atom O3       Shell    10 D   1     bf   27 -    32         18.598619461001          0.710653659862        -12.108970125667
      0.8000000000D+00  0.1000000000D+01
 Atom H4       Shell    11 S   3     bf   33 -    33         18.844954333108         -1.097387662532        -12.224720008703
      0.1873113696D+02  0.3349460434D-01
      0.2825394365D+01  0.2347269535D+00
      0.6401216923D+00  0.8137573261D+00
 Atom H4       Shell    12 S   1     bf   34 -    34         18.844954333108         -1.097387662532        -12.224720008703
      0.1612777588D+00  0.1000000000D+01
 Atom C5       Shell    13 S   6     bf   35 -    35          4.583030883855          0.974656110709         -3.031613293162
      0.3047524880D+04  0.1834737132D-02
      0.4573695180D+03  0.1403732281D-01
      0.1039486850D+03  0.6884262226D-01
      0.2921015530D+02  0.2321844432D+00
      0.9286662960D+01  0.4679413484D+00
      0.3163926960D+01  0.3623119853D+00
 Atom C5       Shell    14 SP   3    bf   36 -    39          4.583030883855          0.974656110709         -3.031613293162
      0.7868272350D+01 -0.1193324198D+00  0.6899906659D-01
      0.1881288540D+01 -0.1608541517D+00  0.3164239610D+00
      0.5442492580D+00  0.1143456438D+01  0.7443082909D+00
 Atom C5       Shell    15 SP   1    bf   40 -    43          4.583030883855          0.974656110709         -3.031613293162
      0.1687144782D+00  0.1000000000D+01  0.1000000000D+01
 Atom C5       Shell    16 D   1     bf   44 -    49          4.583030883855          0.974656110709         -3.031613293162
      0.8000000000D+00  0.1000000000D+01
 Atom C6       Shell    17 S   6     bf   50 -    50          7.146566459422          2.168751679722         -2.222691436644
      0.3047524880D+04  0.1834737132D-02
      0.4573695180D+03  0.1403732281D-01
      0.1039486850D+03  0.6884262226D-01
      0.2921015530D+02  0.2321844432D+00
      0.9286662960D+01  0.4679413484D+00
      0.3163926960D+01  0.3623119853D+00
 Atom C6       Shell    18 SP   3    bf   51 -    54          7.146566459422          2.168751679722         -2.222691436644
      0.7868272350D+01 -0.1193324198D+00  0.6899906659D-01
      0.1881288540D+01 -0.1608541517D+00  0.3164239610D+00
      0.5442492580D+00  0.1143456438D+01  0.7443082909D+00
 Atom C6       Shell    19 SP   1    bf   55 -    58          7.146566459422          2.168751679722         -2.222691436644
      0.1687144782D+00  0.1000000000D+01  0.1000000000D+01
 Atom C6       Shell    20 D   1     bf   59 -    64          7.146566459422          2.168751679722         -2.222691436644
      0.8000000000D+00  0.1000000000D+01
 Atom H7       Shell    21 S   3     bf   65 -    65          7.088990945010          4.118582857730         -2.962856533783
      0.1873113696D+02  0.3349460434D-01
      0.2825394365D+01  0.2347269535D+00
      0.6401216923D+00  0.8137573261D+00
 Atom H7       Shell    22 S   1     bf   66 -    66          7.088990945010          4.118582857730         -2.962856533783
      0.1612777588D+00  0.1000000000D+01
 Atom C8       Shell    23 S   6     bf   67 -    67          9.510304182241          0.964299580021         -3.415262242332
      0.3047524880D+04  0.1834737132D-02
      0.4573695180D+03  0.1403732281D-01
      0.1039486850D+03  0.6884262226D-01
      0.2921015530D+02  0.2321844432D+00
      0.9286662960D+01  0.4679413484D+00
      0.3163926960D+01  0.3623119853D+00
 Atom C8       Shell    24 SP   3    bf   68 -    71          9.510304182241          0.964299580021         -3.415262242332
      0.7868272350D+01 -0.1193324198D+00  0.6899906659D-01
      0.1881288540D+01 -0.1608541517D+00  0.3164239610D+00
      0.5442492580D+00  0.1143456438D+01  0.7443082909D+00
 Atom C8       Shell    25 SP   1    bf   72 -    75          9.510304182241          0.964299580021         -3.415262242332
      0.1687144782D+00  0.1000000000D+01  0.1000000000D+01
 Atom C8       Shell    26 D   1     bf   76 -    81          9.510304182241          0.964299580021         -3.415262242332
      0.8000000000D+00  0.1000000000D+01
 Atom H9       Shell    27 S   3     bf   82 -    82          9.674892052970         -1.011894109020         -2.792246483814
      0.1873113696D+02  0.3349460434D-01
      0.2825394365D+01  0.2347269535D+00
      0.6401216923D+00  0.8137573261D+00
 Atom H9       Shell    28 S   1     bf   83 -    83          9.674892052970         -1.011894109020         -2.792246483814
      0.1612777588D+00  0.1000000000D+01
 Atom C10      Shell    29 S   6     bf   84 -    84          9.286959094657          1.048307695409         -6.342905978403
      0.3047524880D+04  0.1834737132D-02
      0.4573695180D+03  0.1403732281D-01
      0.1039486850D+03  0.6884262226D-01
      0.2921015530D+02  0.2321844432D+00
      0.9286662960D+01  0.4679413484D+00
      0.3163926960D+01  0.3623119853D+00
 Atom C10      Shell    30 SP   3    bf   85 -    88          9.286959094657          1.048307695409         -6.342905978403
      0.7868272350D+01 -0.1193324198D+00  0.6899906659D-01
      0.1881288540D+01 -0.1608541517D+00  0.3164239610D+00
      0.5442492580D+00  0.1143456438D+01  0.7443082909D+00
 Atom C10      Shell    31 SP   1    bf   89 -    92          9.286959094657          1.048307695409         -6.342905978403
      0.1687144782D+00  0.1000000000D+01  0.1000000000D+01
 Atom C10      Shell    32 D   1     bf   93 -    98          9.286959094657          1.048307695409         -6.342905978403
      0.8000000000D+00  0.1000000000D+01
 Atom H11      Shell    33 S   3     bf   99 -    99          9.353831551417          3.067332726451         -6.852660018488
      0.1873113696D+02  0.3349460434D-01
      0.2825394365D+01  0.2347269535D+00
      0.6401216923D+00  0.8137573261D+00
 Atom H11      Shell    34 S   1     bf  100 -   100          9.353831551417          3.067332726451         -6.852660018488
      0.1612777588D+00  0.1000000000D+01
 Atom C12      Shell    35 S   6     bf  101 -   101          2.708605712289          2.651087834523         -1.462605545810
      0.3047524880D+04  0.1834737132D-02
      0.4573695180D+03  0.1403732281D-01
      0.1039486850D+03  0.6884262226D-01
      0.2921015530D+02  0.2321844432D+00
      0.9286662960D+01  0.4679413484D+00
      0.3163926960D+01  0.3623119853D+00
 Atom C12      Shell    36 SP   3    bf  102 -   105          2.708605712289          2.651087834523         -1.462605545810
      0.7868272350D+01 -0.1193324198D+00  0.6899906659D-01
      0.1881288540D+01 -0.1608541517D+00  0.3164239610D+00
      0.5442492580D+00  0.1143456438D+01  0.7443082909D+00
 Atom C12      Shell    37 SP   1    bf  106 -   109          2.708605712289          2.651087834523         -1.462605545810
      0.1687144782D+00  0.1000000000D+01  0.1000000000D+01
 Atom C12      Shell    38 D   1     bf  110 -   115          2.708605712289          2.651087834523         -1.462605545810
      0.8000000000D+00  0.1000000000D+01
 Atom H13      Shell    39 S   3     bf  116 -   116          2.628954606165          4.489715678290         -2.436693812713
      0.1873113696D+02  0.3349460434D-01
      0.2825394365D+01  0.2347269535D+00
      0.6401216923D+00  0.8137573261D+00
 Atom H13      Shell    40 S   1     bf  117 -   117          2.628954606165          4.489715678290         -2.436693812713
      0.1612777588D+00  0.1000000000D+01
 Atom C14      Shell    41 S   6     bf  118 -   118          4.412439863428          1.234942339526         -5.927943360143
      0.3047524880D+04  0.1834737132D-02
      0.4573695180D+03  0.1403732281D-01
      0.1039486850D+03  0.6884262226D-01
      0.2921015530D+02  0.2321844432D+00
      0.9286662960D+01  0.4679413484D+00
      0.3163926960D+01  0.3623119853D+00
 Atom C14      Shell    42 SP   3    bf  119 -   122          4.412439863428          1.234942339526         -5.927943360143
      0.7868272350D+01 -0.1193324198D+00  0.6899906659D-01
      0.1881288540D+01 -0.1608541517D+00  0.3164239610D+00
      0.5442492580D+00  0.1143456438D+01  0.7443082909D+00
 Atom C14      Shell    43 SP   1    bf  123 -   126          4.412439863428          1.234942339526         -5.927943360143
      0.1687144782D+00  0.1000000000D+01  0.1000000000D+01
 Atom C14      Shell    44 D   1     bf  127 -   132          4.412439863428          1.234942339526         -5.927943360143
      0.8000000000D+00  0.1000000000D+01
 Atom H15      Shell    45 S   3     bf  133 -   133          4.312885916008          3.254329385403         -6.408046142114
      0.1873113696D+02  0.3349460434D-01
      0.2825394365D+01  0.2347269535D+00
      0.6401216923D+00  0.8137573261D+00
 Atom H15      Shell    46 S   1     bf  134 -   134          4.312885916008          3.254329385403         -6.408046142114
      0.1612777588D+00  0.1000000000D+01
 Atom H16      Shell    47 S   3     bf  135 -   135          2.690230261037          0.368517912023         -6.677417626158
      0.1873113696D+02  0.3349460434D-01
      0.2825394365D+01  0.2347269535D+00
      0.6401216923D+00  0.8137573261D+00
 Atom H16      Shell    48 S   1     bf  136 -   136          2.690230261037          0.368517912023         -6.677417626158
      0.1612777588D+00  0.1000000000D+01
 Atom C17      Shell    49 S   6     bf  137 -   137         11.591068058928         -0.196836066084         -7.731071319003
      0.3047524880D+04  0.1834737132D-02
      0.4573695180D+03  0.1403732281D-01
      0.1039486850D+03  0.6884262226D-01
      0.2921015530D+02  0.2321844432D+00
      0.9286662960D+01  0.4679413484D+00
      0.3163926960D+01  0.3623119853D+00
 Atom C17      Shell    50 SP   3    bf  138 -   141         11.591068058928         -0.196836066084         -7.731071319003
      0.7868272350D+01 -0.1193324198D+00  0.6899906659D-01
      0.1881288540D+01 -0.1608541517D+00  0.3164239610D+00
      0.5442492580D+00  0.1143456438D+01  0.7443082909D+00
 Atom C17      Shell    51 SP   1    bf  142 -   145         11.591068058928         -0.196836066084         -7.731071319003
      0.1687144782D+00  0.1000000000D+01  0.1000000000D+01
 Atom C17      Shell    52 D   1     bf  146 -   151         11.591068058928         -0.196836066084         -7.731071319003
      0.8000000000D+00  0.1000000000D+01
 Atom C18      Shell    53 S   6     bf  152 -   152          6.946032652831          2.383922303384          0.666172908201
      0.3047524880D+04  0.1834737132D-02
      0.4573695180D+03  0.1403732281D-01
      0.1039486850D+03  0.6884262226D-01
      0.2921015530D+02  0.2321844432D+00
      0.9286662960D+01  0.4679413484D+00
      0.3163926960D+01  0.3623119853D+00
 Atom C18      Shell    54 SP   3    bf  153 -   156          6.946032652831          2.383922303384          0.666172908201
      0.7868272350D+01 -0.1193324198D+00  0.6899906659D-01
      0.1881288540D+01 -0.1608541517D+00  0.3164239610D+00
      0.5442492580D+00  0.1143456438D+01  0.7443082909D+00
 Atom C18      Shell    55 SP   1    bf  157 -   160          6.946032652831          2.383922303384          0.666172908201
      0.1687144782D+00  0.1000000000D+01  0.1000000000D+01
 Atom C18      Shell    56 D   1     bf  161 -   166          6.946032652831          2.383922303384          0.666172908201
      0.8000000000D+00  0.1000000000D+01
 Atom H19      Shell    57 S   3     bf  167 -   167          8.229398922156          3.801032427983          1.444714053421
      0.1873113696D+02  0.3349460434D-01
      0.2825394365D+01  0.2347269535D+00
      0.6401216923D+00  0.8137573261D+00
 Atom H19      Shell    58 S   1     bf  168 -   168          8.229398922156          3.801032427983          1.444714053421
      0.1612777588D+00  0.1000000000D+01
 Atom H20      Shell    59 S   3     bf  169 -   169          7.455849412927          0.592157135480          1.567763476077
      0.1873113696D+02  0.3349460434D-01
      0.2825394365D+01  0.2347269535D+00
      0.6401216923D+00  0.8137573261D+00
 Atom H20      Shell    60 S   1     bf  170 -   170          7.455849412927          0.592157135480          1.567763476077
      0.1612777588D+00  0.1000000000D+01
 Atom C21      Shell    61 S   6     bf  171 -   171          6.705406341015          0.035920651327         -7.262144339586
      0.3047524880D+04  0.1834737132D-02
      0.4573695180D+03  0.1403732281D-01
      0.1039486850D+03  0.6884262226D-01
      0.2921015530D+02  0.2321844432D+00
      0.9286662960D+01  0.4679413484D+00
      0.3163926960D+01  0.3623119853D+00
 Atom C21      Shell    62 SP   3    bf  172 -   175          6.705406341015          0.035920651327         -7.262144339586
      0.7868272350D+01 -0.1193324198D+00  0.6899906659D-01
      0.1881288540D+01 -0.1608541517D+00  0.3164239610D+00
      0.5442492580D+00  0.1143456438D+01  0.7443082909D+00
 Atom C21      Shell    63 SP   1    bf  176 -   179          6.705406341015          0.035920651327         -7.262144339586
      0.1687144782D+00  0.1000000000D+01  0.1000000000D+01
 Atom C21      Shell    64 D   1     bf  180 -   185          6.705406341015          0.035920651327         -7.262144339586
      0.8000000000D+00  0.1000000000D+01
 Atom H22      Shell    65 S   3     bf  186 -   186          6.625172953577         -2.016047616341         -7.001215377117
      0.1873113696D+02  0.3349460434D-01
      0.2825394365D+01  0.2347269535D+00
      0.6401216923D+00  0.8137573261D+00
 Atom H22      Shell    66 S   1     bf  187 -   187          6.625172953577         -2.016047616341         -7.001215377117
      0.1612777588D+00  0.1000000000D+01
 Atom H23      Shell    67 S   3     bf  188 -   188          6.519243977253          0.358355116059         -9.298869528246
      0.1873113696D+02  0.3349460434D-01
      0.2825394365D+01  0.2347269535D+00
      0.6401216923D+00  0.8137573261D+00
 Atom H23      Shell    68 S   1     bf  189 -   189          6.519243977253          0.358355116059         -9.298869528246
      0.1612777588D+00  0.1000000000D+01
 Atom C24      Shell    69 S   6     bf  190 -   190          4.122248208332          3.039543944619          1.111848187052
      0.3047524880D+04  0.1834737132D-02
      0.4573695180D+03  0.1403732281D-01
      0.1039486850D+03  0.6884262226D-01
      0.2921015530D+02  0.2321844432D+00
      0.9286662960D+01  0.4679413484D+00
      0.3163926960D+01  0.3623119853D+00
 Atom C24      Shell    70 SP   3    bf  191 -   194          4.122248208332          3.039543944619          1.111848187052
      0.7868272350D+01 -0.1193324198D+00  0.6899906659D-01
      0.1881288540D+01 -0.1608541517D+00  0.3164239610D+00
      0.5442492580D+00  0.1143456438D+01  0.7443082909D+00
 Atom C24      Shell    71 SP   1    bf  195 -   198          4.122248208332          3.039543944619          1.111848187052
      0.1687144782D+00  0.1000000000D+01  0.1000000000D+01
 Atom C24      Shell    72 D   1     bf  199 -   204          4.122248208332          3.039543944619          1.111848187052
      0.8000000000D+00  0.1000000000D+01
 Atom H25      Shell    73 S   3     bf  205 -   205          3.301563071197          1.827502572488          2.578516133822
      0.1873113696D+02  0.3349460434D-01
      0.2825394365D+01  0.2347269535D+00
      0.6401216923D+00  0.8137573261D+00
 Atom H25      Shell    74 S   1     bf  206 -   206          3.301563071197          1.827502572488          2.578516133822
      0.1612777588D+00  0.1000000000D+01
 Atom H26      Shell    75 S   3     bf  207 -   207          3.912336843675          4.983735348367          1.784001568237
      0.1873113696D+02  0.3349460434D-01
      0.2825394365D+01  0.2347269535D+00
      0.6401216923D+00  0.8137573261D+00
 Atom H26      Shell    76 S   1     bf  208 -   208          3.912336843675          4.983735348367          1.784001568237
      0.1612777588D+00  0.1000000000D+01
 Atom C27      Shell    77 S   6     bf  209 -   209         11.936486468929          2.329601747749         -2.560075392532
      0.3047524880D+04  0.1834737132D-02
      0.4573695180D+03  0.1403732281D-01
      0.1039486850D+03  0.6884262226D-01
      0.2921015530D+02  0.2321844432D+00
      0.9286662960D+01  0.4679413484D+00
      0.3163926960D+01  0.3623119853D+00
 Atom C27      Shell    78 SP   3    bf  210 -   213         11.936486468929          2.329601747749         -2.560075392532
      0.7868272350D+01 -0.1193324198D+00  0.6899906659D-01
      0.1881288540D+01 -0.1608541517D+00  0.3164239610D+00
      0.5442492580D+00  0.1143456438D+01  0.7443082909D+00
 Atom C27      Shell    79 SP   1    bf  214 -   217         11.936486468929          2.329601747749         -2.560075392532
      0.1687144782D+00  0.1000000000D+01  0.1000000000D+01
 Atom C27      Shell    80 D   1     bf  218 -   223         11.936486468929          2.329601747749         -2.560075392532
      0.8000000000D+00  0.1000000000D+01
 Atom H28      Shell    81 S   3     bf  224 -   224         11.561532036313          4.370699649296         -2.465975988416
      0.1873113696D+02  0.3349460434D-01
      0.2825394365D+01  0.2347269535D+00
      0.6401216923D+00  0.8137573261D+00
 Atom H28      Shell    82 S   1     bf  225 -   225         11.561532036313          4.370699649296         -2.465975988416
      0.1612777588D+00  0.1000000000D+01
 Atom C29      Shell    83 S   6     bf  226 -   226         -0.060512810227          1.769587908926         -1.088853338063
      0.3047524880D+04  0.1834737132D-02
      0.4573695180D+03  0.1403732281D-01
      0.1039486850D+03  0.6884262226D-01
      0.2921015530D+02  0.2321844432D+00
      0.9286662960D+01  0.4679413484D+00
      0.3163926960D+01  0.3623119853D+00
 Atom C29      Shell    84 SP   3    bf  227 -   230         -0.060512810227          1.769587908926         -1.088853338063
      0.7868272350D+01 -0.1193324198D+00  0.6899906659D-01
      0.1881288540D+01 -0.1608541517D+00  0.3164239610D+00
      0.5442492580D+00  0.1143456438D+01  0.7443082909D+00
 Atom C29      Shell    85 SP   1    bf  231 -   234         -0.060512810227          1.769587908926         -1.088853338063
      0.1687144782D+00  0.1000000000D+01  0.1000000000D+01
 Atom C29      Shell    86 D   1     bf  235 -   240         -0.060512810227          1.769587908926         -1.088853338063
      0.8000000000D+00  0.1000000000D+01
 Atom H30      Shell    87 S   3     bf  241 -   241          0.000000000000          0.000000000000          0.000000000000
      0.1873113696D+02  0.3349460434D-01
      0.2825394365D+01  0.2347269535D+00
      0.6401216923D+00  0.8137573261D+00
 Atom H30      Shell    88 S   1     bf  242 -   242          0.000000000000          0.000000000000          0.000000000000
      0.1612777588D+00  0.1000000000D+01
 Atom C31      Shell    89 S   6     bf  243 -   243          4.364201561427         -1.825871606554         -2.226887705803
      0.3047524880D+04  0.1834737132D-02
      0.4573695180D+03  0.1403732281D-01
      0.1039486850D+03  0.6884262226D-01
      0.2921015530D+02  0.2321844432D+00
      0.9286662960D+01  0.4679413484D+00
      0.3163926960D+01  0.3623119853D+00
 Atom C31      Shell    90 SP   3    bf  244 -   247          4.364201561427         -1.825871606554         -2.226887705803
      0.7868272350D+01 -0.1193324198D+00  0.6899906659D-01
      0.1881288540D+01 -0.1608541517D+00  0.3164239610D+00
      0.5442492580D+00  0.1143456438D+01  0.7443082909D+00
 Atom C31      Shell    91 SP   1    bf  248 -   251          4.364201561427         -1.825871606554         -2.226887705803
      0.1687144782D+00  0.1000000000D+01  0.1000000000D+01
 Atom C31      Shell    92 D   1     bf  252 -   257          4.364201561427         -1.825871606554         -2.226887705803
      0.8000000000D+00  0.1000000000D+01
 Atom H32      Shell    93 S   3     bf  258 -   258          5.905624050452         -2.980545882168         -2.973968501390
      0.1873113696D+02  0.3349460434D-01
      0.2825394365D+01  0.2347269535D+00
      0.6401216923D+00  0.8137573261D+00
 Atom H32      Shell    94 S   1     bf  259 -   259          5.905624050452         -2.980545882168         -2.973968501390
      0.1612777588D+00  0.1000000000D+01
 Atom H33      Shell    95 S   3     bf  260 -   260          4.383319259309         -2.041945935047         -0.171048485329
      0.1873113696D+02  0.3349460434D-01
      0.2825394365D+01  0.2347269535D+00
      0.6401216923D+00  0.8137573261D+00
 Atom H33      Shell    96 S   1     bf  261 -   261          4.383319259309         -2.041945935047         -0.171048485329
      0.1612777588D+00  0.1000000000D+01
 Atom H34      Shell    97 S   3     bf  262 -   262          2.596832417748         -2.651581412092         -2.916266904450
      0.1873113696D+02  0.3349460434D-01
      0.2825394365D+01  0.2347269535D+00
      0.6401216923D+00  0.8137573261D+00
 Atom H34      Shell    98 S   1     bf  263 -   263          2.596832417748         -2.651581412092         -2.916266904450
      0.1612777588D+00  0.1000000000D+01
 Atom C35      Shell    99 S   6     bf  264 -   264         14.067834289076          0.700857603048         -6.527907918038
      0.3047524880D+04  0.1834737132D-02
      0.4573695180D+03  0.1403732281D-01
      0.1039486850D+03  0.6884262226D-01
      0.2921015530D+02  0.2321844432D+00
      0.9286662960D+01  0.4679413484D+00
      0.3163926960D+01  0.3623119853D+00
 Atom C35      Shell   100 SP   3    bf  265 -   268         14.067834289076          0.700857603048         -6.527907918038
      0.7868272350D+01 -0.1193324198D+00  0.6899906659D-01
      0.1881288540D+01 -0.1608541517D+00  0.3164239610D+00
      0.5442492580D+00  0.1143456438D+01  0.7443082909D+00
 Atom C35      Shell   101 SP   1    bf  269 -   272         14.067834289076          0.700857603048         -6.527907918038
      0.1687144782D+00  0.1000000000D+01  0.1000000000D+01
 Atom C35      Shell   102 D   1     bf  273 -   278         14.067834289076          0.700857603048         -6.527907918038
      0.8000000000D+00  0.1000000000D+01
 Atom C36      Shell   103 S   6     bf  279 -   279         11.571610267033          0.667574064539        -10.551304306694
      0.3047524880D+04  0.1834737132D-02
      0.4573695180D+03  0.1403732281D-01
      0.1039486850D+03  0.6884262226D-01
      0.2921015530D+02  0.2321844432D+00
      0.9286662960D+01  0.4679413484D+00
      0.3163926960D+01  0.3623119853D+00
 Atom C36      Shell   104 SP   3    bf  280 -   283         11.571610267033          0.667574064539        -10.551304306694
      0.7868272350D+01 -0.1193324198D+00  0.6899906659D-01
      0.1881288540D+01 -0.1608541517D+00  0.3164239610D+00
      0.5442492580D+00  0.1143456438D+01  0.7443082909D+00
 Atom C36      Shell   105 SP   1    bf  284 -   287         11.571610267033          0.667574064539        -10.551304306694
      0.1687144782D+00  0.1000000000D+01  0.1000000000D+01
 Atom C36      Shell   106 D   1     bf  288 -   293         11.571610267033          0.667574064539        -10.551304306694
      0.8000000000D+00  0.1000000000D+01
 Atom H37      Shell   107 S   3     bf  294 -   294         11.274056484588          2.721975260117        -10.598046947153
      0.1873113696D+02  0.3349460434D-01
      0.2825394365D+01  0.2347269535D+00
      0.6401216923D+00  0.8137573261D+00
 Atom H37      Shell   108 S   1     bf  295 -   295         11.274056484588          2.721975260117        -10.598046947153
      0.1612777588D+00  0.1000000000D+01
 Atom H38      Shell   109 S   3     bf  296 -   296          9.952748161686         -0.181619670008        -11.521196058774
      0.1873113696D+02  0.3349460434D-01
      0.2825394365D+01  0.2347269535D+00
      0.6401216923D+00  0.8137573261D+00
 Atom H38      Shell   110 S   1     bf  297 -   297          9.952748161686         -0.181619670008        -11.521196058774
      0.1612777588D+00  0.1000000000D+01
 Atom C39      Shell   111 S   6     bf  298 -   298         14.149954492468          1.865315425489         -4.278503029321
      0.3047524880D+04  0.1834737132D-02
[...]
 **** Fit       0.006562
 **** Fit       0.008890
 **** Fit       0.010395
 **** Fit       0.010558
 **** Fit       0.009392
 **** Fit       0.007462
 **** Fit       0.005485
 **** Fit       0.003931
 **** Fit       0.002933
 **** Fit       0.002409
 **** Fit       0.002214
 **** Fit       0.002215
 **** Fit       0.002313
 **** Fit       0.002441
 **** Fit       0.002556
 **** Fit      -0.003899
 **** Fit      -0.003365
 **** Fit      -0.002363
 **** Fit      -0.000857
 **** Fit       0.001002
 **** Fit       0.002771
 **** Fit       0.003802
 **** Fit       0.003614
 **** Fit       0.002337
 **** Fit       0.000672
 **** Fit      -0.000644
 **** Fit      -0.001272
 **** Fit      -0.001267
 **** Fit      -0.000854
 **** Fit      -0.000246
 **** Fit       0.000406
 **** Fit       0.001012
 **** Fit       0.001518
 **** Fit       0.001902
 **** Fit       0.002161
 **** Fit       0.002309
 **** Fit      -0.007333
 **** Fit      -0.007668
 **** Fit      -0.007696
 **** Fit      -0.007347
 **** Fit      -0.006702
 **** Fit      -0.006083
 **** Fit      -0.005989
 **** Fit      -0.006701
 **** Fit      -0.007891
 **** Fit      -0.008776
 **** Fit      -0.008768
 **** Fit      -0.007830
 **** Fit      -0.006306
 **** Fit      -0.004581
 **** Fit      -0.002918
 **** Fit      -0.001452
 **** Fit      -0.000244
 **** Fit       0.000688
 **** Fit       0.001353
 **** Fit       0.001784
 **** Fit       0.002030
 **** Fit       0.002137
 **** Fit      -0.010953
 **** Fit      -0.012318
 **** Fit      -0.013626
 **** Fit      -0.014792
 **** Fit      -0.015801
 **** Fit      -0.016786
 **** Fit      -0.017956
 **** Fit      -0.019267
 **** Fit      -0.020141
 **** Fit      -0.019796
 **** Fit      -0.017945
 **** Fit      -0.014993
 **** Fit      -0.011625
 **** Fit      -0.008380
 **** Fit      -0.005534
 **** Fit      -0.003182
 **** Fit      -0.001338
 **** Fit       0.000020
 **** Fit       0.000946
 **** Fit       0.001521
 **** Fit       0.001835
 **** Fit       0.001966
 **** Fit      -0.014393
 **** Fit      -0.016789
 **** Fit      -0.019410
 **** Fit      -0.022164
 **** Fit      -0.024936
 **** Fit      -0.027621
 **** Fit      -0.030068
 **** Fit      -0.031858
 **** Fit      -0.032199
 **** Fit      -0.030410
 **** Fit      -0.026593
 **** Fit      -0.021612
 **** Fit      -0.016455
 **** Fit      -0.011767
 **** Fit      -0.007813
 **** Fit      -0.004637
 **** Fit      -0.002213
 **** Fit      -0.000479
 **** Fit       0.000664
 **** Fit       0.001344
 **** Fit       0.001697
 **** Fit       0.001832
 **** Fit      -0.017279
 **** Fit      -0.020525
 **** Fit      -0.024230
 **** Fit      -0.028296
 **** Fit      -0.032517
 **** Fit      -0.036558
 **** Fit      -0.039923
 **** Fit      -0.041875
 **** Fit      -0.041532
 **** Fit      -0.038426
 **** Fit      -0.033028
 **** Fit      -0.026520
 **** Fit      -0.020056
 **** Fit      -0.014318
 **** Fit      -0.009545
 **** Fit      -0.005753
 **** Fit      -0.002892
 **** Fit      -0.000876
 **** Fit       0.000425
 **** Fit       0.001181
 **** Fit       0.001558
 **** Fit       0.001692
 **** Fit       0.001669
 **** Fit      -0.019322
 **** Fit      -0.023095
 **** Fit      -0.027448
 **** Fit      -0.032268
 **** Fit      -0.037276
 **** Fit      -0.041973
 **** Fit      -0.045633
 **** Fit      -0.047359
 **** Fit      -0.046345
 **** Fit      -0.042384
 **** Fit      -0.036184
 **** Fit      -0.029009
 **** Fit      -0.021998
 **** Fit      -0.015801
 **** Fit      -0.010645
 **** Fit      -0.006544
 **** Fit      -0.003448
 **** Fit      -0.001270
 **** Fit       0.000133
 **** Fit       0.000946
 **** Fit       0.001352
 **** Fit       0.001495
 **** Fit       0.001468
 **** Fit      -0.024315
 **** Fit      -0.028810
 **** Fit      -0.033735
 **** Fit      -0.038764
 **** Fit      -0.043331
 **** Fit      -0.046656
 **** Fit      -0.047883
 **** Fit      -0.046395
 **** Fit      -0.042203
 **** Fit      -0.036057
 **** Fit      -0.029092
 **** Fit      -0.022294
 **** Fit      -0.016238
 **** Fit      -0.011147
 **** Fit      -0.007059
 **** Fit      -0.003944
 **** Fit      -0.001728
 **** Fit      -0.000276
 **** Fit       0.000587
 **** Fit       0.001035
 **** Fit       0.001207
 **** Fit      -0.024270
 **** Fit      -0.028479
 **** Fit      -0.032983
 **** Fit      -0.037443
 **** Fit      -0.041320
 **** Fit      -0.043927
 **** Fit      -0.044589
 **** Fit      -0.042906
 **** Fit      -0.039002
 **** Fit      -0.033528
 **** Fit      -0.027374
 **** Fit      -0.021317
 **** Fit      -0.015839
 **** Fit      -0.011159
 **** Fit      -0.007345
 **** Fit      -0.004391
 **** Fit      -0.002244
 **** Fit      -0.000793
 **** Fit       0.000105
 **** Fit       0.000603
 **** Fit       0.000821
 **** Fit      -0.026896
 **** Fit      -0.030689
 **** Fit      -0.034299
 **** Fit      -0.037277
 **** Fit      -0.039095
 **** Fit      -0.039289
 **** Fit      -0.037638
 **** Fit      -0.034296
 **** Fit      -0.029754
 **** Fit      -0.024656
 **** Fit      -0.019573
 **** Fit      -0.014892
 **** Fit      -0.010817
 **** Fit      -0.007434
 **** Fit      -0.004760
 **** Fit      -0.002763
 **** Fit      -0.001363
 **** Fit      -0.000452
 **** Fit       0.000087
 **** Fit       0.000353
 **** Fit      -0.027584
 **** Fit      -0.030328
 **** Fit      -0.032460
 **** Fit      -0.033613
 **** Fit      -0.033498
 **** Fit      -0.032009
 **** Fit      -0.029284
 **** Fit      -0.025671
 **** Fit      -0.021611
 **** Fit      -0.017510
 **** Fit      -0.013662
 **** Fit      -0.010247
 **** Fit      -0.007356
 **** Fit      -0.005019
 **** Fit      -0.003223
 **** Fit      -0.001917
 **** Fit      -0.001025
 **** Fit      -0.000464
 **** Fit      -0.026242
 **** Fit      -0.027698
 **** Fit      -0.028370
 **** Fit      -0.028087
 **** Fit      -0.026807
 **** Fit      -0.024642
 **** Fit      -0.021828
 **** Fit      -0.009556
 **** Fit      -0.007148
 **** Fit      -0.005158
 **** Fit      -0.003586
 **** Fit      -0.002403
 **** Fit       0.008801
 **** Fit       0.009823
 **** Fit       0.010527
 **** Fit       0.010824
 **** Fit       0.010697
 **** Fit       0.010208
 **** Fit       0.009471
 **** Fit       0.007136
 **** Fit       0.008521
 **** Fit       0.009703
 **** Fit       0.010506
 **** Fit       0.010808
 **** Fit       0.010591
 **** Fit       0.009950
 **** Fit       0.009047
 **** Fit       0.008050
 **** Fit       0.004589
 **** Fit       0.006090
 **** Fit       0.007599
 **** Fit       0.008904
 **** Fit       0.009776
 **** Fit       0.010060
 **** Fit       0.009740
 **** Fit       0.008955
 **** Fit       0.007925
 **** Fit       0.006859
 **** Fit       0.005902
 **** Fit       0.001518
 **** Fit       0.002771
 **** Fit       0.004229
 **** Fit       0.005740
 **** Fit       0.007063
 **** Fit       0.007930
 **** Fit       0.008154
 **** Fit       0.007736
 **** Fit       0.006865
 **** Fit       0.005819
 **** Fit       0.004833
 **** Fit       0.004039
 **** Fit      -0.000829
 **** Fit       0.000145
 **** Fit       0.001354
 **** Fit       0.002659
 **** Fit       0.003813
 **** Fit       0.004535
 **** Fit       0.004638
 **** Fit       0.004157
 **** Fit       0.003334
 **** Fit       0.002478
 **** Fit       0.001812
 **** Fit       0.001421
 **** Fit       0.001282
 **** Fit      -0.003782
 **** Fit      -0.003306
 **** Fit      -0.002605
 **** Fit      -0.001787
 **** Fit      -0.001064
 **** Fit      -0.000680
 **** Fit      -0.000772
 **** Fit      -0.001244
 **** Fit      -0.001814
 **** Fit      -0.002188
 **** Fit      -0.002219
 **** Fit      -0.001919
 **** Fit      -0.001392
 **** Fit      -0.000113
 **** Fit       0.000476
 **** Fit       0.000973
 **** Fit      -0.007201
 **** Fit      -0.007430
 **** Fit      -0.007494
 **** Fit      -0.007450
 **** Fit      -0.007434
 **** Fit      -0.007589
 **** Fit      -0.007940
 **** Fit      -0.008302
 **** Fit      -0.008378
 **** Fit      -0.007957
 **** Fit      -0.007036
 **** Fit      -0.005775
 **** Fit      -0.004376
 **** Fit      -0.003004
 **** Fit      -0.001765
 **** Fit      -0.000717
 **** Fit       0.000119
 **** Fit       0.000745
 **** Fit       0.001181
 **** Fit      -0.010819
 **** Fit      -0.011883
 **** Fit      -0.012885
 **** Fit      -0.013815
 **** Fit      -0.014694
 **** Fit      -0.015512
 **** Fit      -0.016136
 **** Fit      -0.016280
 **** Fit      -0.015663
 **** Fit      -0.014219
 **** Fit      -0.012144
 **** Fit      -0.009768
 **** Fit      -0.007393
 **** Fit      -0.005219
 **** Fit      -0.003350
 **** Fit      -0.001827
 **** Fit      -0.000651
 **** Fit       0.000206
 **** Fit       0.000789
 **** Fit       0.001153
 **** Fit      -0.014275
 **** Fit      -0.016178
 **** Fit      -0.018132
 **** Fit      -0.020057
 **** Fit      -0.021841
 **** Fit      -0.023299
 **** Fit      -0.024129
 **** Fit      -0.023963
 **** Fit      -0.022575
 **** Fit      -0.020071
 **** Fit      -0.016854
 **** Fit      -0.013407
 **** Fit      -0.010114
 **** Fit      -0.007194
 **** Fit      -0.004747
 **** Fit      -0.002793
 **** Fit      -0.001314
 **** Fit      -0.000257
 **** Fit       0.000449
 **** Fit       0.000883
 **** Fit      -0.017195
 **** Fit      -0.019793
 **** Fit      -0.022532
 **** Fit      -0.025262
 **** Fit      -0.027750
 **** Fit      -0.029656
 **** Fit      -0.030549
 **** Fit      -0.030029
 **** Fit      -0.027955
 **** Fit      -0.024590
 **** Fit      -0.020486
 **** Fit      -0.016228
 **** Fit      -0.012243
 **** Fit      -0.008761
 **** Fit      -0.005873
 **** Fit      -0.003590
 **** Fit      -0.001877
 **** Fit      -0.000667
 **** Fit       0.000134
 **** Fit       0.000621
 **** Fit      -0.022322
 **** Fit      -0.025532
 **** Fit      -0.028715
 **** Fit      -0.031549
 **** Fit      -0.033602
 **** Fit      -0.034391
 **** Fit      -0.033545
 **** Fit      -0.031017
 **** Fit      -0.027166
 **** Fit      -0.022606
 **** Fit      -0.017943
 **** Fit      -0.013607
 **** Fit      -0.009829
 **** Fit      -0.006698
 **** Fit      -0.004224
 **** Fit      -0.002370
 **** Fit      -0.001060
 **** Fit      -0.000193
 **** Fit       0.000337
 **** Fit      -0.023582
 **** Fit      -0.026901
 **** Fit      -0.030135
 **** Fit      -0.032928
 **** Fit      -0.034831
 **** Fit      -0.035392
 **** Fit      -0.034315
 **** Fit      -0.031630
 **** Fit      -0.027718
 **** Fit      -0.023160
 **** Fit      -0.018515
 **** Fit      -0.014186
 **** Fit      -0.010392
 **** Fit      -0.007230
 **** Fit      -0.004717
 **** Fit      -0.002818
 **** Fit      -0.001463
 **** Fit      -0.000555
 **** Fit       0.000008
 **** Fit      -0.023637
 **** Fit      -0.026756
 **** Fit      -0.029716
 **** Fit      -0.032176
 **** Fit      -0.033736
 **** Fit      -0.034027
 **** Fit      -0.032845
 **** Fit      -0.030263
 **** Fit      -0.026625
 **** Fit      -0.022423
 **** Fit      -0.018129
 **** Fit      -0.014092
 **** Fit      -0.010517
 **** Fit      -0.007505
 **** Fit      -0.005082
 **** Fit      -0.003226
 **** Fit      -0.001879
 **** Fit      -0.000956
 **** Fit      -0.000369
 **** Fit      -0.025456
 **** Fit      -0.027959
 **** Fit      -0.029947
 **** Fit      -0.031102
 **** Fit      -0.031154
 **** Fit      -0.029979
 **** Fit      -0.027663
 **** Fit      -0.024488
 **** Fit      -0.020836
 **** Fit      -0.013508
 **** Fit      -0.010304
 **** Fit      -0.007565
 **** Fit      -0.005328
 **** Fit      -0.003583
 **** Fit      -0.002288
 **** Fit      -0.001378
 **** Fit      -0.025434
 **** Fit      -0.026942
 **** Fit      -0.027726
 **** Fit      -0.027604
 **** Fit      -0.026512
 **** Fit      -0.024530
 **** Fit      -0.021873
 **** Fit      -0.007458
 **** Fit      -0.005461
 **** Fit      -0.003873
 **** Fit       0.005940
 **** Fit       0.006723
 **** Fit       0.007262
 **** Fit       0.007494
 **** Fit       0.007412
 **** Fit       0.007065
 **** Fit       0.003870
 **** Fit       0.004819
 **** Fit       0.005627
 **** Fit       0.006176
 **** Fit       0.006391
 **** Fit       0.006267
 **** Fit       0.005877
 **** Fit       0.005333
 **** Fit       0.002115
 **** Fit       0.002998
 **** Fit       0.003756
 **** Fit       0.004262
 **** Fit       0.004435
 **** Fit       0.004282
 **** Fit       0.003895
 **** Fit       0.003408
 **** Fit       0.002941
 **** Fit      -0.001001
 **** Fit      -0.000341
 **** Fit       0.000348
 **** Fit       0.000945
 **** Fit       0.001327
 **** Fit       0.001427
 **** Fit       0.001271
 **** Fit       0.000971
 **** Fit       0.000664
 **** Fit       0.000457
 **** Fit      -0.003784
 **** Fit      -0.003493
 **** Fit      -0.003151
 **** Fit      -0.002854
 **** Fit      -0.002691
 **** Fit      -0.002696
 **** Fit      -0.002813
 **** Fit      -0.002918
 **** Fit      -0.002889
 **** Fit      -0.002664
 **** Fit      -0.002252
 **** Fit      -0.006983
 **** Fit      -0.007196
 **** Fit      -0.007346
 **** Fit      -0.007478
 **** Fit      -0.007623
 **** Fit      -0.007756
 **** Fit      -0.007781
 **** Fit      -0.007574
 **** Fit      -0.007058
 **** Fit      -0.006243
 **** Fit      -0.005215
 **** Fit      -0.010354
 **** Fit      -0.011154
 **** Fit      -0.011885
 **** Fit      -0.012524
 **** Fit      -0.013022
 **** Fit      -0.013280
 **** Fit      -0.013161
 **** Fit      -0.012555
 **** Fit      -0.011450
 **** Fit      -0.009953
 **** Fit      -0.002096
 **** Fit      -0.013575
 **** Fit      -0.014957
 **** Fit      -0.016263
 **** Fit      -0.017397
 **** Fit      -0.018224
 **** Fit      -0.018572
 **** Fit      -0.018270
 **** Fit      -0.017236
 **** Fit      -0.015536
 **** Fit      -0.013372
 **** Fit      -0.006485
 **** Fit      -0.004599
 **** Fit      -0.003035
 **** Fit      -0.001796
 **** Fit      -0.018173
 **** Fit      -0.019943
 **** Fit      -0.021461
 **** Fit      -0.022521
 **** Fit      -0.022892
 **** Fit      -0.022395
 **** Fit      -0.020982
 **** Fit      -0.018790
 **** Fit      -0.016096
 **** Fit      -0.007849
 **** Fit      -0.005646
 **** Fit      -0.003833
 **** Fit      -0.002407
 **** Fit      -0.001337
 **** Fit      -0.020464
 **** Fit      -0.022508
 **** Fit      -0.024229
 **** Fit      -0.025375
 **** Fit      -0.025697
 **** Fit      -0.025024
 **** Fit      -0.023349
 **** Fit      -0.020854
 **** Fit      -0.017851
 **** Fit      -0.008831
 **** Fit      -0.006440
 **** Fit      -0.004474
 **** Fit      -0.002929
 **** Fit      -0.001770
 **** Fit      -0.021670
 **** Fit      -0.023773
 **** Fit      -0.025498
 **** Fit      -0.026588
 **** Fit      -0.026803
 **** Fit      -0.026004
 **** Fit      -0.024215
 **** Fit      -0.021634
 **** Fit      -0.018571
 **** Fit      -0.009412
 **** Fit      -0.006972
 **** Fit      -0.004958
 **** Fit      -0.003368
 **** Fit      -0.002166
 **** Fit      -0.023810
 **** Fit      -0.025380
 **** Fit      -0.026309
 **** Fit      -0.026395
 **** Fit      -0.025534
 **** Fit      -0.023770
 **** Fit      -0.021291
 **** Fit      -0.005296
 **** Fit      -0.024199
 **** Fit      -0.024921
 **** Fit      -0.024885
 **** Fit      -0.024022
 **** Fit      -0.022384
 **** Fit       0.001685
 **** Fit       0.002003
 **** Fit       0.002150
 **** Fit       0.002135
 **** Fit       0.002002
 **** Fit      -0.000981
 **** Fit      -0.000657
 **** Fit      -0.000430
 **** Fit      -0.000324
 **** Fit      -0.000323
 **** Fit      -0.000373
 **** Fit      -0.003727
 **** Fit      -0.003604
 **** Fit      -0.003516
 **** Fit      -0.003467
 **** Fit      -0.003424
 **** Fit      -0.003331
 **** Fit      -0.003138
 **** Fit      -0.006874
 **** Fit      -0.007015
 **** Fit      -0.007107
 **** Fit      -0.007121
 **** Fit      -0.007008
 **** Fit      -0.006715
 **** Fit      -0.006214
 **** Fit      -0.010182
 **** Fit      -0.010620
 **** Fit      -0.010907
 **** Fit      -0.010980
 **** Fit      -0.010773
 **** Fit      -0.010239
 **** Fit      -0.009384
 **** Fit      -0.014057
 **** Fit      -0.014522
 **** Fit      -0.014636
 **** Fit      -0.014316
 **** Fit      -0.013531
 **** Fit      -0.016954
 **** Fit      -0.017547
 **** Fit      -0.017669
 **** Fit      -0.017234
 **** Fit      -0.016228
 **** Fit      -0.019670
 **** Fit      -0.019767
 **** Fit      -0.019231
 -----------------------------------------------------------------
 Leave Link  602 at Wed May 17 11:47:37 2017, MaxMem=    33554432 cpu:        49.1
 (Enter /home/michal/g09/l9999.exe)

 Test job not archived.
 1\1\GINC-LINUX\SP\RHF\6-31G(d)\C27H46O2\MICHAL\17-May-2017\0\\#P HF/6-
 31G* SCF(Conver=6) NoSymm Test Pop=chelpg IOp(6/33=2) GFInput GFPrint\
 \MEP - Input generated by R.E.D.-III.x MOLECULE\\0,1\O,0,6.68032482,0.
 90019154,0.\H,0,7.03521876,0.,0.\O,0,9.84196553,0.37606172,-6.40779101
 \H,0,9.97232033,-0.58071254,-6.46904321\C,0,2.42523549,0.5157658,-1.60
 426066\C,0,3.78180009,1.14765396,-1.17619765\H,0,3.75133244,2.17946018
 ,-1.56787615\C,0,5.03263622,0.51028536,-1.80727894\H,0,5.11973237,-0.5
 354713,-1.4775932\C,0,4.91444709,0.55474054,-3.35652128\H,0,4.94983447
 ,1.62316257,-3.6262715\C,0,1.43333241,1.40289526,-0.77397752\H,0,1.391
 18286,2.37585521,-1.28944283\C,0,2.33496261,0.65350334,-3.13693252\H,0
 ,2.28228093,1.72211694,-3.39099197\H,0,1.42360854,0.19501128,-3.533537
 22\C,0,6.13372904,-0.10416116,-4.09110674\C,0,3.67568217,1.26151735,0.
 35252352\H,0,4.35481035,2.01141973,0.76450975\H,0,3.94546558,0.3133560
 6,0.8296247\C,0,3.54834821,0.01900839,-3.84296127\H,0,3.50589053,-1.06
 684645,-3.70488361\H,0,3.44983533,0.18963336,-4.92074982\C,0,2.1813998
 ,1.60845738,0.58836472\H,0,1.74711193,0.96707271,1.36449197\H,0,2.0703
 1949,2.63727916,0.94405297\C,0,6.31651659,1.23277215,-1.35473355\H,0,6
 .11809925,2.31287464,-1.30493829\C,0,-0.032022,0.93642559,-0.57619637\
 H,0,0.,0.,0.\C,0,2.309436,-0.96620964,-1.17841822\H,0,3.12512165,-1.57
 723695,-1.57375635\H,0,2.31955265,-1.08055125,-0.09051496\H,0,1.374184
 53,-1.40315645,-1.54322198\C,0,7.44437728,0.37087787,-3.45442009\C,0,6
 .12343242,0.35326498,-5.58350976\H,0,5.96597374,1.44040727,-5.6082449\
 H,0,5.26676749,-0.09610899,-6.09675437\C,0,7.48783342,0.98708241,-2.26
 408629\H,0,8.44437557,1.33363617,-1.87293976\C,0,6.07778472,-1.6539404
 6,-4.02344363\H,0,5.2494726,-2.04953428,-4.61923006\H,0,6.9956258,-2.1
 064631,-4.4077796\H,0,5.95427181,-2.00163655,-2.99319155\C,0,8.7221935
 1,0.12693791,-4.23512757\H,0,9.57069613,0.59929098,-3.73050423\H,0,8.9
 3645149,-0.95358721,-4.26982295\C,0,7.40461746,0.03423335,-6.36944529\
 H,0,7.53766996,-1.0537933,-6.46371367\H,0,7.32642578,0.42959933,-7.388
 57272\C,0,-0.83492921,1.97573647,0.2670917\H,0,-0.14946547,2.71017931,
 0.70219139\H,0,-1.48899399,2.55162684,-0.40150385\C,0,8.63464713,0.628
 62397,-5.6841349\H,0,8.54965089,1.72214133,-5.67778051\C,0,-0.76930859
 ,0.64898002,-1.89708495\H,0,-0.7284894,1.51886819,-2.56448561\H,0,-1.8
 2510606,0.42837737,-1.7124808\H,0,-0.34946826,-0.20474364,-2.43498865\
 C,0,-1.65980464,1.38579377,1.42963935\H,0,-0.97586684,0.82585369,2.082
 32895\H,0,-2.03924829,2.21329042,2.04286998\C,0,-2.82833325,0.45551796
 ,1.05357875\H,0,-3.21758514,0.00084299,1.97666779\H,0,-2.44602782,-0.3
 8027204,0.45191867\C,0,-4.01463257,1.10218277,0.30631486\H,0,-3.629617
 47,1.59249279,-0.59918206\C,0,-4.72646461,2.17265847,1.14949976\H,0,-5
 .11834054,1.73880082,2.07875034\H,0,-5.57274056,2.60241243,0.60155428\
 H,0,-4.05944306,2.99674937,1.42181555\C,0,-5.01223775,0.02187014,-0.14
 196629\H,0,-5.4313358,-0.50619634,0.72426614\H,0,-5.84805943,0.4580901
 8,-0.70083743\H,0,-4.53196382,-0.72478944,-0.78495909\\Version=EM64L-G
 09RevD.01\HF=-1198.9222807\RMSD=4.804e-07\Dipole=-0.4166248,-0.8701655
 ,-0.3726989\Quadrupole=-10.2296648,7.5098723,2.7197925,-15.8066634,2.7
 770332,5.3128385\PG=C01 [X(C27H46O2)]\\@


 LIFE IS SO UNCERTAIN - EAT DESSERT FIRST.
 Job cpu time:       0 days  0 hours 11 minutes 42.1 seconds.
 File lengths (MBytes):  RWF=    150 Int=      0 D2E=      0 Chk=     11 Scr=      1
 Normal termination of Gaussian 09 at Wed May 17 11:47:37 2017.
