 Entering Gaussian System, Link 0=/home/michal/g09/g09
 Input=JOB2-gau_m1-25-1.com
 Output=JOB2-gau_m1-25-1.log
 Initial command:
 /home/michal/g09/l1.exe "/home/michal/gauss_scratch/Gau-9531.inp" -scrdir="/home/michal/gauss_scratch/"
 Entering Link 1 = /home/michal/g09/l1.exe PID=      9532.
  
 Copyright (c) 1988,1990,1992,1993,1995,1998,2003,2009,2013,
            Gaussian, Inc.  All Rights Reserved.
  
 This is part of the Gaussian(R) 09 program.  It is based on
 the Gaussian(R) 03 system (copyright 2003, Gaussian, Inc.),
 the Gaussian(R) 98 system (copyright 1998, Gaussian, Inc.),
 the Gaussian(R) 94 system (copyright 1995, Gaussian, Inc.),
 the Gaussian 92(TM) system (copyright 1992, Gaussian, Inc.),
 the Gaussian 90(TM) system (copyright 1990, Gaussian, Inc.),
 the Gaussian 88(TM) system (copyright 1988, Gaussian, Inc.),
 the Gaussian 86(TM) system (copyright 1986, Carnegie Mellon
 University), and the Gaussian 82(TM) system (copyright 1983,
 Carnegie Mellon University). Gaussian is a federally registered
 trademark of Gaussian, Inc.
  
 This software contains proprietary and confidential information,
 including trade secrets, belonging to Gaussian, Inc.
  
 This software is provided under written license and may be
 used, copied, transmitted, or stored only in accord with that
 written license.
  
 The following legend is applicable only to US Government
 contracts under FAR:
  
                    RESTRICTED RIGHTS LEGEND
  
 Use, reproduction and disclosure by the US Government is
 subject to restrictions as set forth in subparagraphs (a)
 and (c) of the Commercial Computer Software - Restricted
 Rights clause in FAR 52.227-19.
  
 Gaussian, Inc.
 340 Quinnipiac St., Bldg. 40, Wallingford CT 06492
  
  
 ---------------------------------------------------------------
 Warning -- This program may not be used in any manner that
 competes with the business of Gaussian, Inc. or will provide
 assistance to any competitor of Gaussian, Inc.  The licensee
 of this program is prohibited from giving any competitor of
 Gaussian, Inc. access to this program.  By using this program,
 the user acknowledges that Gaussian, Inc. is engaged in the
 business of creating and licensing software in the field of
 computational chemistry and represents and warrants to the
 licensee that it is not a competitor of Gaussian, Inc. and that
 it will not use this program in any manner prohibited above.
 ---------------------------------------------------------------
  

 Cite this work as:
 Gaussian 09, Revision D.01,
 M. J. Frisch, G. W. Trucks, H. B. Schlegel, G. E. Scuseria, 
 M. A. Robb, J. R. Cheeseman, G. Scalmani, V. Barone, B. Mennucci, 
 G. A. Petersson, H. Nakatsuji, M. Caricato, X. Li, H. P. Hratchian, 
 A. F. Izmaylov, J. Bloino, G. Zheng, J. L. Sonnenberg, M. Hada, 
 M. Ehara, K. Toyota, R. Fukuda, J. Hasegawa, M. Ishida, T. Nakajima, 
 Y. Honda, O. Kitao, H. Nakai, T. Vreven, J. A. Montgomery, Jr., 
 J. E. Peralta, F. Ogliaro, M. Bearpark, J. J. Heyd, E. Brothers, 
 K. N. Kudin, V. N. Staroverov, T. Keith, R. Kobayashi, J. Normand, 
 K. Raghavachari, A. Rendell, J. C. Burant, S. S. Iyengar, J. Tomasi, 
 M. Cossi, N. Rega, J. M. Millam, M. Klene, J. E. Knox, J. B. Cross, 
 V. Bakken, C. Adamo, J. Jaramillo, R. Gomperts, R. E. Stratmann, 
 O. Yazyev, A. J. Austin, R. Cammi, C. Pomelli, J. W. Ochterski, 
 R. L. Martin, K. Morokuma, V. G. Zakrzewski, G. A. Voth, 
 P. Salvador, J. J. Dannenberg, S. Dapprich, A. D. Daniels, 
 O. Farkas, J. B. Foresman, J. V. Ortiz, J. Cioslowski, 
 and D. J. Fox, Gaussian, Inc., Wallingford CT, 2013.
 
 ******************************************
 Gaussian 09:  EM64L-G09RevD.01 24-Apr-2013
                17-May-2017 
 ******************************************
 %Mem=256MB
 %NProc=12
 Will use up to   12 processors via shared memory.
 ----------------------------------------------------------------------
 #P HF/6-31G* SCF(Conver=6) NoSymm Test Pop=chelpg IOp(6/33=2) GFInput 
 GFPrint
 ----------------------------------------------------------------------
 1/38=1/1;
 2/12=2,15=1,17=6,18=5,40=1/2;
 3/5=1,6=6,7=1,11=9,16=1,24=110,25=1,30=1/1,2,3;
 4//1;
 5/5=2,6=6,38=5/2;
 6/7=2,8=2,9=2,10=2,15=8,20=3,28=1,33=2/1,2;
 99/5=1,9=1/99;
 Leave Link    1 at Wed May 17 13:05:50 2017, MaxMem=    33554432 cpu:         0.9
 (Enter /home/michal/g09/l101.exe)
 ----------------------------------------------
 MEP - Input generated by R.E.D.-III.x MOLECULE
 ----------------------------------------------
 Symbolic Z-matrix:
 Charge =  0 Multiplicity = 1
 O                     0.        0.        0. 
 H                     0.96763   0.        0. 
 O                     1.64343  -2.74315   6.41151 
 H                     2.58214  -2.51612   6.47007 
 C                    -1.19474   4.10536   1.59797 
 C                    -1.28797   2.61055   1.17332 
 H                    -2.25918   2.26372   1.5675 
 C                    -0.2378    1.67915   1.805 
 H                     0.76761   1.9791    1.4746 
 C                    -0.32185   1.77481   3.35394 
 H                    -1.30373   1.35264   3.62451 
 C                    -2.38328   4.70256   0.76554 
 H                    -3.3035    4.38281   1.28033 
 C                    -1.35535   4.13999   3.13097 
 H                    -2.36942   3.7994    3.38575 
 H                    -1.26069   5.15555   3.5277 
 C                     0.73658   0.88075   4.08925 
 C                    -1.43567   2.66256  -0.35505 
 H                    -1.89147   1.75705  -0.762 
 H                    -0.45519   2.75049  -0.83498 
 C                    -0.32134   3.24286   3.83765 
 H                     0.67398   3.67848   3.69789 
 H                    -0.51529   3.27438   4.91554 
 C                    -2.29766   3.93062  -0.59514 
 H                    -1.84896   4.56681  -1.3677 
 H                    -3.29618   3.66683  -0.95688 
 C                    -0.44273   0.21965   1.35426 
 H                    -1.52086   0.01081   1.30438 
 C                    -2.49295   6.23787   0.57315 
 H                    -1.6129    6.56811   0. 
 C                     0.14115   4.75569   1.1706 
 H                     1.00916   4.22613   1.572 
 H                     0.25327   4.78018   0.08268 
 H                     0.20083   5.78912   1.52759 
 C                     0.77085  -0.51397   3.45496 
 C                     0.3083    0.72634   5.5823 
 H                    -0.76139   0.47666   5.60848 
 H                     0.41488   1.68888   6.09363 
 C                     0.21246  -0.7805    2.26514 
 H                     0.23776  -1.79814   1.87547 
 C                     2.15942   1.49723   4.01926 
 H                     2.22626   2.4143    4.61263 
 H                     2.91525   0.80822   4.40506 
 H                     2.43775   1.73619   2.98827 
 C                     1.46405  -1.61395   4.23689 
 H                     1.33221  -2.57708   3.73416 
 H                     2.5485   -1.42012   4.26949 
 C                     1.07325  -0.34897   6.36941 
 H                     2.13504  -0.07613   6.46184 
 H                     0.67785  -0.4183    7.38916 
 C                    -3.74319   6.58072  -0.27546 
 H                    -3.76143   5.94217  -1.16634 
 H                    -4.63892   6.31733   0.30567 
 C                     0.9671   -1.71237   5.68683 
 H                    -0.08218  -2.03182   5.68273 
 C                    -2.51696   7.02051   1.898 
 H                    -3.3344    6.67424   2.54322 
 H                    -2.66373   8.09038   1.72277 
 H                    -1.5846    6.91578   2.45702 
 C                    -3.83263   8.0421   -0.7474 
 H                    -3.9709    8.7158    0.10603 
 H                    -2.8704    8.32354  -1.1985 
 C                    -4.9377    8.30043  -1.78841 
 H                    -4.74032   7.67393  -2.67031 
 H                    -4.85924   9.3423   -2.13309 
 C                    -6.39145   8.05309  -1.33195 
 H                    -6.47598   7.00681  -1.00489 
 C                    -7.35755   8.2457   -2.5119 
 H                    -7.32187   9.27852  -2.88197 
 H                    -8.3921    8.03391  -2.21845 
 H                    -7.1039    7.58407  -3.34814 
 C                    -6.79682   8.95029  -0.15172 
 H                    -6.70566   10.01107  -0.41969 
 H                    -7.83853   8.76972   0.1371 
 H                    -6.17558   8.77569   0.73274 
 
 NAtoms=     75 NQM=       75 NQMF=       0 NMMI=      0 NMMIF=      0
                NMic=       0 NMicF=      0.
                    Isotopes and Nuclear Properties:
 (Nuclear quadrupole moments (NQMom) in fm**2, nuclear magnetic moments (NMagM)
  in nuclear magnetons)

  Atom         1           2           3           4           5           6           7           8           9          10
 IAtWgt=          16           1          16           1          12          12           1          12           1          12
 AtmWgt=  15.9949146   1.0078250  15.9949146   1.0078250  12.0000000  12.0000000   1.0078250  12.0000000   1.0078250  12.0000000
 NucSpn=           0           1           0           1           0           0           1           0           1           0
 AtZEff=   0.0000000   0.0000000   0.0000000   0.0000000   0.0000000   0.0000000   0.0000000   0.0000000   0.0000000   0.0000000
 NQMom=    0.0000000   0.0000000   0.0000000   0.0000000   0.0000000   0.0000000   0.0000000   0.0000000   0.0000000   0.0000000
 NMagM=    0.0000000   2.7928460   0.0000000   2.7928460   0.0000000   0.0000000   2.7928460   0.0000000   2.7928460   0.0000000
 AtZNuc=   8.0000000   1.0000000   8.0000000   1.0000000   6.0000000   6.0000000   1.0000000   6.0000000   1.0000000   6.0000000

  Atom        11          12          13          14          15          16          17          18          19          20
 IAtWgt=           1          12           1          12           1           1          12          12           1           1
 AtmWgt=   1.0078250  12.0000000   1.0078250  12.0000000   1.0078250   1.0078250  12.0000000  12.0000000   1.0078250   1.0078250
 NucSpn=           1           0           1           0           1           1           0           0           1           1
 AtZEff=   0.0000000   0.0000000   0.0000000   0.0000000   0.0000000   0.0000000   0.0000000   0.0000000   0.0000000   0.0000000
 NQMom=    0.0000000   0.0000000   0.0000000   0.0000000   0.0000000   0.0000000   0.0000000   0.0000000   0.0000000   0.0000000
 NMagM=    2.7928460   0.0000000   2.7928460   0.0000000   2.7928460   2.7928460   0.0000000   0.0000000   2.7928460   2.7928460
 AtZNuc=   1.0000000   6.0000000   1.0000000   6.0000000   1.0000000   1.0000000   6.0000000   6.0000000   1.0000000   1.0000000

  Atom        21          22          23          24          25          26          27          28          29          30
 IAtWgt=          12           1           1          12           1           1          12           1          12           1
 AtmWgt=  12.0000000   1.0078250   1.0078250  12.0000000   1.0078250   1.0078250  12.0000000   1.0078250  12.0000000   1.0078250
 NucSpn=           0           1           1           0           1           1           0           1           0           1
 AtZEff=   0.0000000   0.0000000   0.0000000   0.0000000   0.0000000   0.0000000   0.0000000   0.0000000   0.0000000   0.0000000
 NQMom=    0.0000000   0.0000000   0.0000000   0.0000000   0.0000000   0.0000000   0.0000000   0.0000000   0.0000000   0.0000000
 NMagM=    0.0000000   2.7928460   2.7928460   0.0000000   2.7928460   2.7928460   0.0000000   2.7928460   0.0000000   2.7928460
 AtZNuc=   6.0000000   1.0000000   1.0000000   6.0000000   1.0000000   1.0000000   6.0000000   1.0000000   6.0000000   1.0000000

  Atom        31          32          33          34          35          36          37          38          39          40
 IAtWgt=          12           1           1           1          12          12           1           1          12           1
 AtmWgt=  12.0000000   1.0078250   1.0078250   1.0078250  12.0000000  12.0000000   1.0078250   1.0078250  12.0000000   1.0078250
 NucSpn=           0           1           1           1           0           0           1           1           0           1
 AtZEff=   0.0000000   0.0000000   0.0000000   0.0000000   0.0000000   0.0000000   0.0000000   0.0000000   0.0000000   0.0000000
 NQMom=    0.0000000   0.0000000   0.0000000   0.0000000   0.0000000   0.0000000   0.0000000   0.0000000   0.0000000   0.0000000
 NMagM=    0.0000000   2.7928460   2.7928460   2.7928460   0.0000000   0.0000000   2.7928460   2.7928460   0.0000000   2.7928460
 AtZNuc=   6.0000000   1.0000000   1.0000000   1.0000000   6.0000000   6.0000000   1.0000000   1.0000000   6.0000000   1.0000000

  Atom        41          42          43          44          45          46          47          48          49          50
 IAtWgt=          12           1           1           1          12           1           1          12           1           1
 AtmWgt=  12.0000000   1.0078250   1.0078250   1.0078250  12.0000000   1.0078250   1.0078250  12.0000000   1.0078250   1.0078250
 NucSpn=           0           1           1           1           0           1           1           0           1           1
 AtZEff=   0.0000000   0.0000000   0.0000000   0.0000000   0.0000000   0.0000000   0.0000000   0.0000000   0.0000000   0.0000000
 NQMom=    0.0000000   0.0000000   0.0000000   0.0000000   0.0000000   0.0000000   0.0000000   0.0000000   0.0000000   0.0000000
 NMagM=    0.0000000   2.7928460   2.7928460   2.7928460   0.0000000   2.7928460   2.7928460   0.0000000   2.7928460   2.7928460
 AtZNuc=   6.0000000   1.0000000   1.0000000   1.0000000   6.0000000   1.0000000   1.0000000   6.0000000   1.0000000   1.0000000

  Atom        51          52          53          54          55          56          57          58          59          60
 IAtWgt=          12           1           1          12           1          12           1           1           1          12
 AtmWgt=  12.0000000   1.0078250   1.0078250  12.0000000   1.0078250  12.0000000   1.0078250   1.0078250   1.0078250  12.0000000
 NucSpn=           0           1           1           0           1           0           1           1           1           0
 AtZEff=   0.0000000   0.0000000   0.0000000   0.0000000   0.0000000   0.0000000   0.0000000   0.0000000   0.0000000   0.0000000
 NQMom=    0.0000000   0.0000000   0.0000000   0.0000000   0.0000000   0.0000000   0.0000000   0.0000000   0.0000000   0.0000000
 NMagM=    0.0000000   2.7928460   2.7928460   0.0000000   2.7928460   0.0000000   2.7928460   2.7928460   2.7928460   0.0000000
 AtZNuc=   6.0000000   1.0000000   1.0000000   6.0000000   1.0000000   6.0000000   1.0000000   1.0000000   1.0000000   6.0000000

  Atom        61          62          63          64          65          66          67          68          69          70
 IAtWgt=           1           1          12           1           1          12           1          12           1           1
 AtmWgt=   1.0078250   1.0078250  12.0000000   1.0078250   1.0078250  12.0000000   1.0078250  12.0000000   1.0078250   1.0078250
 NucSpn=           1           1           0           1           1           0           1           0           1           1
 AtZEff=   0.0000000   0.0000000   0.0000000   0.0000000   0.0000000   0.0000000   0.0000000   0.0000000   0.0000000   0.0000000
 NQMom=    0.0000000   0.0000000   0.0000000   0.0000000   0.0000000   0.0000000   0.0000000   0.0000000   0.0000000   0.0000000
 NMagM=    2.7928460   2.7928460   0.0000000   2.7928460   2.7928460   0.0000000   2.7928460   0.0000000   2.7928460   2.7928460
 AtZNuc=   1.0000000   1.0000000   6.0000000   1.0000000   1.0000000   6.0000000   1.0000000   6.0000000   1.0000000   1.0000000

  Atom        71          72          73          74          75
 IAtWgt=           1          12           1           1           1
 AtmWgt=   1.0078250  12.0000000   1.0078250   1.0078250   1.0078250
 NucSpn=           1           0           1           1           1
 AtZEff=   0.0000000   0.0000000   0.0000000   0.0000000   0.0000000
 NQMom=    0.0000000   0.0000000   0.0000000   0.0000000   0.0000000
 NMagM=    2.7928460   0.0000000   2.7928460   2.7928460   2.7928460
 AtZNuc=   1.0000000   6.0000000   1.0000000   1.0000000   1.0000000
 Leave Link  101 at Wed May 17 13:05:50 2017, MaxMem=    33554432 cpu:         1.0
 (Enter /home/michal/g09/l202.exe)
 Symmetry turned off by external request.
 Stoichiometry    C27H46O2
 Framework group  C1[X(C27H46O2)]
 Deg. of freedom   219
 Full point group                 C1      NOp   1
                          Input orientation:                          
 ---------------------------------------------------------------------
 Center     Atomic      Atomic             Coordinates (Angstroms)
 Number     Number       Type             X           Y           Z
 ---------------------------------------------------------------------
      1          8           0        0.000000    0.000000    0.000000
      2          1           0        0.967632    0.000000    0.000000
      3          8           0        1.643425   -2.743155    6.411508
      4          1           0        2.582142   -2.516122    6.470073
      5          6           0       -1.194735    4.105365    1.597971
      6          6           0       -1.287974    2.610551    1.173319
      7          1           0       -2.259184    2.263718    1.567500
      8          6           0       -0.237801    1.679153    1.804999
      9          1           0        0.767610    1.979097    1.474597
     10          6           0       -0.321853    1.774814    3.353937
     11          1           0       -1.303735    1.352638    3.624505
     12          6           0       -2.383284    4.702556    0.765545
     13          1           0       -3.303500    4.382811    1.280325
     14          6           0       -1.355346    4.139987    3.130971
     15          1           0       -2.369416    3.799402    3.385755
     16          1           0       -1.260689    5.155550    3.527700
     17          6           0        0.736575    0.880753    4.089245
     18          6           0       -1.435668    2.662562   -0.355049
     19          1           0       -1.891467    1.757046   -0.762001
     20          1           0       -0.455191    2.750494   -0.834980
     21          6           0       -0.321336    3.242858    3.837649
     22          1           0        0.673979    3.678482    3.697889
     23          1           0       -0.515290    3.274376    4.915537
     24          6           0       -2.297663    3.930624   -0.595140
     25          1           0       -1.848960    4.566814   -1.367701
     26          1           0       -3.296179    3.666831   -0.956877
     27          6           0       -0.442732    0.219646    1.354263
     28          1           0       -1.520863    0.010815    1.304379
     29          6           0       -2.492949    6.237871    0.573147
     30          1           0       -1.612900    6.568107    0.000000
     31          6           0        0.141148    4.755688    1.170603
     32          1           0        1.009163    4.226127    1.571996
     33          1           0        0.253267    4.780183    0.082676
     34          1           0        0.200828    5.789116    1.527590
     35          6           0        0.770853   -0.513969    3.454964
     36          6           0        0.308300    0.726338    5.582302
     37          1           0       -0.761385    0.476659    5.608482
     38          1           0        0.414881    1.688876    6.093626
     39          6           0        0.212458   -0.780499    2.265145
     40          1           0        0.237757   -1.798137    1.875468
     41          6           0        2.159417    1.497232    4.019261
     42          1           0        2.226257    2.414299    4.612628
     43          1           0        2.915255    0.808219    4.405062
     44          1           0        2.437755    1.736185    2.988265
     45          6           0        1.464050   -1.613955    4.236885
     46          1           0        1.332207   -2.577081    3.734164
     47          1           0        2.548498   -1.420116    4.269490
     48          6           0        1.073254   -0.348968    6.369407
     49          1           0        2.135041   -0.076126    6.461835
     50          1           0        0.677853   -0.418299    7.389156
     51          6           0       -3.743189    6.580718   -0.275460
     52          1           0       -3.761430    5.942170   -1.166336
     53          1           0       -4.638919    6.317325    0.305674
     54          6           0        0.967104   -1.712367    5.686832
     55          1           0       -0.082179   -2.031824    5.682733
     56          6           0       -2.516964    7.020505    1.897998
     57          1           0       -3.334397    6.674240    2.543221
     58          1           0       -2.663725    8.090384    1.722770
     59          1           0       -1.584595    6.915779    2.457019
     60          6           0       -3.832630    8.042105   -0.747395
     61          1           0       -3.970899    8.715801    0.106033
     62          1           0       -2.870396    8.323536   -1.198496
     63          6           0       -4.937698    8.300432   -1.788413
     64          1           0       -4.740321    7.673928   -2.670314
     65          1           0       -4.859238    9.342305   -2.133091
     66          6           0       -6.391451    8.053085   -1.331953
     67          1           0       -6.475979    7.006814   -1.004888
     68          6           0       -7.357552    8.245705   -2.511898
     69          1           0       -7.321868    9.278518   -2.881969
     70          1           0       -8.392101    8.033910   -2.218452
     71          1           0       -7.103898    7.584068   -3.348139
     72          6           0       -6.796825    8.950292   -0.151719
     73          1           0       -6.705664   10.011066   -0.419686
     74          1           0       -7.838529    8.769716    0.137098
     75          1           0       -6.175580    8.775694    0.732735
 ---------------------------------------------------------------------
 Rotational constants (GHZ):      0.4394794      0.0545516      0.0521576
 Leave Link  202 at Wed May 17 13:05:50 2017, MaxMem=    33554432 cpu:         0.0
 (Enter /home/michal/g09/l301.exe)
 Standard basis: 6-31G(d) (6D, 7F)
 Ernie: Thresh=  0.10000D-02 Tol=  0.10000D-05 Strict=F.
 AO basis set in the form of general basis input (Overlap normalization):
      1 0
 S   6 1.00       0.000000000000
      0.5484671660D+04  0.1831074430D-02
      0.8252349460D+03  0.1395017220D-01
      0.1880469580D+03  0.6844507810D-01
      0.5296450000D+02  0.2327143360D+00
      0.1689757040D+02  0.4701928980D+00
      0.5799635340D+01  0.3585208530D+00
 SP   3 1.00       0.000000000000
      0.1553961625D+02 -0.1107775495D+00  0.7087426823D-01
      0.3599933586D+01 -0.1480262627D+00  0.3397528391D+00
      0.1013761750D+01  0.1130767015D+01  0.7271585773D+00
 SP   1 1.00       0.000000000000
      0.2700058226D+00  0.1000000000D+01  0.1000000000D+01
 D   1 1.00       0.000000000000
      0.8000000000D+00  0.1000000000D+01
 ****
      2 0
 S   3 1.00       0.000000000000
      0.1873113696D+02  0.3349460434D-01
      0.2825394365D+01  0.2347269535D+00
      0.6401216923D+00  0.8137573261D+00
 S   1 1.00       0.000000000000
      0.1612777588D+00  0.1000000000D+01
 ****
      3 0
 S   6 1.00       0.000000000000
      0.5484671660D+04  0.1831074430D-02
      0.8252349460D+03  0.1395017220D-01
      0.1880469580D+03  0.6844507810D-01
      0.5296450000D+02  0.2327143360D+00
      0.1689757040D+02  0.4701928980D+00
      0.5799635340D+01  0.3585208530D+00
 SP   3 1.00       0.000000000000
      0.1553961625D+02 -0.1107775495D+00  0.7087426823D-01
      0.3599933586D+01 -0.1480262627D+00  0.3397528391D+00
      0.1013761750D+01  0.1130767015D+01  0.7271585773D+00
 SP   1 1.00       0.000000000000
      0.2700058226D+00  0.1000000000D+01  0.1000000000D+01
 D   1 1.00       0.000000000000
      0.8000000000D+00  0.1000000000D+01
 ****
      4 0
 S   3 1.00       0.000000000000
      0.1873113696D+02  0.3349460434D-01
      0.2825394365D+01  0.2347269535D+00
      0.6401216923D+00  0.8137573261D+00
 S   1 1.00       0.000000000000
      0.1612777588D+00  0.1000000000D+01
 ****
      5 0
 S   6 1.00       0.000000000000
      0.3047524880D+04  0.1834737132D-02
      0.4573695180D+03  0.1403732281D-01
      0.1039486850D+03  0.6884262226D-01
      0.2921015530D+02  0.2321844432D+00
      0.9286662960D+01  0.4679413484D+00
      0.3163926960D+01  0.3623119853D+00
 SP   3 1.00       0.000000000000
      0.7868272350D+01 -0.1193324198D+00  0.6899906659D-01
      0.1881288540D+01 -0.1608541517D+00  0.3164239610D+00
      0.5442492580D+00  0.1143456438D+01  0.7443082909D+00
 SP   1 1.00       0.000000000000
      0.1687144782D+00  0.1000000000D+01  0.1000000000D+01
 D   1 1.00       0.000000000000
      0.8000000000D+00  0.1000000000D+01
 ****
      6 0
 S   6 1.00       0.000000000000
      0.3047524880D+04  0.1834737132D-02
      0.4573695180D+03  0.1403732281D-01
      0.1039486850D+03  0.6884262226D-01
      0.2921015530D+02  0.2321844432D+00
      0.9286662960D+01  0.4679413484D+00
      0.3163926960D+01  0.3623119853D+00
 SP   3 1.00       0.000000000000
      0.7868272350D+01 -0.1193324198D+00  0.6899906659D-01
      0.1881288540D+01 -0.1608541517D+00  0.3164239610D+00
      0.5442492580D+00  0.1143456438D+01  0.7443082909D+00
 SP   1 1.00       0.000000000000
      0.1687144782D+00  0.1000000000D+01  0.1000000000D+01
 D   1 1.00       0.000000000000
      0.8000000000D+00  0.1000000000D+01
 ****
      7 0
 S   3 1.00       0.000000000000
      0.1873113696D+02  0.3349460434D-01
      0.2825394365D+01  0.2347269535D+00
      0.6401216923D+00  0.8137573261D+00
 S   1 1.00       0.000000000000
      0.1612777588D+00  0.1000000000D+01
 ****
      8 0
 S   6 1.00       0.000000000000
      0.3047524880D+04  0.1834737132D-02
      0.4573695180D+03  0.1403732281D-01
      0.1039486850D+03  0.6884262226D-01
      0.2921015530D+02  0.2321844432D+00
      0.9286662960D+01  0.4679413484D+00
      0.3163926960D+01  0.3623119853D+00
 SP   3 1.00       0.000000000000
      0.7868272350D+01 -0.1193324198D+00  0.6899906659D-01
      0.1881288540D+01 -0.1608541517D+00  0.3164239610D+00
      0.5442492580D+00  0.1143456438D+01  0.7443082909D+00
 SP   1 1.00       0.000000000000
      0.1687144782D+00  0.1000000000D+01  0.1000000000D+01
 D   1 1.00       0.000000000000
      0.8000000000D+00  0.1000000000D+01
 ****
      9 0
 S   3 1.00       0.000000000000
      0.1873113696D+02  0.3349460434D-01
      0.2825394365D+01  0.2347269535D+00
      0.6401216923D+00  0.8137573261D+00
 S   1 1.00       0.000000000000
      0.1612777588D+00  0.1000000000D+01
 ****
     10 0
 S   6 1.00       0.000000000000
      0.3047524880D+04  0.1834737132D-02
      0.4573695180D+03  0.1403732281D-01
      0.1039486850D+03  0.6884262226D-01
      0.2921015530D+02  0.2321844432D+00
      0.9286662960D+01  0.4679413484D+00
      0.3163926960D+01  0.3623119853D+00
 SP   3 1.00       0.000000000000
      0.7868272350D+01 -0.1193324198D+00  0.6899906659D-01
      0.1881288540D+01 -0.1608541517D+00  0.3164239610D+00
      0.5442492580D+00  0.1143456438D+01  0.7443082909D+00
 SP   1 1.00       0.000000000000
      0.1687144782D+00  0.1000000000D+01  0.1000000000D+01
 D   1 1.00       0.000000000000
      0.8000000000D+00  0.1000000000D+01
 ****
     11 0
 S   3 1.00       0.000000000000
      0.1873113696D+02  0.3349460434D-01
      0.2825394365D+01  0.2347269535D+00
      0.6401216923D+00  0.8137573261D+00
 S   1 1.00       0.000000000000
      0.1612777588D+00  0.1000000000D+01
 ****
     12 0
 S   6 1.00       0.000000000000
      0.3047524880D+04  0.1834737132D-02
      0.4573695180D+03  0.1403732281D-01
      0.1039486850D+03  0.6884262226D-01
      0.2921015530D+02  0.2321844432D+00
      0.9286662960D+01  0.4679413484D+00
      0.3163926960D+01  0.3623119853D+00
 SP   3 1.00       0.000000000000
      0.7868272350D+01 -0.1193324198D+00  0.6899906659D-01
      0.1881288540D+01 -0.1608541517D+00  0.3164239610D+00
      0.5442492580D+00  0.1143456438D+01  0.7443082909D+00
 SP   1 1.00       0.000000000000
      0.1687144782D+00  0.1000000000D+01  0.1000000000D+01
 D   1 1.00       0.000000000000
      0.8000000000D+00  0.1000000000D+01
 ****
     13 0
 S   3 1.00       0.000000000000
      0.1873113696D+02  0.3349460434D-01
      0.2825394365D+01  0.2347269535D+00
      0.6401216923D+00  0.8137573261D+00
 S   1 1.00       0.000000000000
      0.1612777588D+00  0.1000000000D+01
 ****
     14 0
 S   6 1.00       0.000000000000
      0.3047524880D+04  0.1834737132D-02
      0.4573695180D+03  0.1403732281D-01
      0.1039486850D+03  0.6884262226D-01
      0.2921015530D+02  0.2321844432D+00
      0.9286662960D+01  0.4679413484D+00
      0.3163926960D+01  0.3623119853D+00
 SP   3 1.00       0.000000000000
      0.7868272350D+01 -0.1193324198D+00  0.6899906659D-01
      0.1881288540D+01 -0.1608541517D+00  0.3164239610D+00
      0.5442492580D+00  0.1143456438D+01  0.7443082909D+00
 SP   1 1.00       0.000000000000
      0.1687144782D+00  0.1000000000D+01  0.1000000000D+01
 D   1 1.00       0.000000000000
      0.8000000000D+00  0.1000000000D+01
 ****
     15 0
 S   3 1.00       0.000000000000
      0.1873113696D+02  0.3349460434D-01
      0.2825394365D+01  0.2347269535D+00
      0.6401216923D+00  0.8137573261D+00
 S   1 1.00       0.000000000000
      0.1612777588D+00  0.1000000000D+01
 ****
     16 0
 S   3 1.00       0.000000000000
      0.1873113696D+02  0.3349460434D-01
      0.2825394365D+01  0.2347269535D+00
      0.6401216923D+00  0.8137573261D+00
 S   1 1.00       0.000000000000
      0.1612777588D+00  0.1000000000D+01
 ****
     17 0
 S   6 1.00       0.000000000000
      0.3047524880D+04  0.1834737132D-02
      0.4573695180D+03  0.1403732281D-01
      0.1039486850D+03  0.6884262226D-01
      0.2921015530D+02  0.2321844432D+00
      0.9286662960D+01  0.4679413484D+00
      0.3163926960D+01  0.3623119853D+00
 SP   3 1.00       0.000000000000
      0.7868272350D+01 -0.1193324198D+00  0.6899906659D-01
      0.1881288540D+01 -0.1608541517D+00  0.3164239610D+00
      0.5442492580D+00  0.1143456438D+01  0.7443082909D+00
 SP   1 1.00       0.000000000000
      0.1687144782D+00  0.1000000000D+01  0.1000000000D+01
 D   1 1.00       0.000000000000
      0.8000000000D+00  0.1000000000D+01
 ****
     18 0
 S   6 1.00       0.000000000000
      0.3047524880D+04  0.1834737132D-02
      0.4573695180D+03  0.1403732281D-01
      0.1039486850D+03  0.6884262226D-01
      0.2921015530D+02  0.2321844432D+00
      0.9286662960D+01  0.4679413484D+00
      0.3163926960D+01  0.3623119853D+00
 SP   3 1.00       0.000000000000
      0.7868272350D+01 -0.1193324198D+00  0.6899906659D-01
      0.1881288540D+01 -0.1608541517D+00  0.3164239610D+00
      0.5442492580D+00  0.1143456438D+01  0.7443082909D+00
 SP   1 1.00       0.000000000000
      0.1687144782D+00  0.1000000000D+01  0.1000000000D+01
 D   1 1.00       0.000000000000
      0.8000000000D+00  0.1000000000D+01
 ****
     19 0
 S   3 1.00       0.000000000000
      0.1873113696D+02  0.3349460434D-01
      0.2825394365D+01  0.2347269535D+00
      0.6401216923D+00  0.8137573261D+00
 S   1 1.00       0.000000000000
      0.1612777588D+00  0.1000000000D+01
 ****
     20 0
 S   3 1.00       0.000000000000
      0.1873113696D+02  0.3349460434D-01
      0.2825394365D+01  0.2347269535D+00
      0.6401216923D+00  0.8137573261D+00
 S   1 1.00       0.000000000000
      0.1612777588D+00  0.1000000000D+01
 ****
     21 0
 S   6 1.00       0.000000000000
      0.3047524880D+04  0.1834737132D-02
      0.4573695180D+03  0.1403732281D-01
      0.1039486850D+03  0.6884262226D-01
      0.2921015530D+02  0.2321844432D+00
      0.9286662960D+01  0.4679413484D+00
      0.3163926960D+01  0.3623119853D+00
 SP   3 1.00       0.000000000000
      0.7868272350D+01 -0.1193324198D+00  0.6899906659D-01
      0.1881288540D+01 -0.1608541517D+00  0.3164239610D+00
      0.5442492580D+00  0.1143456438D+01  0.7443082909D+00
 SP   1 1.00       0.000000000000
      0.1687144782D+00  0.1000000000D+01  0.1000000000D+01
 D   1 1.00       0.000000000000
      0.8000000000D+00  0.1000000000D+01
 ****
     22 0
 S   3 1.00       0.000000000000
      0.1873113696D+02  0.3349460434D-01
      0.2825394365D+01  0.2347269535D+00
      0.6401216923D+00  0.8137573261D+00
 S   1 1.00       0.000000000000
      0.1612777588D+00  0.1000000000D+01
 ****
     23 0
 S   3 1.00       0.000000000000
      0.1873113696D+02  0.3349460434D-01
      0.2825394365D+01  0.2347269535D+00
      0.6401216923D+00  0.8137573261D+00
 S   1 1.00       0.000000000000
      0.1612777588D+00  0.1000000000D+01
 ****
     24 0
 S   6 1.00       0.000000000000
      0.3047524880D+04  0.1834737132D-02
      0.4573695180D+03  0.1403732281D-01
      0.1039486850D+03  0.6884262226D-01
      0.2921015530D+02  0.2321844432D+00
      0.9286662960D+01  0.4679413484D+00
      0.3163926960D+01  0.3623119853D+00
 SP   3 1.00       0.000000000000
      0.7868272350D+01 -0.1193324198D+00  0.6899906659D-01
      0.1881288540D+01 -0.1608541517D+00  0.3164239610D+00
      0.5442492580D+00  0.1143456438D+01  0.7443082909D+00
 SP   1 1.00       0.000000000000
      0.1687144782D+00  0.1000000000D+01  0.1000000000D+01
 D   1 1.00       0.000000000000
      0.8000000000D+00  0.1000000000D+01
 ****
     25 0
 S   3 1.00       0.000000000000
      0.1873113696D+02  0.3349460434D-01
      0.2825394365D+01  0.2347269535D+00
      0.6401216923D+00  0.8137573261D+00
 S   1 1.00       0.000000000000
      0.1612777588D+00  0.1000000000D+01
 ****
     26 0
 S   3 1.00       0.000000000000
      0.1873113696D+02  0.3349460434D-01
      0.2825394365D+01  0.2347269535D+00
      0.6401216923D+00  0.8137573261D+00
 S   1 1.00       0.000000000000
      0.1612777588D+00  0.1000000000D+01
 ****
     27 0
 S   6 1.00       0.000000000000
      0.3047524880D+04  0.1834737132D-02
      0.4573695180D+03  0.1403732281D-01
      0.1039486850D+03  0.6884262226D-01
      0.2921015530D+02  0.2321844432D+00
      0.9286662960D+01  0.4679413484D+00
      0.3163926960D+01  0.3623119853D+00
 SP   3 1.00       0.000000000000
      0.7868272350D+01 -0.1193324198D+00  0.6899906659D-01
      0.1881288540D+01 -0.1608541517D+00  0.3164239610D+00
      0.5442492580D+00  0.1143456438D+01  0.7443082909D+00
 SP   1 1.00       0.000000000000
      0.1687144782D+00  0.1000000000D+01  0.1000000000D+01
 D   1 1.00       0.000000000000
      0.8000000000D+00  0.1000000000D+01
 ****
     28 0
 S   3 1.00       0.000000000000
      0.1873113696D+02  0.3349460434D-01
      0.2825394365D+01  0.2347269535D+00
      0.6401216923D+00  0.8137573261D+00
 S   1 1.00       0.000000000000
      0.1612777588D+00  0.1000000000D+01
 ****
     29 0
 S   6 1.00       0.000000000000
      0.3047524880D+04  0.1834737132D-02
      0.4573695180D+03  0.1403732281D-01
      0.1039486850D+03  0.6884262226D-01
      0.2921015530D+02  0.2321844432D+00
      0.9286662960D+01  0.4679413484D+00
      0.3163926960D+01  0.3623119853D+00
 SP   3 1.00       0.000000000000
      0.7868272350D+01 -0.1193324198D+00  0.6899906659D-01
      0.1881288540D+01 -0.1608541517D+00  0.3164239610D+00
      0.5442492580D+00  0.1143456438D+01  0.7443082909D+00
 SP   1 1.00       0.000000000000
      0.1687144782D+00  0.1000000000D+01  0.1000000000D+01
 D   1 1.00       0.000000000000
      0.8000000000D+00  0.1000000000D+01
 ****
     30 0
 S   3 1.00       0.000000000000
      0.1873113696D+02  0.3349460434D-01
      0.2825394365D+01  0.2347269535D+00
      0.6401216923D+00  0.8137573261D+00
 S   1 1.00       0.000000000000
      0.1612777588D+00  0.1000000000D+01
 ****
     31 0
 S   6 1.00       0.000000000000
      0.3047524880D+04  0.1834737132D-02
      0.4573695180D+03  0.1403732281D-01
      0.1039486850D+03  0.6884262226D-01
      0.2921015530D+02  0.2321844432D+00
      0.9286662960D+01  0.4679413484D+00
      0.3163926960D+01  0.3623119853D+00
 SP   3 1.00       0.000000000000
      0.7868272350D+01 -0.1193324198D+00  0.6899906659D-01
      0.1881288540D+01 -0.1608541517D+00  0.3164239610D+00
      0.5442492580D+00  0.1143456438D+01  0.7443082909D+00
 SP   1 1.00       0.000000000000
      0.1687144782D+00  0.1000000000D+01  0.1000000000D+01
 D   1 1.00       0.000000000000
      0.8000000000D+00  0.1000000000D+01
 ****
     32 0
 S   3 1.00       0.000000000000
      0.1873113696D+02  0.3349460434D-01
      0.2825394365D+01  0.2347269535D+00
      0.6401216923D+00  0.8137573261D+00
 S   1 1.00       0.000000000000
      0.1612777588D+00  0.1000000000D+01
 ****
     33 0
 S   3 1.00       0.000000000000
      0.1873113696D+02  0.3349460434D-01
      0.2825394365D+01  0.2347269535D+00
      0.6401216923D+00  0.8137573261D+00
 S   1 1.00       0.000000000000
      0.1612777588D+00  0.1000000000D+01
 ****
     34 0
 S   3 1.00       0.000000000000
      0.1873113696D+02  0.3349460434D-01
      0.2825394365D+01  0.2347269535D+00
      0.6401216923D+00  0.8137573261D+00
 S   1 1.00       0.000000000000
      0.1612777588D+00  0.1000000000D+01
 ****
     35 0
 S   6 1.00       0.000000000000
      0.3047524880D+04  0.1834737132D-02
      0.4573695180D+03  0.1403732281D-01
      0.1039486850D+03  0.6884262226D-01
      0.2921015530D+02  0.2321844432D+00
      0.9286662960D+01  0.4679413484D+00
      0.3163926960D+01  0.3623119853D+00
 SP   3 1.00       0.000000000000
      0.7868272350D+01 -0.1193324198D+00  0.6899906659D-01
      0.1881288540D+01 -0.1608541517D+00  0.3164239610D+00
      0.5442492580D+00  0.1143456438D+01  0.7443082909D+00
 SP   1 1.00       0.000000000000
      0.1687144782D+00  0.1000000000D+01  0.1000000000D+01
 D   1 1.00       0.000000000000
      0.8000000000D+00  0.1000000000D+01
 ****
     36 0
 S   6 1.00       0.000000000000
      0.3047524880D+04  0.1834737132D-02
      0.4573695180D+03  0.1403732281D-01
      0.1039486850D+03  0.6884262226D-01
      0.2921015530D+02  0.2321844432D+00
      0.9286662960D+01  0.4679413484D+00
      0.3163926960D+01  0.3623119853D+00
 SP   3 1.00       0.000000000000
      0.7868272350D+01 -0.1193324198D+00  0.6899906659D-01
      0.1881288540D+01 -0.1608541517D+00  0.3164239610D+00
      0.5442492580D+00  0.1143456438D+01  0.7443082909D+00
 SP   1 1.00       0.000000000000
      0.1687144782D+00  0.1000000000D+01  0.1000000000D+01
 D   1 1.00       0.000000000000
      0.8000000000D+00  0.1000000000D+01
 ****
     37 0
 S   3 1.00       0.000000000000
      0.1873113696D+02  0.3349460434D-01
      0.2825394365D+01  0.2347269535D+00
      0.6401216923D+00  0.8137573261D+00
 S   1 1.00       0.000000000000
      0.1612777588D+00  0.1000000000D+01
 ****
     38 0
 S   3 1.00       0.000000000000
      0.1873113696D+02  0.3349460434D-01
      0.2825394365D+01  0.2347269535D+00
      0.6401216923D+00  0.8137573261D+00
 S   1 1.00       0.000000000000
      0.1612777588D+00  0.1000000000D+01
 ****
     39 0
 S   6 1.00       0.000000000000
      0.3047524880D+04  0.1834737132D-02
      0.4573695180D+03  0.1403732281D-01
      0.1039486850D+03  0.6884262226D-01
      0.2921015530D+02  0.2321844432D+00
      0.9286662960D+01  0.4679413484D+00
      0.3163926960D+01  0.3623119853D+00
 SP   3 1.00       0.000000000000
      0.7868272350D+01 -0.1193324198D+00  0.6899906659D-01
      0.1881288540D+01 -0.1608541517D+00  0.3164239610D+00
      0.5442492580D+00  0.1143456438D+01  0.7443082909D+00
 SP   1 1.00       0.000000000000
      0.1687144782D+00  0.1000000000D+01  0.1000000000D+01
 D   1 1.00       0.000000000000
      0.8000000000D+00  0.1000000000D+01
 ****
     40 0
 S   3 1.00       0.000000000000
      0.1873113696D+02  0.3349460434D-01
      0.2825394365D+01  0.2347269535D+00
      0.6401216923D+00  0.8137573261D+00
 S   1 1.00       0.000000000000
      0.1612777588D+00  0.1000000000D+01
 ****
     41 0
 S   6 1.00       0.000000000000
      0.3047524880D+04  0.1834737132D-02
      0.4573695180D+03  0.1403732281D-01
      0.1039486850D+03  0.6884262226D-01
      0.2921015530D+02  0.2321844432D+00
      0.9286662960D+01  0.4679413484D+00
      0.3163926960D+01  0.3623119853D+00
 SP   3 1.00       0.000000000000
      0.7868272350D+01 -0.1193324198D+00  0.6899906659D-01
      0.1881288540D+01 -0.1608541517D+00  0.3164239610D+00
      0.5442492580D+00  0.1143456438D+01  0.7443082909D+00
 SP   1 1.00       0.000000000000
      0.1687144782D+00  0.1000000000D+01  0.1000000000D+01
 D   1 1.00       0.000000000000
      0.8000000000D+00  0.1000000000D+01
 ****
     42 0
 S   3 1.00       0.000000000000
      0.1873113696D+02  0.3349460434D-01
      0.2825394365D+01  0.2347269535D+00
      0.6401216923D+00  0.8137573261D+00
 S   1 1.00       0.000000000000
      0.1612777588D+00  0.1000000000D+01
 ****
     43 0
 S   3 1.00       0.000000000000
      0.1873113696D+02  0.3349460434D-01
      0.2825394365D+01  0.2347269535D+00
      0.6401216923D+00  0.8137573261D+00
 S   1 1.00       0.000000000000
      0.1612777588D+00  0.1000000000D+01
 ****
     44 0
 S   3 1.00       0.000000000000
      0.1873113696D+02  0.3349460434D-01
      0.2825394365D+01  0.2347269535D+00
      0.6401216923D+00  0.8137573261D+00
 S   1 1.00       0.000000000000
      0.1612777588D+00  0.1000000000D+01
 ****
     45 0
 S   6 1.00       0.000000000000
      0.3047524880D+04  0.1834737132D-02
      0.4573695180D+03  0.1403732281D-01
      0.1039486850D+03  0.6884262226D-01
      0.2921015530D+02  0.2321844432D+00
      0.9286662960D+01  0.4679413484D+00
      0.3163926960D+01  0.3623119853D+00
 SP   3 1.00       0.000000000000
      0.7868272350D+01 -0.1193324198D+00  0.6899906659D-01
      0.1881288540D+01 -0.1608541517D+00  0.3164239610D+00
      0.5442492580D+00  0.1143456438D+01  0.7443082909D+00
 SP   1 1.00       0.000000000000
      0.1687144782D+00  0.1000000000D+01  0.1000000000D+01
 D   1 1.00       0.000000000000
      0.8000000000D+00  0.1000000000D+01
 ****
     46 0
 S   3 1.00       0.000000000000
      0.1873113696D+02  0.3349460434D-01
      0.2825394365D+01  0.2347269535D+00
      0.6401216923D+00  0.8137573261D+00
 S   1 1.00       0.000000000000
      0.1612777588D+00  0.1000000000D+01
 ****
     47 0
 S   3 1.00       0.000000000000
      0.1873113696D+02  0.3349460434D-01
      0.2825394365D+01  0.2347269535D+00
      0.6401216923D+00  0.8137573261D+00
 S   1 1.00       0.000000000000
      0.1612777588D+00  0.1000000000D+01
 ****
     48 0
 S   6 1.00       0.000000000000
      0.3047524880D+04  0.1834737132D-02
      0.4573695180D+03  0.1403732281D-01
      0.1039486850D+03  0.6884262226D-01
      0.2921015530D+02  0.2321844432D+00
      0.9286662960D+01  0.4679413484D+00
      0.3163926960D+01  0.3623119853D+00
 SP   3 1.00       0.000000000000
      0.7868272350D+01 -0.1193324198D+00  0.6899906659D-01
      0.1881288540D+01 -0.1608541517D+00  0.3164239610D+00
      0.5442492580D+00  0.1143456438D+01  0.7443082909D+00
 SP   1 1.00       0.000000000000
      0.1687144782D+00  0.1000000000D+01  0.1000000000D+01
 D   1 1.00       0.000000000000
      0.8000000000D+00  0.1000000000D+01
 ****
     49 0
 S   3 1.00       0.000000000000
      0.1873113696D+02  0.3349460434D-01
      0.2825394365D+01  0.2347269535D+00
      0.6401216923D+00  0.8137573261D+00
 S   1 1.00       0.000000000000
      0.1612777588D+00  0.1000000000D+01
 ****
     50 0
 S   3 1.00       0.000000000000
      0.1873113696D+02  0.3349460434D-01
      0.2825394365D+01  0.2347269535D+00
      0.6401216923D+00  0.8137573261D+00
 S   1 1.00       0.000000000000
      0.1612777588D+00  0.1000000000D+01
 ****
     51 0
 S   6 1.00       0.000000000000
      0.3047524880D+04  0.1834737132D-02
      0.4573695180D+03  0.1403732281D-01
      0.1039486850D+03  0.6884262226D-01
      0.2921015530D+02  0.2321844432D+00
      0.9286662960D+01  0.4679413484D+00
      0.3163926960D+01  0.3623119853D+00
 SP   3 1.00       0.000000000000
      0.7868272350D+01 -0.1193324198D+00  0.6899906659D-01
      0.1881288540D+01 -0.1608541517D+00  0.3164239610D+00
      0.5442492580D+00  0.1143456438D+01  0.7443082909D+00
 SP   1 1.00       0.000000000000
      0.1687144782D+00  0.1000000000D+01  0.1000000000D+01
 D   1 1.00       0.000000000000
      0.8000000000D+00  0.1000000000D+01
 ****
     52 0
 S   3 1.00       0.000000000000
      0.1873113696D+02  0.3349460434D-01
      0.2825394365D+01  0.2347269535D+00
      0.6401216923D+00  0.8137573261D+00
 S   1 1.00       0.000000000000
      0.1612777588D+00  0.1000000000D+01
 ****
     53 0
 S   3 1.00       0.000000000000
      0.1873113696D+02  0.3349460434D-01
      0.2825394365D+01  0.2347269535D+00
      0.6401216923D+00  0.8137573261D+00
 S   1 1.00       0.000000000000
      0.1612777588D+00  0.1000000000D+01
 ****
     54 0
 S   6 1.00       0.000000000000
      0.3047524880D+04  0.1834737132D-02
      0.4573695180D+03  0.1403732281D-01
      0.1039486850D+03  0.6884262226D-01
      0.2921015530D+02  0.2321844432D+00
      0.9286662960D+01  0.4679413484D+00
      0.3163926960D+01  0.3623119853D+00
 SP   3 1.00       0.000000000000
      0.7868272350D+01 -0.1193324198D+00  0.6899906659D-01
      0.1881288540D+01 -0.1608541517D+00  0.3164239610D+00
      0.5442492580D+00  0.1143456438D+01  0.7443082909D+00
 SP   1 1.00       0.000000000000
      0.1687144782D+00  0.1000000000D+01  0.1000000000D+01
 D   1 1.00       0.000000000000
      0.8000000000D+00  0.1000000000D+01
 ****
     55 0
 S   3 1.00       0.000000000000
      0.1873113696D+02  0.3349460434D-01
      0.2825394365D+01  0.2347269535D+00
      0.6401216923D+00  0.8137573261D+00
 S   1 1.00       0.000000000000
      0.1612777588D+00  0.1000000000D+01
 ****
     56 0
 S   6 1.00       0.000000000000
      0.3047524880D+04  0.1834737132D-02
      0.4573695180D+03  0.1403732281D-01
      0.1039486850D+03  0.6884262226D-01
      0.2921015530D+02  0.2321844432D+00
      0.9286662960D+01  0.4679413484D+00
      0.3163926960D+01  0.3623119853D+00
 SP   3 1.00       0.000000000000
      0.7868272350D+01 -0.1193324198D+00  0.6899906659D-01
      0.1881288540D+01 -0.1608541517D+00  0.3164239610D+00
      0.5442492580D+00  0.1143456438D+01  0.7443082909D+00
 SP   1 1.00       0.000000000000
      0.1687144782D+00  0.1000000000D+01  0.1000000000D+01
 D   1 1.00       0.000000000000
      0.8000000000D+00  0.1000000000D+01
 ****
     57 0
 S   3 1.00       0.000000000000
      0.1873113696D+02  0.3349460434D-01
      0.2825394365D+01  0.2347269535D+00
      0.6401216923D+00  0.8137573261D+00
 S   1 1.00       0.000000000000
      0.1612777588D+00  0.1000000000D+01
 ****
     58 0
 S   3 1.00       0.000000000000
      0.1873113696D+02  0.3349460434D-01
      0.2825394365D+01  0.2347269535D+00
      0.6401216923D+00  0.8137573261D+00
 S   1 1.00       0.000000000000
      0.1612777588D+00  0.1000000000D+01
 ****
     59 0
 S   3 1.00       0.000000000000
      0.1873113696D+02  0.3349460434D-01
      0.2825394365D+01  0.2347269535D+00
      0.6401216923D+00  0.8137573261D+00
 S   1 1.00       0.000000000000
      0.1612777588D+00  0.1000000000D+01
 ****
     60 0
 S   6 1.00       0.000000000000
      0.3047524880D+04  0.1834737132D-02
      0.4573695180D+03  0.1403732281D-01
      0.1039486850D+03  0.6884262226D-01
      0.2921015530D+02  0.2321844432D+00
      0.9286662960D+01  0.4679413484D+00
      0.3163926960D+01  0.3623119853D+00
 SP   3 1.00       0.000000000000
      0.7868272350D+01 -0.1193324198D+00  0.6899906659D-01
      0.1881288540D+01 -0.1608541517D+00  0.3164239610D+00
      0.5442492580D+00  0.1143456438D+01  0.7443082909D+00
 SP   1 1.00       0.000000000000
      0.1687144782D+00  0.1000000000D+01  0.1000000000D+01
 D   1 1.00       0.000000000000
      0.8000000000D+00  0.1000000000D+01
 ****
     61 0
 S   3 1.00       0.000000000000
      0.1873113696D+02  0.3349460434D-01
      0.2825394365D+01  0.2347269535D+00
      0.6401216923D+00  0.8137573261D+00
 S   1 1.00       0.000000000000
      0.1612777588D+00  0.1000000000D+01
 ****
     62 0
 S   3 1.00       0.000000000000
      0.1873113696D+02  0.3349460434D-01
      0.2825394365D+01  0.2347269535D+00
      0.6401216923D+00  0.8137573261D+00
 S   1 1.00       0.000000000000
      0.1612777588D+00  0.1000000000D+01
 ****
     63 0
 S   6 1.00       0.000000000000
      0.3047524880D+04  0.1834737132D-02
      0.4573695180D+03  0.1403732281D-01
      0.1039486850D+03  0.6884262226D-01
      0.2921015530D+02  0.2321844432D+00
      0.9286662960D+01  0.4679413484D+00
      0.3163926960D+01  0.3623119853D+00
 SP   3 1.00       0.000000000000
      0.7868272350D+01 -0.1193324198D+00  0.6899906659D-01
      0.1881288540D+01 -0.1608541517D+00  0.3164239610D+00
      0.5442492580D+00  0.1143456438D+01  0.7443082909D+00
 SP   1 1.00       0.000000000000
      0.1687144782D+00  0.1000000000D+01  0.1000000000D+01
 D   1 1.00       0.000000000000
      0.8000000000D+00  0.1000000000D+01
 ****
     64 0
 S   3 1.00       0.000000000000
      0.1873113696D+02  0.3349460434D-01
      0.2825394365D+01  0.2347269535D+00
      0.6401216923D+00  0.8137573261D+00
 S   1 1.00       0.000000000000
      0.1612777588D+00  0.1000000000D+01
 ****
     65 0
 S   3 1.00       0.000000000000
      0.1873113696D+02  0.3349460434D-01
      0.2825394365D+01  0.2347269535D+00
      0.6401216923D+00  0.8137573261D+00
 S   1 1.00       0.000000000000
      0.1612777588D+00  0.1000000000D+01
 ****
     66 0
 S   6 1.00       0.000000000000
      0.3047524880D+04  0.1834737132D-02
      0.4573695180D+03  0.1403732281D-01
      0.1039486850D+03  0.6884262226D-01
      0.2921015530D+02  0.2321844432D+00
      0.9286662960D+01  0.4679413484D+00
      0.3163926960D+01  0.3623119853D+00
 SP   3 1.00       0.000000000000
      0.7868272350D+01 -0.1193324198D+00  0.6899906659D-01
      0.1881288540D+01 -0.1608541517D+00  0.3164239610D+00
      0.5442492580D+00  0.1143456438D+01  0.7443082909D+00
 SP   1 1.00       0.000000000000
      0.1687144782D+00  0.1000000000D+01  0.1000000000D+01
 D   1 1.00       0.000000000000
      0.8000000000D+00  0.1000000000D+01
 ****
     67 0
 S   3 1.00       0.000000000000
      0.1873113696D+02  0.3349460434D-01
      0.2825394365D+01  0.2347269535D+00
      0.6401216923D+00  0.8137573261D+00
 S   1 1.00       0.000000000000
      0.1612777588D+00  0.1000000000D+01
 ****
     68 0
 S   6 1.00       0.000000000000
      0.3047524880D+04  0.1834737132D-02
      0.4573695180D+03  0.1403732281D-01
      0.1039486850D+03  0.6884262226D-01
      0.2921015530D+02  0.2321844432D+00
      0.9286662960D+01  0.4679413484D+00
      0.3163926960D+01  0.3623119853D+00
 SP   3 1.00       0.000000000000
      0.7868272350D+01 -0.1193324198D+00  0.6899906659D-01
      0.1881288540D+01 -0.1608541517D+00  0.3164239610D+00
      0.5442492580D+00  0.1143456438D+01  0.7443082909D+00
 SP   1 1.00       0.000000000000
      0.1687144782D+00  0.1000000000D+01  0.1000000000D+01
 D   1 1.00       0.000000000000
      0.8000000000D+00  0.1000000000D+01
 ****
     69 0
 S   3 1.00       0.000000000000
      0.1873113696D+02  0.3349460434D-01
      0.2825394365D+01  0.2347269535D+00
      0.6401216923D+00  0.8137573261D+00
 S   1 1.00       0.000000000000
      0.1612777588D+00  0.1000000000D+01
 ****
     70 0
 S   3 1.00       0.000000000000
      0.1873113696D+02  0.3349460434D-01
      0.2825394365D+01  0.2347269535D+00
      0.6401216923D+00  0.8137573261D+00
 S   1 1.00       0.000000000000
      0.1612777588D+00  0.1000000000D+01
 ****
     71 0
 S   3 1.00       0.000000000000
      0.1873113696D+02  0.3349460434D-01
      0.2825394365D+01  0.2347269535D+00
      0.6401216923D+00  0.8137573261D+00
 S   1 1.00       0.000000000000
      0.1612777588D+00  0.1000000000D+01
 ****
     72 0
 S   6 1.00       0.000000000000
      0.3047524880D+04  0.1834737132D-02
      0.4573695180D+03  0.1403732281D-01
      0.1039486850D+03  0.6884262226D-01
      0.2921015530D+02  0.2321844432D+00
      0.9286662960D+01  0.4679413484D+00
      0.3163926960D+01  0.3623119853D+00
 SP   3 1.00       0.000000000000
      0.7868272350D+01 -0.1193324198D+00  0.6899906659D-01
      0.1881288540D+01 -0.1608541517D+00  0.3164239610D+00
      0.5442492580D+00  0.1143456438D+01  0.7443082909D+00
 SP   1 1.00       0.000000000000
      0.1687144782D+00  0.1000000000D+01  0.1000000000D+01
 D   1 1.00       0.000000000000
      0.8000000000D+00  0.1000000000D+01
 ****
     73 0
 S   3 1.00       0.000000000000
      0.1873113696D+02  0.3349460434D-01
      0.2825394365D+01  0.2347269535D+00
      0.6401216923D+00  0.8137573261D+00
 S   1 1.00       0.000000000000
      0.1612777588D+00  0.1000000000D+01
 ****
     74 0
 S   3 1.00       0.000000000000
      0.1873113696D+02  0.3349460434D-01
      0.2825394365D+01  0.2347269535D+00
      0.6401216923D+00  0.8137573261D+00
 S   1 1.00       0.000000000000
      0.1612777588D+00  0.1000000000D+01
 ****
     75 0
 S   3 1.00       0.000000000000
      0.1873113696D+02  0.3349460434D-01
      0.2825394365D+01  0.2347269535D+00
      0.6401216923D+00  0.8137573261D+00
 S   1 1.00       0.000000000000
      0.1612777588D+00  0.1000000000D+01
 ****

 AO basis set (Overlap normalization):
 Atom O1       Shell     1 S   6     bf    1 -     1          0.000000000000          0.000000000000          0.000000000000
      0.5484671660D+04  0.1831074430D-02
      0.8252349460D+03  0.1395017220D-01
      0.1880469580D+03  0.6844507810D-01
      0.5296450000D+02  0.2327143360D+00
      0.1689757040D+02  0.4701928980D+00
      0.5799635340D+01  0.3585208530D+00
 Atom O1       Shell     2 SP   3    bf    2 -     5          0.000000000000          0.000000000000          0.000000000000
      0.1553961625D+02 -0.1107775495D+00  0.7087426823D-01
      0.3599933586D+01 -0.1480262627D+00  0.3397528391D+00
      0.1013761750D+01  0.1130767015D+01  0.7271585773D+00
 Atom O1       Shell     3 SP   1    bf    6 -     9          0.000000000000          0.000000000000          0.000000000000
      0.2700058226D+00  0.1000000000D+01  0.1000000000D+01
 Atom O1       Shell     4 D   1     bf   10 -    15          0.000000000000          0.000000000000          0.000000000000
      0.8000000000D+00  0.1000000000D+01
 Atom H2       Shell     5 S   3     bf   16 -    16          1.828560063232          0.000000000000          0.000000000000
      0.1873113696D+02  0.3349460434D-01
      0.2825394365D+01  0.2347269535D+00
      0.6401216923D+00  0.8137573261D+00
 Atom H2       Shell     6 S   1     bf   17 -    17          1.828560063232          0.000000000000          0.000000000000
      0.1612777588D+00  0.1000000000D+01
 Atom O3       Shell     7 S   6     bf   18 -    18          3.105623831342         -5.183811274316         12.115993632990
      0.5484671660D+04  0.1831074430D-02
      0.8252349460D+03  0.1395017220D-01
      0.1880469580D+03  0.6844507810D-01
      0.5296450000D+02  0.2327143360D+00
      0.1689757040D+02  0.4701928980D+00
      0.5799635340D+01  0.3585208530D+00
 Atom O3       Shell     8 SP   3    bf   19 -    22          3.105623831342         -5.183811274316         12.115993632990
      0.1553961625D+02 -0.1107775495D+00  0.7087426823D-01
      0.3599933586D+01 -0.1480262627D+00  0.3397528391D+00
      0.1013761750D+01  0.1130767015D+01  0.7271585773D+00
 Atom O3       Shell     9 SP   1    bf   23 -    26          3.105623831342         -5.183811274316         12.115993632990
      0.2700058226D+00  0.1000000000D+01  0.1000000000D+01
 Atom O3       Shell    10 D   1     bf   27 -    32          3.105623831342         -5.183811274316         12.115993632990
      0.8000000000D+00  0.1000000000D+01
 Atom H4       Shell    11 S   3     bf   33 -    33          4.879541518578         -4.754781893771         12.226666653387
      0.1873113696D+02  0.3349460434D-01
      0.2825394365D+01  0.2347269535D+00
      0.6401216923D+00  0.8137573261D+00
 Atom H4       Shell    12 S   1     bf   34 -    34          4.879541518578         -4.754781893771         12.226666653387
      0.1612777588D+00  0.1000000000D+01
 Atom C5       Shell    13 S   6     bf   35 -    35         -2.257722669469          7.758015317664          3.019728087417
      0.3047524880D+04  0.1834737132D-02
      0.4573695180D+03  0.1403732281D-01
      0.1039486850D+03  0.6884262226D-01
      0.2921015530D+02  0.2321844432D+00
      0.9286662960D+01  0.4679413484D+00
      0.3163926960D+01  0.3623119853D+00
 Atom C5       Shell    14 SP   3    bf   36 -    39         -2.257722669469          7.758015317664          3.019728087417
      0.7868272350D+01 -0.1193324198D+00  0.6899906659D-01
      0.1881288540D+01 -0.1608541517D+00  0.3164239610D+00
      0.5442492580D+00  0.1143456438D+01  0.7443082909D+00
 Atom C5       Shell    15 SP   1    bf   40 -    43         -2.257722669469          7.758015317664          3.019728087417
      0.1687144782D+00  0.1000000000D+01  0.1000000000D+01
 Atom C5       Shell    16 D   1     bf   44 -    49         -2.257722669469          7.758015317664          3.019728087417
      0.8000000000D+00  0.1000000000D+01
 Atom C6       Shell    17 S   6     bf   50 -    50         -2.433918012894          4.933227145129          2.217250952902
      0.3047524880D+04  0.1834737132D-02
      0.4573695180D+03  0.1403732281D-01
      0.1039486850D+03  0.6884262226D-01
      0.2921015530D+02  0.2321844432D+00
      0.9286662960D+01  0.4679413484D+00
      0.3163926960D+01  0.3623119853D+00
 Atom C6       Shell    18 SP   3    bf   51 -    54         -2.433918012894          4.933227145129          2.217250952902
      0.7868272350D+01 -0.1193324198D+00  0.6899906659D-01
      0.1881288540D+01 -0.1608541517D+00  0.3164239610D+00
      0.5442492580D+00  0.1143456438D+01  0.7443082909D+00
 Atom C6       Shell    19 SP   1    bf   55 -    58         -2.433918012894          4.933227145129          2.217250952902
      0.1687144782D+00  0.1000000000D+01  0.1000000000D+01
 Atom C6       Shell    20 D   1     bf   59 -    64         -2.433918012894          4.933227145129          2.217250952902
      0.8000000000D+00  0.1000000000D+01
 Atom H7       Shell    21 S   3     bf   65 -    65         -4.269238703646          4.277806325090          2.962145316456
      0.1873113696D+02  0.3349460434D-01
      0.2825394365D+01  0.2347269535D+00
      0.6401216923D+00  0.8137573261D+00
 Atom H7       Shell    22 S   1     bf   66 -    66         -4.269238703646          4.277806325090          2.962145316456
      0.1612777588D+00  0.1000000000D+01
 Atom C8       Shell    23 S   6     bf   67 -    67         -0.449378631846          3.173140193385          3.410953402187
      0.3047524880D+04  0.1834737132D-02
      0.4573695180D+03  0.1403732281D-01
      0.1039486850D+03  0.6884262226D-01
      0.2921015530D+02  0.2321844432D+00
      0.9286662960D+01  0.4679413484D+00
      0.3163926960D+01  0.3623119853D+00
 Atom C8       Shell    24 SP   3    bf   68 -    71         -0.449378631846          3.173140193385          3.410953402187
      0.7868272350D+01 -0.1193324198D+00  0.6899906659D-01
      0.1881288540D+01 -0.1608541517D+00  0.3164239610D+00
      0.5442492580D+00  0.1143456438D+01  0.7443082909D+00
 Atom C8       Shell    25 SP   1    bf   72 -    75         -0.449378631846          3.173140193385          3.410953402187
      0.1687144782D+00  0.1000000000D+01  0.1000000000D+01
 Atom C8       Shell    26 D   1     bf   76 -    81         -0.449378631846          3.173140193385          3.410953402187
      0.8000000000D+00  0.1000000000D+01
 Atom H9       Shell    27 S   3     bf   82 -    82          1.450571750899          3.739951471594          2.786583881662
      0.1873113696D+02  0.3349460434D-01
      0.2825394365D+01  0.2347269535D+00
      0.6401216923D+00  0.8137573261D+00
 Atom H9       Shell    28 S   1     bf   83 -    83          1.450571750899          3.739951471594          2.786583881662
      0.1612777588D+00  0.1000000000D+01
 Atom C10      Shell    29 S   6     bf   84 -    84         -0.608214421890          3.353912302325          6.338022321363
      0.3047524880D+04  0.1834737132D-02
      0.4573695180D+03  0.1403732281D-01
      0.1039486850D+03  0.6884262226D-01
      0.2921015530D+02  0.2321844432D+00
      0.9286662960D+01  0.4679413484D+00
      0.3163926960D+01  0.3623119853D+00
 Atom C10      Shell    30 SP   3    bf   85 -    88         -0.608214421890          3.353912302325          6.338022321363
      0.7868272350D+01 -0.1193324198D+00  0.6899906659D-01
      0.1881288540D+01 -0.1608541517D+00  0.3164239610D+00
      0.5442492580D+00  0.1143456438D+01  0.7443082909D+00
 Atom C10      Shell    31 SP   1    bf   89 -    92         -0.608214421890          3.353912302325          6.338022321363
      0.1687144782D+00  0.1000000000D+01  0.1000000000D+01
 Atom C10      Shell    32 D   1     bf   93 -    98         -0.608214421890          3.353912302325          6.338022321363
      0.8000000000D+00  0.1000000000D+01
 Atom H11      Shell    33 S   3     bf   99 -    99         -2.463701835296          2.556114923400          6.849321949556
      0.1873113696D+02  0.3349460434D-01
      0.2825394365D+01  0.2347269535D+00
      0.6401216923D+00  0.8137573261D+00
 Atom H11      Shell    34 S   1     bf  100 -   100         -2.463701835296          2.556114923400          6.849321949556
      0.1612777588D+00  0.1000000000D+01
 Atom C12      Shell    35 S   6     bf  101 -   101         -4.503754812779          8.886543040147          1.446669636509
      0.3047524880D+04  0.1834737132D-02
      0.4573695180D+03  0.1403732281D-01
      0.1039486850D+03  0.6884262226D-01
      0.2921015530D+02  0.2321844432D+00
      0.9286662960D+01  0.4679413484D+00
      0.3163926960D+01  0.3623119853D+00
 Atom C12      Shell    36 SP   3    bf  102 -   105         -4.503754812779          8.886543040147          1.446669636509
      0.7868272350D+01 -0.1193324198D+00  0.6899906659D-01
      0.1881288540D+01 -0.1608541517D+00  0.3164239610D+00
      0.5442492580D+00  0.1143456438D+01  0.7443082909D+00
 Atom C12      Shell    37 SP   1    bf  106 -   109         -4.503754812779          8.886543040147          1.446669636509
      0.1687144782D+00  0.1000000000D+01  0.1000000000D+01
 Atom C12      Shell    38 D   1     bf  110 -   115         -4.503754812779          8.886543040147          1.446669636509
      0.8000000000D+00  0.1000000000D+01
 Atom H13      Shell    39 S   3     bf  116 -   116         -6.242709467405          8.282313351473          2.419464329183
      0.1873113696D+02  0.3349460434D-01
      0.2825394365D+01  0.2347269535D+00
      0.6401216923D+00  0.8137573261D+00
 Atom H13      Shell    40 S   1     bf  117 -   117         -6.242709467405          8.282313351473          2.419464329183
      0.1612777588D+00  0.1000000000D+01
 Atom C14      Shell    41 S   6     bf  118 -   118         -2.561233246631          7.823440792227          5.916677927877
      0.3047524880D+04  0.1834737132D-02
      0.4573695180D+03  0.1403732281D-01
      0.1039486850D+03  0.6884262226D-01
      0.2921015530D+02  0.2321844432D+00
      0.9286662960D+01  0.4679413484D+00
      0.3163926960D+01  0.3623119853D+00
 Atom C14      Shell    42 SP   3    bf  119 -   122         -2.561233246631          7.823440792227          5.916677927877
      0.7868272350D+01 -0.1193324198D+00  0.6899906659D-01
      0.1881288540D+01 -0.1608541517D+00  0.3164239610D+00
      0.5442492580D+00  0.1143456438D+01  0.7443082909D+00
 Atom C14      Shell    43 SP   1    bf  123 -   126         -2.561233246631          7.823440792227          5.916677927877
      0.1687144782D+00  0.1000000000D+01  0.1000000000D+01
 Atom C14      Shell    44 D   1     bf  127 -   132         -2.561233246631          7.823440792227          5.916677927877
      0.8000000000D+00  0.1000000000D+01
 Atom H15      Shell    45 S   3     bf  133 -   133         -4.477547221494          7.179829418813          6.398149060541
      0.1873113696D+02  0.3349460434D-01
      0.2825394365D+01  0.2347269535D+00
      0.6401216923D+00  0.8137573261D+00
 Atom H15      Shell    46 S   1     bf  134 -   134         -4.477547221494          7.179829418813          6.398149060541
      0.1612777588D+00  0.1000000000D+01
 Atom H16      Shell    47 S   3     bf  135 -   135         -2.382357194406          9.742576638433          6.666386141987
      0.1873113696D+02  0.3349460434D-01
      0.2825394365D+01  0.2347269535D+00
      0.6401216923D+00  0.8137573261D+00
 Atom H16      Shell    48 S   1     bf  136 -   136         -2.382357194406          9.742576638433          6.666386141987
      0.1612777588D+00  0.1000000000D+01
 Atom C17      Shell    49 S   6     bf  137 -   137          1.391925517659          1.664382074101          7.727553858368
      0.3047524880D+04  0.1834737132D-02
      0.4573695180D+03  0.1403732281D-01
      0.1039486850D+03  0.6884262226D-01
      0.2921015530D+02  0.2321844432D+00
      0.9286662960D+01  0.4679413484D+00
      0.3163926960D+01  0.3623119853D+00
 Atom C17      Shell    50 SP   3    bf  138 -   141          1.391925517659          1.664382074101          7.727553858368
      0.7868272350D+01 -0.1193324198D+00  0.6899906659D-01
      0.1881288540D+01 -0.1608541517D+00  0.3164239610D+00
      0.5442492580D+00  0.1143456438D+01  0.7443082909D+00
 Atom C17      Shell    51 SP   1    bf  142 -   145          1.391925517659          1.664382074101          7.727553858368
      0.1687144782D+00  0.1000000000D+01  0.1000000000D+01
 Atom C17      Shell    52 D   1     bf  146 -   151          1.391925517659          1.664382074101          7.727553858368
      0.8000000000D+00  0.1000000000D+01
 Atom C18      Shell    53 S   6     bf  152 -   152         -2.713019092083          5.031513180801         -0.670946299721
      0.3047524880D+04  0.1834737132D-02
      0.4573695180D+03  0.1403732281D-01
      0.1039486850D+03  0.6884262226D-01
      0.2921015530D+02  0.2321844432D+00
      0.9286662960D+01  0.4679413484D+00
      0.3163926960D+01  0.3623119853D+00
 Atom C18      Shell    54 SP   3    bf  153 -   156         -2.713019092083          5.031513180801         -0.670946299721
      0.7868272350D+01 -0.1193324198D+00  0.6899906659D-01
      0.1881288540D+01 -0.1608541517D+00  0.3164239610D+00
      0.5442492580D+00  0.1143456438D+01  0.7443082909D+00
 Atom C18      Shell    55 SP   1    bf  157 -   160         -2.713019092083          5.031513180801         -0.670946299721
      0.1687144782D+00  0.1000000000D+01  0.1000000000D+01
 Atom C18      Shell    56 D   1     bf  161 -   166         -2.713019092083          5.031513180801         -0.670946299721
      0.8000000000D+00  0.1000000000D+01
 Atom H19      Shell    57 S   3     bf  167 -   167         -3.574354430418          3.320335553910         -1.439972900629
      0.1873113696D+02  0.3349460434D-01
      0.2825394365D+01  0.2347269535D+00
      0.6401216923D+00  0.8137573261D+00
 Atom H19      Shell    58 S   1     bf  168 -   168         -3.574354430418          3.320335553910         -1.439972900629
      0.1612777588D+00  0.1000000000D+01
 Atom H20      Shell    59 S   3     bf  169 -   169         -0.860187084045          5.197679861022         -1.577884112252
      0.1873113696D+02  0.3349460434D-01
      0.2825394365D+01  0.2347269535D+00
      0.6401216923D+00  0.8137573261D+00
 Atom H20      Shell    60 S   1     bf  170 -   170         -0.860187084045          5.197679861022         -1.577884112252
      0.1612777588D+00  0.1000000000D+01
 Atom C21      Shell    61 S   6     bf  171 -   171         -0.607237131123          6.128113054303          7.252105471862
      0.3047524880D+04  0.1834737132D-02
      0.4573695180D+03  0.1403732281D-01
      0.1039486850D+03  0.6884262226D-01
      0.2921015530D+02  0.2321844432D+00
      0.9286662960D+01  0.4679413484D+00
      0.3163926960D+01  0.3623119853D+00
 Atom C21      Shell    62 SP   3    bf  172 -   175         -0.607237131123          6.128113054303          7.252105471862
      0.7868272350D+01 -0.1193324198D+00  0.6899906659D-01
      0.1881288540D+01 -0.1608541517D+00  0.3164239610D+00
      0.5442492580D+00  0.1143456438D+01  0.7443082909D+00
 Atom C21      Shell    63 SP   1    bf  176 -   179         -0.607237131123          6.128113054303          7.252105471862
      0.1687144782D+00  0.1000000000D+01  0.1000000000D+01
 Atom C21      Shell    64 D   1     bf  180 -   185         -0.607237131123          6.128113054303          7.252105471862
      0.8000000000D+00  0.1000000000D+01
 Atom H22      Shell    65 S   3     bf  186 -   186          1.273636088364          6.951324112770          6.987996837303
      0.1873113696D+02  0.3349460434D-01
      0.2825394365D+01  0.2347269535D+00
      0.6401216923D+00  0.8137573261D+00
 Atom H22      Shell    66 S   1     bf  187 -   187          1.273636088364          6.951324112770          6.987996837303
      0.1612777588D+00  0.1000000000D+01
 Atom H23      Shell    67 S   3     bf  188 -   188         -0.973757829391          6.187673555943          9.289018272532
      0.1873113696D+02  0.3349460434D-01
      0.2825394365D+01  0.2347269535D+00
      0.6401216923D+00  0.8137573261D+00
 Atom H23      Shell    68 S   1     bf  189 -   189         -0.973757829391          6.187673555943          9.289018272532
      0.1612777588D+00  0.1000000000D+01
 Atom C24      Shell    69 S   6     bf  190 -   190         -4.341954382582          7.427802872450         -1.124651327267
      0.3047524880D+04  0.1834737132D-02
      0.4573695180D+03  0.1403732281D-01
      0.1039486850D+03  0.6884262226D-01
      0.2921015530D+02  0.2321844432D+00
      0.9286662960D+01  0.4679413484D+00
      0.3163926960D+01  0.3623119853D+00
 Atom C24      Shell    70 SP   3    bf  191 -   194         -4.341954382582          7.427802872450         -1.124651327267
      0.7868272350D+01 -0.1193324198D+00  0.6899906659D-01
      0.1881288540D+01 -0.1608541517D+00  0.3164239610D+00
      0.5442492580D+00  0.1143456438D+01  0.7443082909D+00
 Atom C24      Shell    71 SP   1    bf  195 -   198         -4.341954382582          7.427802872450         -1.124651327267
      0.1687144782D+00  0.1000000000D+01  0.1000000000D+01
 Atom C24      Shell    72 D   1     bf  199 -   204         -4.341954382582          7.427802872450         -1.124651327267
      0.8000000000D+00  0.1000000000D+01
 Atom H25      Shell    73 S   3     bf  205 -   205         -3.494027841688          8.630027589753         -2.584581058667
      0.1873113696D+02  0.3349460434D-01
      0.2825394365D+01  0.2347269535D+00
      0.6401216923D+00  0.8137573261D+00
 Atom H25      Shell    74 S   1     bf  206 -   206         -3.494027841688          8.630027589753         -2.584581058667
      0.1612777588D+00  0.1000000000D+01
 Atom H26      Shell    75 S   3     bf  207 -   207         -6.228876048503          6.929305704171         -1.808235264987
      0.1873113696D+02  0.3349460434D-01
      0.2825394365D+01  0.2347269535D+00
      0.6401216923D+00  0.8137573261D+00
 Atom H26      Shell    76 S   1     bf  208 -   208         -6.228876048503          6.929305704171         -1.808235264987
      0.1612777588D+00  0.1000000000D+01
 Atom C27      Shell    77 S   6     bf  209 -   209         -0.836641474374          0.415069860218          2.559185426010
      0.3047524880D+04  0.1834737132D-02
      0.4573695180D+03  0.1403732281D-01
      0.1039486850D+03  0.6884262226D-01
      0.2921015530D+02  0.2321844432D+00
      0.9286662960D+01  0.4679413484D+00
      0.3163926960D+01  0.3623119853D+00
 Atom C27      Shell    78 SP   3    bf  210 -   213         -0.836641474374          0.415069860218          2.559185426010
      0.7868272350D+01 -0.1193324198D+00  0.6899906659D-01
      0.1881288540D+01 -0.1608541517D+00  0.3164239610D+00
      0.5442492580D+00  0.1143456438D+01  0.7443082909D+00
 Atom C27      Shell    79 SP   1    bf  214 -   217         -0.836641474374          0.415069860218          2.559185426010
      0.1687144782D+00  0.1000000000D+01  0.1000000000D+01
 Atom C27      Shell    80 D   1     bf  218 -   223         -0.836641474374          0.415069860218          2.559185426010
      0.8000000000D+00  0.1000000000D+01
 Atom H28      Shell    81 S   3     bf  224 -   224         -2.874014328872          0.020436972387          2.464918743337
      0.1873113696D+02  0.3349460434D-01
      0.2825394365D+01  0.2347269535D+00
      0.6401216923D+00  0.8137573261D+00
 Atom H28      Shell    82 S   1     bf  225 -   225         -2.874014328872          0.020436972387          2.464918743337
      0.1612777588D+00  0.1000000000D+01
 Atom C29      Shell    83 S   6     bf  226 -   226         -4.710991742525         11.787867691091          1.083090051303
      0.3047524880D+04  0.1834737132D-02
      0.4573695180D+03  0.1403732281D-01
      0.1039486850D+03  0.6884262226D-01
      0.2921015530D+02  0.2321844432D+00
      0.9286662960D+01  0.4679413484D+00
      0.3163926960D+01  0.3623119853D+00
 Atom C29      Shell    84 SP   3    bf  227 -   230         -4.710991742525         11.787867691091          1.083090051303
      0.7868272350D+01 -0.1193324198D+00  0.6899906659D-01
      0.1881288540D+01 -0.1608541517D+00  0.3164239610D+00
      0.5442492580D+00  0.1143456438D+01  0.7443082909D+00
 Atom C29      Shell    85 SP   1    bf  231 -   234         -4.710991742525         11.787867691091          1.083090051303
      0.1687144782D+00  0.1000000000D+01  0.1000000000D+01
 Atom C29      Shell    86 D   1     bf  235 -   240         -4.710991742525         11.787867691091          1.083090051303
      0.8000000000D+00  0.1000000000D+01
 Atom H30      Shell    87 S   3     bf  241 -   241         -3.047939997827         12.411923800537          0.000000000000
      0.1873113696D+02  0.3349460434D-01
      0.2825394365D+01  0.2347269535D+00
      0.6401216923D+00  0.8137573261D+00
 Atom H30      Shell    88 S   1     bf  242 -   242         -3.047939997827         12.411923800537          0.000000000000
      0.1612777588D+00  0.1000000000D+01
 Atom C31      Shell    89 S   6     bf  243 -   243          0.266730724054          8.986948006834          2.212118570108
      0.3047524880D+04  0.1834737132D-02
      0.4573695180D+03  0.1403732281D-01
      0.1039486850D+03  0.6884262226D-01
      0.2921015530D+02  0.2321844432D+00
      0.9286662960D+01  0.4679413484D+00
      0.3163926960D+01  0.3623119853D+00
 Atom C31      Shell    90 SP   3    bf  244 -   247          0.266730724054          8.986948006834          2.212118570108
      0.7868272350D+01 -0.1193324198D+00  0.6899906659D-01
      0.1881288540D+01 -0.1608541517D+00  0.3164239610D+00
      0.5442492580D+00  0.1143456438D+01  0.7443082909D+00
 Atom C31      Shell    91 SP   1    bf  248 -   251          0.266730724054          8.986948006834          2.212118570108
      0.1687144782D+00  0.1000000000D+01  0.1000000000D+01
 Atom C31      Shell    92 D   1     bf  252 -   257          0.266730724054          8.986948006834          2.212118570108
      0.8000000000D+00  0.1000000000D+01
 Atom H32      Shell    93 S   3     bf  258 -   258          1.907042052489          7.986222746177          2.970641827505
      0.1873113696D+02  0.3349460434D-01
      0.2825394365D+01  0.2347269535D+00
      0.6401216923D+00  0.8137573261D+00
 Atom H32      Shell    94 S   1     bf  259 -   259          1.907042052489          7.986222746177          2.970641827505
      0.1612777588D+00  0.1000000000D+01
 Atom H33      Shell    95 S   3     bf  260 -   260          0.478604493710          9.033237037432          0.156234638714
      0.1873113696D+02  0.3349460434D-01
      0.2825394365D+01  0.2347269535D+00
      0.6401216923D+00  0.8137573261D+00
 Atom H33      Shell    96 S   1     bf  261 -   261          0.478604493710          9.033237037432          0.156234638714
      0.1612777588D+00  0.1000000000D+01
 Atom H34      Shell    97 S   3     bf  262 -   262          0.379510467836         10.939844566294          2.886726403184
      0.1873113696D+02  0.3349460434D-01
      0.2825394365D+01  0.2347269535D+00
      0.6401216923D+00  0.8137573261D+00
 Atom H34      Shell    98 S   1     bf  263 -   263          0.379510467836         10.939844566294          2.886726403184
      0.1612777588D+00  0.1000000000D+01
 Atom C35      Shell    99 S   6     bf  264 -   264          1.456700246131         -0.971260027183          6.528936212513
      0.3047524880D+04  0.1834737132D-02
      0.4573695180D+03  0.1403732281D-01
      0.1039486850D+03  0.6884262226D-01
      0.2921015530D+02  0.2321844432D+00
      0.9286662960D+01  0.4679413484D+00
      0.3163926960D+01  0.3623119853D+00
 Atom C35      Shell   100 SP   3    bf  265 -   268          1.456700246131         -0.971260027183          6.528936212513
      0.7868272350D+01 -0.1193324198D+00  0.6899906659D-01
      0.1881288540D+01 -0.1608541517D+00  0.3164239610D+00
      0.5442492580D+00  0.1143456438D+01  0.7443082909D+00
 Atom C35      Shell   101 SP   1    bf  269 -   272          1.456700246131         -0.971260027183          6.528936212513
      0.1687144782D+00  0.1000000000D+01  0.1000000000D+01
 Atom C35      Shell   102 D   1     bf  273 -   278          1.456700246131         -0.971260027183          6.528936212513
      0.8000000000D+00  0.1000000000D+01
 Atom C36      Shell   103 S   6     bf  279 -   279          0.582602245515          1.372579748730         10.549022840334
      0.3047524880D+04  0.1834737132D-02
      0.4573695180D+03  0.1403732281D-01
      0.1039486850D+03  0.6884262226D-01
      0.2921015530D+02  0.2321844432D+00
      0.9286662960D+01  0.4679413484D+00
      0.3163926960D+01  0.3623119853D+00
 Atom C36      Shell   104 SP   3    bf  280 -   283          0.582602245515          1.372579748730         10.549022840334
      0.7868272350D+01 -0.1193324198D+00  0.6899906659D-01
      0.1881288540D+01 -0.1608541517D+00  0.3164239610D+00
      0.5442492580D+00  0.1143456438D+01  0.7443082909D+00
 Atom C36      Shell   105 SP   1    bf  284 -   287          0.582602245515          1.372579748730         10.549022840334
      0.1687144782D+00  0.1000000000D+01  0.1000000000D+01
 Atom C36      Shell   106 D   1     bf  288 -   293          0.582602245515          1.372579748730         10.549022840334
      0.8000000000D+00  0.1000000000D+01
 Atom H37      Shell   107 S   3     bf  294 -   294         -1.438809547427          0.900754571933         10.598495662623
      0.1873113696D+02  0.3349460434D-01
      0.2825394365D+01  0.2347269535D+00
      0.6401216923D+00  0.8137573261D+00
 Atom H37      Shell   108 S   1     bf  295 -   295         -1.438809547427          0.900754571933         10.598495662623
      0.1612777588D+00  0.1000000000D+01
 Atom H38      Shell   109 S   3     bf  296 -   296          0.784011751197          3.191512299821         11.515283597033
      0.1873113696D+02  0.3349460434D-01
      0.2825394365D+01  0.2347269535D+00
      0.6401216923D+00  0.8137573261D+00
 Atom H38      Shell   110 S   1     bf  297 -   297          0.784011751197          3.191512299821         11.515283597033
      0.1612777588D+00  0.1000000000D+01
 Atom C39      Shell   111 S   6     bf  298 -   298          0.401487037898         -1.474929923909          4.280503266638
      0.3047524880D+04  0.1834737132D-02
      0.4573695180D+03  0.1403732281D-01
[...]
 **** Fit       0.014692
 **** Fit       0.014312
 **** Fit       0.013834
 **** Fit       0.013224
 **** Fit       0.012473
 **** Fit       0.011608
 **** Fit       0.008740
 **** Fit       0.008531
 **** Fit       0.008274
 **** Fit       0.008015
 **** Fit       0.007844
 **** Fit       0.007904
 **** Fit       0.008354
 **** Fit       0.009284
 **** Fit       0.010587
 **** Fit       0.011928
 **** Fit       0.012914
 **** Fit       0.013375
 **** Fit       0.013432
 **** Fit       0.013294
 **** Fit       0.013083
 **** Fit       0.012813
 **** Fit       0.012452
 **** Fit       0.011971
 **** Fit       0.011364
 **** Fit       0.010654
 **** Fit       0.008743
 **** Fit       0.008540
 **** Fit       0.008244
 **** Fit       0.007888
 **** Fit       0.007551
 **** Fit       0.007372
 **** Fit       0.007514
 **** Fit       0.008077
 **** Fit       0.008992
 **** Fit       0.010010
 **** Fit       0.010831
 **** Fit       0.011312
 **** Fit       0.011513
 **** Fit       0.011560
 **** Fit       0.011524
 **** Fit       0.011406
 **** Fit       0.011181
 **** Fit       0.008734
 **** Fit       0.008672
 **** Fit       0.008495
 **** Fit       0.008195
 **** Fit       0.007789
 **** Fit       0.007344
 **** Fit       0.006988
 **** Fit       0.006875
 **** Fit       0.007103
 **** Fit       0.007638
 **** Fit       0.008321
 **** Fit       0.008960
 **** Fit       0.009449
 **** Fit       0.009788
 **** Fit       0.010016
 **** Fit       0.010148
 **** Fit       0.010172
 **** Fit       0.010070
 **** Fit       0.008528
 **** Fit       0.008512
 **** Fit       0.008373
 **** Fit       0.008094
 **** Fit       0.007681
 **** Fit       0.007192
 **** Fit       0.006739
 **** Fit       0.006462
 **** Fit       0.006454
 **** Fit       0.006706
 **** Fit       0.007127
 **** Fit       0.007606
 **** Fit       0.008067
 **** Fit       0.008477
 **** Fit       0.008813
 **** Fit       0.009051
 **** Fit       0.009168
 **** Fit       0.009151
 **** Fit       0.008236
 **** Fit       0.008261
 **** Fit       0.008161
 **** Fit       0.007916
 **** Fit       0.007530
 **** Fit       0.007050
 **** Fit       0.006575
 **** Fit       0.006228
 **** Fit       0.006092
 **** Fit       0.006179
 **** Fit       0.006438
 **** Fit       0.006803
 **** Fit       0.007216
 **** Fit       0.007626
 **** Fit       0.007986
 **** Fit       0.008255
 **** Fit       0.008405
 **** Fit       0.007927
 **** Fit       0.007863
 **** Fit       0.007661
 **** Fit       0.007325
 **** Fit       0.006894
 **** Fit       0.006455
 **** Fit       0.006109
 **** Fit       0.005934
 **** Fit       0.005948
 **** Fit       0.006127
 **** Fit       0.006421
 **** Fit       0.006780
 **** Fit       0.007148
 **** Fit       0.007473
 **** Fit       0.007715
 **** Fit       0.007850
 **** Fit       0.007531
 **** Fit       0.007502
 **** Fit       0.007348
 **** Fit       0.007076
 **** Fit       0.006721
 **** Fit       0.006353
 **** Fit       0.006057
 **** Fit       0.005897
 **** Fit       0.005898
 **** Fit       0.006043
 **** Fit       0.006293
 **** Fit       0.006598
 **** Fit       0.006904
 **** Fit       0.007166
 **** Fit       0.007352
 **** Fit       0.007103
 **** Fit       0.007001
 **** Fit       0.006801
 **** Fit       0.006534
 **** Fit       0.006257
 **** Fit       0.006034
 **** Fit       0.005918
 **** Fit       0.005931
 **** Fit       0.006062
 **** Fit       0.006277
 **** Fit       0.006528
 **** Fit       0.006769
 **** Fit       0.006961
 **** Fit       0.007084
 **** Fit       0.006514
 **** Fit       0.006335
 **** Fit       0.006149
 **** Fit       0.006004
 **** Fit       0.005939
 **** Fit       0.005972
 **** Fit       0.006094
 **** Fit       0.006275
 **** Fit       0.006474
 **** Fit       0.006652
 **** Fit       0.006782
 **** Fit       0.005972
 **** Fit       0.006083
 **** Fit       0.006230
 **** Fit       0.006381
 **** Fit       0.006507
 **** Fit       0.009099
 **** Fit       0.009520
 **** Fit       0.009641
 **** Fit       0.009406
 **** Fit       0.008821
 **** Fit       0.010795
 **** Fit       0.011666
 **** Fit       0.012265
 **** Fit       0.012460
 **** Fit       0.012175
 **** Fit       0.011420
 **** Fit       0.010292
 **** Fit       0.008940
 **** Fit       0.011913
 **** Fit       0.013185
 **** Fit       0.014302
 **** Fit       0.015078
 **** Fit       0.015343
 **** Fit       0.014996
 **** Fit       0.014056
 **** Fit       0.012654
 **** Fit       0.010982
 **** Fit       0.013946
 **** Fit       0.015452
 **** Fit       0.016775
 **** Fit       0.017697
 **** Fit       0.018008
 **** Fit       0.017593
 **** Fit       0.016475
 **** Fit       0.014818
 **** Fit       0.012856
 **** Fit       0.010821
 **** Fit       0.008685
 **** Fit       0.009790
 **** Fit       0.011058
 **** Fit       0.012489
 **** Fit       0.014067
 **** Fit       0.015740
 **** Fit       0.017393
 **** Fit       0.018838
 **** Fit       0.019835
 **** Fit       0.020154
 **** Fit       0.019667
 **** Fit       0.018407
 **** Fit       0.016557
 **** Fit       0.014380
 **** Fit       0.012133
 **** Fit       0.008567
 **** Fit       0.009640
 **** Fit       0.010872
 **** Fit       0.012256
 **** Fit       0.013784
 **** Fit       0.015436
 **** Fit       0.017160
 **** Fit       0.018842
 **** Fit       0.020294
 **** Fit       0.021273
 **** Fit       0.021549
 **** Fit       0.020995
 **** Fit       0.019648
 **** Fit       0.017699
 **** Fit       0.015418
 **** Fit       0.013067
 **** Fit       0.008316
 **** Fit       0.009326
 **** Fit       0.010503
 **** Fit       0.011828
 **** Fit       0.013278
 **** Fit       0.014832
 **** Fit       0.016465
 **** Fit       0.018129
 **** Fit       0.019719
 **** Fit       0.021059
 **** Fit       0.021926
 **** Fit       0.022109
 **** Fit       0.021498
 **** Fit       0.020129
 **** Fit       0.018185
 **** Fit       0.015918
 **** Fit       0.013579
 **** Fit       0.008891
 **** Fit       0.009975
 **** Fit       0.011226
 **** Fit       0.012606
 **** Fit       0.014071
 **** Fit       0.015587
 **** Fit       0.017124
 **** Fit       0.018636
 **** Fit       0.020036
 **** Fit       0.021173
 **** Fit       0.021859
 **** Fit       0.021919
 **** Fit       0.021262
 **** Fit       0.019927
 **** Fit       0.018072
 **** Fit       0.015920
 **** Fit       0.008413
 **** Fit       0.009348
 **** Fit       0.010476
 **** Fit       0.011764
 **** Fit       0.013159
 **** Fit       0.014598
 **** Fit       0.016029
 **** Fit       0.017419
 **** Fit       0.018726
 **** Fit       0.019882
 **** Fit       0.020770
 **** Fit       0.021244
 **** Fit       0.021169
 **** Fit       0.020482
 **** Fit       0.019217
 **** Fit       0.017505
 **** Fit       0.015531
 **** Fit       0.009663
 **** Fit       0.010798
 **** Fit       0.012088
 **** Fit       0.013464
 **** Fit       0.014846
 **** Fit       0.016171
 **** Fit       0.017393
 **** Fit       0.018480
 **** Fit       0.019381
 **** Fit       0.020016
 **** Fit       0.020280
 **** Fit       0.020081
 **** Fit       0.019376
 **** Fit       0.018199
 **** Fit       0.009821
 **** Fit       0.010931
 **** Fit       0.012193
 **** Fit       0.013527
 **** Fit       0.014841
 **** Fit       0.016053
 **** Fit       0.017112
 **** Fit       0.017988
 **** Fit       0.018653
 **** Fit       0.009821
 **** Fit       0.010877
 **** Fit       0.012092
 **** Fit       0.013377
 **** Fit       0.014623
 **** Fit       0.015732
 **** Fit       0.016642
 **** Fit       0.017329
 **** Fit       0.017786
 **** Fit       0.017997
 **** Fit       0.008905
 **** Fit       0.009668
 **** Fit       0.010647
 **** Fit       0.011801
 **** Fit       0.013035
 **** Fit       0.014222
 **** Fit       0.015242
 **** Fit       0.016022
 **** Fit       0.016546
 **** Fit       0.016829
 **** Fit       0.016886
 **** Fit       0.016286
 **** Fit       0.015611
 **** Fit       0.008730
 **** Fit       0.009375
 **** Fit       0.010252
 **** Fit       0.011327
 **** Fit       0.012505
 **** Fit       0.013639
 **** Fit       0.014582
 **** Fit       0.015251
 **** Fit       0.015639
 **** Fit       0.015788
 **** Fit       0.015733
 **** Fit       0.015489
 **** Fit       0.015051
 **** Fit       0.014416
 **** Fit       0.008467
 **** Fit       0.008968
 **** Fit       0.009710
 **** Fit       0.010675
 **** Fit       0.011773
 **** Fit       0.012841
 **** Fit       0.013712
 **** Fit       0.014291
 **** Fit       0.014583
 **** Fit       0.014645
 **** Fit       0.014531
 **** Fit       0.014264
 **** Fit       0.008001
 **** Fit       0.008151
 **** Fit       0.008486
 **** Fit       0.009058
 **** Fit       0.009869
 **** Fit       0.010840
 **** Fit       0.011809
 **** Fit       0.012601
 **** Fit       0.013116
 **** Fit       0.013360
 **** Fit       0.013396
 **** Fit       0.013280
 **** Fit       0.013038
 **** Fit       0.007887
 **** Fit       0.007816
 **** Fit       0.007824
 **** Fit       0.007985
 **** Fit       0.008363
 **** Fit       0.008978
 **** Fit       0.009769
 **** Fit       0.010593
 **** Fit       0.011291
 **** Fit       0.011764
 **** Fit       0.012011
 **** Fit       0.012079
 **** Fit       0.012014
 **** Fit       0.011836
 **** Fit       0.007922
 **** Fit       0.007786
 **** Fit       0.007635
 **** Fit       0.007523
 **** Fit       0.007524
 **** Fit       0.007709
 **** Fit       0.008111
 **** Fit       0.008690
 **** Fit       0.009339
 **** Fit       0.009927
 **** Fit       0.010368
 **** Fit       0.010645
 **** Fit       0.010780
 **** Fit       0.010796
 **** Fit       0.010703
 **** Fit       0.007821
 **** Fit       0.007664
 **** Fit       0.007462
 **** Fit       0.007265
 **** Fit       0.007141
 **** Fit       0.007164
 **** Fit       0.007373
 **** Fit       0.007749
 **** Fit       0.008221
 **** Fit       0.008695
 **** Fit       0.009100
 **** Fit       0.009406
 **** Fit       0.009605
 **** Fit       0.009700
 **** Fit       0.009689
 **** Fit       0.007669
 **** Fit       0.007512
 **** Fit       0.007290
 **** Fit       0.007045
 **** Fit       0.006843
 **** Fit       0.006753
 **** Fit       0.006817
 **** Fit       0.007034
 **** Fit       0.007358
 **** Fit       0.007728
 **** Fit       0.008088
 **** Fit       0.008400
 **** Fit       0.008637
 **** Fit       0.008784
 **** Fit       0.008830
 **** Fit       0.007463
 **** Fit       0.007321
 **** Fit       0.007104
 **** Fit       0.006849
 **** Fit       0.006614
 **** Fit       0.006463
 **** Fit       0.006440
 **** Fit       0.006550
 **** Fit       0.006770
 **** Fit       0.007058
 **** Fit       0.007368
 **** Fit       0.007660
 **** Fit       0.007901
 **** Fit       0.008066
 **** Fit       0.007089
 **** Fit       0.006896
 **** Fit       0.006660
 **** Fit       0.006431
 **** Fit       0.006264
 **** Fit       0.006202
 **** Fit       0.006255
 **** Fit       0.006410
 **** Fit       0.006638
 **** Fit       0.006899
 **** Fit       0.007156
 **** Fit       0.007374
 **** Fit       0.006822
 **** Fit       0.006667
 **** Fit       0.006470
 **** Fit       0.006273
 **** Fit       0.006123
 **** Fit       0.006056
 **** Fit       0.006086
 **** Fit       0.006206
 **** Fit       0.006390
 **** Fit       0.006607
 **** Fit       0.006821
 **** Fit       0.006123
 **** Fit       0.006087
 **** Fit       0.006239
 **** Fit       0.006415
 **** Fit       0.012716
 **** Fit       0.012827
 **** Fit       0.012531
 **** Fit       0.011842
 **** Fit       0.014091
 **** Fit       0.014632
 **** Fit       0.014759
 **** Fit       0.014416
 **** Fit       0.013617
 **** Fit       0.012452
 **** Fit       0.015647
 **** Fit       0.016223
 **** Fit       0.016346
 **** Fit       0.015953
 **** Fit       0.015064
 **** Fit       0.013779
 **** Fit       0.016800
 **** Fit       0.017362
 **** Fit       0.017454
 **** Fit       0.017013
 **** Fit       0.016064
 **** Fit       0.014709
 **** Fit       0.010803
 **** Fit       0.011947
 **** Fit       0.013147
 **** Fit       0.017493
 **** Fit       0.017992
 **** Fit       0.018027
 **** Fit       0.017544
 **** Fit       0.016569
 **** Fit       0.015200
 **** Fit       0.010320
 **** Fit       0.011414
 **** Fit       0.012568
 **** Fit       0.013747
 **** Fit       0.014916
 **** Fit       0.018134
 **** Fit       0.018097
 **** Fit       0.017580
 **** Fit       0.016609
 **** Fit       0.010750
 **** Fit       0.011848
 **** Fit       0.012979
 **** Fit       0.014104
 **** Fit       0.015182
 **** Fit       0.011014
 **** Fit       0.012090
 **** Fit       0.013178
 **** Fit       0.014227
 **** Fit       0.015195
 **** Fit       0.011107
 **** Fit       0.012145
 **** Fit       0.013174
 **** Fit       0.014139
 **** Fit       0.014993
 **** Fit       0.011034
 **** Fit       0.012022
 **** Fit       0.012988
 **** Fit       0.013869
 **** Fit       0.014615
 **** Fit       0.015194
 **** Fit       0.009925
 **** Fit       0.010806
 **** Fit       0.011735
 **** Fit       0.012637
 **** Fit       0.013439
 **** Fit       0.014088
 **** Fit       0.014555
 **** Fit       0.014831
 **** Fit       0.008937
 **** Fit       0.009626
 **** Fit       0.010432
 **** Fit       0.011293
 **** Fit       0.012129
 **** Fit       0.012857
 **** Fit       0.013422
 **** Fit       0.013798
 **** Fit       0.013988
 **** Fit       0.013999
 **** Fit       0.008630
 **** Fit       0.009216
 **** Fit       0.009926
 **** Fit       0.010704
 **** Fit       0.011466
 **** Fit       0.012125
 **** Fit       0.012619
 **** Fit       0.012930
 **** Fit       0.013064
 **** Fit       0.013036
 **** Fit       0.008259
 **** Fit       0.008724
 **** Fit       0.009318
 **** Fit       0.009993
 **** Fit       0.010667
 **** Fit       0.011254
 **** Fit       0.011693
 **** Fit       0.011963
 **** Fit       0.012073
 **** Fit       0.012040
 **** Fit       0.007861
 **** Fit       0.008195
 **** Fit       0.008657
 **** Fit       0.009209
 **** Fit       0.009780
 **** Fit       0.010292
 **** Fit       0.010685
 **** Fit       0.010936
 **** Fit       0.011050
 **** Fit       0.011038
 **** Fit       0.007472
 **** Fit       0.007679
 **** Fit       0.008006
 **** Fit       0.008426
 **** Fit       0.008886
 **** Fit       0.009318
 **** Fit       0.009670
 **** Fit       0.009915
 **** Fit       0.010048
 **** Fit       0.010074
 **** Fit       0.007113
 **** Fit       0.007121
 **** Fit       0.007218
 **** Fit       0.007422
 **** Fit       0.007719
 **** Fit       0.008070
 **** Fit       0.008424
 **** Fit       0.008736
 **** Fit       0.008975
 **** Fit       0.009129
 **** Fit       0.009192
 **** Fit       0.006873
 **** Fit       0.006818
 **** Fit       0.006834
 **** Fit       0.006941
 **** Fit       0.007136
 **** Fit       0.007394
 **** Fit       0.007677
 **** Fit       0.007947
 **** Fit       0.008175
 **** Fit       0.008339
 **** Fit       0.006570
 **** Fit       0.006691
 **** Fit       0.006877
 **** Fit       0.007100
 **** Fit       0.007330
 **** Fit       0.007536
 **** Fit       0.010281
 **** Fit       0.010918
 **** Fit       0.011487
 **** Fit       0.011947
 **** Fit       0.009238
 **** Fit       0.009822
 **** Fit       0.010394
 **** Fit       0.010901
 **** Fit       0.011305
 **** Fit       0.011582
 **** Fit       0.008775
 **** Fit       0.009279
 **** Fit       0.009780
 **** Fit       0.010227
 **** Fit       0.010582
 **** Fit       0.010823
 **** Fit       0.007902
 **** Fit       0.008271
 **** Fit       0.008689
 **** Fit       0.009113
 **** Fit       0.009500
 **** Fit       0.009813
 **** Fit       0.010029
 **** Fit       0.007766
 **** Fit       0.008094
 **** Fit       0.008442
 **** Fit       0.008769
 **** Fit       0.009044
 **** Fit       0.009242
 **** Fit       0.007294
 **** Fit       0.007540
 **** Fit       0.007814
 **** Fit       0.008085
 **** Fit       0.008323
 **** Fit       0.007266
 **** Fit       0.007486
 -----------------------------------------------------------------
 Leave Link  602 at Wed May 17 13:06:50 2017, MaxMem=    33554432 cpu:        37.7
 (Enter /home/michal/g09/l9999.exe)

 Test job not archived.
 1\1\GINC-LINUX\SP\RHF\6-31G(d)\C27H46O2\MICHAL\17-May-2017\0\\#P HF/6-
 31G* SCF(Conver=6) NoSymm Test Pop=chelpg IOp(6/33=2) GFInput GFPrint\
 \MEP - Input generated by R.E.D.-III.x MOLECULE\\0,1\O,0,0.,0.,0.\H,0,
 0.96763231,0.,0.\O,0,1.64342535,-2.74315478,6.41150769\H,0,2.58214216,
 -2.51612221,6.47007333\C,0,-1.19473538,4.10536489,1.59797128\C,0,-1.28
 797394,2.61055137,1.17331867\H,0,-2.25918382,2.26371761,1.56749979\C,0
 ,-0.23780093,1.67915347,1.8049988\H,0,0.76760951,1.97909708,1.47459668
 \C,0,-0.32185321,1.77481395,3.35393696\H,0,-1.30373486,1.35263776,3.62
 450507\C,0,-2.3832844,4.70255604,0.7655446\H,0,-3.30349957,4.38281146,
 1.28032538\C,0,-1.35534626,4.13998656,3.13097111\H,0,-2.36941594,3.799
 40209,3.38575466\H,0,-1.26068913,5.15554951,3.52769961\C,0,0.73657526,
 0.88075306,4.08924538\C,0,-1.43566787,2.6625621,-0.35504949\H,0,-1.891
 4669,1.7570459,-0.76200084\H,0,-0.4551914,2.75049372,-0.83498031\C,0,-
 0.32133605,3.24285776,3.83764893\H,0,0.67397919,3.67848229,3.69788866\
 H,0,-0.51529045,3.27437582,4.91553676\C,0,-2.2976633,3.93062399,-0.595
 13985\H,0,-1.8489599,4.56681391,-1.36770139\H,0,-3.29617924,3.66683065
 ,-0.95687689\C,0,-0.4427316,0.21964551,1.3542626\H,0,-1.52086288,0.010
 81478,1.30437882\C,0,-2.49294946,6.23787092,0.57314657\H,0,-1.61290038
 ,6.56810719,0.\C,0,0.14114782,4.75568806,1.17060273\H,0,1.00916319,4.2
 2612706,1.57199595\H,0,0.25326659,4.78018316,0.08267581\H,0,0.20082829
 ,5.78911641,1.52758982\C,0,0.77085257,-0.51396867,3.45496424\C,0,0.308
 29983,0.72633792,5.58230246\H,0,-0.76138522,0.47665879,5.60848235\H,0,
 0.41488115,1.68887557,6.09362563\C,0,0.21245779,-0.7804993,2.26514477\
 H,0,0.2377567,-1.79813739,1.87546819\C,0,2.15941691,1.49723185,4.01926
 09\H,0,2.22625707,2.41429936,4.61262835\H,0,2.91525461,0.80821911,4.40
 506172\H,0,2.43775498,1.73618548,2.98826532\C,0,1.46404996,-1.61395452
 ,4.2368853\H,0,1.33220712,-2.57708117,3.73416446\H,0,2.54849811,-1.420
 11569,4.26949036\C,0,1.07325431,-0.34896796,6.36940698\H,0,2.13504144,
 -0.07612576,6.46183519\H,0,0.6778531,-0.41829881,7.3891555\C,0,-3.7431
 8861,6.58071833,-0.2754598\H,0,-3.76142954,5.94216966,-1.16633615\H,0,
 -4.63891872,6.31732522,0.30567363\C,0,0.96710395,-1.71236665,5.6868315
 9\H,0,-0.08217858,-2.03182359,5.68273284\C,0,-2.5169637,7.02050512,1.8
 9799793\H,0,-3.33439733,6.67424049,2.54322074\H,0,-2.6637253,8.0903841
 3,1.72276995\H,0,-1.58459529,6.91577869,2.45701948\C,0,-3.83263001,8.0
 4210494,-0.74739527\H,0,-3.97089889,8.7158009,0.10603253\H,0,-2.870395
 99,8.32353564,-1.19849577\C,0,-4.93769842,8.30043182,-1.78841322\H,0,-
 4.74032116,7.67392768,-2.67031402\H,0,-4.85923753,9.34230499,-2.133091
 12\C,0,-6.3914514,8.05308538,-1.3319533\H,0,-6.47597898,7.00681353,-1.
 00488771\C,0,-7.35755169,8.2457046,-2.51189754\H,0,-7.32186772,9.27851
 795,-2.88196906\H,0,-8.39210056,8.0339102,-2.21845209\H,0,-7.10389823,
 7.58406807,-3.34813892\C,0,-6.79682483,8.95029167,-0.15171893\H,0,-6.7
 056635,10.01106623,-0.41968572\H,0,-7.83852862,8.76971598,0.13709776\H
 ,0,-6.17557994,8.77569365,0.73273539\\Version=EM64L-G09RevD.01\HF=-119
 8.9275404\RMSD=4.810e-07\Dipole=0.6939069,0.7201984,0.3719765\Quadrupo
 le=6.7100319,-4.6673214,-2.0427105,1.2513408,2.6137126,9.2046532\PG=C0
 1 [X(C27H46O2)]\\@


 THE CHYMISTS ARE A STRANGE CLASS OF MORTALS IMPELLED
 BY AN ALMOST INSANE IMPULSE TO SEEK THEIR PLEASURE
 AMONG SMOKE AND VAPOR, SOOT AND FLAME, POISONS AND
 POVERTY; YET AMONG ALL THESE EVILS I SEEM TO LIVE
 SO SWEETLY, THAT I MAY DIE IF I WOULD CHANGE PLACES
 WITH THE PERSIAN KING.
   --  JOHANN JOACHIM BECHER, 1635-1682
 ACTA LABORATORII CHYMICA MONACENSIS, 1669
 Job cpu time:       0 days  0 hours 11 minutes 48.9 seconds.
 File lengths (MBytes):  RWF=    150 Int=      0 D2E=      0 Chk=     11 Scr=      1
 Normal termination of Gaussian 09 at Wed May 17 13:06:50 2017.
