 Entering Gaussian System, Link 0=/home/michal/g09/g09
 Input=JOB2-gau_m1-12-2.com
 Output=JOB2-gau_m1-12-2.log
 Initial command:
 /home/michal/g09/l1.exe "/home/michal/gauss_scratch/Gau-2499.inp" -scrdir="/home/michal/gauss_scratch/"
 Entering Link 1 = /home/michal/g09/l1.exe PID=      2500.
  
 Copyright (c) 1988,1990,1992,1993,1995,1998,2003,2009,2013,
            Gaussian, Inc.  All Rights Reserved.
  
 This is part of the Gaussian(R) 09 program.  It is based on
 the Gaussian(R) 03 system (copyright 2003, Gaussian, Inc.),
 the Gaussian(R) 98 system (copyright 1998, Gaussian, Inc.),
 the Gaussian(R) 94 system (copyright 1995, Gaussian, Inc.),
 the Gaussian 92(TM) system (copyright 1992, Gaussian, Inc.),
 the Gaussian 90(TM) system (copyright 1990, Gaussian, Inc.),
 the Gaussian 88(TM) system (copyright 1988, Gaussian, Inc.),
 the Gaussian 86(TM) system (copyright 1986, Carnegie Mellon
 University), and the Gaussian 82(TM) system (copyright 1983,
 Carnegie Mellon University). Gaussian is a federally registered
 trademark of Gaussian, Inc.
  
 This software contains proprietary and confidential information,
 including trade secrets, belonging to Gaussian, Inc.
  
 This software is provided under written license and may be
 used, copied, transmitted, or stored only in accord with that
 written license.
  
 The following legend is applicable only to US Government
 contracts under FAR:
  
                    RESTRICTED RIGHTS LEGEND
  
 Use, reproduction and disclosure by the US Government is
 subject to restrictions as set forth in subparagraphs (a)
 and (c) of the Commercial Computer Software - Restricted
 Rights clause in FAR 52.227-19.
  
 Gaussian, Inc.
 340 Quinnipiac St., Bldg. 40, Wallingford CT 06492
  
  
 ---------------------------------------------------------------
 Warning -- This program may not be used in any manner that
 competes with the business of Gaussian, Inc. or will provide
 assistance to any competitor of Gaussian, Inc.  The licensee
 of this program is prohibited from giving any competitor of
 Gaussian, Inc. access to this program.  By using this program,
 the user acknowledges that Gaussian, Inc. is engaged in the
 business of creating and licensing software in the field of
 computational chemistry and represents and warrants to the
 licensee that it is not a competitor of Gaussian, Inc. and that
 it will not use this program in any manner prohibited above.
 ---------------------------------------------------------------
  

 Cite this work as:
 Gaussian 09, Revision D.01,
 M. J. Frisch, G. W. Trucks, H. B. Schlegel, G. E. Scuseria, 
 M. A. Robb, J. R. Cheeseman, G. Scalmani, V. Barone, B. Mennucci, 
 G. A. Petersson, H. Nakatsuji, M. Caricato, X. Li, H. P. Hratchian, 
 A. F. Izmaylov, J. Bloino, G. Zheng, J. L. Sonnenberg, M. Hada, 
 M. Ehara, K. Toyota, R. Fukuda, J. Hasegawa, M. Ishida, T. Nakajima, 
 Y. Honda, O. Kitao, H. Nakai, T. Vreven, J. A. Montgomery, Jr., 
 J. E. Peralta, F. Ogliaro, M. Bearpark, J. J. Heyd, E. Brothers, 
 K. N. Kudin, V. N. Staroverov, T. Keith, R. Kobayashi, J. Normand, 
 K. Raghavachari, A. Rendell, J. C. Burant, S. S. Iyengar, J. Tomasi, 
 M. Cossi, N. Rega, J. M. Millam, M. Klene, J. E. Knox, J. B. Cross, 
 V. Bakken, C. Adamo, J. Jaramillo, R. Gomperts, R. E. Stratmann, 
 O. Yazyev, A. J. Austin, R. Cammi, C. Pomelli, J. W. Ochterski, 
 R. L. Martin, K. Morokuma, V. G. Zakrzewski, G. A. Voth, 
 P. Salvador, J. J. Dannenberg, S. Dapprich, A. D. Daniels, 
 O. Farkas, J. B. Foresman, J. V. Ortiz, J. Cioslowski, 
 and D. J. Fox, Gaussian, Inc., Wallingford CT, 2013.
 
 ******************************************
 Gaussian 09:  EM64L-G09RevD.01 24-Apr-2013
                17-May-2017 
 ******************************************
 %Mem=256MB
 %NProc=12
 Will use up to   12 processors via shared memory.
 ----------------------------------------------------------------------
 #P HF/6-31G* SCF(Conver=6) NoSymm Test Pop=chelpg IOp(6/33=2) GFInput 
 GFPrint
 ----------------------------------------------------------------------
 1/38=1/1;
 2/12=2,15=1,17=6,18=5,40=1/2;
 3/5=1,6=6,7=1,11=9,16=1,24=110,25=1,30=1/1,2,3;
 4//1;
 5/5=2,6=6,38=5/2;
 6/7=2,8=2,9=2,10=2,15=8,20=3,28=1,33=2/1,2;
 99/5=1,9=1/99;
 Leave Link    1 at Wed May 17 12:14:11 2017, MaxMem=    33554432 cpu:         0.6
 (Enter /home/michal/g09/l101.exe)
 ----------------------------------------------
 MEP - Input generated by R.E.D.-III.x MOLECULE
 ----------------------------------------------
 Symbolic Z-matrix:
 Charge =  0 Multiplicity = 1
 O                     7.12446   0.87831   0. 
 H                     7.53055   0.        0. 
 O                     8.69907  -0.15769  -6.91451 
 H                     8.87404  -1.10926  -6.92325 
 C                     2.66476   0.10429  -0.48935 
 C                     4.02491   0.84952  -0.44648 
 H                     3.82734   1.83263  -0.90735 
 C                     5.13043   0.21725  -1.30874 
 H                     5.37088  -0.78573  -0.92668 
 C                     4.63795   0.10808  -2.78207 
 H                     4.54359   1.14751  -3.13734 
 C                     1.83532   1.01574   0.46845 
 H                     1.70841   1.94991  -0.09797 
 C                     2.18218   0.10324  -1.94925 
 H                     1.98925   1.14077  -2.2583 
 H                     1.23185  -0.43699  -2.05545 
 C                     5.68831  -0.56629  -3.73329 
 C                     4.2589    1.11525   1.05422 
 H                     4.9189    1.96918   1.22398 
 H                     4.74668   0.25725   1.52856 
 C                     3.22784  -0.52471  -2.89128 
 H                     3.28621  -1.59867  -2.6865 
 H                     2.86775  -0.43434  -3.92195 
 C                     2.82622   1.33493   1.63084 
 H                     2.65853   0.68073   2.49103 
 H                     2.6884    2.35958   1.99196 
 C                     6.42859   1.04485  -1.25109 
 H                     6.16918   2.11316  -1.25528 
 C                     0.39371   0.57209   0.85435 
 H                     0.        0.        0. 
 C                     2.76634  -1.34377   0.03902 
 H                     3.45465  -1.95167  -0.5539 
 H                     3.11624  -1.38221   1.07419 
 H                     1.78823  -1.83533  -0.00073 
 C                     7.07904   0.02578  -3.47768 
 C                     5.29312  -0.25958  -5.21191 
 H                     5.06218   0.81178  -5.29047 
 H                     4.3711   -0.79505  -5.46138 
 C                     7.36459   0.75893  -2.39164 
 H                     8.3617    1.18398  -2.27686 
 C                     5.75335  -2.10282  -3.52204 
 H                     4.83614  -2.59208  -3.86394 
 H                     6.58227  -2.54991  -4.07688 
 H                     5.90078  -2.35204  -2.46675 
 C                     8.1475   -0.2394   -4.52168 
 H                     9.05892   0.31636  -4.28054 
 H                     8.41756  -1.30788  -4.51492 
 C                     6.36885  -0.59851  -6.25553 
 H                     6.54672  -1.68378  -6.28617 
 H                     6.02446  -0.30931  -7.25492 
 C                     0.28517  -0.33756   2.1018 
 H                     1.11373  -1.05338   2.12392 
 H                     0.39746   0.28175   3.00133 
 C                     7.68497   0.11286  -5.94319 
 H                     7.53261   1.19704  -6.00953 
 C                    -0.5079    1.81317   1.01712 
 H                    -0.13333   2.46413   1.81702 
 H                    -1.53837   1.54095   1.26695 
 H                    -0.5382    2.40374   0.09472 
 C                    -1.02879  -1.13398   2.18021 
 H                    -1.8861   -0.45148   2.22305 
 H                    -1.14787  -1.70201   1.24662 
 C                    -1.0998   -2.12955   3.35272 
 H                    -0.26862  -2.84306   3.25543 
 H                    -2.02101  -2.72296   3.25397 
 C                    -1.06416  -1.533     4.77612 
 H                    -0.13606  -0.95369   4.88415 
 C                    -1.02733  -2.65922   5.82167 
 H                    -1.93522  -3.27374   5.76669 
 H                    -0.96035  -2.25644   6.83876 
 H                    -0.16781  -3.32135   5.66583 
 C                    -2.24473  -0.58645   5.04536 
 H                    -3.20076  -1.11283   4.92578 
 H                    -2.20714  -0.19553   6.06852 
 H                    -2.24973   0.27185   4.36579 
 
 NAtoms=     75 NQM=       75 NQMF=       0 NMMI=      0 NMMIF=      0
                NMic=       0 NMicF=      0.
                    Isotopes and Nuclear Properties:
 (Nuclear quadrupole moments (NQMom) in fm**2, nuclear magnetic moments (NMagM)
  in nuclear magnetons)

  Atom         1           2           3           4           5           6           7           8           9          10
 IAtWgt=          16           1          16           1          12          12           1          12           1          12
 AtmWgt=  15.9949146   1.0078250  15.9949146   1.0078250  12.0000000  12.0000000   1.0078250  12.0000000   1.0078250  12.0000000
 NucSpn=           0           1           0           1           0           0           1           0           1           0
 AtZEff=   0.0000000   0.0000000   0.0000000   0.0000000   0.0000000   0.0000000   0.0000000   0.0000000   0.0000000   0.0000000
 NQMom=    0.0000000   0.0000000   0.0000000   0.0000000   0.0000000   0.0000000   0.0000000   0.0000000   0.0000000   0.0000000
 NMagM=    0.0000000   2.7928460   0.0000000   2.7928460   0.0000000   0.0000000   2.7928460   0.0000000   2.7928460   0.0000000
 AtZNuc=   8.0000000   1.0000000   8.0000000   1.0000000   6.0000000   6.0000000   1.0000000   6.0000000   1.0000000   6.0000000

  Atom        11          12          13          14          15          16          17          18          19          20
 IAtWgt=           1          12           1          12           1           1          12          12           1           1
 AtmWgt=   1.0078250  12.0000000   1.0078250  12.0000000   1.0078250   1.0078250  12.0000000  12.0000000   1.0078250   1.0078250
 NucSpn=           1           0           1           0           1           1           0           0           1           1
 AtZEff=   0.0000000   0.0000000   0.0000000   0.0000000   0.0000000   0.0000000   0.0000000   0.0000000   0.0000000   0.0000000
 NQMom=    0.0000000   0.0000000   0.0000000   0.0000000   0.0000000   0.0000000   0.0000000   0.0000000   0.0000000   0.0000000
 NMagM=    2.7928460   0.0000000   2.7928460   0.0000000   2.7928460   2.7928460   0.0000000   0.0000000   2.7928460   2.7928460
 AtZNuc=   1.0000000   6.0000000   1.0000000   6.0000000   1.0000000   1.0000000   6.0000000   6.0000000   1.0000000   1.0000000

  Atom        21          22          23          24          25          26          27          28          29          30
 IAtWgt=          12           1           1          12           1           1          12           1          12           1
 AtmWgt=  12.0000000   1.0078250   1.0078250  12.0000000   1.0078250   1.0078250  12.0000000   1.0078250  12.0000000   1.0078250
 NucSpn=           0           1           1           0           1           1           0           1           0           1
 AtZEff=   0.0000000   0.0000000   0.0000000   0.0000000   0.0000000   0.0000000   0.0000000   0.0000000   0.0000000   0.0000000
 NQMom=    0.0000000   0.0000000   0.0000000   0.0000000   0.0000000   0.0000000   0.0000000   0.0000000   0.0000000   0.0000000
 NMagM=    0.0000000   2.7928460   2.7928460   0.0000000   2.7928460   2.7928460   0.0000000   2.7928460   0.0000000   2.7928460
 AtZNuc=   6.0000000   1.0000000   1.0000000   6.0000000   1.0000000   1.0000000   6.0000000   1.0000000   6.0000000   1.0000000

  Atom        31          32          33          34          35          36          37          38          39          40
 IAtWgt=          12           1           1           1          12          12           1           1          12           1
 AtmWgt=  12.0000000   1.0078250   1.0078250   1.0078250  12.0000000  12.0000000   1.0078250   1.0078250  12.0000000   1.0078250
 NucSpn=           0           1           1           1           0           0           1           1           0           1
 AtZEff=   0.0000000   0.0000000   0.0000000   0.0000000   0.0000000   0.0000000   0.0000000   0.0000000   0.0000000   0.0000000
 NQMom=    0.0000000   0.0000000   0.0000000   0.0000000   0.0000000   0.0000000   0.0000000   0.0000000   0.0000000   0.0000000
 NMagM=    0.0000000   2.7928460   2.7928460   2.7928460   0.0000000   0.0000000   2.7928460   2.7928460   0.0000000   2.7928460
 AtZNuc=   6.0000000   1.0000000   1.0000000   1.0000000   6.0000000   6.0000000   1.0000000   1.0000000   6.0000000   1.0000000

  Atom        41          42          43          44          45          46          47          48          49          50
 IAtWgt=          12           1           1           1          12           1           1          12           1           1
 AtmWgt=  12.0000000   1.0078250   1.0078250   1.0078250  12.0000000   1.0078250   1.0078250  12.0000000   1.0078250   1.0078250
 NucSpn=           0           1           1           1           0           1           1           0           1           1
 AtZEff=   0.0000000   0.0000000   0.0000000   0.0000000   0.0000000   0.0000000   0.0000000   0.0000000   0.0000000   0.0000000
 NQMom=    0.0000000   0.0000000   0.0000000   0.0000000   0.0000000   0.0000000   0.0000000   0.0000000   0.0000000   0.0000000
 NMagM=    0.0000000   2.7928460   2.7928460   2.7928460   0.0000000   2.7928460   2.7928460   0.0000000   2.7928460   2.7928460
 AtZNuc=   6.0000000   1.0000000   1.0000000   1.0000000   6.0000000   1.0000000   1.0000000   6.0000000   1.0000000   1.0000000

  Atom        51          52          53          54          55          56          57          58          59          60
 IAtWgt=          12           1           1          12           1          12           1           1           1          12
 AtmWgt=  12.0000000   1.0078250   1.0078250  12.0000000   1.0078250  12.0000000   1.0078250   1.0078250   1.0078250  12.0000000
 NucSpn=           0           1           1           0           1           0           1           1           1           0
 AtZEff=   0.0000000   0.0000000   0.0000000   0.0000000   0.0000000   0.0000000   0.0000000   0.0000000   0.0000000   0.0000000
 NQMom=    0.0000000   0.0000000   0.0000000   0.0000000   0.0000000   0.0000000   0.0000000   0.0000000   0.0000000   0.0000000
 NMagM=    0.0000000   2.7928460   2.7928460   0.0000000   2.7928460   0.0000000   2.7928460   2.7928460   2.7928460   0.0000000
 AtZNuc=   6.0000000   1.0000000   1.0000000   6.0000000   1.0000000   6.0000000   1.0000000   1.0000000   1.0000000   6.0000000

  Atom        61          62          63          64          65          66          67          68          69          70
 IAtWgt=           1           1          12           1           1          12           1          12           1           1
 AtmWgt=   1.0078250   1.0078250  12.0000000   1.0078250   1.0078250  12.0000000   1.0078250  12.0000000   1.0078250   1.0078250
 NucSpn=           1           1           0           1           1           0           1           0           1           1
 AtZEff=   0.0000000   0.0000000   0.0000000   0.0000000   0.0000000   0.0000000   0.0000000   0.0000000   0.0000000   0.0000000
 NQMom=    0.0000000   0.0000000   0.0000000   0.0000000   0.0000000   0.0000000   0.0000000   0.0000000   0.0000000   0.0000000
 NMagM=    2.7928460   2.7928460   0.0000000   2.7928460   2.7928460   0.0000000   2.7928460   0.0000000   2.7928460   2.7928460
 AtZNuc=   1.0000000   1.0000000   6.0000000   1.0000000   1.0000000   6.0000000   1.0000000   6.0000000   1.0000000   1.0000000

  Atom        71          72          73          74          75
 IAtWgt=           1          12           1           1           1
 AtmWgt=   1.0078250  12.0000000   1.0078250   1.0078250   1.0078250
 NucSpn=           1           0           1           1           1
 AtZEff=   0.0000000   0.0000000   0.0000000   0.0000000   0.0000000
 NQMom=    0.0000000   0.0000000   0.0000000   0.0000000   0.0000000
 NMagM=    2.7928460   0.0000000   2.7928460   2.7928460   2.7928460
 AtZNuc=   1.0000000   6.0000000   1.0000000   1.0000000   1.0000000
 Leave Link  101 at Wed May 17 12:14:11 2017, MaxMem=    33554432 cpu:         1.0
 (Enter /home/michal/g09/l202.exe)
 Symmetry turned off by external request.
 Stoichiometry    C27H46O2
 Framework group  C1[X(C27H46O2)]
 Deg. of freedom   219
 Full point group                 C1      NOp   1
                          Input orientation:                          
 ---------------------------------------------------------------------
 Center     Atomic      Atomic             Coordinates (Angstroms)
 Number     Number       Type             X           Y           Z
 ---------------------------------------------------------------------
      1          8           0        7.124463    0.878305    0.000000
      2          1           0        7.530547    0.000000    0.000000
      3          8           0        8.699073   -0.157693   -6.914507
      4          1           0        8.874045   -1.109259   -6.923250
      5          6           0        2.664763    0.104287   -0.489350
      6          6           0        4.024912    0.849516   -0.446477
      7          1           0        3.827343    1.832630   -0.907348
      8          6           0        5.130427    0.217248   -1.308740
      9          1           0        5.370884   -0.785726   -0.926679
     10          6           0        4.637946    0.108081   -2.782073
     11          1           0        4.543592    1.147511   -3.137344
     12          6           0        1.835324    1.015744    0.468448
     13          1           0        1.708410    1.949909   -0.097970
     14          6           0        2.182183    0.103243   -1.949254
     15          1           0        1.989255    1.140765   -2.258304
     16          1           0        1.231847   -0.436987   -2.055445
     17          6           0        5.688307   -0.566286   -3.733289
     18          6           0        4.258898    1.115251    1.054224
     19          1           0        4.918902    1.969179    1.223982
     20          1           0        4.746682    0.257246    1.528559
     21          6           0        3.227839   -0.524705   -2.891279
     22          1           0        3.286207   -1.598667   -2.686504
     23          1           0        2.867752   -0.434341   -3.921955
     24          6           0        2.826216    1.334934    1.630837
     25          1           0        2.658528    0.680734    2.491032
     26          1           0        2.688396    2.359585    1.991958
     27          6           0        6.428588    1.044852   -1.251086
     28          1           0        6.169177    2.113161   -1.255284
     29          6           0        0.393712    0.572094    0.854350
     30          1           0        0.000000    0.000000    0.000000
     31          6           0        2.766337   -1.343769    0.039018
     32          1           0        3.454650   -1.951667   -0.553901
     33          1           0        3.116243   -1.382212    1.074194
     34          1           0        1.788228   -1.835325   -0.000733
     35          6           0        7.079045    0.025779   -3.477685
     36          6           0        5.293124   -0.259578   -5.211911
     37          1           0        5.062177    0.811784   -5.290466
     38          1           0        4.371100   -0.795054   -5.461377
     39          6           0        7.364593    0.758926   -2.391639
     40          1           0        8.361696    1.183983   -2.276865
     41          6           0        5.753347   -2.102823   -3.522042
     42          1           0        4.836140   -2.592084   -3.863942
     43          1           0        6.582269   -2.549913   -4.076875
     44          1           0        5.900776   -2.352035   -2.466753
     45          6           0        8.147505   -0.239403   -4.521676
     46          1           0        9.058922    0.316359   -4.280541
     47          1           0        8.417561   -1.307875   -4.514918
     48          6           0        6.368846   -0.598508   -6.255529
     49          1           0        6.546723   -1.683783   -6.286174
     50          1           0        6.024456   -0.309308   -7.254922
     51          6           0        0.285167   -0.337562    2.101799
     52          1           0        1.113729   -1.053383    2.123918
     53          1           0        0.397458    0.281755    3.001331
     54          6           0        7.684968    0.112861   -5.943190
     55          1           0        7.532614    1.197035   -6.009531
     56          6           0       -0.507905    1.813171    1.017121
     57          1           0       -0.133331    2.464128    1.817021
     58          1           0       -1.538371    1.540948    1.266947
     59          1           0       -0.538202    2.403737    0.094720
     60          6           0       -1.028793   -1.133982    2.180212
     61          1           0       -1.886095   -0.451476    2.223052
     62          1           0       -1.147866   -1.702009    1.246623
     63          6           0       -1.099805   -2.129550    3.352721
     64          1           0       -0.268619   -2.843064    3.255434
     65          1           0       -2.021006   -2.722959    3.253974
     66          6           0       -1.064159   -1.533005    4.776120
     67          1           0       -0.136055   -0.953694    4.884145
     68          6           0       -1.027333   -2.659217    5.821670
     69          1           0       -1.935224   -3.273740    5.766694
     70          1           0       -0.960352   -2.256440    6.838762
     71          1           0       -0.167814   -3.321349    5.665826
     72          6           0       -2.244726   -0.586447    5.045363
     73          1           0       -3.200764   -1.112825    4.925777
     74          1           0       -2.207140   -0.195527    6.068525
     75          1           0       -2.249725    0.271852    4.365785
 ---------------------------------------------------------------------
 Rotational constants (GHZ):      0.4240807      0.0571881      0.0554489
 Leave Link  202 at Wed May 17 12:14:11 2017, MaxMem=    33554432 cpu:         0.0
 (Enter /home/michal/g09/l301.exe)
 Standard basis: 6-31G(d) (6D, 7F)
 Ernie: Thresh=  0.10000D-02 Tol=  0.10000D-05 Strict=F.
 AO basis set in the form of general basis input (Overlap normalization):
      1 0
 S   6 1.00       0.000000000000
      0.5484671660D+04  0.1831074430D-02
      0.8252349460D+03  0.1395017220D-01
      0.1880469580D+03  0.6844507810D-01
      0.5296450000D+02  0.2327143360D+00
      0.1689757040D+02  0.4701928980D+00
      0.5799635340D+01  0.3585208530D+00
 SP   3 1.00       0.000000000000
      0.1553961625D+02 -0.1107775495D+00  0.7087426823D-01
      0.3599933586D+01 -0.1480262627D+00  0.3397528391D+00
      0.1013761750D+01  0.1130767015D+01  0.7271585773D+00
 SP   1 1.00       0.000000000000
      0.2700058226D+00  0.1000000000D+01  0.1000000000D+01
 D   1 1.00       0.000000000000
      0.8000000000D+00  0.1000000000D+01
 ****
      2 0
 S   3 1.00       0.000000000000
      0.1873113696D+02  0.3349460434D-01
      0.2825394365D+01  0.2347269535D+00
      0.6401216923D+00  0.8137573261D+00
 S   1 1.00       0.000000000000
      0.1612777588D+00  0.1000000000D+01
 ****
      3 0
 S   6 1.00       0.000000000000
      0.5484671660D+04  0.1831074430D-02
      0.8252349460D+03  0.1395017220D-01
      0.1880469580D+03  0.6844507810D-01
      0.5296450000D+02  0.2327143360D+00
      0.1689757040D+02  0.4701928980D+00
      0.5799635340D+01  0.3585208530D+00
 SP   3 1.00       0.000000000000
      0.1553961625D+02 -0.1107775495D+00  0.7087426823D-01
      0.3599933586D+01 -0.1480262627D+00  0.3397528391D+00
      0.1013761750D+01  0.1130767015D+01  0.7271585773D+00
 SP   1 1.00       0.000000000000
      0.2700058226D+00  0.1000000000D+01  0.1000000000D+01
 D   1 1.00       0.000000000000
      0.8000000000D+00  0.1000000000D+01
 ****
      4 0
 S   3 1.00       0.000000000000
      0.1873113696D+02  0.3349460434D-01
      0.2825394365D+01  0.2347269535D+00
      0.6401216923D+00  0.8137573261D+00
 S   1 1.00       0.000000000000
      0.1612777588D+00  0.1000000000D+01
 ****
      5 0
 S   6 1.00       0.000000000000
      0.3047524880D+04  0.1834737132D-02
      0.4573695180D+03  0.1403732281D-01
      0.1039486850D+03  0.6884262226D-01
      0.2921015530D+02  0.2321844432D+00
      0.9286662960D+01  0.4679413484D+00
      0.3163926960D+01  0.3623119853D+00
 SP   3 1.00       0.000000000000
      0.7868272350D+01 -0.1193324198D+00  0.6899906659D-01
      0.1881288540D+01 -0.1608541517D+00  0.3164239610D+00
      0.5442492580D+00  0.1143456438D+01  0.7443082909D+00
 SP   1 1.00       0.000000000000
      0.1687144782D+00  0.1000000000D+01  0.1000000000D+01
 D   1 1.00       0.000000000000
      0.8000000000D+00  0.1000000000D+01
 ****
      6 0
 S   6 1.00       0.000000000000
      0.3047524880D+04  0.1834737132D-02
      0.4573695180D+03  0.1403732281D-01
      0.1039486850D+03  0.6884262226D-01
      0.2921015530D+02  0.2321844432D+00
      0.9286662960D+01  0.4679413484D+00
      0.3163926960D+01  0.3623119853D+00
 SP   3 1.00       0.000000000000
      0.7868272350D+01 -0.1193324198D+00  0.6899906659D-01
      0.1881288540D+01 -0.1608541517D+00  0.3164239610D+00
      0.5442492580D+00  0.1143456438D+01  0.7443082909D+00
 SP   1 1.00       0.000000000000
      0.1687144782D+00  0.1000000000D+01  0.1000000000D+01
 D   1 1.00       0.000000000000
      0.8000000000D+00  0.1000000000D+01
 ****
      7 0
 S   3 1.00       0.000000000000
      0.1873113696D+02  0.3349460434D-01
      0.2825394365D+01  0.2347269535D+00
      0.6401216923D+00  0.8137573261D+00
 S   1 1.00       0.000000000000
      0.1612777588D+00  0.1000000000D+01
 ****
      8 0
 S   6 1.00       0.000000000000
      0.3047524880D+04  0.1834737132D-02
      0.4573695180D+03  0.1403732281D-01
      0.1039486850D+03  0.6884262226D-01
      0.2921015530D+02  0.2321844432D+00
      0.9286662960D+01  0.4679413484D+00
      0.3163926960D+01  0.3623119853D+00
 SP   3 1.00       0.000000000000
      0.7868272350D+01 -0.1193324198D+00  0.6899906659D-01
      0.1881288540D+01 -0.1608541517D+00  0.3164239610D+00
      0.5442492580D+00  0.1143456438D+01  0.7443082909D+00
 SP   1 1.00       0.000000000000
      0.1687144782D+00  0.1000000000D+01  0.1000000000D+01
 D   1 1.00       0.000000000000
      0.8000000000D+00  0.1000000000D+01
 ****
      9 0
 S   3 1.00       0.000000000000
      0.1873113696D+02  0.3349460434D-01
      0.2825394365D+01  0.2347269535D+00
      0.6401216923D+00  0.8137573261D+00
 S   1 1.00       0.000000000000
      0.1612777588D+00  0.1000000000D+01
 ****
     10 0
 S   6 1.00       0.000000000000
      0.3047524880D+04  0.1834737132D-02
      0.4573695180D+03  0.1403732281D-01
      0.1039486850D+03  0.6884262226D-01
      0.2921015530D+02  0.2321844432D+00
      0.9286662960D+01  0.4679413484D+00
      0.3163926960D+01  0.3623119853D+00
 SP   3 1.00       0.000000000000
      0.7868272350D+01 -0.1193324198D+00  0.6899906659D-01
      0.1881288540D+01 -0.1608541517D+00  0.3164239610D+00
      0.5442492580D+00  0.1143456438D+01  0.7443082909D+00
 SP   1 1.00       0.000000000000
      0.1687144782D+00  0.1000000000D+01  0.1000000000D+01
 D   1 1.00       0.000000000000
      0.8000000000D+00  0.1000000000D+01
 ****
     11 0
 S   3 1.00       0.000000000000
      0.1873113696D+02  0.3349460434D-01
      0.2825394365D+01  0.2347269535D+00
      0.6401216923D+00  0.8137573261D+00
 S   1 1.00       0.000000000000
      0.1612777588D+00  0.1000000000D+01
 ****
     12 0
 S   6 1.00       0.000000000000
      0.3047524880D+04  0.1834737132D-02
      0.4573695180D+03  0.1403732281D-01
      0.1039486850D+03  0.6884262226D-01
      0.2921015530D+02  0.2321844432D+00
      0.9286662960D+01  0.4679413484D+00
      0.3163926960D+01  0.3623119853D+00
 SP   3 1.00       0.000000000000
      0.7868272350D+01 -0.1193324198D+00  0.6899906659D-01
      0.1881288540D+01 -0.1608541517D+00  0.3164239610D+00
      0.5442492580D+00  0.1143456438D+01  0.7443082909D+00
 SP   1 1.00       0.000000000000
      0.1687144782D+00  0.1000000000D+01  0.1000000000D+01
 D   1 1.00       0.000000000000
      0.8000000000D+00  0.1000000000D+01
 ****
     13 0
 S   3 1.00       0.000000000000
      0.1873113696D+02  0.3349460434D-01
      0.2825394365D+01  0.2347269535D+00
      0.6401216923D+00  0.8137573261D+00
 S   1 1.00       0.000000000000
      0.1612777588D+00  0.1000000000D+01
 ****
     14 0
 S   6 1.00       0.000000000000
      0.3047524880D+04  0.1834737132D-02
      0.4573695180D+03  0.1403732281D-01
      0.1039486850D+03  0.6884262226D-01
      0.2921015530D+02  0.2321844432D+00
      0.9286662960D+01  0.4679413484D+00
      0.3163926960D+01  0.3623119853D+00
 SP   3 1.00       0.000000000000
      0.7868272350D+01 -0.1193324198D+00  0.6899906659D-01
      0.1881288540D+01 -0.1608541517D+00  0.3164239610D+00
      0.5442492580D+00  0.1143456438D+01  0.7443082909D+00
 SP   1 1.00       0.000000000000
      0.1687144782D+00  0.1000000000D+01  0.1000000000D+01
 D   1 1.00       0.000000000000
      0.8000000000D+00  0.1000000000D+01
 ****
     15 0
 S   3 1.00       0.000000000000
      0.1873113696D+02  0.3349460434D-01
      0.2825394365D+01  0.2347269535D+00
      0.6401216923D+00  0.8137573261D+00
 S   1 1.00       0.000000000000
      0.1612777588D+00  0.1000000000D+01
 ****
     16 0
 S   3 1.00       0.000000000000
      0.1873113696D+02  0.3349460434D-01
      0.2825394365D+01  0.2347269535D+00
      0.6401216923D+00  0.8137573261D+00
 S   1 1.00       0.000000000000
      0.1612777588D+00  0.1000000000D+01
 ****
     17 0
 S   6 1.00       0.000000000000
      0.3047524880D+04  0.1834737132D-02
      0.4573695180D+03  0.1403732281D-01
      0.1039486850D+03  0.6884262226D-01
      0.2921015530D+02  0.2321844432D+00
      0.9286662960D+01  0.4679413484D+00
      0.3163926960D+01  0.3623119853D+00
 SP   3 1.00       0.000000000000
      0.7868272350D+01 -0.1193324198D+00  0.6899906659D-01
      0.1881288540D+01 -0.1608541517D+00  0.3164239610D+00
      0.5442492580D+00  0.1143456438D+01  0.7443082909D+00
 SP   1 1.00       0.000000000000
      0.1687144782D+00  0.1000000000D+01  0.1000000000D+01
 D   1 1.00       0.000000000000
      0.8000000000D+00  0.1000000000D+01
 ****
     18 0
 S   6 1.00       0.000000000000
      0.3047524880D+04  0.1834737132D-02
      0.4573695180D+03  0.1403732281D-01
      0.1039486850D+03  0.6884262226D-01
      0.2921015530D+02  0.2321844432D+00
      0.9286662960D+01  0.4679413484D+00
      0.3163926960D+01  0.3623119853D+00
 SP   3 1.00       0.000000000000
      0.7868272350D+01 -0.1193324198D+00  0.6899906659D-01
      0.1881288540D+01 -0.1608541517D+00  0.3164239610D+00
      0.5442492580D+00  0.1143456438D+01  0.7443082909D+00
 SP   1 1.00       0.000000000000
      0.1687144782D+00  0.1000000000D+01  0.1000000000D+01
 D   1 1.00       0.000000000000
      0.8000000000D+00  0.1000000000D+01
 ****
     19 0
 S   3 1.00       0.000000000000
      0.1873113696D+02  0.3349460434D-01
      0.2825394365D+01  0.2347269535D+00
      0.6401216923D+00  0.8137573261D+00
 S   1 1.00       0.000000000000
      0.1612777588D+00  0.1000000000D+01
 ****
     20 0
 S   3 1.00       0.000000000000
      0.1873113696D+02  0.3349460434D-01
      0.2825394365D+01  0.2347269535D+00
      0.6401216923D+00  0.8137573261D+00
 S   1 1.00       0.000000000000
      0.1612777588D+00  0.1000000000D+01
 ****
     21 0
 S   6 1.00       0.000000000000
      0.3047524880D+04  0.1834737132D-02
      0.4573695180D+03  0.1403732281D-01
      0.1039486850D+03  0.6884262226D-01
      0.2921015530D+02  0.2321844432D+00
      0.9286662960D+01  0.4679413484D+00
      0.3163926960D+01  0.3623119853D+00
 SP   3 1.00       0.000000000000
      0.7868272350D+01 -0.1193324198D+00  0.6899906659D-01
      0.1881288540D+01 -0.1608541517D+00  0.3164239610D+00
      0.5442492580D+00  0.1143456438D+01  0.7443082909D+00
 SP   1 1.00       0.000000000000
      0.1687144782D+00  0.1000000000D+01  0.1000000000D+01
 D   1 1.00       0.000000000000
      0.8000000000D+00  0.1000000000D+01
 ****
     22 0
 S   3 1.00       0.000000000000
      0.1873113696D+02  0.3349460434D-01
      0.2825394365D+01  0.2347269535D+00
      0.6401216923D+00  0.8137573261D+00
 S   1 1.00       0.000000000000
      0.1612777588D+00  0.1000000000D+01
 ****
     23 0
 S   3 1.00       0.000000000000
      0.1873113696D+02  0.3349460434D-01
      0.2825394365D+01  0.2347269535D+00
      0.6401216923D+00  0.8137573261D+00
 S   1 1.00       0.000000000000
      0.1612777588D+00  0.1000000000D+01
 ****
     24 0
 S   6 1.00       0.000000000000
      0.3047524880D+04  0.1834737132D-02
      0.4573695180D+03  0.1403732281D-01
      0.1039486850D+03  0.6884262226D-01
      0.2921015530D+02  0.2321844432D+00
      0.9286662960D+01  0.4679413484D+00
      0.3163926960D+01  0.3623119853D+00
 SP   3 1.00       0.000000000000
      0.7868272350D+01 -0.1193324198D+00  0.6899906659D-01
      0.1881288540D+01 -0.1608541517D+00  0.3164239610D+00
      0.5442492580D+00  0.1143456438D+01  0.7443082909D+00
 SP   1 1.00       0.000000000000
      0.1687144782D+00  0.1000000000D+01  0.1000000000D+01
 D   1 1.00       0.000000000000
      0.8000000000D+00  0.1000000000D+01
 ****
     25 0
 S   3 1.00       0.000000000000
      0.1873113696D+02  0.3349460434D-01
      0.2825394365D+01  0.2347269535D+00
      0.6401216923D+00  0.8137573261D+00
 S   1 1.00       0.000000000000
      0.1612777588D+00  0.1000000000D+01
 ****
     26 0
 S   3 1.00       0.000000000000
      0.1873113696D+02  0.3349460434D-01
      0.2825394365D+01  0.2347269535D+00
      0.6401216923D+00  0.8137573261D+00
 S   1 1.00       0.000000000000
      0.1612777588D+00  0.1000000000D+01
 ****
     27 0
 S   6 1.00       0.000000000000
      0.3047524880D+04  0.1834737132D-02
      0.4573695180D+03  0.1403732281D-01
      0.1039486850D+03  0.6884262226D-01
      0.2921015530D+02  0.2321844432D+00
      0.9286662960D+01  0.4679413484D+00
      0.3163926960D+01  0.3623119853D+00
 SP   3 1.00       0.000000000000
      0.7868272350D+01 -0.1193324198D+00  0.6899906659D-01
      0.1881288540D+01 -0.1608541517D+00  0.3164239610D+00
      0.5442492580D+00  0.1143456438D+01  0.7443082909D+00
 SP   1 1.00       0.000000000000
      0.1687144782D+00  0.1000000000D+01  0.1000000000D+01
 D   1 1.00       0.000000000000
      0.8000000000D+00  0.1000000000D+01
 ****
     28 0
 S   3 1.00       0.000000000000
      0.1873113696D+02  0.3349460434D-01
      0.2825394365D+01  0.2347269535D+00
      0.6401216923D+00  0.8137573261D+00
 S   1 1.00       0.000000000000
      0.1612777588D+00  0.1000000000D+01
 ****
     29 0
 S   6 1.00       0.000000000000
      0.3047524880D+04  0.1834737132D-02
      0.4573695180D+03  0.1403732281D-01
      0.1039486850D+03  0.6884262226D-01
      0.2921015530D+02  0.2321844432D+00
      0.9286662960D+01  0.4679413484D+00
      0.3163926960D+01  0.3623119853D+00
 SP   3 1.00       0.000000000000
      0.7868272350D+01 -0.1193324198D+00  0.6899906659D-01
      0.1881288540D+01 -0.1608541517D+00  0.3164239610D+00
      0.5442492580D+00  0.1143456438D+01  0.7443082909D+00
 SP   1 1.00       0.000000000000
      0.1687144782D+00  0.1000000000D+01  0.1000000000D+01
 D   1 1.00       0.000000000000
      0.8000000000D+00  0.1000000000D+01
 ****
     30 0
 S   3 1.00       0.000000000000
      0.1873113696D+02  0.3349460434D-01
      0.2825394365D+01  0.2347269535D+00
      0.6401216923D+00  0.8137573261D+00
 S   1 1.00       0.000000000000
      0.1612777588D+00  0.1000000000D+01
 ****
     31 0
 S   6 1.00       0.000000000000
      0.3047524880D+04  0.1834737132D-02
      0.4573695180D+03  0.1403732281D-01
      0.1039486850D+03  0.6884262226D-01
      0.2921015530D+02  0.2321844432D+00
      0.9286662960D+01  0.4679413484D+00
      0.3163926960D+01  0.3623119853D+00
 SP   3 1.00       0.000000000000
      0.7868272350D+01 -0.1193324198D+00  0.6899906659D-01
      0.1881288540D+01 -0.1608541517D+00  0.3164239610D+00
      0.5442492580D+00  0.1143456438D+01  0.7443082909D+00
 SP   1 1.00       0.000000000000
      0.1687144782D+00  0.1000000000D+01  0.1000000000D+01
 D   1 1.00       0.000000000000
      0.8000000000D+00  0.1000000000D+01
 ****
     32 0
 S   3 1.00       0.000000000000
      0.1873113696D+02  0.3349460434D-01
      0.2825394365D+01  0.2347269535D+00
      0.6401216923D+00  0.8137573261D+00
 S   1 1.00       0.000000000000
      0.1612777588D+00  0.1000000000D+01
 ****
     33 0
 S   3 1.00       0.000000000000
      0.1873113696D+02  0.3349460434D-01
      0.2825394365D+01  0.2347269535D+00
      0.6401216923D+00  0.8137573261D+00
 S   1 1.00       0.000000000000
      0.1612777588D+00  0.1000000000D+01
 ****
     34 0
 S   3 1.00       0.000000000000
      0.1873113696D+02  0.3349460434D-01
      0.2825394365D+01  0.2347269535D+00
      0.6401216923D+00  0.8137573261D+00
 S   1 1.00       0.000000000000
      0.1612777588D+00  0.1000000000D+01
 ****
     35 0
 S   6 1.00       0.000000000000
      0.3047524880D+04  0.1834737132D-02
      0.4573695180D+03  0.1403732281D-01
      0.1039486850D+03  0.6884262226D-01
      0.2921015530D+02  0.2321844432D+00
      0.9286662960D+01  0.4679413484D+00
      0.3163926960D+01  0.3623119853D+00
 SP   3 1.00       0.000000000000
      0.7868272350D+01 -0.1193324198D+00  0.6899906659D-01
      0.1881288540D+01 -0.1608541517D+00  0.3164239610D+00
      0.5442492580D+00  0.1143456438D+01  0.7443082909D+00
 SP   1 1.00       0.000000000000
      0.1687144782D+00  0.1000000000D+01  0.1000000000D+01
 D   1 1.00       0.000000000000
      0.8000000000D+00  0.1000000000D+01
 ****
     36 0
 S   6 1.00       0.000000000000
      0.3047524880D+04  0.1834737132D-02
      0.4573695180D+03  0.1403732281D-01
      0.1039486850D+03  0.6884262226D-01
      0.2921015530D+02  0.2321844432D+00
      0.9286662960D+01  0.4679413484D+00
      0.3163926960D+01  0.3623119853D+00
 SP   3 1.00       0.000000000000
      0.7868272350D+01 -0.1193324198D+00  0.6899906659D-01
      0.1881288540D+01 -0.1608541517D+00  0.3164239610D+00
      0.5442492580D+00  0.1143456438D+01  0.7443082909D+00
 SP   1 1.00       0.000000000000
      0.1687144782D+00  0.1000000000D+01  0.1000000000D+01
 D   1 1.00       0.000000000000
      0.8000000000D+00  0.1000000000D+01
 ****
     37 0
 S   3 1.00       0.000000000000
      0.1873113696D+02  0.3349460434D-01
      0.2825394365D+01  0.2347269535D+00
      0.6401216923D+00  0.8137573261D+00
 S   1 1.00       0.000000000000
      0.1612777588D+00  0.1000000000D+01
 ****
     38 0
 S   3 1.00       0.000000000000
      0.1873113696D+02  0.3349460434D-01
      0.2825394365D+01  0.2347269535D+00
      0.6401216923D+00  0.8137573261D+00
 S   1 1.00       0.000000000000
      0.1612777588D+00  0.1000000000D+01
 ****
     39 0
 S   6 1.00       0.000000000000
      0.3047524880D+04  0.1834737132D-02
      0.4573695180D+03  0.1403732281D-01
      0.1039486850D+03  0.6884262226D-01
      0.2921015530D+02  0.2321844432D+00
      0.9286662960D+01  0.4679413484D+00
      0.3163926960D+01  0.3623119853D+00
 SP   3 1.00       0.000000000000
      0.7868272350D+01 -0.1193324198D+00  0.6899906659D-01
      0.1881288540D+01 -0.1608541517D+00  0.3164239610D+00
      0.5442492580D+00  0.1143456438D+01  0.7443082909D+00
 SP   1 1.00       0.000000000000
      0.1687144782D+00  0.1000000000D+01  0.1000000000D+01
 D   1 1.00       0.000000000000
      0.8000000000D+00  0.1000000000D+01
 ****
     40 0
 S   3 1.00       0.000000000000
      0.1873113696D+02  0.3349460434D-01
      0.2825394365D+01  0.2347269535D+00
      0.6401216923D+00  0.8137573261D+00
 S   1 1.00       0.000000000000
      0.1612777588D+00  0.1000000000D+01
 ****
     41 0
 S   6 1.00       0.000000000000
      0.3047524880D+04  0.1834737132D-02
      0.4573695180D+03  0.1403732281D-01
      0.1039486850D+03  0.6884262226D-01
      0.2921015530D+02  0.2321844432D+00
      0.9286662960D+01  0.4679413484D+00
      0.3163926960D+01  0.3623119853D+00
 SP   3 1.00       0.000000000000
      0.7868272350D+01 -0.1193324198D+00  0.6899906659D-01
      0.1881288540D+01 -0.1608541517D+00  0.3164239610D+00
      0.5442492580D+00  0.1143456438D+01  0.7443082909D+00
 SP   1 1.00       0.000000000000
      0.1687144782D+00  0.1000000000D+01  0.1000000000D+01
 D   1 1.00       0.000000000000
      0.8000000000D+00  0.1000000000D+01
 ****
     42 0
 S   3 1.00       0.000000000000
      0.1873113696D+02  0.3349460434D-01
      0.2825394365D+01  0.2347269535D+00
      0.6401216923D+00  0.8137573261D+00
 S   1 1.00       0.000000000000
      0.1612777588D+00  0.1000000000D+01
 ****
     43 0
 S   3 1.00       0.000000000000
      0.1873113696D+02  0.3349460434D-01
      0.2825394365D+01  0.2347269535D+00
      0.6401216923D+00  0.8137573261D+00
 S   1 1.00       0.000000000000
      0.1612777588D+00  0.1000000000D+01
 ****
     44 0
 S   3 1.00       0.000000000000
      0.1873113696D+02  0.3349460434D-01
      0.2825394365D+01  0.2347269535D+00
      0.6401216923D+00  0.8137573261D+00
 S   1 1.00       0.000000000000
      0.1612777588D+00  0.1000000000D+01
 ****
     45 0
 S   6 1.00       0.000000000000
      0.3047524880D+04  0.1834737132D-02
      0.4573695180D+03  0.1403732281D-01
      0.1039486850D+03  0.6884262226D-01
      0.2921015530D+02  0.2321844432D+00
      0.9286662960D+01  0.4679413484D+00
      0.3163926960D+01  0.3623119853D+00
 SP   3 1.00       0.000000000000
      0.7868272350D+01 -0.1193324198D+00  0.6899906659D-01
      0.1881288540D+01 -0.1608541517D+00  0.3164239610D+00
      0.5442492580D+00  0.1143456438D+01  0.7443082909D+00
 SP   1 1.00       0.000000000000
      0.1687144782D+00  0.1000000000D+01  0.1000000000D+01
 D   1 1.00       0.000000000000
      0.8000000000D+00  0.1000000000D+01
 ****
     46 0
 S   3 1.00       0.000000000000
      0.1873113696D+02  0.3349460434D-01
      0.2825394365D+01  0.2347269535D+00
      0.6401216923D+00  0.8137573261D+00
 S   1 1.00       0.000000000000
      0.1612777588D+00  0.1000000000D+01
 ****
     47 0
 S   3 1.00       0.000000000000
      0.1873113696D+02  0.3349460434D-01
      0.2825394365D+01  0.2347269535D+00
      0.6401216923D+00  0.8137573261D+00
 S   1 1.00       0.000000000000
      0.1612777588D+00  0.1000000000D+01
 ****
     48 0
 S   6 1.00       0.000000000000
      0.3047524880D+04  0.1834737132D-02
      0.4573695180D+03  0.1403732281D-01
      0.1039486850D+03  0.6884262226D-01
      0.2921015530D+02  0.2321844432D+00
      0.9286662960D+01  0.4679413484D+00
      0.3163926960D+01  0.3623119853D+00
 SP   3 1.00       0.000000000000
      0.7868272350D+01 -0.1193324198D+00  0.6899906659D-01
      0.1881288540D+01 -0.1608541517D+00  0.3164239610D+00
      0.5442492580D+00  0.1143456438D+01  0.7443082909D+00
 SP   1 1.00       0.000000000000
      0.1687144782D+00  0.1000000000D+01  0.1000000000D+01
 D   1 1.00       0.000000000000
      0.8000000000D+00  0.1000000000D+01
 ****
     49 0
 S   3 1.00       0.000000000000
      0.1873113696D+02  0.3349460434D-01
      0.2825394365D+01  0.2347269535D+00
      0.6401216923D+00  0.8137573261D+00
 S   1 1.00       0.000000000000
      0.1612777588D+00  0.1000000000D+01
 ****
     50 0
 S   3 1.00       0.000000000000
      0.1873113696D+02  0.3349460434D-01
      0.2825394365D+01  0.2347269535D+00
      0.6401216923D+00  0.8137573261D+00
 S   1 1.00       0.000000000000
      0.1612777588D+00  0.1000000000D+01
 ****
     51 0
 S   6 1.00       0.000000000000
      0.3047524880D+04  0.1834737132D-02
      0.4573695180D+03  0.1403732281D-01
      0.1039486850D+03  0.6884262226D-01
      0.2921015530D+02  0.2321844432D+00
      0.9286662960D+01  0.4679413484D+00
      0.3163926960D+01  0.3623119853D+00
 SP   3 1.00       0.000000000000
      0.7868272350D+01 -0.1193324198D+00  0.6899906659D-01
      0.1881288540D+01 -0.1608541517D+00  0.3164239610D+00
      0.5442492580D+00  0.1143456438D+01  0.7443082909D+00
 SP   1 1.00       0.000000000000
      0.1687144782D+00  0.1000000000D+01  0.1000000000D+01
 D   1 1.00       0.000000000000
      0.8000000000D+00  0.1000000000D+01
 ****
     52 0
 S   3 1.00       0.000000000000
      0.1873113696D+02  0.3349460434D-01
      0.2825394365D+01  0.2347269535D+00
      0.6401216923D+00  0.8137573261D+00
 S   1 1.00       0.000000000000
      0.1612777588D+00  0.1000000000D+01
 ****
     53 0
 S   3 1.00       0.000000000000
      0.1873113696D+02  0.3349460434D-01
      0.2825394365D+01  0.2347269535D+00
      0.6401216923D+00  0.8137573261D+00
 S   1 1.00       0.000000000000
      0.1612777588D+00  0.1000000000D+01
 ****
     54 0
 S   6 1.00       0.000000000000
      0.3047524880D+04  0.1834737132D-02
      0.4573695180D+03  0.1403732281D-01
      0.1039486850D+03  0.6884262226D-01
      0.2921015530D+02  0.2321844432D+00
      0.9286662960D+01  0.4679413484D+00
      0.3163926960D+01  0.3623119853D+00
 SP   3 1.00       0.000000000000
      0.7868272350D+01 -0.1193324198D+00  0.6899906659D-01
      0.1881288540D+01 -0.1608541517D+00  0.3164239610D+00
      0.5442492580D+00  0.1143456438D+01  0.7443082909D+00
 SP   1 1.00       0.000000000000
      0.1687144782D+00  0.1000000000D+01  0.1000000000D+01
 D   1 1.00       0.000000000000
      0.8000000000D+00  0.1000000000D+01
 ****
     55 0
 S   3 1.00       0.000000000000
      0.1873113696D+02  0.3349460434D-01
      0.2825394365D+01  0.2347269535D+00
      0.6401216923D+00  0.8137573261D+00
 S   1 1.00       0.000000000000
      0.1612777588D+00  0.1000000000D+01
 ****
     56 0
 S   6 1.00       0.000000000000
      0.3047524880D+04  0.1834737132D-02
      0.4573695180D+03  0.1403732281D-01
      0.1039486850D+03  0.6884262226D-01
      0.2921015530D+02  0.2321844432D+00
      0.9286662960D+01  0.4679413484D+00
      0.3163926960D+01  0.3623119853D+00
 SP   3 1.00       0.000000000000
      0.7868272350D+01 -0.1193324198D+00  0.6899906659D-01
      0.1881288540D+01 -0.1608541517D+00  0.3164239610D+00
      0.5442492580D+00  0.1143456438D+01  0.7443082909D+00
 SP   1 1.00       0.000000000000
      0.1687144782D+00  0.1000000000D+01  0.1000000000D+01
 D   1 1.00       0.000000000000
      0.8000000000D+00  0.1000000000D+01
 ****
     57 0
 S   3 1.00       0.000000000000
      0.1873113696D+02  0.3349460434D-01
      0.2825394365D+01  0.2347269535D+00
      0.6401216923D+00  0.8137573261D+00
 S   1 1.00       0.000000000000
      0.1612777588D+00  0.1000000000D+01
 ****
     58 0
 S   3 1.00       0.000000000000
      0.1873113696D+02  0.3349460434D-01
      0.2825394365D+01  0.2347269535D+00
      0.6401216923D+00  0.8137573261D+00
 S   1 1.00       0.000000000000
      0.1612777588D+00  0.1000000000D+01
 ****
     59 0
 S   3 1.00       0.000000000000
      0.1873113696D+02  0.3349460434D-01
      0.2825394365D+01  0.2347269535D+00
      0.6401216923D+00  0.8137573261D+00
 S   1 1.00       0.000000000000
      0.1612777588D+00  0.1000000000D+01
 ****
     60 0
 S   6 1.00       0.000000000000
      0.3047524880D+04  0.1834737132D-02
      0.4573695180D+03  0.1403732281D-01
      0.1039486850D+03  0.6884262226D-01
      0.2921015530D+02  0.2321844432D+00
      0.9286662960D+01  0.4679413484D+00
      0.3163926960D+01  0.3623119853D+00
 SP   3 1.00       0.000000000000
      0.7868272350D+01 -0.1193324198D+00  0.6899906659D-01
      0.1881288540D+01 -0.1608541517D+00  0.3164239610D+00
      0.5442492580D+00  0.1143456438D+01  0.7443082909D+00
 SP   1 1.00       0.000000000000
      0.1687144782D+00  0.1000000000D+01  0.1000000000D+01
 D   1 1.00       0.000000000000
      0.8000000000D+00  0.1000000000D+01
 ****
     61 0
 S   3 1.00       0.000000000000
      0.1873113696D+02  0.3349460434D-01
      0.2825394365D+01  0.2347269535D+00
      0.6401216923D+00  0.8137573261D+00
 S   1 1.00       0.000000000000
      0.1612777588D+00  0.1000000000D+01
 ****
     62 0
 S   3 1.00       0.000000000000
      0.1873113696D+02  0.3349460434D-01
      0.2825394365D+01  0.2347269535D+00
      0.6401216923D+00  0.8137573261D+00
 S   1 1.00       0.000000000000
      0.1612777588D+00  0.1000000000D+01
 ****
     63 0
 S   6 1.00       0.000000000000
      0.3047524880D+04  0.1834737132D-02
      0.4573695180D+03  0.1403732281D-01
      0.1039486850D+03  0.6884262226D-01
      0.2921015530D+02  0.2321844432D+00
      0.9286662960D+01  0.4679413484D+00
      0.3163926960D+01  0.3623119853D+00
 SP   3 1.00       0.000000000000
      0.7868272350D+01 -0.1193324198D+00  0.6899906659D-01
      0.1881288540D+01 -0.1608541517D+00  0.3164239610D+00
      0.5442492580D+00  0.1143456438D+01  0.7443082909D+00
 SP   1 1.00       0.000000000000
      0.1687144782D+00  0.1000000000D+01  0.1000000000D+01
 D   1 1.00       0.000000000000
      0.8000000000D+00  0.1000000000D+01
 ****
     64 0
 S   3 1.00       0.000000000000
      0.1873113696D+02  0.3349460434D-01
      0.2825394365D+01  0.2347269535D+00
      0.6401216923D+00  0.8137573261D+00
 S   1 1.00       0.000000000000
      0.1612777588D+00  0.1000000000D+01
 ****
     65 0
 S   3 1.00       0.000000000000
      0.1873113696D+02  0.3349460434D-01
      0.2825394365D+01  0.2347269535D+00
      0.6401216923D+00  0.8137573261D+00
 S   1 1.00       0.000000000000
      0.1612777588D+00  0.1000000000D+01
 ****
     66 0
 S   6 1.00       0.000000000000
      0.3047524880D+04  0.1834737132D-02
      0.4573695180D+03  0.1403732281D-01
      0.1039486850D+03  0.6884262226D-01
      0.2921015530D+02  0.2321844432D+00
      0.9286662960D+01  0.4679413484D+00
      0.3163926960D+01  0.3623119853D+00
 SP   3 1.00       0.000000000000
      0.7868272350D+01 -0.1193324198D+00  0.6899906659D-01
      0.1881288540D+01 -0.1608541517D+00  0.3164239610D+00
      0.5442492580D+00  0.1143456438D+01  0.7443082909D+00
 SP   1 1.00       0.000000000000
      0.1687144782D+00  0.1000000000D+01  0.1000000000D+01
 D   1 1.00       0.000000000000
      0.8000000000D+00  0.1000000000D+01
 ****
     67 0
 S   3 1.00       0.000000000000
      0.1873113696D+02  0.3349460434D-01
      0.2825394365D+01  0.2347269535D+00
      0.6401216923D+00  0.8137573261D+00
 S   1 1.00       0.000000000000
      0.1612777588D+00  0.1000000000D+01
 ****
     68 0
 S   6 1.00       0.000000000000
      0.3047524880D+04  0.1834737132D-02
      0.4573695180D+03  0.1403732281D-01
      0.1039486850D+03  0.6884262226D-01
      0.2921015530D+02  0.2321844432D+00
      0.9286662960D+01  0.4679413484D+00
      0.3163926960D+01  0.3623119853D+00
 SP   3 1.00       0.000000000000
      0.7868272350D+01 -0.1193324198D+00  0.6899906659D-01
      0.1881288540D+01 -0.1608541517D+00  0.3164239610D+00
      0.5442492580D+00  0.1143456438D+01  0.7443082909D+00
 SP   1 1.00       0.000000000000
      0.1687144782D+00  0.1000000000D+01  0.1000000000D+01
 D   1 1.00       0.000000000000
      0.8000000000D+00  0.1000000000D+01
 ****
     69 0
 S   3 1.00       0.000000000000
      0.1873113696D+02  0.3349460434D-01
      0.2825394365D+01  0.2347269535D+00
      0.6401216923D+00  0.8137573261D+00
 S   1 1.00       0.000000000000
      0.1612777588D+00  0.1000000000D+01
 ****
     70 0
 S   3 1.00       0.000000000000
      0.1873113696D+02  0.3349460434D-01
      0.2825394365D+01  0.2347269535D+00
      0.6401216923D+00  0.8137573261D+00
 S   1 1.00       0.000000000000
      0.1612777588D+00  0.1000000000D+01
 ****
     71 0
 S   3 1.00       0.000000000000
      0.1873113696D+02  0.3349460434D-01
      0.2825394365D+01  0.2347269535D+00
      0.6401216923D+00  0.8137573261D+00
 S   1 1.00       0.000000000000
      0.1612777588D+00  0.1000000000D+01
 ****
     72 0
 S   6 1.00       0.000000000000
      0.3047524880D+04  0.1834737132D-02
      0.4573695180D+03  0.1403732281D-01
      0.1039486850D+03  0.6884262226D-01
      0.2921015530D+02  0.2321844432D+00
      0.9286662960D+01  0.4679413484D+00
      0.3163926960D+01  0.3623119853D+00
 SP   3 1.00       0.000000000000
      0.7868272350D+01 -0.1193324198D+00  0.6899906659D-01
      0.1881288540D+01 -0.1608541517D+00  0.3164239610D+00
      0.5442492580D+00  0.1143456438D+01  0.7443082909D+00
 SP   1 1.00       0.000000000000
      0.1687144782D+00  0.1000000000D+01  0.1000000000D+01
 D   1 1.00       0.000000000000
      0.8000000000D+00  0.1000000000D+01
 ****
     73 0
 S   3 1.00       0.000000000000
      0.1873113696D+02  0.3349460434D-01
      0.2825394365D+01  0.2347269535D+00
      0.6401216923D+00  0.8137573261D+00
 S   1 1.00       0.000000000000
      0.1612777588D+00  0.1000000000D+01
 ****
     74 0
 S   3 1.00       0.000000000000
      0.1873113696D+02  0.3349460434D-01
      0.2825394365D+01  0.2347269535D+00
      0.6401216923D+00  0.8137573261D+00
 S   1 1.00       0.000000000000
      0.1612777588D+00  0.1000000000D+01
 ****
     75 0
 S   3 1.00       0.000000000000
      0.1873113696D+02  0.3349460434D-01
      0.2825394365D+01  0.2347269535D+00
      0.6401216923D+00  0.8137573261D+00
 S   1 1.00       0.000000000000
      0.1612777588D+00  0.1000000000D+01
 ****

 AO basis set (Overlap normalization):
 Atom O1       Shell     1 S   6     bf    1 -     1         13.463283668212          1.659756100117          0.000000000000
      0.5484671660D+04  0.1831074430D-02
      0.8252349460D+03  0.1395017220D-01
      0.1880469580D+03  0.6844507810D-01
      0.5296450000D+02  0.2327143360D+00
      0.1689757040D+02  0.4701928980D+00
      0.5799635340D+01  0.3585208530D+00
 Atom O1       Shell     2 SP   3    bf    2 -     5         13.463283668212          1.659756100117          0.000000000000
      0.1553961625D+02 -0.1107775495D+00  0.7087426823D-01
      0.3599933586D+01 -0.1480262627D+00  0.3397528391D+00
      0.1013761750D+01  0.1130767015D+01  0.7271585773D+00
 Atom O1       Shell     3 SP   1    bf    6 -     9         13.463283668212          1.659756100117          0.000000000000
      0.2700058226D+00  0.1000000000D+01  0.1000000000D+01
 Atom O1       Shell     4 D   1     bf   10 -    15         13.463283668212          1.659756100117          0.000000000000
      0.8000000000D+00  0.1000000000D+01
 Atom H2       Shell     5 S   3     bf   16 -    16         14.230671706488          0.000000000000          0.000000000000
      0.1873113696D+02  0.3349460434D-01
      0.2825394365D+01  0.2347269535D+00
      0.6401216923D+00  0.8137573261D+00
 Atom H2       Shell     6 S   1     bf   17 -    17         14.230671706488          0.000000000000          0.000000000000
      0.1612777588D+00  0.1000000000D+01
 Atom O3       Shell     7 S   6     bf   18 -    18         16.438866298076         -0.297996412998        -13.066524384948
      0.5484671660D+04  0.1831074430D-02
      0.8252349460D+03  0.1395017220D-01
      0.1880469580D+03  0.6844507810D-01
      0.5296450000D+02  0.2327143360D+00
      0.1689757040D+02  0.4701928980D+00
      0.5799635340D+01  0.3585208530D+00
 Atom O3       Shell     8 SP   3    bf   19 -    22         16.438866298076         -0.297996412998        -13.066524384948
      0.1553961625D+02 -0.1107775495D+00  0.7087426823D-01
      0.3599933586D+01 -0.1480262627D+00  0.3397528391D+00
      0.1013761750D+01  0.1130767015D+01  0.7271585773D+00
 Atom O3       Shell     9 SP   1    bf   23 -    26         16.438866298076         -0.297996412998        -13.066524384948
      0.2700058226D+00  0.1000000000D+01  0.1000000000D+01
 Atom O3       Shell    10 D   1     bf   27 -    32         16.438866298076         -0.297996412998        -13.066524384948
      0.8000000000D+00  0.1000000000D+01
 Atom H4       Shell    11 S   3     bf   33 -    33         16.769514381855         -2.096195966103        -13.083047224288
      0.1873113696D+02  0.3349460434D-01
      0.2825394365D+01  0.2347269535D+00
      0.6401216923D+00  0.8137573261D+00
 Atom H4       Shell    12 S   1     bf   34 -    34         16.769514381855         -2.096195966103        -13.083047224288
      0.1612777588D+00  0.1000000000D+01
 Atom C5       Shell    13 S   6     bf   35 -    35          5.035672411328          0.197073736939         -0.924737010696
      0.3047524880D+04  0.1834737132D-02
      0.4573695180D+03  0.1403732281D-01
      0.1039486850D+03  0.6884262226D-01
      0.2921015530D+02  0.2321844432D+00
      0.9286662960D+01  0.4679413484D+00
      0.3163926960D+01  0.3623119853D+00
 Atom C5       Shell    14 SP   3    bf   36 -    39          5.035672411328          0.197073736939         -0.924737010696
      0.7868272350D+01 -0.1193324198D+00  0.6899906659D-01
      0.1881288540D+01 -0.1608541517D+00  0.3164239610D+00
      0.5442492580D+00  0.1143456438D+01  0.7443082909D+00
 Atom C5       Shell    15 SP   1    bf   40 -    43          5.035672411328          0.197073736939         -0.924737010696
      0.1687144782D+00  0.1000000000D+01  0.1000000000D+01
 Atom C5       Shell    16 D   1     bf   44 -    49          5.035672411328          0.197073736939         -0.924737010696
      0.8000000000D+00  0.1000000000D+01
 Atom C6       Shell    17 S   6     bf   50 -    50          7.605980878739          1.605352472121         -0.843719613680
      0.3047524880D+04  0.1834737132D-02
      0.4573695180D+03  0.1403732281D-01
      0.1039486850D+03  0.6884262226D-01
      0.2921015530D+02  0.2321844432D+00
      0.9286662960D+01  0.4679413484D+00
      0.3163926960D+01  0.3623119853D+00
 Atom C6       Shell    18 SP   3    bf   51 -    54          7.605980878739          1.605352472121         -0.843719613680
      0.7868272350D+01 -0.1193324198D+00  0.6899906659D-01
      0.1881288540D+01 -0.1608541517D+00  0.3164239610D+00
      0.5442492580D+00  0.1143456438D+01  0.7443082909D+00
 Atom C6       Shell    19 SP   1    bf   55 -    58          7.605980878739          1.605352472121         -0.843719613680
      0.1687144782D+00  0.1000000000D+01  0.1000000000D+01
 Atom C6       Shell    20 D   1     bf   59 -    64          7.605980878739          1.605352472121         -0.843719613680
      0.8000000000D+00  0.1000000000D+01
 Atom H7       Shell    21 S   3     bf   65 -    65          7.232629840953          3.463169161958         -1.714638584715
      0.1873113696D+02  0.3349460434D-01
      0.2825394365D+01  0.2347269535D+00
      0.6401216923D+00  0.8137573261D+00
 Atom H7       Shell    22 S   1     bf   66 -    66          7.232629840953          3.463169161958         -1.714638584715
      0.1612777588D+00  0.1000000000D+01
 Atom C8       Shell    23 S   6     bf   67 -    67          9.695102296016          0.410539411890         -2.473160840557
      0.3047524880D+04  0.1834737132D-02
      0.4573695180D+03  0.1403732281D-01
      0.1039486850D+03  0.6884262226D-01
      0.2921015530D+02  0.2321844432D+00
      0.9286662960D+01  0.4679413484D+00
      0.3163926960D+01  0.3623119853D+00
 Atom C8       Shell    24 SP   3    bf   68 -    71          9.695102296016          0.410539411890         -2.473160840557
      0.7868272350D+01 -0.1193324198D+00  0.6899906659D-01
      0.1881288540D+01 -0.1608541517D+00  0.3164239610D+00
      0.5442492580D+00  0.1143456438D+01  0.7443082909D+00
 Atom C8       Shell    25 SP   1    bf   72 -    75          9.695102296016          0.410539411890         -2.473160840557
      0.1687144782D+00  0.1000000000D+01  0.1000000000D+01
 Atom C8       Shell    26 D   1     bf   76 -    81          9.695102296016          0.410539411890         -2.473160840557
      0.8000000000D+00  0.1000000000D+01
 Atom H9       Shell    27 S   3     bf   82 -    82         10.149499908189         -1.484807654686         -1.751169031768
      0.1873113696D+02  0.3349460434D-01
      0.2825394365D+01  0.2347269535D+00
      0.6401216923D+00  0.8137573261D+00
 Atom H9       Shell    28 S   1     bf   83 -    83         10.149499908189         -1.484807654686         -1.751169031768
      0.1612777588D+00  0.1000000000D+01
 Atom C10      Shell    29 S   6     bf   84 -    84          8.764446870941          0.204243735833         -5.257356543024
      0.3047524880D+04  0.1834737132D-02
      0.4573695180D+03  0.1403732281D-01
      0.1039486850D+03  0.6884262226D-01
      0.2921015530D+02  0.2321844432D+00
      0.9286662960D+01  0.4679413484D+00
      0.3163926960D+01  0.3623119853D+00
 Atom C10      Shell    30 SP   3    bf   85 -    88          8.764446870941          0.204243735833         -5.257356543024
      0.7868272350D+01 -0.1193324198D+00  0.6899906659D-01
      0.1881288540D+01 -0.1608541517D+00  0.3164239610D+00
      0.5442492580D+00  0.1143456438D+01  0.7443082909D+00
 Atom C10      Shell    31 SP   1    bf   89 -    92          8.764446870941          0.204243735833         -5.257356543024
      0.1687144782D+00  0.1000000000D+01  0.1000000000D+01
 Atom C10      Shell    32 D   1     bf   93 -    98          8.764446870941          0.204243735833         -5.257356543024
      0.8000000000D+00  0.1000000000D+01
 Atom H11      Shell    33 S   3     bf   99 -    99          8.586144312803          2.168480900864         -5.928721435981
      0.1873113696D+02  0.3349460434D-01
      0.2825394365D+01  0.2347269535D+00
      0.6401216923D+00  0.8137573261D+00
 Atom H11      Shell    34 S   1     bf  100 -   100          8.586144312803          2.168480900864         -5.928721435981
      0.1612777588D+00  0.1000000000D+01
 Atom C12      Shell    35 S   6     bf  101 -   101          3.468260310927          1.919477640971          0.885239334567
      0.3047524880D+04  0.1834737132D-02
      0.4573695180D+03  0.1403732281D-01
      0.1039486850D+03  0.6884262226D-01
      0.2921015530D+02  0.2321844432D+00
      0.9286662960D+01  0.4679413484D+00
      0.3163926960D+01  0.3623119853D+00
 Atom C12      Shell    36 SP   3    bf  102 -   105          3.468260310927          1.919477640971          0.885239334567
      0.7868272350D+01 -0.1193324198D+00  0.6899906659D-01
      0.1881288540D+01 -0.1608541517D+00  0.3164239610D+00
      0.5442492580D+00  0.1143456438D+01  0.7443082909D+00
 Atom C12      Shell    37 SP   1    bf  106 -   109          3.468260310927          1.919477640971          0.885239334567
      0.1687144782D+00  0.1000000000D+01  0.1000000000D+01
 Atom C12      Shell    38 D   1     bf  110 -   115          3.468260310927          1.919477640971          0.885239334567
      0.8000000000D+00  0.1000000000D+01
 Atom H13      Shell    39 S   3     bf  116 -   116          3.228427891957          3.684794882220         -0.185136866081
      0.1873113696D+02  0.3349460434D-01
      0.2825394365D+01  0.2347269535D+00
      0.6401216923D+00  0.8137573261D+00
 Atom H13      Shell    40 S   1     bf  117 -   117          3.228427891957          3.684794882220         -0.185136866081
      0.1612777588D+00  0.1000000000D+01
 Atom C14      Shell    41 S   6     bf  118 -   118          4.123729054421          0.195101070727         -3.683556676966
      0.3047524880D+04  0.1834737132D-02
      0.4573695180D+03  0.1403732281D-01
      0.1039486850D+03  0.6884262226D-01
      0.2921015530D+02  0.2321844432D+00
      0.9286662960D+01  0.4679413484D+00
      0.3163926960D+01  0.3623119853D+00
 Atom C14      Shell    42 SP   3    bf  119 -   122          4.123729054421          0.195101070727         -3.683556676966
      0.7868272350D+01 -0.1193324198D+00  0.6899906659D-01
      0.1881288540D+01 -0.1608541517D+00  0.3164239610D+00
      0.5442492580D+00  0.1143456438D+01  0.7443082909D+00
 Atom C14      Shell    43 SP   1    bf  123 -   126          4.123729054421          0.195101070727         -3.683556676966
      0.1687144782D+00  0.1000000000D+01  0.1000000000D+01
 Atom C14      Shell    44 D   1     bf  127 -   132          4.123729054421          0.195101070727         -3.683556676966
      0.8000000000D+00  0.1000000000D+01
 Atom H15      Shell    45 S   3     bf  133 -   133          3.759146837220          2.155734187872         -4.267576235978
      0.1873113696D+02  0.3349460434D-01
      0.2825394365D+01  0.2347269535D+00
      0.6401216923D+00  0.8137573261D+00
 Atom H15      Shell    46 S   1     bf  134 -   134          3.759146837220          2.155734187872         -4.267576235978
      0.1612777588D+00  0.1000000000D+01
 Atom H16      Shell    47 S   3     bf  135 -   135          2.327854185713         -0.825785394583         -3.884228339079
      0.1873113696D+02  0.3349460434D-01
      0.2825394365D+01  0.2347269535D+00
      0.6401216923D+00  0.8137573261D+00
 Atom H16      Shell    48 S   1     bf  136 -   136          2.327854185713         -0.825785394583         -3.884228339079
      0.1612777588D+00  0.1000000000D+01
 Atom C17      Shell    49 S   6     bf  137 -   137         10.749342276393         -1.070125301709         -7.054893255791
      0.3047524880D+04  0.1834737132D-02
      0.4573695180D+03  0.1403732281D-01
      0.1039486850D+03  0.6884262226D-01
      0.2921015530D+02  0.2321844432D+00
      0.9286662960D+01  0.4679413484D+00
      0.3163926960D+01  0.3623119853D+00
 Atom C17      Shell    50 SP   3    bf  138 -   141         10.749342276393         -1.070125301709         -7.054893255791
      0.7868272350D+01 -0.1193324198D+00  0.6899906659D-01
      0.1881288540D+01 -0.1608541517D+00  0.3164239610D+00
      0.5442492580D+00  0.1143456438D+01  0.7443082909D+00
 Atom C17      Shell    51 SP   1    bf  142 -   145         10.749342276393         -1.070125301709         -7.054893255791
      0.1687144782D+00  0.1000000000D+01  0.1000000000D+01
 Atom C17      Shell    52 D   1     bf  146 -   151         10.749342276393         -1.070125301709         -7.054893255791
      0.8000000000D+00  0.1000000000D+01
 Atom C18      Shell    53 S   6     bf  152 -   152          8.048150507744          2.107519223989          1.992195020660
      0.3047524880D+04  0.1834737132D-02
      0.4573695180D+03  0.1403732281D-01
      0.1039486850D+03  0.6884262226D-01
      0.2921015530D+02  0.2321844432D+00
      0.9286662960D+01  0.4679413484D+00
      0.3163926960D+01  0.3623119853D+00
 Atom C18      Shell    54 SP   3    bf  153 -   156          8.048150507744          2.107519223989          1.992195020660
      0.7868272350D+01 -0.1193324198D+00  0.6899906659D-01
      0.1881288540D+01 -0.1608541517D+00  0.3164239610D+00
      0.5442492580D+00  0.1143456438D+01  0.7443082909D+00
 Atom C18      Shell    55 SP   1    bf  157 -   160          8.048150507744          2.107519223989          1.992195020660
      0.1687144782D+00  0.1000000000D+01  0.1000000000D+01
 Atom C18      Shell    56 D   1     bf  161 -   166          8.048150507744          2.107519223989          1.992195020660
      0.8000000000D+00  0.1000000000D+01
 Atom H19      Shell    57 S   3     bf  167 -   167          9.295376766332          3.721208525301          2.312991527472
      0.1873113696D+02  0.3349460434D-01
      0.2825394365D+01  0.2347269535D+00
      0.6401216923D+00  0.8137573261D+00
 Atom H19      Shell    58 S   1     bf  168 -   168          9.295376766332          3.721208525301          2.312991527472
      0.1612777588D+00  0.1000000000D+01
 Atom H20      Shell    59 S   3     bf  169 -   169          8.969928982103          0.486123808479          2.888558247006
      0.1873113696D+02  0.3349460434D-01
      0.2825394365D+01  0.2347269535D+00
      0.6401216923D+00  0.8137573261D+00
 Atom H20      Shell    60 S   1     bf  170 -   170          8.969928982103          0.486123808479          2.888558247006
      0.1612777588D+00  0.1000000000D+01
 Atom C21      Shell    61 S   6     bf  171 -   171          6.099730898465         -0.991549298576         -5.463724690078
      0.3047524880D+04  0.1834737132D-02
      0.4573695180D+03  0.1403732281D-01
      0.1039486850D+03  0.6884262226D-01
      0.2921015530D+02  0.2321844432D+00
      0.9286662960D+01  0.4679413484D+00
      0.3163926960D+01  0.3623119853D+00
 Atom C21      Shell    62 SP   3    bf  172 -   175          6.099730898465         -0.991549298576         -5.463724690078
      0.7868272350D+01 -0.1193324198D+00  0.6899906659D-01
      0.1881288540D+01 -0.1608541517D+00  0.3164239610D+00
      0.5442492580D+00  0.1143456438D+01  0.7443082909D+00
 Atom C21      Shell    63 SP   1    bf  176 -   179          6.099730898465         -0.991549298576         -5.463724690078
      0.1687144782D+00  0.1000000000D+01  0.1000000000D+01
 Atom C21      Shell    64 D   1     bf  180 -   185          6.099730898465         -0.991549298576         -5.463724690078
      0.8000000000D+00  0.1000000000D+01
 Atom H22      Shell    65 S   3     bf  186 -   186          6.210031793992         -3.021043336805         -5.076756342470
      0.1873113696D+02  0.3349460434D-01
      0.2825394365D+01  0.2347269535D+00
      0.6401216923D+00  0.8137573261D+00
 Atom H22      Shell    66 S   1     bf  187 -   187          6.210031793992         -3.021043336805         -5.076756342470
      0.1612777588D+00  0.1000000000D+01
 Atom H23      Shell    67 S   3     bf  188 -   188          5.419266274980         -0.820785557181         -7.411420477556
      0.1873113696D+02  0.3349460434D-01
      0.2825394365D+01  0.2347269535D+00
      0.6401216923D+00  0.8137573261D+00
 Atom H23      Shell    68 S   1     bf  189 -   189          5.419266274980         -0.820785557181         -7.411420477556
      0.1612777588D+00  0.1000000000D+01
 Atom C24      Shell    69 S   6     bf  190 -   190          5.340773438695          2.522659287532          3.081834976123
      0.3047524880D+04  0.1834737132D-02
      0.4573695180D+03  0.1403732281D-01
      0.1039486850D+03  0.6884262226D-01
      0.2921015530D+02  0.2321844432D+00
      0.9286662960D+01  0.4679413484D+00
      0.3163926960D+01  0.3623119853D+00
 Atom C24      Shell    70 SP   3    bf  191 -   194          5.340773438695          2.522659287532          3.081834976123
      0.7868272350D+01 -0.1193324198D+00  0.6899906659D-01
      0.1881288540D+01 -0.1608541517D+00  0.3164239610D+00
      0.5442492580D+00  0.1143456438D+01  0.7443082909D+00
 Atom C24      Shell    71 SP   1    bf  195 -   198          5.340773438695          2.522659287532          3.081834976123
      0.1687144782D+00  0.1000000000D+01  0.1000000000D+01
 Atom C24      Shell    72 D   1     bf  199 -   204          5.340773438695          2.522659287532          3.081834976123
      0.8000000000D+00  0.1000000000D+01
 Atom H25      Shell    73 S   3     bf  205 -   205          5.023890479115          1.286401150597          4.707367569056
      0.1873113696D+02  0.3349460434D-01
      0.2825394365D+01  0.2347269535D+00
      0.6401216923D+00  0.8137573261D+00
 Atom H25      Shell    74 S   1     bf  206 -   206          5.023890479115          1.286401150597          4.707367569056
      0.1612777588D+00  0.1000000000D+01
 Atom H26      Shell    75 S   3     bf  207 -   207          5.080331855492          4.458969399470          3.764255749615
      0.1873113696D+02  0.3349460434D-01
      0.2825394365D+01  0.2347269535D+00
      0.6401216923D+00  0.8137573261D+00
 Atom H26      Shell    76 S   1     bf  208 -   208          5.080331855492          4.458969399470          3.764255749615
      0.1612777588D+00  0.1000000000D+01
 Atom C27      Shell    77 S   6     bf  209 -   209         12.148271175792          1.974484734110         -2.364208963824
      0.3047524880D+04  0.1834737132D-02
      0.4573695180D+03  0.1403732281D-01
      0.1039486850D+03  0.6884262226D-01
      0.2921015530D+02  0.2321844432D+00
      0.9286662960D+01  0.4679413484D+00
      0.3163926960D+01  0.3623119853D+00
 Atom C27      Shell    78 SP   3    bf  210 -   213         12.148271175792          1.974484734110         -2.364208963824
      0.7868272350D+01 -0.1193324198D+00  0.6899906659D-01
      0.1881288540D+01 -0.1608541517D+00  0.3164239610D+00
      0.5442492580D+00  0.1143456438D+01  0.7443082909D+00
 Atom C27      Shell    79 SP   1    bf  214 -   217         12.148271175792          1.974484734110         -2.364208963824
      0.1687144782D+00  0.1000000000D+01  0.1000000000D+01
 Atom C27      Shell    80 D   1     bf  218 -   223         12.148271175792          1.974484734110         -2.364208963824
      0.8000000000D+00  0.1000000000D+01
 Atom H28      Shell    81 S   3     bf  224 -   224         11.658054522866          3.993295300133         -2.372142279795
      0.1873113696D+02  0.3349460434D-01
      0.2825394365D+01  0.2347269535D+00
      0.6401216923D+00  0.8137573261D+00
 Atom H28      Shell    82 S   1     bf  225 -   225         11.658054522866          3.993295300133         -2.372142279795
      0.1612777588D+00  0.1000000000D+01
 Atom C29      Shell    83 S   6     bf  226 -   226          0.744008497738          1.081100056301          1.614486576768
      0.3047524880D+04  0.1834737132D-02
      0.4573695180D+03  0.1403732281D-01
      0.1039486850D+03  0.6884262226D-01
      0.2921015530D+02  0.2321844432D+00
      0.9286662960D+01  0.4679413484D+00
      0.3163926960D+01  0.3623119853D+00
 Atom C29      Shell    84 SP   3    bf  227 -   230          0.744008497738          1.081100056301          1.614486576768
      0.7868272350D+01 -0.1193324198D+00  0.6899906659D-01
      0.1881288540D+01 -0.1608541517D+00  0.3164239610D+00
      0.5442492580D+00  0.1143456438D+01  0.7443082909D+00
 Atom C29      Shell    85 SP   1    bf  231 -   234          0.744008497738          1.081100056301          1.614486576768
      0.1687144782D+00  0.1000000000D+01  0.1000000000D+01
 Atom C29      Shell    86 D   1     bf  235 -   240          0.744008497738          1.081100056301          1.614486576768
      0.8000000000D+00  0.1000000000D+01
 Atom H30      Shell    87 S   3     bf  241 -   241          0.000000000000          0.000000000000          0.000000000000
      0.1873113696D+02  0.3349460434D-01
      0.2825394365D+01  0.2347269535D+00
      0.6401216923D+00  0.8137573261D+00
 Atom H30      Shell    88 S   1     bf  242 -   242          0.000000000000          0.000000000000          0.000000000000
      0.1612777588D+00  0.1000000000D+01
 Atom C31      Shell    89 S   6     bf  243 -   243          5.227618659864         -2.539354507690          0.073733995657
      0.3047524880D+04  0.1834737132D-02
      0.4573695180D+03  0.1403732281D-01
      0.1039486850D+03  0.6884262226D-01
      0.2921015530D+02  0.2321844432D+00
      0.9286662960D+01  0.4679413484D+00
      0.3163926960D+01  0.3623119853D+00
 Atom C31      Shell    90 SP   3    bf  244 -   247          5.227618659864         -2.539354507690          0.073733995657
      0.7868272350D+01 -0.1193324198D+00  0.6899906659D-01
      0.1881288540D+01 -0.1608541517D+00  0.3164239610D+00
      0.5442492580D+00  0.1143456438D+01  0.7443082909D+00
 Atom C31      Shell    91 SP   1    bf  248 -   251          5.227618659864         -2.539354507690          0.073733995657
      0.1687144782D+00  0.1000000000D+01  0.1000000000D+01
 Atom C31      Shell    92 D   1     bf  252 -   257          5.227618659864         -2.539354507690          0.073733995657
      0.8000000000D+00  0.1000000000D+01
 Atom H32      Shell    93 S   3     bf  258 -   258          6.528343008583         -3.688115433392         -1.046720646711
      0.1873113696D+02  0.3349460434D-01
      0.2825394365D+01  0.2347269535D+00
      0.6401216923D+00  0.8137573261D+00
 Atom H32      Shell    94 S   1     bf  259 -   259          6.528343008583         -3.688115433392         -1.046720646711
      0.1612777588D+00  0.1000000000D+01
 Atom H33      Shell    95 S   3     bf  260 -   260          5.888845795727         -2.612002194280          2.029932908226
      0.1873113696D+02  0.3349460434D-01
      0.2825394365D+01  0.2347269535D+00
      0.6401216923D+00  0.8137573261D+00
 Atom H33      Shell    96 S   1     bf  261 -   261          5.888845795727         -2.612002194280          2.029932908226
      0.1612777588D+00  0.1000000000D+01
 Atom H34      Shell    97 S   3     bf  262 -   262          3.379260313884         -3.468262465215         -0.001384904694
      0.1873113696D+02  0.3349460434D-01
      0.2825394365D+01  0.2347269535D+00
      0.6401216923D+00  0.8137573261D+00
 Atom H34      Shell    98 S   1     bf  263 -   263          3.379260313884         -3.468262465215         -0.001384904694
      0.1612777588D+00  0.1000000000D+01
 Atom C35      Shell    99 S   6     bf  264 -   264         13.377456067812          0.048714324014         -6.571871678424
      0.3047524880D+04  0.1834737132D-02
      0.4573695180D+03  0.1403732281D-01
      0.1039486850D+03  0.6884262226D-01
      0.2921015530D+02  0.2321844432D+00
      0.9286662960D+01  0.4679413484D+00
      0.3163926960D+01  0.3623119853D+00
 Atom C35      Shell   100 SP   3    bf  265 -   268         13.377456067812          0.048714324014         -6.571871678424
      0.7868272350D+01 -0.1193324198D+00  0.6899906659D-01
      0.1881288540D+01 -0.1608541517D+00  0.3164239610D+00
      0.5442492580D+00  0.1143456438D+01  0.7443082909D+00
 Atom C35      Shell   101 SP   1    bf  269 -   272         13.377456067812          0.048714324014         -6.571871678424
      0.1687144782D+00  0.1000000000D+01  0.1000000000D+01
 Atom C35      Shell   102 D   1     bf  273 -   278         13.377456067812          0.048714324014         -6.571871678424
      0.8000000000D+00  0.1000000000D+01
 Atom C36      Shell   103 S   6     bf  279 -   279         10.002553840336         -0.490532029321         -9.849084362282
      0.3047524880D+04  0.1834737132D-02
      0.4573695180D+03  0.1403732281D-01
      0.1039486850D+03  0.6884262226D-01
      0.2921015530D+02  0.2321844432D+00
      0.9286662960D+01  0.4679413484D+00
      0.3163926960D+01  0.3623119853D+00
 Atom C36      Shell   104 SP   3    bf  280 -   283         10.002553840336         -0.490532029321         -9.849084362282
      0.7868272350D+01 -0.1193324198D+00  0.6899906659D-01
      0.1881288540D+01 -0.1608541517D+00  0.3164239610D+00
      0.5442492580D+00  0.1143456438D+01  0.7443082909D+00
 Atom C36      Shell   105 SP   1    bf  284 -   287         10.002553840336         -0.490532029321         -9.849084362282
      0.1687144782D+00  0.1000000000D+01  0.1000000000D+01
 Atom C36      Shell   106 D   1     bf  288 -   293         10.002553840336         -0.490532029321         -9.849084362282
      0.8000000000D+00  0.1000000000D+01
 Atom H37      Shell   107 S   3     bf  294 -   294          9.566128752008          1.534050138257         -9.997531609679
      0.1873113696D+02  0.3349460434D-01
      0.2825394365D+01  0.2347269535D+00
      0.6401216923D+00  0.8137573261D+00
 Atom H37      Shell   108 S   1     bf  295 -   295          9.566128752008          1.534050138257         -9.997531609679
      0.1612777588D+00  0.1000000000D+01
 Atom H38      Shell   109 S   3     bf  296 -   296          8.260181143566         -1.502434207472        -10.320506554982
      0.1873113696D+02  0.3349460434D-01
      0.2825394365D+01  0.2347269535D+00
      0.6401216923D+00  0.8137573261D+00
 Atom H38      Shell   110 S   1     bf  297 -   297          8.260181143566         -1.502434207472        -10.320506554982
      0.1612777588D+00  0.1000000000D+01
 Atom C39      Shell   111 S   6     bf  298 -   298         13.917063906858          1.434161954976         -4.519543625797
      0.3047524880D+04  0.1834737132D-02
[...]
 **** Fit       0.004409
 **** Fit       0.005274
 **** Fit       0.005312
 **** Fit       0.004983
 **** Fit       0.004561
 **** Fit       0.004129
 **** Fit       0.003674
 **** Fit       0.003164
 **** Fit       0.002588
 **** Fit       0.001960
 **** Fit       0.001303
 **** Fit      -0.025990
 **** Fit      -0.029254
 **** Fit      -0.032223
 **** Fit      -0.034423
 **** Fit      -0.035303
 **** Fit      -0.034416
 **** Fit      -0.031642
 **** Fit      -0.027288
 **** Fit      -0.021971
 **** Fit      -0.016335
 **** Fit      -0.010854
 **** Fit      -0.005818
 **** Fit      -0.001474
 **** Fit       0.001876
 **** Fit       0.004002
 **** Fit       0.004968
 **** Fit       0.005139
 **** Fit       0.004922
 **** Fit       0.004568
 **** Fit       0.004151
 **** Fit       0.003650
 **** Fit       0.003032
 **** Fit       0.002291
 **** Fit       0.001458
 **** Fit       0.000581
 **** Fit      -0.024893
 **** Fit      -0.027669
 **** Fit      -0.030073
 **** Fit      -0.031711
 **** Fit      -0.032167
 **** Fit      -0.031140
 **** Fit      -0.028584
 **** Fit      -0.024762
 **** Fit      -0.020143
 **** Fit      -0.015225
 **** Fit      -0.010397
 **** Fit      -0.005928
 **** Fit      -0.002051
 **** Fit       0.000988
 **** Fit       0.003021
 **** Fit       0.004098
 **** Fit       0.004481
 **** Fit       0.004474
 **** Fit       0.004273
 **** Fit       0.003935
 **** Fit       0.003441
 **** Fit       0.002761
 **** Fit       0.001900
 **** Fit       0.000907
 **** Fit      -0.000149
 **** Fit      -0.001196
 **** Fit      -0.025249
 **** Fit      -0.027053
 **** Fit      -0.028153
 **** Fit      -0.028261
 **** Fit      -0.027194
 **** Fit      -0.024951
 **** Fit      -0.021738
 **** Fit      -0.017899
 **** Fit      -0.013800
 **** Fit      -0.009748
 **** Fit      -0.005979
 **** Fit      -0.002688
 **** Fit      -0.000055
 **** Fit       0.001813
 **** Fit       0.002949
 **** Fit       0.003520
 **** Fit       0.003722
 **** Fit       0.003687
 **** Fit       0.003453
 **** Fit       0.002998
 **** Fit       0.002300
 **** Fit       0.001378
 **** Fit       0.000290
 **** Fit      -0.000877
 **** Fit      -0.002036
 **** Fit      -0.024433
 **** Fit      -0.024304
 **** Fit      -0.023274
 **** Fit      -0.021368
 **** Fit      -0.015635
 **** Fit      -0.012317
 **** Fit      -0.009023
 **** Fit      -0.005943
 **** Fit      -0.003232
 **** Fit      -0.001013
 **** Fit       0.000647
 **** Fit       0.001767
 **** Fit       0.002444
 **** Fit       0.002790
 **** Fit       0.002881
 **** Fit       0.002734
 **** Fit       0.002329
 **** Fit       0.001651
 **** Fit       0.000725
 **** Fit      -0.000384
 **** Fit      -0.001585
 **** Fit      -0.010920
 **** Fit      -0.008291
 **** Fit      -0.005819
 **** Fit      -0.003622
 **** Fit      -0.001785
 **** Fit      -0.000350
 **** Fit       0.000690
 **** Fit       0.001385
 **** Fit       0.001794
 **** Fit       0.001952
 **** Fit       0.001861
 **** Fit       0.001503
 **** Fit       0.000869
 **** Fit      -0.000014
 **** Fit      -0.001082
 **** Fit      -0.002249
 **** Fit      -0.007593
 **** Fit      -0.005629
 **** Fit      -0.003865
 **** Fit      -0.002362
 **** Fit      -0.001150
 **** Fit      -0.000230
 **** Fit       0.000421
 **** Fit       0.000827
 **** Fit       0.001001
 **** Fit       0.000935
 **** Fit       0.000616
 **** Fit       0.000039
 **** Fit      -0.000770
 **** Fit      -0.001754
 **** Fit       0.000048
 **** Fit      -0.000240
 **** Fit      -0.000755
 **** Fit       0.009287
 **** Fit       0.010070
 **** Fit       0.010538
 **** Fit       0.010677
 **** Fit       0.006633
 **** Fit       0.007961
 **** Fit       0.009128
 **** Fit       0.010008
 **** Fit       0.010513
 **** Fit       0.010626
 **** Fit       0.010403
 **** Fit       0.009944
 **** Fit       0.004249
 **** Fit       0.005681
 **** Fit       0.007115
 **** Fit       0.008391
 **** Fit       0.009348
 **** Fit       0.009881
 **** Fit       0.009975
 **** Fit       0.009706
 **** Fit       0.009201
 **** Fit       0.008588
 **** Fit       0.006855
 **** Fit       0.006394
 **** Fit       0.005989
 **** Fit       0.002633
 **** Fit       0.004044
 **** Fit       0.005493
 **** Fit       0.006802
 **** Fit       0.007791
 **** Fit       0.008339
 **** Fit       0.008437
 **** Fit       0.008183
 **** Fit       0.007725
 **** Fit       0.007200
 **** Fit       0.006694
 **** Fit       0.006247
 **** Fit       0.005866
 **** Fit       0.005541
 **** Fit       0.005263
 **** Fit       0.005023
 **** Fit      -0.000706
 **** Fit       0.000336
 **** Fit       0.001571
 **** Fit       0.002883
 **** Fit       0.004099
 **** Fit       0.005035
 **** Fit       0.005578
 **** Fit       0.005732
 **** Fit       0.005610
 **** Fit       0.005359
 **** Fit       0.005094
 **** Fit       0.004873
 **** Fit       0.004706
 **** Fit       0.004582
 **** Fit       0.004485
 **** Fit       0.004400
 **** Fit       0.004321
 **** Fit      -0.003323
 **** Fit      -0.002657
 **** Fit      -0.001792
 **** Fit      -0.000815
 **** Fit       0.000132
 **** Fit       0.000902
 **** Fit       0.001418
 **** Fit       0.001710
 **** Fit       0.001886
 **** Fit       0.002056
 **** Fit       0.002277
 **** Fit       0.002544
 **** Fit       0.002827
 **** Fit       0.003093
 **** Fit       0.003319
 **** Fit       0.003494
 **** Fit       0.003616
 **** Fit       0.003690
 **** Fit       0.003726
 **** Fit      -0.006353
 **** Fit      -0.006227
 **** Fit      -0.005924
 **** Fit      -0.005487
 **** Fit      -0.004992
 **** Fit      -0.004505
 **** Fit      -0.004031
 **** Fit      -0.003505
 **** Fit      -0.002845
 **** Fit      -0.002023
 **** Fit      -0.001089
 **** Fit      -0.000130
 **** Fit       0.000768
 **** Fit       0.001549
 **** Fit       0.002186
 **** Fit       0.002673
 **** Fit       0.003018
 **** Fit       0.003240
 **** Fit       0.003369
 **** Fit       0.003435
 **** Fit      -0.009579
 **** Fit      -0.010102
 **** Fit      -0.010496
 **** Fit      -0.010744
 **** Fit      -0.010828
 **** Fit      -0.010699
 **** Fit      -0.010263
 **** Fit      -0.009415
 **** Fit      -0.008126
 **** Fit      -0.006486
 **** Fit      -0.004674
 **** Fit      -0.002883
 **** Fit      -0.001252
 **** Fit       0.000136
 **** Fit       0.001245
 **** Fit       0.002069
 **** Fit       0.002631
 **** Fit       0.002975
 **** Fit       0.003161
 **** Fit       0.003243
 **** Fit       0.003266
 **** Fit      -0.013889
 **** Fit      -0.015003
 **** Fit      -0.015959
 **** Fit      -0.016635
 **** Fit      -0.016857
 **** Fit      -0.016427
 **** Fit      -0.015213
 **** Fit      -0.013251
 **** Fit      -0.010757
 **** Fit      -0.008044
 **** Fit      -0.005395
 **** Fit      -0.003006
 **** Fit      -0.000986
 **** Fit       0.000609
 **** Fit       0.001761
 **** Fit       0.002507
 **** Fit       0.002927
 **** Fit       0.003122
 **** Fit       0.003178
 **** Fit       0.003158
 **** Fit      -0.017161
 **** Fit      -0.018883
 **** Fit      -0.020427
 **** Fit      -0.021574
 **** Fit      -0.022046
 **** Fit      -0.021571
 **** Fit      -0.020010
 **** Fit      -0.017462
 **** Fit      -0.014247
 **** Fit      -0.010774
 **** Fit      -0.007394
 **** Fit      -0.004338
 **** Fit      -0.001750
 **** Fit       0.000282
 **** Fit       0.001716
 **** Fit       0.002598
 **** Fit       0.003047
 **** Fit       0.003212
 **** Fit       0.003212
 **** Fit       0.003124
 **** Fit      -0.019564
 **** Fit      -0.021678
 **** Fit      -0.023575
 **** Fit      -0.024974
 **** Fit      -0.025538
 **** Fit      -0.024968
 **** Fit      -0.023143
 **** Fit      -0.020211
 **** Fit      -0.016545
 **** Fit      -0.012593
 **** Fit      -0.008732
 **** Fit      -0.005217
 **** Fit      -0.002219
 **** Fit       0.000133
 **** Fit       0.001773
 **** Fit       0.002745
 **** Fit       0.003203
 **** Fit       0.003331
 **** Fit       0.003275
 **** Fit       0.003118
 **** Fit       0.002899
 **** Fit      -0.020915
 **** Fit      -0.023160
 **** Fit      -0.025138
 **** Fit      -0.026548
 **** Fit      -0.027047
 **** Fit      -0.026360
 **** Fit      -0.024400
 **** Fit      -0.021336
 **** Fit      -0.017541
 **** Fit      -0.013447
 **** Fit      -0.009421
 **** Fit      -0.005723
 **** Fit      -0.002542
 **** Fit      -0.000034
 **** Fit       0.001718
 **** Fit       0.002753
 **** Fit       0.003232
 **** Fit       0.003355
 **** Fit       0.003275
 **** Fit       0.003075
 **** Fit       0.002789
 **** Fit       0.002427
 **** Fit      -0.023371
 **** Fit      -0.025203
 **** Fit      -0.026437
 **** Fit      -0.026770
 **** Fit      -0.025981
 **** Fit      -0.024018
 **** Fit      -0.021051
 **** Fit      -0.017412
 **** Fit      -0.013480
 **** Fit      -0.009586
 **** Fit      -0.005977
 **** Fit      -0.002847
 **** Fit      -0.000353
 **** Fit       0.001416
 **** Fit       0.002494
 **** Fit       0.003025
 **** Fit       0.003192
 **** Fit       0.003134
 **** Fit       0.002930
 **** Fit       0.002605
 **** Fit       0.002171
 **** Fit       0.001638
 **** Fit      -0.024107
 **** Fit      -0.025068
 **** Fit      -0.025204
 **** Fit      -0.024353
 **** Fit      -0.022497
 **** Fit      -0.019787
 **** Fit      -0.016495
 **** Fit      -0.012935
 **** Fit      -0.009386
 **** Fit      -0.006074
 **** Fit      -0.003176
 **** Fit      -0.000834
 **** Fit       0.000874
 **** Fit       0.001971
 **** Fit       0.002568
 **** Fit       0.002811
 **** Fit       0.002813
 **** Fit       0.002637
 **** Fit       0.002305
 **** Fit       0.001825
 **** Fit       0.001215
 **** Fit      -0.022910
 **** Fit      -0.022048
 **** Fit      -0.015141
 **** Fit      -0.012055
 **** Fit      -0.008966
 **** Fit      -0.006062
 **** Fit      -0.003499
 **** Fit      -0.001392
 **** Fit       0.000195
 **** Fit       0.001275
 **** Fit       0.001925
 **** Fit       0.002245
 **** Fit       0.002317
 **** Fit       0.002186
 **** Fit       0.001868
 **** Fit       0.001372
 **** Fit       0.000720
 **** Fit      -0.011034
 **** Fit      -0.008430
 **** Fit      -0.005967
 **** Fit      -0.003772
 **** Fit      -0.001935
 **** Fit      -0.000506
 **** Fit       0.000519
 **** Fit       0.001186
 **** Fit       0.001558
 **** Fit       0.001687
 **** Fit       0.001599
 **** Fit       0.001306
 **** Fit       0.000818
 **** Fit       0.000158
 **** Fit      -0.007849
 **** Fit      -0.005806
 **** Fit      -0.003967
 **** Fit      -0.002402
 **** Fit      -0.001149
 **** Fit      -0.000211
 **** Fit       0.000434
 **** Fit       0.000822
 **** Fit       0.000659
 **** Fit       0.000196
 **** Fit      -0.002769
 **** Fit      -0.001695
 **** Fit       0.005707
 **** Fit       0.006402
 **** Fit       0.006851
 **** Fit       0.007044
 **** Fit       0.007016
 **** Fit       0.003273
 **** Fit       0.004145
 **** Fit       0.004844
 **** Fit       0.005310
 **** Fit       0.005536
 **** Fit       0.005563
 **** Fit       0.005458
 **** Fit       0.000221
 **** Fit       0.001050
 **** Fit       0.001835
 **** Fit       0.002491
 **** Fit       0.002965
 **** Fit       0.003257
 **** Fit       0.003410
 **** Fit       0.003484
 **** Fit      -0.002453
 **** Fit      -0.001857
 **** Fit      -0.001251
 **** Fit      -0.000696
 **** Fit      -0.000221
 **** Fit       0.000182
 **** Fit       0.000551
 **** Fit       0.000922
 **** Fit       0.001309
 **** Fit      -0.005589
 **** Fit      -0.005330
 **** Fit      -0.004991
 **** Fit      -0.004588
 **** Fit      -0.004117
 **** Fit      -0.003554
 **** Fit      -0.002878
 **** Fit      -0.002095
 **** Fit      -0.001244
 **** Fit       0.000430
 **** Fit       0.001151
 **** Fit       0.001754
 **** Fit       0.002229
 **** Fit       0.002579
 **** Fit       0.002819
 **** Fit      -0.008956
 **** Fit      -0.009101
 **** Fit      -0.009083
 **** Fit      -0.008863
 **** Fit      -0.008390
 **** Fit      -0.007627
 **** Fit      -0.006578
 **** Fit      -0.005305
 **** Fit      -0.002516
 **** Fit      -0.001213
 **** Fit      -0.000072
 **** Fit       0.000870
 **** Fit       0.001601
 **** Fit       0.002129
 **** Fit       0.002482
 **** Fit       0.002697
 **** Fit      -0.012231
 **** Fit      -0.012783
 **** Fit      -0.013087
 **** Fit      -0.013042
 **** Fit      -0.012553
 **** Fit      -0.011572
 **** Fit      -0.010135
 **** Fit      -0.008361
 **** Fit      -0.006421
 **** Fit      -0.004486
 **** Fit      -0.002691
 **** Fit      -0.001127
 **** Fit       0.000152
 **** Fit       0.001129
 **** Fit       0.001819
 **** Fit       0.002263
 **** Fit       0.002519
 **** Fit       0.002640
 **** Fit      -0.015962
 **** Fit      -0.016524
 **** Fit      -0.016606
 **** Fit      -0.016081
 **** Fit      -0.014898
 **** Fit      -0.013121
 **** Fit      -0.008513
 **** Fit      -0.006115
 **** Fit      -0.003891
 **** Fit      -0.001957
 **** Fit      -0.000382
 **** Fit       0.000806
 **** Fit       0.001627
 **** Fit       0.002136
 **** Fit       0.002411
 **** Fit       0.002522
 **** Fit      -0.018300
 **** Fit      -0.019012
 **** Fit      -0.019149
 **** Fit      -0.018571
 **** Fit      -0.017233
 **** Fit      -0.015220
 **** Fit      -0.012729
 **** Fit      -0.010010
 **** Fit      -0.007295
 **** Fit      -0.004770
 **** Fit      -0.002568
 **** Fit      -0.000776
 **** Fit       0.000569
 **** Fit       0.001484
 **** Fit       0.002038
 **** Fit       0.002322
 **** Fit       0.002418
 **** Fit      -0.020366
 **** Fit      -0.020486
 **** Fit      -0.019850
 **** Fit      -0.018425
 **** Fit      -0.016309
 **** Fit      -0.013704
 **** Fit      -0.010859
 **** Fit      -0.008010
 **** Fit      -0.005346
 **** Fit      -0.003012
 **** Fit      -0.001104
 **** Fit       0.000329
 **** Fit       0.001304
 **** Fit       0.001892
 **** Fit       0.002187
 **** Fit       0.002276
 **** Fit      -0.020677
 **** Fit      -0.019993
 **** Fit      -0.011121
 **** Fit      -0.008316
 **** Fit      -0.005678
 **** Fit      -0.003350
 **** Fit      -0.001434
 **** Fit       0.000020
 **** Fit       0.001023
 **** Fit       0.001639
 **** Fit       0.001955
 **** Fit       0.002053
 **** Fit      -0.010929
 **** Fit      -0.008307
 **** Fit      -0.005828
 **** Fit      -0.003623
 **** Fit      -0.001789
 **** Fit      -0.000374
 **** Fit       0.000626
 **** Fit       0.001262
 **** Fit       0.001606
 **** Fit       0.001726
 **** Fit      -0.008082
 **** Fit      -0.005847
 **** Fit      -0.003843
 **** Fit      -0.002154
 **** Fit      -0.000825
 **** Fit       0.000142
 **** Fit       0.000783
 **** Fit       0.001151
 **** Fit      -0.005772
 **** Fit      -0.004007
 **** Fit      -0.002500
 **** Fit      -0.001289
 **** Fit      -0.000380
 **** Fit       0.000246
 **** Fit      -0.001446
 **** Fit      -0.001020
 **** Fit      -0.000602
 **** Fit      -0.004658
 **** Fit      -0.004307
 **** Fit      -0.003870
 **** Fit      -0.003342
 **** Fit      -0.007356
 **** Fit      -0.006906
 **** Fit       0.000557
 **** Fit       0.001192
 **** Fit      -0.002400
 **** Fit      -0.001180
 **** Fit      -0.000151
 **** Fit       0.000668
 **** Fit       0.001280
 **** Fit       0.001707
 **** Fit      -0.003446
 **** Fit      -0.001975
 **** Fit      -0.000739
 **** Fit       0.000238
 **** Fit       0.000960
 **** Fit       0.001455
 **** Fit      -0.006113
 **** Fit      -0.004260
 **** Fit      -0.002606
 **** Fit      -0.001216
 **** Fit      -0.000121
 **** Fit       0.000683
 **** Fit       0.001228
 **** Fit       0.001560
 **** Fit      -0.006797
 **** Fit      -0.004840
 **** Fit      -0.003088
 **** Fit      -0.001612
 **** Fit      -0.000446
 **** Fit       0.000410
 **** Fit       0.000988
 **** Fit       0.001338
 **** Fit      -0.005211
 **** Fit      -0.003449
 **** Fit      -0.001956
 **** Fit      -0.000770
 **** Fit       0.000108
 **** Fit       0.000706
 **** Fit      -0.005411
 **** Fit      -0.003716
 **** Fit      -0.002269
 **** Fit      -0.001107
 **** Fit      -0.000235
 **** Fit       0.000368
 **** Fit      -0.002554
 **** Fit      -0.001452
 -----------------------------------------------------------------
 Leave Link  602 at Wed May 17 12:15:12 2017, MaxMem=    33554432 cpu:        38.2
 (Enter /home/michal/g09/l9999.exe)

 Test job not archived.
 1\1\GINC-LINUX\SP\RHF\6-31G(d)\C27H46O2\MICHAL\17-May-2017\0\\#P HF/6-
 31G* SCF(Conver=6) NoSymm Test Pop=chelpg IOp(6/33=2) GFInput GFPrint\
 \MEP - Input generated by R.E.D.-III.x MOLECULE\\0,1\O,0,7.12446287,0.
 8783051,0.\H,0,7.53054713,0.,0.\O,0,8.69907338,-0.15769291,-6.9145069\
 H,0,8.87404481,-1.10925913,-6.92325041\C,0,2.66476307,0.10428693,-0.48
 934975\C,0,4.02491173,0.84951594,-0.44647719\H,0,3.82734287,1.83263019
 ,-0.90734766\C,0,5.13042717,0.2172481,-1.30874035\H,0,5.37088403,-0.78
 572637,-0.92667874\C,0,4.63794553,0.10808113,-2.78207326\H,0,4.5435918
 8,1.14751067,-3.13734426\C,0,1.83532431,1.01574382,0.46844848\H,0,1.70
 841046,1.94990947,-0.09797021\C,0,2.18218343,0.10324304,-1.94925424\H,
 0,1.98925483,1.1407654,-2.25830408\H,0,1.23184738,-0.43698681,-2.05544
 511\C,0,5.68830694,-0.56628592,-3.73328872\C,0,4.25889782,1.11525114,1
 .0542242\H,0,4.91890153,1.96917874,1.2239824\H,0,4.74668198,0.25724564
 ,1.52855919\C,0,3.22783857,-0.52470529,-2.89127858\H,0,3.28620729,-1.5
 9866728,-2.68650375\H,0,2.8677522,-0.43434101,-3.9219548\C,0,2.8262155
 8,1.3349338,1.63083683\H,0,2.65852834,0.68073417,2.49103163\H,0,2.6883
 9583,2.35958498,1.99195835\C,0,6.42858823,1.04485232,-1.2510855\H,0,6.
 16917675,2.11316086,-1.25528363\C,0,0.39371234,0.57209351,0.8543495\H,
 0,0.,0.,0.\C,0,2.76633665,-1.34376853,0.03901835\H,0,3.45465033,-1.951
 66663,-0.55390071\H,0,3.11624298,-1.38221203,1.07419423\H,0,1.78822754
 ,-1.83532545,-0.00073286\C,0,7.07904486,0.02577851,-3.47768471\C,0,5.2
 9312352,-0.25957837,-5.21191097\H,0,5.06217731,0.81178437,-5.29046587\
 H,0,4.3710996,-0.79505394,-5.46137685\C,0,7.36459303,0.75892582,-2.391
 63948\H,0,8.361696,1.18398305,-2.27686473\C,0,5.75334689,-2.10282342,-
 3.52204247\H,0,4.83613963,-2.59208399,-3.86394184\H,0,6.58226872,-2.54
 991312,-4.07687545\H,0,5.90077634,-2.35203539,-2.46675323\C,0,8.147504
 88,-0.23940309,-4.52167603\H,0,9.05892165,0.31635874,-4.28054128\H,0,8
 .41756077,-1.30787519,-4.51491765\C,0,6.36884623,-0.5985075,-6.2555291
 7\H,0,6.54672306,-1.68378265,-6.28617388\H,0,6.02445638,-0.30930844,-7
 .25492244\C,0,0.28516695,-0.33756242,2.1017986\H,0,1.11372858,-1.05338
 3,2.12391792\H,0,0.39745815,0.28175451,3.00133115\C,0,7.68496753,0.112
 86077,-5.94318959\H,0,7.53261363,1.19703508,-6.00953088\C,0,-0.5079048
 4,1.81317112,1.0171207\H,0,-0.13333101,2.46412796,1.81702083\H,0,-1.53
 837053,1.5409482,1.26694729\H,0,-0.53820233,2.40373727,0.09471977\C,0,
 -1.0287929,-1.13398244,2.18021161\H,0,-1.88609537,-0.45147611,2.223052
 09\H,0,-1.14786564,-1.70200882,1.24662256\C,0,-1.09980466,-2.12955023,
 3.35272063\H,0,-0.26861895,-2.84306396,3.25543409\H,0,-2.0210062,-2.72
 295899,3.25397371\C,0,-1.06415932,-1.53300485,4.77611965\H,0,-0.136055
 4,-0.95369402,4.88414533\C,0,-1.02733284,-2.65921709,5.8216704\H,0,-1.
 93522352,-3.27373968,5.76669359\H,0,-0.96035177,-2.25643994,6.83876189
 \H,0,-0.1678138,-3.32134882,5.66582593\C,0,-2.24472599,-0.58644743,5.0
 4536313\H,0,-3.20076424,-1.11282524,4.92577684\H,0,-2.20714023,-0.1955
 271,6.06852487\H,0,-2.2497254,0.27185241,4.3657853\\Version=EM64L-G09R
 evD.01\HF=-1198.9250456\RMSD=4.909e-07\Dipole=-0.4325259,-0.9515919,-0
 .2166618\Quadrupole=-6.4756017,8.1913995,-1.7157978,-15.3739416,4.5295
 296,6.3591041\PG=C01 [X(C27H46O2)]\\@


 I do not feel obliged to believe that the same God who
 has endowed us with sense, reason, and intellect has
 intended us to forgo their use.
                   --Galileo Galilei
 Job cpu time:       0 days  0 hours 11 minutes 59.2 seconds.
 File lengths (MBytes):  RWF=    150 Int=      0 D2E=      0 Chk=     11 Scr=      1
 Normal termination of Gaussian 09 at Wed May 17 12:15:12 2017.
