 Entering Gaussian System, Link 0=/home/michal/g09/g09
 Input=JOB2-gau_m1-3-2.com
 Output=JOB2-gau_m1-3-2.log
 Initial command:
 /home/michal/g09/l1.exe "/home/michal/gauss_scratch/Gau-30279.inp" -scrdir="/home/michal/gauss_scratch/"
 Entering Link 1 = /home/michal/g09/l1.exe PID=     30280.
  
 Copyright (c) 1988,1990,1992,1993,1995,1998,2003,2009,2013,
            Gaussian, Inc.  All Rights Reserved.
  
 This is part of the Gaussian(R) 09 program.  It is based on
 the Gaussian(R) 03 system (copyright 2003, Gaussian, Inc.),
 the Gaussian(R) 98 system (copyright 1998, Gaussian, Inc.),
 the Gaussian(R) 94 system (copyright 1995, Gaussian, Inc.),
 the Gaussian 92(TM) system (copyright 1992, Gaussian, Inc.),
 the Gaussian 90(TM) system (copyright 1990, Gaussian, Inc.),
 the Gaussian 88(TM) system (copyright 1988, Gaussian, Inc.),
 the Gaussian 86(TM) system (copyright 1986, Carnegie Mellon
 University), and the Gaussian 82(TM) system (copyright 1983,
 Carnegie Mellon University). Gaussian is a federally registered
 trademark of Gaussian, Inc.
  
 This software contains proprietary and confidential information,
 including trade secrets, belonging to Gaussian, Inc.
  
 This software is provided under written license and may be
 used, copied, transmitted, or stored only in accord with that
 written license.
  
 The following legend is applicable only to US Government
 contracts under FAR:
  
                    RESTRICTED RIGHTS LEGEND
  
 Use, reproduction and disclosure by the US Government is
 subject to restrictions as set forth in subparagraphs (a)
 and (c) of the Commercial Computer Software - Restricted
 Rights clause in FAR 52.227-19.
  
 Gaussian, Inc.
 340 Quinnipiac St., Bldg. 40, Wallingford CT 06492
  
  
 ---------------------------------------------------------------
 Warning -- This program may not be used in any manner that
 competes with the business of Gaussian, Inc. or will provide
 assistance to any competitor of Gaussian, Inc.  The licensee
 of this program is prohibited from giving any competitor of
 Gaussian, Inc. access to this program.  By using this program,
 the user acknowledges that Gaussian, Inc. is engaged in the
 business of creating and licensing software in the field of
 computational chemistry and represents and warrants to the
 licensee that it is not a competitor of Gaussian, Inc. and that
 it will not use this program in any manner prohibited above.
 ---------------------------------------------------------------
  

 Cite this work as:
 Gaussian 09, Revision D.01,
 M. J. Frisch, G. W. Trucks, H. B. Schlegel, G. E. Scuseria, 
 M. A. Robb, J. R. Cheeseman, G. Scalmani, V. Barone, B. Mennucci, 
 G. A. Petersson, H. Nakatsuji, M. Caricato, X. Li, H. P. Hratchian, 
 A. F. Izmaylov, J. Bloino, G. Zheng, J. L. Sonnenberg, M. Hada, 
 M. Ehara, K. Toyota, R. Fukuda, J. Hasegawa, M. Ishida, T. Nakajima, 
 Y. Honda, O. Kitao, H. Nakai, T. Vreven, J. A. Montgomery, Jr., 
 J. E. Peralta, F. Ogliaro, M. Bearpark, J. J. Heyd, E. Brothers, 
 K. N. Kudin, V. N. Staroverov, T. Keith, R. Kobayashi, J. Normand, 
 K. Raghavachari, A. Rendell, J. C. Burant, S. S. Iyengar, J. Tomasi, 
 M. Cossi, N. Rega, J. M. Millam, M. Klene, J. E. Knox, J. B. Cross, 
 V. Bakken, C. Adamo, J. Jaramillo, R. Gomperts, R. E. Stratmann, 
 O. Yazyev, A. J. Austin, R. Cammi, C. Pomelli, J. W. Ochterski, 
 R. L. Martin, K. Morokuma, V. G. Zakrzewski, G. A. Voth, 
 P. Salvador, J. J. Dannenberg, S. Dapprich, A. D. Daniels, 
 O. Farkas, J. B. Foresman, J. V. Ortiz, J. Cioslowski, 
 and D. J. Fox, Gaussian, Inc., Wallingford CT, 2013.
 
 ******************************************
 Gaussian 09:  EM64L-G09RevD.01 24-Apr-2013
                17-May-2017 
 ******************************************
 %Mem=256MB
 %NProc=12
 Will use up to   12 processors via shared memory.
 ----------------------------------------------------------------------
 #P HF/6-31G* SCF(Conver=6) NoSymm Test Pop=chelpg IOp(6/33=2) GFInput 
 GFPrint
 ----------------------------------------------------------------------
 1/38=1/1;
 2/12=2,15=1,17=6,18=5,40=1/2;
 3/5=1,6=6,7=1,11=9,16=1,24=110,25=1,30=1/1,2,3;
 4//1;
 5/5=2,6=6,38=5/2;
 6/7=2,8=2,9=2,10=2,15=8,20=3,28=1,33=2/1,2;
 99/5=1,9=1/99;
 Leave Link    1 at Wed May 17 11:38:56 2017, MaxMem=    33554432 cpu:         0.6
 (Enter /home/michal/g09/l101.exe)
 ----------------------------------------------
 MEP - Input generated by R.E.D.-III.x MOLECULE
 ----------------------------------------------
 Symbolic Z-matrix:
 Charge =  0 Multiplicity = 1
 O                     6.70301   0.90062   0. 
 H                     7.05684   0.        0. 
 O                     9.85714   0.3741   -6.4115 
 H                     9.98909  -0.58263  -6.47006 
 C                     2.44509   0.51138  -1.59797 
 C                     3.80228   1.14478  -1.17332 
 H                     3.76994   2.17555  -1.56749 
 C                     5.05319   0.50793  -1.805 
 H                     5.14168  -0.53753  -1.4746 
 C                     4.93342   0.55119  -3.35394 
 H                     4.96731   1.61945  -3.6245 
 C                     1.45463   1.39923  -0.76554 
 H                     1.41573   2.37263  -1.28031 
 C                     2.35413   0.64822  -3.13097 
 H                     2.30031   1.7166   -3.38574 
 H                     1.44352   0.18875  -3.5277 
 C                     6.1526   -0.107    -4.08925 
 C                     3.69986   1.26321   0.35505 
 H                     4.37599   2.01856   0.76201 
 H                     3.97655   0.31848   0.83498 
 C                     3.56724   0.01389  -3.83766 
 H                     3.52575  -1.0718   -3.69791 
 H                     3.46698   0.18289  -4.91554 
 C                     2.20441   1.6018    0.59515 
 H                     1.77636   0.95153   1.3677 
 H                     2.0848    2.62763   0.95689 
 C                     6.33668   1.23237  -1.35426 
 H                     6.1368    2.3122   -1.30438 
 C                    -0.01445   0.93986  -0.57314 
 H                     0.        0.        0. 
 C                     2.32831  -0.9698   -1.17062 
 H                     3.13861  -1.58404  -1.57201 
 H                     2.34651  -1.08311  -0.08269 
 H                     1.38828  -1.40324  -1.52761 
 C                     7.46326   0.3711   -3.45496 
 C                     6.13971   0.34807  -5.5823 
 H                     5.98095   1.43498  -5.60848 
 H                     5.28281  -0.1031   -6.09362 
 C                     7.50714   0.98829  -2.26514 
 H                     8.46355   1.33686  -1.87547 
 C                     6.09911  -1.65673  -4.01926 
 H                     5.27     -2.05429  -4.61263 
 H                     7.0168   -2.10827  -4.40507 
 H                     5.97849  -2.00318  -2.98827 
 C                     8.74055   0.12814  -4.23688 
 H                     9.58876   0.60304  -3.73416 
 H                     8.95669  -0.95208  -4.26949 
 C                     7.42027   0.0293   -6.36941 
 H                     7.55459  -1.05872  -6.46183 
 H                     7.34021   0.42267  -7.38915 
 C                    -0.79074   1.97813   0.27546 
 H                    -0.20309   2.22862   1.16633 
 H                    -0.87316   2.90814  -0.30567 
 C                     8.65043   0.62666  -5.68683 
 H                     8.56407   1.72008  -5.68274 
 C                    -0.75166   0.67602  -1.898 
 H                    -0.7283    1.56347  -2.54321 
 H                    -1.80111   0.42139  -1.72277 
 H                    -0.31324  -0.15347  -2.45703 
 C                    -2.18362   1.52697   0.74741 
 H                    -2.86122   1.40929  -0.10601 
 H                    -2.09367   0.52847   1.19852 
 C                    -2.82815   2.46103   1.78843 
 H                    -2.17286   2.50644   2.67032 
 H                    -3.76917   2.007     2.13312 
 C                    -3.12958   3.90454   1.33196 
 H                    -2.18669   4.36582   1.00488 
 C                    -3.66213   4.7333    2.51191 
 H                    -4.61034   4.32239   2.882 
 H                    -3.84335   5.77364   2.21845 
 H                    -2.95354   4.73918   3.34813 
 C                    -4.1129    3.95373   0.15174 
 H                    -5.06686   3.48097   0.41973 
 H                    -4.32578   4.98931  -0.13708 
 H                    -3.72323   3.43935  -0.73271 
 
 NAtoms=     75 NQM=       75 NQMF=       0 NMMI=      0 NMMIF=      0
                NMic=       0 NMicF=      0.
                    Isotopes and Nuclear Properties:
 (Nuclear quadrupole moments (NQMom) in fm**2, nuclear magnetic moments (NMagM)
  in nuclear magnetons)

  Atom         1           2           3           4           5           6           7           8           9          10
 IAtWgt=          16           1          16           1          12          12           1          12           1          12
 AtmWgt=  15.9949146   1.0078250  15.9949146   1.0078250  12.0000000  12.0000000   1.0078250  12.0000000   1.0078250  12.0000000
 NucSpn=           0           1           0           1           0           0           1           0           1           0
 AtZEff=   0.0000000   0.0000000   0.0000000   0.0000000   0.0000000   0.0000000   0.0000000   0.0000000   0.0000000   0.0000000
 NQMom=    0.0000000   0.0000000   0.0000000   0.0000000   0.0000000   0.0000000   0.0000000   0.0000000   0.0000000   0.0000000
 NMagM=    0.0000000   2.7928460   0.0000000   2.7928460   0.0000000   0.0000000   2.7928460   0.0000000   2.7928460   0.0000000
 AtZNuc=   8.0000000   1.0000000   8.0000000   1.0000000   6.0000000   6.0000000   1.0000000   6.0000000   1.0000000   6.0000000

  Atom        11          12          13          14          15          16          17          18          19          20
 IAtWgt=           1          12           1          12           1           1          12          12           1           1
 AtmWgt=   1.0078250  12.0000000   1.0078250  12.0000000   1.0078250   1.0078250  12.0000000  12.0000000   1.0078250   1.0078250
 NucSpn=           1           0           1           0           1           1           0           0           1           1
 AtZEff=   0.0000000   0.0000000   0.0000000   0.0000000   0.0000000   0.0000000   0.0000000   0.0000000   0.0000000   0.0000000
 NQMom=    0.0000000   0.0000000   0.0000000   0.0000000   0.0000000   0.0000000   0.0000000   0.0000000   0.0000000   0.0000000
 NMagM=    2.7928460   0.0000000   2.7928460   0.0000000   2.7928460   2.7928460   0.0000000   0.0000000   2.7928460   2.7928460
 AtZNuc=   1.0000000   6.0000000   1.0000000   6.0000000   1.0000000   1.0000000   6.0000000   6.0000000   1.0000000   1.0000000

  Atom        21          22          23          24          25          26          27          28          29          30
 IAtWgt=          12           1           1          12           1           1          12           1          12           1
 AtmWgt=  12.0000000   1.0078250   1.0078250  12.0000000   1.0078250   1.0078250  12.0000000   1.0078250  12.0000000   1.0078250
 NucSpn=           0           1           1           0           1           1           0           1           0           1
 AtZEff=   0.0000000   0.0000000   0.0000000   0.0000000   0.0000000   0.0000000   0.0000000   0.0000000   0.0000000   0.0000000
 NQMom=    0.0000000   0.0000000   0.0000000   0.0000000   0.0000000   0.0000000   0.0000000   0.0000000   0.0000000   0.0000000
 NMagM=    0.0000000   2.7928460   2.7928460   0.0000000   2.7928460   2.7928460   0.0000000   2.7928460   0.0000000   2.7928460
 AtZNuc=   6.0000000   1.0000000   1.0000000   6.0000000   1.0000000   1.0000000   6.0000000   1.0000000   6.0000000   1.0000000

  Atom        31          32          33          34          35          36          37          38          39          40
 IAtWgt=          12           1           1           1          12          12           1           1          12           1
 AtmWgt=  12.0000000   1.0078250   1.0078250   1.0078250  12.0000000  12.0000000   1.0078250   1.0078250  12.0000000   1.0078250
 NucSpn=           0           1           1           1           0           0           1           1           0           1
 AtZEff=   0.0000000   0.0000000   0.0000000   0.0000000   0.0000000   0.0000000   0.0000000   0.0000000   0.0000000   0.0000000
 NQMom=    0.0000000   0.0000000   0.0000000   0.0000000   0.0000000   0.0000000   0.0000000   0.0000000   0.0000000   0.0000000
 NMagM=    0.0000000   2.7928460   2.7928460   2.7928460   0.0000000   0.0000000   2.7928460   2.7928460   0.0000000   2.7928460
 AtZNuc=   6.0000000   1.0000000   1.0000000   1.0000000   6.0000000   6.0000000   1.0000000   1.0000000   6.0000000   1.0000000

  Atom        41          42          43          44          45          46          47          48          49          50
 IAtWgt=          12           1           1           1          12           1           1          12           1           1
 AtmWgt=  12.0000000   1.0078250   1.0078250   1.0078250  12.0000000   1.0078250   1.0078250  12.0000000   1.0078250   1.0078250
 NucSpn=           0           1           1           1           0           1           1           0           1           1
 AtZEff=   0.0000000   0.0000000   0.0000000   0.0000000   0.0000000   0.0000000   0.0000000   0.0000000   0.0000000   0.0000000
 NQMom=    0.0000000   0.0000000   0.0000000   0.0000000   0.0000000   0.0000000   0.0000000   0.0000000   0.0000000   0.0000000
 NMagM=    0.0000000   2.7928460   2.7928460   2.7928460   0.0000000   2.7928460   2.7928460   0.0000000   2.7928460   2.7928460
 AtZNuc=   6.0000000   1.0000000   1.0000000   1.0000000   6.0000000   1.0000000   1.0000000   6.0000000   1.0000000   1.0000000

  Atom        51          52          53          54          55          56          57          58          59          60
 IAtWgt=          12           1           1          12           1          12           1           1           1          12
 AtmWgt=  12.0000000   1.0078250   1.0078250  12.0000000   1.0078250  12.0000000   1.0078250   1.0078250   1.0078250  12.0000000
 NucSpn=           0           1           1           0           1           0           1           1           1           0
 AtZEff=   0.0000000   0.0000000   0.0000000   0.0000000   0.0000000   0.0000000   0.0000000   0.0000000   0.0000000   0.0000000
 NQMom=    0.0000000   0.0000000   0.0000000   0.0000000   0.0000000   0.0000000   0.0000000   0.0000000   0.0000000   0.0000000
 NMagM=    0.0000000   2.7928460   2.7928460   0.0000000   2.7928460   0.0000000   2.7928460   2.7928460   2.7928460   0.0000000
 AtZNuc=   6.0000000   1.0000000   1.0000000   6.0000000   1.0000000   6.0000000   1.0000000   1.0000000   1.0000000   6.0000000

  Atom        61          62          63          64          65          66          67          68          69          70
 IAtWgt=           1           1          12           1           1          12           1          12           1           1
 AtmWgt=   1.0078250   1.0078250  12.0000000   1.0078250   1.0078250  12.0000000   1.0078250  12.0000000   1.0078250   1.0078250
 NucSpn=           1           1           0           1           1           0           1           0           1           1
 AtZEff=   0.0000000   0.0000000   0.0000000   0.0000000   0.0000000   0.0000000   0.0000000   0.0000000   0.0000000   0.0000000
 NQMom=    0.0000000   0.0000000   0.0000000   0.0000000   0.0000000   0.0000000   0.0000000   0.0000000   0.0000000   0.0000000
 NMagM=    2.7928460   2.7928460   0.0000000   2.7928460   2.7928460   0.0000000   2.7928460   0.0000000   2.7928460   2.7928460
 AtZNuc=   1.0000000   1.0000000   6.0000000   1.0000000   1.0000000   6.0000000   1.0000000   6.0000000   1.0000000   1.0000000

  Atom        71          72          73          74          75
 IAtWgt=           1          12           1           1           1
 AtmWgt=   1.0078250  12.0000000   1.0078250   1.0078250   1.0078250
 NucSpn=           1           0           1           1           1
 AtZEff=   0.0000000   0.0000000   0.0000000   0.0000000   0.0000000
 NQMom=    0.0000000   0.0000000   0.0000000   0.0000000   0.0000000
 NMagM=    2.7928460   0.0000000   2.7928460   2.7928460   2.7928460
 AtZNuc=   1.0000000   6.0000000   1.0000000   1.0000000   1.0000000
 Leave Link  101 at Wed May 17 11:38:57 2017, MaxMem=    33554432 cpu:         1.0
 (Enter /home/michal/g09/l202.exe)
 Symmetry turned off by external request.
 Stoichiometry    C27H46O2
 Framework group  C1[X(C27H46O2)]
 Deg. of freedom   219
 Full point group                 C1      NOp   1
                          Input orientation:                          
 ---------------------------------------------------------------------
 Center     Atomic      Atomic             Coordinates (Angstroms)
 Number     Number       Type             X           Y           Z
 ---------------------------------------------------------------------
      1          8           0        6.703011    0.900620    0.000000
      2          1           0        7.056844    0.000000    0.000000
      3          8           0        9.857142    0.374097   -6.411504
      4          1           0        9.989093   -0.582628   -6.470064
      5          6           0        2.445087    0.511378   -1.597973
      6          6           0        3.802277    1.144776   -1.173315
      7          1           0        3.769939    2.175553   -1.567489
      8          6           0        5.053191    0.507930   -1.804999
      9          1           0        5.141675   -0.537531   -1.474602
     10          6           0        4.933421    0.551186   -3.353937
     11          1           0        4.967314    1.619446   -3.624501
     12          6           0        1.454630    1.399225   -0.765540
     13          1           0        1.415725    2.372633   -1.280315
     14          6           0        2.354132    0.648218   -3.130971
     15          1           0        2.300306    1.716602   -3.385745
     16          1           0        1.443518    0.188754   -3.527704
     17          6           0        6.152601   -0.107004   -4.089246
     18          6           0        3.699857    1.263208    0.355055
     19          1           0        4.375986    2.018560    0.762013
     20          1           0        3.976551    0.318477    0.834977
     21          6           0        3.567238    0.013885   -3.837655
     22          1           0        3.525745   -1.071797   -3.697908
     23          1           0        3.466981    0.182893   -4.915541
     24          6           0        2.204409    1.601803    0.595147
     25          1           0        1.776358    0.951533    1.367703
     26          1           0        2.084799    2.627626    0.956889
     27          6           0        6.336680    1.232372   -1.354261
     28          1           0        6.136803    2.312200   -1.304376
     29          6           0       -0.014453    0.939859   -0.573145
     30          1           0        0.000000    0.000000    0.000000
     31          6           0        2.328309   -0.969796   -1.170616
     32          1           0        3.138607   -1.584041   -1.572014
     33          1           0        2.346509   -1.083115   -0.082690
     34          1           0        1.388278   -1.403242   -1.527606
     35          6           0        7.463262    0.371104   -3.454964
     36          6           0        6.139715    0.348074   -5.582302
     37          1           0        5.980952    1.434979   -5.608483
     38          1           0        5.282811   -0.103096   -6.093625
     39          6           0        7.507144    0.988288   -2.265145
     40          1           0        8.463554    1.336864   -1.875465
     41          6           0        6.099111   -1.656735   -4.019263
     42          1           0        5.269998   -2.054293   -4.612630
     43          1           0        7.016795   -2.108272   -4.405065
     44          1           0        5.978490   -2.003177   -2.988267
     45          6           0        8.740550    0.128144   -4.236883
     46          1           0        9.588764    0.603044   -3.734163
     47          1           0        8.956687   -0.952081   -4.269485
     48          6           0        7.420271    0.029301   -6.369405
     49          1           0        7.554586   -1.058722   -6.461829
     50          1           0        7.340214    0.422667   -7.389154
     51          6           0       -0.790744    1.978133    0.275464
     52          1           0       -0.203088    2.228625    1.166334
     53          1           0       -0.873158    2.908138   -0.305674
     54          6           0        8.650430    0.626655   -5.686831
     55          1           0        8.564072    1.720085   -5.682736
     56          6           0       -0.751663    0.676023   -1.897997
     57          1           0       -0.728299    1.563467   -2.543215
     58          1           0       -1.801110    0.421388   -1.722770
     59          1           0       -0.313242   -0.153470   -2.457025
     60          6           0       -2.183615    1.526967    0.747412
     61          1           0       -2.861220    1.409286   -0.106009
     62          1           0       -2.093669    0.528466    1.198520
     63          6           0       -2.828155    2.461033    1.788429
     64          1           0       -2.172857    2.506443    2.670323
     65          1           0       -3.769167    2.007003    2.133121
     66          6           0       -3.129576    3.904541    1.331961
     67          1           0       -2.186690    4.365825    1.004875
     68          6           0       -3.662128    4.733296    2.511907
     69          1           0       -4.610345    4.322391    2.882004
     70          1           0       -3.843345    5.773636    2.218453
     71          1           0       -2.953542    4.739182    3.348133
     72          6           0       -4.112900    3.953726    0.151744
     73          1           0       -5.066861    3.480967    0.419731
     74          1           0       -4.325777    4.989309   -0.137081
     75          1           0       -3.723230    3.439348   -0.732713
 ---------------------------------------------------------------------
 Rotational constants (GHZ):      0.4394822      0.0545515      0.0521575
 Leave Link  202 at Wed May 17 11:38:57 2017, MaxMem=    33554432 cpu:         0.6
 (Enter /home/michal/g09/l301.exe)
 Standard basis: 6-31G(d) (6D, 7F)
 Ernie: Thresh=  0.10000D-02 Tol=  0.10000D-05 Strict=F.
 AO basis set in the form of general basis input (Overlap normalization):
      1 0
 S   6 1.00       0.000000000000
      0.5484671660D+04  0.1831074430D-02
      0.8252349460D+03  0.1395017220D-01
      0.1880469580D+03  0.6844507810D-01
      0.5296450000D+02  0.2327143360D+00
      0.1689757040D+02  0.4701928980D+00
      0.5799635340D+01  0.3585208530D+00
 SP   3 1.00       0.000000000000
      0.1553961625D+02 -0.1107775495D+00  0.7087426823D-01
      0.3599933586D+01 -0.1480262627D+00  0.3397528391D+00
      0.1013761750D+01  0.1130767015D+01  0.7271585773D+00
 SP   1 1.00       0.000000000000
      0.2700058226D+00  0.1000000000D+01  0.1000000000D+01
 D   1 1.00       0.000000000000
      0.8000000000D+00  0.1000000000D+01
 ****
      2 0
 S   3 1.00       0.000000000000
      0.1873113696D+02  0.3349460434D-01
      0.2825394365D+01  0.2347269535D+00
      0.6401216923D+00  0.8137573261D+00
 S   1 1.00       0.000000000000
      0.1612777588D+00  0.1000000000D+01
 ****
      3 0
 S   6 1.00       0.000000000000
      0.5484671660D+04  0.1831074430D-02
      0.8252349460D+03  0.1395017220D-01
      0.1880469580D+03  0.6844507810D-01
      0.5296450000D+02  0.2327143360D+00
      0.1689757040D+02  0.4701928980D+00
      0.5799635340D+01  0.3585208530D+00
 SP   3 1.00       0.000000000000
      0.1553961625D+02 -0.1107775495D+00  0.7087426823D-01
      0.3599933586D+01 -0.1480262627D+00  0.3397528391D+00
      0.1013761750D+01  0.1130767015D+01  0.7271585773D+00
 SP   1 1.00       0.000000000000
      0.2700058226D+00  0.1000000000D+01  0.1000000000D+01
 D   1 1.00       0.000000000000
      0.8000000000D+00  0.1000000000D+01
 ****
      4 0
 S   3 1.00       0.000000000000
      0.1873113696D+02  0.3349460434D-01
      0.2825394365D+01  0.2347269535D+00
      0.6401216923D+00  0.8137573261D+00
 S   1 1.00       0.000000000000
      0.1612777588D+00  0.1000000000D+01
 ****
      5 0
 S   6 1.00       0.000000000000
      0.3047524880D+04  0.1834737132D-02
      0.4573695180D+03  0.1403732281D-01
      0.1039486850D+03  0.6884262226D-01
      0.2921015530D+02  0.2321844432D+00
      0.9286662960D+01  0.4679413484D+00
      0.3163926960D+01  0.3623119853D+00
 SP   3 1.00       0.000000000000
      0.7868272350D+01 -0.1193324198D+00  0.6899906659D-01
      0.1881288540D+01 -0.1608541517D+00  0.3164239610D+00
      0.5442492580D+00  0.1143456438D+01  0.7443082909D+00
 SP   1 1.00       0.000000000000
      0.1687144782D+00  0.1000000000D+01  0.1000000000D+01
 D   1 1.00       0.000000000000
      0.8000000000D+00  0.1000000000D+01
 ****
      6 0
 S   6 1.00       0.000000000000
      0.3047524880D+04  0.1834737132D-02
      0.4573695180D+03  0.1403732281D-01
      0.1039486850D+03  0.6884262226D-01
      0.2921015530D+02  0.2321844432D+00
      0.9286662960D+01  0.4679413484D+00
      0.3163926960D+01  0.3623119853D+00
 SP   3 1.00       0.000000000000
      0.7868272350D+01 -0.1193324198D+00  0.6899906659D-01
      0.1881288540D+01 -0.1608541517D+00  0.3164239610D+00
      0.5442492580D+00  0.1143456438D+01  0.7443082909D+00
 SP   1 1.00       0.000000000000
      0.1687144782D+00  0.1000000000D+01  0.1000000000D+01
 D   1 1.00       0.000000000000
      0.8000000000D+00  0.1000000000D+01
 ****
      7 0
 S   3 1.00       0.000000000000
      0.1873113696D+02  0.3349460434D-01
      0.2825394365D+01  0.2347269535D+00
      0.6401216923D+00  0.8137573261D+00
 S   1 1.00       0.000000000000
      0.1612777588D+00  0.1000000000D+01
 ****
      8 0
 S   6 1.00       0.000000000000
      0.3047524880D+04  0.1834737132D-02
      0.4573695180D+03  0.1403732281D-01
      0.1039486850D+03  0.6884262226D-01
      0.2921015530D+02  0.2321844432D+00
      0.9286662960D+01  0.4679413484D+00
      0.3163926960D+01  0.3623119853D+00
 SP   3 1.00       0.000000000000
      0.7868272350D+01 -0.1193324198D+00  0.6899906659D-01
      0.1881288540D+01 -0.1608541517D+00  0.3164239610D+00
      0.5442492580D+00  0.1143456438D+01  0.7443082909D+00
 SP   1 1.00       0.000000000000
      0.1687144782D+00  0.1000000000D+01  0.1000000000D+01
 D   1 1.00       0.000000000000
      0.8000000000D+00  0.1000000000D+01
 ****
      9 0
 S   3 1.00       0.000000000000
      0.1873113696D+02  0.3349460434D-01
      0.2825394365D+01  0.2347269535D+00
      0.6401216923D+00  0.8137573261D+00
 S   1 1.00       0.000000000000
      0.1612777588D+00  0.1000000000D+01
 ****
     10 0
 S   6 1.00       0.000000000000
      0.3047524880D+04  0.1834737132D-02
      0.4573695180D+03  0.1403732281D-01
      0.1039486850D+03  0.6884262226D-01
      0.2921015530D+02  0.2321844432D+00
      0.9286662960D+01  0.4679413484D+00
      0.3163926960D+01  0.3623119853D+00
 SP   3 1.00       0.000000000000
      0.7868272350D+01 -0.1193324198D+00  0.6899906659D-01
      0.1881288540D+01 -0.1608541517D+00  0.3164239610D+00
      0.5442492580D+00  0.1143456438D+01  0.7443082909D+00
 SP   1 1.00       0.000000000000
      0.1687144782D+00  0.1000000000D+01  0.1000000000D+01
 D   1 1.00       0.000000000000
      0.8000000000D+00  0.1000000000D+01
 ****
     11 0
 S   3 1.00       0.000000000000
      0.1873113696D+02  0.3349460434D-01
      0.2825394365D+01  0.2347269535D+00
      0.6401216923D+00  0.8137573261D+00
 S   1 1.00       0.000000000000
      0.1612777588D+00  0.1000000000D+01
 ****
     12 0
 S   6 1.00       0.000000000000
      0.3047524880D+04  0.1834737132D-02
      0.4573695180D+03  0.1403732281D-01
      0.1039486850D+03  0.6884262226D-01
      0.2921015530D+02  0.2321844432D+00
      0.9286662960D+01  0.4679413484D+00
      0.3163926960D+01  0.3623119853D+00
 SP   3 1.00       0.000000000000
      0.7868272350D+01 -0.1193324198D+00  0.6899906659D-01
      0.1881288540D+01 -0.1608541517D+00  0.3164239610D+00
      0.5442492580D+00  0.1143456438D+01  0.7443082909D+00
 SP   1 1.00       0.000000000000
      0.1687144782D+00  0.1000000000D+01  0.1000000000D+01
 D   1 1.00       0.000000000000
      0.8000000000D+00  0.1000000000D+01
 ****
     13 0
 S   3 1.00       0.000000000000
      0.1873113696D+02  0.3349460434D-01
      0.2825394365D+01  0.2347269535D+00
      0.6401216923D+00  0.8137573261D+00
 S   1 1.00       0.000000000000
      0.1612777588D+00  0.1000000000D+01
 ****
     14 0
 S   6 1.00       0.000000000000
      0.3047524880D+04  0.1834737132D-02
      0.4573695180D+03  0.1403732281D-01
      0.1039486850D+03  0.6884262226D-01
      0.2921015530D+02  0.2321844432D+00
      0.9286662960D+01  0.4679413484D+00
      0.3163926960D+01  0.3623119853D+00
 SP   3 1.00       0.000000000000
      0.7868272350D+01 -0.1193324198D+00  0.6899906659D-01
      0.1881288540D+01 -0.1608541517D+00  0.3164239610D+00
      0.5442492580D+00  0.1143456438D+01  0.7443082909D+00
 SP   1 1.00       0.000000000000
      0.1687144782D+00  0.1000000000D+01  0.1000000000D+01
 D   1 1.00       0.000000000000
      0.8000000000D+00  0.1000000000D+01
 ****
     15 0
 S   3 1.00       0.000000000000
      0.1873113696D+02  0.3349460434D-01
      0.2825394365D+01  0.2347269535D+00
      0.6401216923D+00  0.8137573261D+00
 S   1 1.00       0.000000000000
      0.1612777588D+00  0.1000000000D+01
 ****
     16 0
 S   3 1.00       0.000000000000
      0.1873113696D+02  0.3349460434D-01
      0.2825394365D+01  0.2347269535D+00
      0.6401216923D+00  0.8137573261D+00
 S   1 1.00       0.000000000000
      0.1612777588D+00  0.1000000000D+01
 ****
     17 0
 S   6 1.00       0.000000000000
      0.3047524880D+04  0.1834737132D-02
      0.4573695180D+03  0.1403732281D-01
      0.1039486850D+03  0.6884262226D-01
      0.2921015530D+02  0.2321844432D+00
      0.9286662960D+01  0.4679413484D+00
      0.3163926960D+01  0.3623119853D+00
 SP   3 1.00       0.000000000000
      0.7868272350D+01 -0.1193324198D+00  0.6899906659D-01
      0.1881288540D+01 -0.1608541517D+00  0.3164239610D+00
      0.5442492580D+00  0.1143456438D+01  0.7443082909D+00
 SP   1 1.00       0.000000000000
      0.1687144782D+00  0.1000000000D+01  0.1000000000D+01
 D   1 1.00       0.000000000000
      0.8000000000D+00  0.1000000000D+01
 ****
     18 0
 S   6 1.00       0.000000000000
      0.3047524880D+04  0.1834737132D-02
      0.4573695180D+03  0.1403732281D-01
      0.1039486850D+03  0.6884262226D-01
      0.2921015530D+02  0.2321844432D+00
      0.9286662960D+01  0.4679413484D+00
      0.3163926960D+01  0.3623119853D+00
 SP   3 1.00       0.000000000000
      0.7868272350D+01 -0.1193324198D+00  0.6899906659D-01
      0.1881288540D+01 -0.1608541517D+00  0.3164239610D+00
      0.5442492580D+00  0.1143456438D+01  0.7443082909D+00
 SP   1 1.00       0.000000000000
      0.1687144782D+00  0.1000000000D+01  0.1000000000D+01
 D   1 1.00       0.000000000000
      0.8000000000D+00  0.1000000000D+01
 ****
     19 0
 S   3 1.00       0.000000000000
      0.1873113696D+02  0.3349460434D-01
      0.2825394365D+01  0.2347269535D+00
      0.6401216923D+00  0.8137573261D+00
 S   1 1.00       0.000000000000
      0.1612777588D+00  0.1000000000D+01
 ****
     20 0
 S   3 1.00       0.000000000000
      0.1873113696D+02  0.3349460434D-01
      0.2825394365D+01  0.2347269535D+00
      0.6401216923D+00  0.8137573261D+00
 S   1 1.00       0.000000000000
      0.1612777588D+00  0.1000000000D+01
 ****
     21 0
 S   6 1.00       0.000000000000
      0.3047524880D+04  0.1834737132D-02
      0.4573695180D+03  0.1403732281D-01
      0.1039486850D+03  0.6884262226D-01
      0.2921015530D+02  0.2321844432D+00
      0.9286662960D+01  0.4679413484D+00
      0.3163926960D+01  0.3623119853D+00
 SP   3 1.00       0.000000000000
      0.7868272350D+01 -0.1193324198D+00  0.6899906659D-01
      0.1881288540D+01 -0.1608541517D+00  0.3164239610D+00
      0.5442492580D+00  0.1143456438D+01  0.7443082909D+00
 SP   1 1.00       0.000000000000
      0.1687144782D+00  0.1000000000D+01  0.1000000000D+01
 D   1 1.00       0.000000000000
      0.8000000000D+00  0.1000000000D+01
 ****
     22 0
 S   3 1.00       0.000000000000
      0.1873113696D+02  0.3349460434D-01
      0.2825394365D+01  0.2347269535D+00
      0.6401216923D+00  0.8137573261D+00
 S   1 1.00       0.000000000000
      0.1612777588D+00  0.1000000000D+01
 ****
     23 0
 S   3 1.00       0.000000000000
      0.1873113696D+02  0.3349460434D-01
      0.2825394365D+01  0.2347269535D+00
      0.6401216923D+00  0.8137573261D+00
 S   1 1.00       0.000000000000
      0.1612777588D+00  0.1000000000D+01
 ****
     24 0
 S   6 1.00       0.000000000000
      0.3047524880D+04  0.1834737132D-02
      0.4573695180D+03  0.1403732281D-01
      0.1039486850D+03  0.6884262226D-01
      0.2921015530D+02  0.2321844432D+00
      0.9286662960D+01  0.4679413484D+00
      0.3163926960D+01  0.3623119853D+00
 SP   3 1.00       0.000000000000
      0.7868272350D+01 -0.1193324198D+00  0.6899906659D-01
      0.1881288540D+01 -0.1608541517D+00  0.3164239610D+00
      0.5442492580D+00  0.1143456438D+01  0.7443082909D+00
 SP   1 1.00       0.000000000000
      0.1687144782D+00  0.1000000000D+01  0.1000000000D+01
 D   1 1.00       0.000000000000
      0.8000000000D+00  0.1000000000D+01
 ****
     25 0
 S   3 1.00       0.000000000000
      0.1873113696D+02  0.3349460434D-01
      0.2825394365D+01  0.2347269535D+00
      0.6401216923D+00  0.8137573261D+00
 S   1 1.00       0.000000000000
      0.1612777588D+00  0.1000000000D+01
 ****
     26 0
 S   3 1.00       0.000000000000
      0.1873113696D+02  0.3349460434D-01
      0.2825394365D+01  0.2347269535D+00
      0.6401216923D+00  0.8137573261D+00
 S   1 1.00       0.000000000000
      0.1612777588D+00  0.1000000000D+01
 ****
     27 0
 S   6 1.00       0.000000000000
      0.3047524880D+04  0.1834737132D-02
      0.4573695180D+03  0.1403732281D-01
      0.1039486850D+03  0.6884262226D-01
      0.2921015530D+02  0.2321844432D+00
      0.9286662960D+01  0.4679413484D+00
      0.3163926960D+01  0.3623119853D+00
 SP   3 1.00       0.000000000000
      0.7868272350D+01 -0.1193324198D+00  0.6899906659D-01
      0.1881288540D+01 -0.1608541517D+00  0.3164239610D+00
      0.5442492580D+00  0.1143456438D+01  0.7443082909D+00
 SP   1 1.00       0.000000000000
      0.1687144782D+00  0.1000000000D+01  0.1000000000D+01
 D   1 1.00       0.000000000000
      0.8000000000D+00  0.1000000000D+01
 ****
     28 0
 S   3 1.00       0.000000000000
      0.1873113696D+02  0.3349460434D-01
      0.2825394365D+01  0.2347269535D+00
      0.6401216923D+00  0.8137573261D+00
 S   1 1.00       0.000000000000
      0.1612777588D+00  0.1000000000D+01
 ****
     29 0
 S   6 1.00       0.000000000000
      0.3047524880D+04  0.1834737132D-02
      0.4573695180D+03  0.1403732281D-01
      0.1039486850D+03  0.6884262226D-01
      0.2921015530D+02  0.2321844432D+00
      0.9286662960D+01  0.4679413484D+00
      0.3163926960D+01  0.3623119853D+00
 SP   3 1.00       0.000000000000
      0.7868272350D+01 -0.1193324198D+00  0.6899906659D-01
      0.1881288540D+01 -0.1608541517D+00  0.3164239610D+00
      0.5442492580D+00  0.1143456438D+01  0.7443082909D+00
 SP   1 1.00       0.000000000000
      0.1687144782D+00  0.1000000000D+01  0.1000000000D+01
 D   1 1.00       0.000000000000
      0.8000000000D+00  0.1000000000D+01
 ****
     30 0
 S   3 1.00       0.000000000000
      0.1873113696D+02  0.3349460434D-01
      0.2825394365D+01  0.2347269535D+00
      0.6401216923D+00  0.8137573261D+00
 S   1 1.00       0.000000000000
      0.1612777588D+00  0.1000000000D+01
 ****
     31 0
 S   6 1.00       0.000000000000
      0.3047524880D+04  0.1834737132D-02
      0.4573695180D+03  0.1403732281D-01
      0.1039486850D+03  0.6884262226D-01
      0.2921015530D+02  0.2321844432D+00
      0.9286662960D+01  0.4679413484D+00
      0.3163926960D+01  0.3623119853D+00
 SP   3 1.00       0.000000000000
      0.7868272350D+01 -0.1193324198D+00  0.6899906659D-01
      0.1881288540D+01 -0.1608541517D+00  0.3164239610D+00
      0.5442492580D+00  0.1143456438D+01  0.7443082909D+00
 SP   1 1.00       0.000000000000
      0.1687144782D+00  0.1000000000D+01  0.1000000000D+01
 D   1 1.00       0.000000000000
      0.8000000000D+00  0.1000000000D+01
 ****
     32 0
 S   3 1.00       0.000000000000
      0.1873113696D+02  0.3349460434D-01
      0.2825394365D+01  0.2347269535D+00
      0.6401216923D+00  0.8137573261D+00
 S   1 1.00       0.000000000000
      0.1612777588D+00  0.1000000000D+01
 ****
     33 0
 S   3 1.00       0.000000000000
      0.1873113696D+02  0.3349460434D-01
      0.2825394365D+01  0.2347269535D+00
      0.6401216923D+00  0.8137573261D+00
 S   1 1.00       0.000000000000
      0.1612777588D+00  0.1000000000D+01
 ****
     34 0
 S   3 1.00       0.000000000000
      0.1873113696D+02  0.3349460434D-01
      0.2825394365D+01  0.2347269535D+00
      0.6401216923D+00  0.8137573261D+00
 S   1 1.00       0.000000000000
      0.1612777588D+00  0.1000000000D+01
 ****
     35 0
 S   6 1.00       0.000000000000
      0.3047524880D+04  0.1834737132D-02
      0.4573695180D+03  0.1403732281D-01
      0.1039486850D+03  0.6884262226D-01
      0.2921015530D+02  0.2321844432D+00
      0.9286662960D+01  0.4679413484D+00
      0.3163926960D+01  0.3623119853D+00
 SP   3 1.00       0.000000000000
      0.7868272350D+01 -0.1193324198D+00  0.6899906659D-01
      0.1881288540D+01 -0.1608541517D+00  0.3164239610D+00
      0.5442492580D+00  0.1143456438D+01  0.7443082909D+00
 SP   1 1.00       0.000000000000
      0.1687144782D+00  0.1000000000D+01  0.1000000000D+01
 D   1 1.00       0.000000000000
      0.8000000000D+00  0.1000000000D+01
 ****
     36 0
 S   6 1.00       0.000000000000
      0.3047524880D+04  0.1834737132D-02
      0.4573695180D+03  0.1403732281D-01
      0.1039486850D+03  0.6884262226D-01
      0.2921015530D+02  0.2321844432D+00
      0.9286662960D+01  0.4679413484D+00
      0.3163926960D+01  0.3623119853D+00
 SP   3 1.00       0.000000000000
      0.7868272350D+01 -0.1193324198D+00  0.6899906659D-01
      0.1881288540D+01 -0.1608541517D+00  0.3164239610D+00
      0.5442492580D+00  0.1143456438D+01  0.7443082909D+00
 SP   1 1.00       0.000000000000
      0.1687144782D+00  0.1000000000D+01  0.1000000000D+01
 D   1 1.00       0.000000000000
      0.8000000000D+00  0.1000000000D+01
 ****
     37 0
 S   3 1.00       0.000000000000
      0.1873113696D+02  0.3349460434D-01
      0.2825394365D+01  0.2347269535D+00
      0.6401216923D+00  0.8137573261D+00
 S   1 1.00       0.000000000000
      0.1612777588D+00  0.1000000000D+01
 ****
     38 0
 S   3 1.00       0.000000000000
      0.1873113696D+02  0.3349460434D-01
      0.2825394365D+01  0.2347269535D+00
      0.6401216923D+00  0.8137573261D+00
 S   1 1.00       0.000000000000
      0.1612777588D+00  0.1000000000D+01
 ****
     39 0
 S   6 1.00       0.000000000000
      0.3047524880D+04  0.1834737132D-02
      0.4573695180D+03  0.1403732281D-01
      0.1039486850D+03  0.6884262226D-01
      0.2921015530D+02  0.2321844432D+00
      0.9286662960D+01  0.4679413484D+00
      0.3163926960D+01  0.3623119853D+00
 SP   3 1.00       0.000000000000
      0.7868272350D+01 -0.1193324198D+00  0.6899906659D-01
      0.1881288540D+01 -0.1608541517D+00  0.3164239610D+00
      0.5442492580D+00  0.1143456438D+01  0.7443082909D+00
 SP   1 1.00       0.000000000000
      0.1687144782D+00  0.1000000000D+01  0.1000000000D+01
 D   1 1.00       0.000000000000
      0.8000000000D+00  0.1000000000D+01
 ****
     40 0
 S   3 1.00       0.000000000000
      0.1873113696D+02  0.3349460434D-01
      0.2825394365D+01  0.2347269535D+00
      0.6401216923D+00  0.8137573261D+00
 S   1 1.00       0.000000000000
      0.1612777588D+00  0.1000000000D+01
 ****
     41 0
 S   6 1.00       0.000000000000
      0.3047524880D+04  0.1834737132D-02
      0.4573695180D+03  0.1403732281D-01
      0.1039486850D+03  0.6884262226D-01
      0.2921015530D+02  0.2321844432D+00
      0.9286662960D+01  0.4679413484D+00
      0.3163926960D+01  0.3623119853D+00
 SP   3 1.00       0.000000000000
      0.7868272350D+01 -0.1193324198D+00  0.6899906659D-01
      0.1881288540D+01 -0.1608541517D+00  0.3164239610D+00
      0.5442492580D+00  0.1143456438D+01  0.7443082909D+00
 SP   1 1.00       0.000000000000
      0.1687144782D+00  0.1000000000D+01  0.1000000000D+01
 D   1 1.00       0.000000000000
      0.8000000000D+00  0.1000000000D+01
 ****
     42 0
 S   3 1.00       0.000000000000
      0.1873113696D+02  0.3349460434D-01
      0.2825394365D+01  0.2347269535D+00
      0.6401216923D+00  0.8137573261D+00
 S   1 1.00       0.000000000000
      0.1612777588D+00  0.1000000000D+01
 ****
     43 0
 S   3 1.00       0.000000000000
      0.1873113696D+02  0.3349460434D-01
      0.2825394365D+01  0.2347269535D+00
      0.6401216923D+00  0.8137573261D+00
 S   1 1.00       0.000000000000
      0.1612777588D+00  0.1000000000D+01
 ****
     44 0
 S   3 1.00       0.000000000000
      0.1873113696D+02  0.3349460434D-01
      0.2825394365D+01  0.2347269535D+00
      0.6401216923D+00  0.8137573261D+00
 S   1 1.00       0.000000000000
      0.1612777588D+00  0.1000000000D+01
 ****
     45 0
 S   6 1.00       0.000000000000
      0.3047524880D+04  0.1834737132D-02
      0.4573695180D+03  0.1403732281D-01
      0.1039486850D+03  0.6884262226D-01
      0.2921015530D+02  0.2321844432D+00
      0.9286662960D+01  0.4679413484D+00
      0.3163926960D+01  0.3623119853D+00
 SP   3 1.00       0.000000000000
      0.7868272350D+01 -0.1193324198D+00  0.6899906659D-01
      0.1881288540D+01 -0.1608541517D+00  0.3164239610D+00
      0.5442492580D+00  0.1143456438D+01  0.7443082909D+00
 SP   1 1.00       0.000000000000
      0.1687144782D+00  0.1000000000D+01  0.1000000000D+01
 D   1 1.00       0.000000000000
      0.8000000000D+00  0.1000000000D+01
 ****
     46 0
 S   3 1.00       0.000000000000
      0.1873113696D+02  0.3349460434D-01
      0.2825394365D+01  0.2347269535D+00
      0.6401216923D+00  0.8137573261D+00
 S   1 1.00       0.000000000000
      0.1612777588D+00  0.1000000000D+01
 ****
     47 0
 S   3 1.00       0.000000000000
      0.1873113696D+02  0.3349460434D-01
      0.2825394365D+01  0.2347269535D+00
      0.6401216923D+00  0.8137573261D+00
 S   1 1.00       0.000000000000
      0.1612777588D+00  0.1000000000D+01
 ****
     48 0
 S   6 1.00       0.000000000000
      0.3047524880D+04  0.1834737132D-02
      0.4573695180D+03  0.1403732281D-01
      0.1039486850D+03  0.6884262226D-01
      0.2921015530D+02  0.2321844432D+00
      0.9286662960D+01  0.4679413484D+00
      0.3163926960D+01  0.3623119853D+00
 SP   3 1.00       0.000000000000
      0.7868272350D+01 -0.1193324198D+00  0.6899906659D-01
      0.1881288540D+01 -0.1608541517D+00  0.3164239610D+00
      0.5442492580D+00  0.1143456438D+01  0.7443082909D+00
 SP   1 1.00       0.000000000000
      0.1687144782D+00  0.1000000000D+01  0.1000000000D+01
 D   1 1.00       0.000000000000
      0.8000000000D+00  0.1000000000D+01
 ****
     49 0
 S   3 1.00       0.000000000000
      0.1873113696D+02  0.3349460434D-01
      0.2825394365D+01  0.2347269535D+00
      0.6401216923D+00  0.8137573261D+00
 S   1 1.00       0.000000000000
      0.1612777588D+00  0.1000000000D+01
 ****
     50 0
 S   3 1.00       0.000000000000
      0.1873113696D+02  0.3349460434D-01
      0.2825394365D+01  0.2347269535D+00
      0.6401216923D+00  0.8137573261D+00
 S   1 1.00       0.000000000000
      0.1612777588D+00  0.1000000000D+01
 ****
     51 0
 S   6 1.00       0.000000000000
      0.3047524880D+04  0.1834737132D-02
      0.4573695180D+03  0.1403732281D-01
      0.1039486850D+03  0.6884262226D-01
      0.2921015530D+02  0.2321844432D+00
      0.9286662960D+01  0.4679413484D+00
      0.3163926960D+01  0.3623119853D+00
 SP   3 1.00       0.000000000000
      0.7868272350D+01 -0.1193324198D+00  0.6899906659D-01
      0.1881288540D+01 -0.1608541517D+00  0.3164239610D+00
      0.5442492580D+00  0.1143456438D+01  0.7443082909D+00
 SP   1 1.00       0.000000000000
      0.1687144782D+00  0.1000000000D+01  0.1000000000D+01
 D   1 1.00       0.000000000000
      0.8000000000D+00  0.1000000000D+01
 ****
     52 0
 S   3 1.00       0.000000000000
      0.1873113696D+02  0.3349460434D-01
      0.2825394365D+01  0.2347269535D+00
      0.6401216923D+00  0.8137573261D+00
 S   1 1.00       0.000000000000
      0.1612777588D+00  0.1000000000D+01
 ****
     53 0
 S   3 1.00       0.000000000000
      0.1873113696D+02  0.3349460434D-01
      0.2825394365D+01  0.2347269535D+00
      0.6401216923D+00  0.8137573261D+00
 S   1 1.00       0.000000000000
      0.1612777588D+00  0.1000000000D+01
 ****
     54 0
 S   6 1.00       0.000000000000
      0.3047524880D+04  0.1834737132D-02
      0.4573695180D+03  0.1403732281D-01
      0.1039486850D+03  0.6884262226D-01
      0.2921015530D+02  0.2321844432D+00
      0.9286662960D+01  0.4679413484D+00
      0.3163926960D+01  0.3623119853D+00
 SP   3 1.00       0.000000000000
      0.7868272350D+01 -0.1193324198D+00  0.6899906659D-01
      0.1881288540D+01 -0.1608541517D+00  0.3164239610D+00
      0.5442492580D+00  0.1143456438D+01  0.7443082909D+00
 SP   1 1.00       0.000000000000
      0.1687144782D+00  0.1000000000D+01  0.1000000000D+01
 D   1 1.00       0.000000000000
      0.8000000000D+00  0.1000000000D+01
 ****
     55 0
 S   3 1.00       0.000000000000
      0.1873113696D+02  0.3349460434D-01
      0.2825394365D+01  0.2347269535D+00
      0.6401216923D+00  0.8137573261D+00
 S   1 1.00       0.000000000000
      0.1612777588D+00  0.1000000000D+01
 ****
     56 0
 S   6 1.00       0.000000000000
      0.3047524880D+04  0.1834737132D-02
      0.4573695180D+03  0.1403732281D-01
      0.1039486850D+03  0.6884262226D-01
      0.2921015530D+02  0.2321844432D+00
      0.9286662960D+01  0.4679413484D+00
      0.3163926960D+01  0.3623119853D+00
 SP   3 1.00       0.000000000000
      0.7868272350D+01 -0.1193324198D+00  0.6899906659D-01
      0.1881288540D+01 -0.1608541517D+00  0.3164239610D+00
      0.5442492580D+00  0.1143456438D+01  0.7443082909D+00
 SP   1 1.00       0.000000000000
      0.1687144782D+00  0.1000000000D+01  0.1000000000D+01
 D   1 1.00       0.000000000000
      0.8000000000D+00  0.1000000000D+01
 ****
     57 0
 S   3 1.00       0.000000000000
      0.1873113696D+02  0.3349460434D-01
      0.2825394365D+01  0.2347269535D+00
      0.6401216923D+00  0.8137573261D+00
 S   1 1.00       0.000000000000
      0.1612777588D+00  0.1000000000D+01
 ****
     58 0
 S   3 1.00       0.000000000000
      0.1873113696D+02  0.3349460434D-01
      0.2825394365D+01  0.2347269535D+00
      0.6401216923D+00  0.8137573261D+00
 S   1 1.00       0.000000000000
      0.1612777588D+00  0.1000000000D+01
 ****
     59 0
 S   3 1.00       0.000000000000
      0.1873113696D+02  0.3349460434D-01
      0.2825394365D+01  0.2347269535D+00
      0.6401216923D+00  0.8137573261D+00
 S   1 1.00       0.000000000000
      0.1612777588D+00  0.1000000000D+01
 ****
     60 0
 S   6 1.00       0.000000000000
      0.3047524880D+04  0.1834737132D-02
      0.4573695180D+03  0.1403732281D-01
      0.1039486850D+03  0.6884262226D-01
      0.2921015530D+02  0.2321844432D+00
      0.9286662960D+01  0.4679413484D+00
      0.3163926960D+01  0.3623119853D+00
 SP   3 1.00       0.000000000000
      0.7868272350D+01 -0.1193324198D+00  0.6899906659D-01
      0.1881288540D+01 -0.1608541517D+00  0.3164239610D+00
      0.5442492580D+00  0.1143456438D+01  0.7443082909D+00
 SP   1 1.00       0.000000000000
      0.1687144782D+00  0.1000000000D+01  0.1000000000D+01
 D   1 1.00       0.000000000000
      0.8000000000D+00  0.1000000000D+01
 ****
     61 0
 S   3 1.00       0.000000000000
      0.1873113696D+02  0.3349460434D-01
      0.2825394365D+01  0.2347269535D+00
      0.6401216923D+00  0.8137573261D+00
 S   1 1.00       0.000000000000
      0.1612777588D+00  0.1000000000D+01
 ****
     62 0
 S   3 1.00       0.000000000000
      0.1873113696D+02  0.3349460434D-01
      0.2825394365D+01  0.2347269535D+00
      0.6401216923D+00  0.8137573261D+00
 S   1 1.00       0.000000000000
      0.1612777588D+00  0.1000000000D+01
 ****
     63 0
 S   6 1.00       0.000000000000
      0.3047524880D+04  0.1834737132D-02
      0.4573695180D+03  0.1403732281D-01
      0.1039486850D+03  0.6884262226D-01
      0.2921015530D+02  0.2321844432D+00
      0.9286662960D+01  0.4679413484D+00
      0.3163926960D+01  0.3623119853D+00
 SP   3 1.00       0.000000000000
      0.7868272350D+01 -0.1193324198D+00  0.6899906659D-01
      0.1881288540D+01 -0.1608541517D+00  0.3164239610D+00
      0.5442492580D+00  0.1143456438D+01  0.7443082909D+00
 SP   1 1.00       0.000000000000
      0.1687144782D+00  0.1000000000D+01  0.1000000000D+01
 D   1 1.00       0.000000000000
      0.8000000000D+00  0.1000000000D+01
 ****
     64 0
 S   3 1.00       0.000000000000
      0.1873113696D+02  0.3349460434D-01
      0.2825394365D+01  0.2347269535D+00
      0.6401216923D+00  0.8137573261D+00
 S   1 1.00       0.000000000000
      0.1612777588D+00  0.1000000000D+01
 ****
     65 0
 S   3 1.00       0.000000000000
      0.1873113696D+02  0.3349460434D-01
      0.2825394365D+01  0.2347269535D+00
      0.6401216923D+00  0.8137573261D+00
 S   1 1.00       0.000000000000
      0.1612777588D+00  0.1000000000D+01
 ****
     66 0
 S   6 1.00       0.000000000000
      0.3047524880D+04  0.1834737132D-02
      0.4573695180D+03  0.1403732281D-01
      0.1039486850D+03  0.6884262226D-01
      0.2921015530D+02  0.2321844432D+00
      0.9286662960D+01  0.4679413484D+00
      0.3163926960D+01  0.3623119853D+00
 SP   3 1.00       0.000000000000
      0.7868272350D+01 -0.1193324198D+00  0.6899906659D-01
      0.1881288540D+01 -0.1608541517D+00  0.3164239610D+00
      0.5442492580D+00  0.1143456438D+01  0.7443082909D+00
 SP   1 1.00       0.000000000000
      0.1687144782D+00  0.1000000000D+01  0.1000000000D+01
 D   1 1.00       0.000000000000
      0.8000000000D+00  0.1000000000D+01
 ****
     67 0
 S   3 1.00       0.000000000000
      0.1873113696D+02  0.3349460434D-01
      0.2825394365D+01  0.2347269535D+00
      0.6401216923D+00  0.8137573261D+00
 S   1 1.00       0.000000000000
      0.1612777588D+00  0.1000000000D+01
 ****
     68 0
 S   6 1.00       0.000000000000
      0.3047524880D+04  0.1834737132D-02
      0.4573695180D+03  0.1403732281D-01
      0.1039486850D+03  0.6884262226D-01
      0.2921015530D+02  0.2321844432D+00
      0.9286662960D+01  0.4679413484D+00
      0.3163926960D+01  0.3623119853D+00
 SP   3 1.00       0.000000000000
      0.7868272350D+01 -0.1193324198D+00  0.6899906659D-01
      0.1881288540D+01 -0.1608541517D+00  0.3164239610D+00
      0.5442492580D+00  0.1143456438D+01  0.7443082909D+00
 SP   1 1.00       0.000000000000
      0.1687144782D+00  0.1000000000D+01  0.1000000000D+01
 D   1 1.00       0.000000000000
      0.8000000000D+00  0.1000000000D+01
 ****
     69 0
 S   3 1.00       0.000000000000
      0.1873113696D+02  0.3349460434D-01
      0.2825394365D+01  0.2347269535D+00
      0.6401216923D+00  0.8137573261D+00
 S   1 1.00       0.000000000000
      0.1612777588D+00  0.1000000000D+01
 ****
     70 0
 S   3 1.00       0.000000000000
      0.1873113696D+02  0.3349460434D-01
      0.2825394365D+01  0.2347269535D+00
      0.6401216923D+00  0.8137573261D+00
 S   1 1.00       0.000000000000
      0.1612777588D+00  0.1000000000D+01
 ****
     71 0
 S   3 1.00       0.000000000000
      0.1873113696D+02  0.3349460434D-01
      0.2825394365D+01  0.2347269535D+00
      0.6401216923D+00  0.8137573261D+00
 S   1 1.00       0.000000000000
      0.1612777588D+00  0.1000000000D+01
 ****
     72 0
 S   6 1.00       0.000000000000
      0.3047524880D+04  0.1834737132D-02
      0.4573695180D+03  0.1403732281D-01
      0.1039486850D+03  0.6884262226D-01
      0.2921015530D+02  0.2321844432D+00
      0.9286662960D+01  0.4679413484D+00
      0.3163926960D+01  0.3623119853D+00
 SP   3 1.00       0.000000000000
      0.7868272350D+01 -0.1193324198D+00  0.6899906659D-01
      0.1881288540D+01 -0.1608541517D+00  0.3164239610D+00
      0.5442492580D+00  0.1143456438D+01  0.7443082909D+00
 SP   1 1.00       0.000000000000
      0.1687144782D+00  0.1000000000D+01  0.1000000000D+01
 D   1 1.00       0.000000000000
      0.8000000000D+00  0.1000000000D+01
 ****
     73 0
 S   3 1.00       0.000000000000
      0.1873113696D+02  0.3349460434D-01
      0.2825394365D+01  0.2347269535D+00
      0.6401216923D+00  0.8137573261D+00
 S   1 1.00       0.000000000000
      0.1612777588D+00  0.1000000000D+01
 ****
     74 0
 S   3 1.00       0.000000000000
      0.1873113696D+02  0.3349460434D-01
      0.2825394365D+01  0.2347269535D+00
      0.6401216923D+00  0.8137573261D+00
 S   1 1.00       0.000000000000
      0.1612777588D+00  0.1000000000D+01
 ****
     75 0
 S   3 1.00       0.000000000000
      0.1873113696D+02  0.3349460434D-01
      0.2825394365D+01  0.2347269535D+00
      0.6401216923D+00  0.8137573261D+00
 S   1 1.00       0.000000000000
      0.1612777588D+00  0.1000000000D+01
 ****

 AO basis set (Overlap normalization):
 Atom O1       Shell     1 S   6     bf    1 -     1         12.666854488802          1.701924960827          0.000000000000
      0.5484671660D+04  0.1831074430D-02
      0.8252349460D+03  0.1395017220D-01
      0.1880469580D+03  0.6844507810D-01
      0.5296450000D+02  0.2327143360D+00
      0.1689757040D+02  0.4701928980D+00
      0.5799635340D+01  0.3585208530D+00
 Atom O1       Shell     2 SP   3    bf    2 -     5         12.666854488802          1.701924960827          0.000000000000
      0.1553961625D+02 -0.1107775495D+00  0.7087426823D-01
      0.3599933586D+01 -0.1480262627D+00  0.3397528391D+00
      0.1013761750D+01  0.1130767015D+01  0.7271585773D+00
 Atom O1       Shell     3 SP   1    bf    6 -     9         12.666854488802          1.701924960827          0.000000000000
      0.2700058226D+00  0.1000000000D+01  0.1000000000D+01
 Atom O1       Shell     4 D   1     bf   10 -    15         12.666854488802          1.701924960827          0.000000000000
      0.8000000000D+00  0.1000000000D+01
 Atom H2       Shell     5 S   3     bf   16 -    16         13.335501974477          0.000000000000          0.000000000000
      0.1873113696D+02  0.3349460434D-01
      0.2825394365D+01  0.2347269535D+00
      0.6401216923D+00  0.8137573261D+00
 Atom H2       Shell     6 S   1     bf   17 -    17         13.335501974477          0.000000000000          0.000000000000
      0.1612777588D+00  0.1000000000D+01
 Atom O3       Shell     7 S   6     bf   18 -    18         18.627298625095          0.706941122799        -12.115987548072
      0.5484671660D+04  0.1831074430D-02
      0.8252349460D+03  0.1395017220D-01
      0.1880469580D+03  0.6844507810D-01
      0.5296450000D+02  0.2327143360D+00
      0.1689757040D+02  0.4701928980D+00
      0.5799635340D+01  0.3585208530D+00
 Atom O3       Shell     8 SP   3    bf   19 -    22         18.627298625095          0.706941122799        -12.115987548072
      0.1553961625D+02 -0.1107775495D+00  0.7087426823D-01
      0.3599933586D+01 -0.1480262627D+00  0.3397528391D+00
      0.1013761750D+01  0.1130767015D+01  0.7271585773D+00
 Atom O3       Shell     9 SP   1    bf   23 -    26         18.627298625095          0.706941122799        -12.115987548072
      0.2700058226D+00  0.1000000000D+01  0.1000000000D+01
 Atom O3       Shell    10 D   1     bf   27 -    32         18.627298625095          0.706941122799        -12.115987548072
      0.8000000000D+00  0.1000000000D+01
 Atom H4       Shell    11 S   3     bf   33 -    33         18.876650369384         -1.101006847125        -12.226649664750
      0.1873113696D+02  0.3349460434D-01
      0.2825394365D+01  0.2347269535D+00
      0.6401216923D+00  0.8137573261D+00
 Atom H4       Shell    12 S   1     bf   34 -    34         18.876650369384         -1.101006847125        -12.226649664750
      0.1612777588D+00  0.1000000000D+01
 Atom C5       Shell    13 S   6     bf   35 -    35          4.620545538072          0.966365050684         -3.019730865314
      0.3047524880D+04  0.1834737132D-02
      0.4573695180D+03  0.1403732281D-01
      0.1039486850D+03  0.6884262226D-01
      0.2921015530D+02  0.2321844432D+00
      0.9286662960D+01  0.4679413484D+00
      0.3163926960D+01  0.3623119853D+00
 Atom C5       Shell    14 SP   3    bf   36 -    39          4.620545538072          0.966365050684         -3.019730865314
      0.7868272350D+01 -0.1193324198D+00  0.6899906659D-01
      0.1881288540D+01 -0.1608541517D+00  0.3164239610D+00
      0.5442492580D+00  0.1143456438D+01  0.7443082909D+00
 Atom C5       Shell    15 SP   1    bf   40 -    43          4.620545538072          0.966365050684         -3.019730865314
      0.1687144782D+00  0.1000000000D+01  0.1000000000D+01
 Atom C5       Shell    16 D   1     bf   44 -    49          4.620545538072          0.966365050684         -3.019730865314
      0.8000000000D+00  0.1000000000D+01
 Atom C6       Shell    17 S   6     bf   50 -    50          7.185261814528          2.163312745555         -2.217244527833
      0.3047524880D+04  0.1834737132D-02
      0.4573695180D+03  0.1403732281D-01
      0.1039486850D+03  0.6884262226D-01
      0.2921015530D+02  0.2321844432D+00
      0.9286662960D+01  0.4679413484D+00
      0.3163926960D+01  0.3623119853D+00
 Atom C6       Shell    18 SP   3    bf   51 -    54          7.185261814528          2.163312745555         -2.217244527833
      0.7868272350D+01 -0.1193324198D+00  0.6899906659D-01
      0.1881288540D+01 -0.1608541517D+00  0.3164239610D+00
      0.5442492580D+00  0.1143456438D+01  0.7443082909D+00
 Atom C6       Shell    19 SP   1    bf   55 -    58          7.185261814528          2.163312745555         -2.217244527833
      0.1687144782D+00  0.1000000000D+01  0.1000000000D+01
 Atom C6       Shell    20 D   1     bf   59 -    64          7.185261814528          2.163312745555         -2.217244527833
      0.8000000000D+00  0.1000000000D+01
 Atom H7       Shell    21 S   3     bf   65 -    65          7.124152606733          4.111199319783         -2.962125568818
      0.1873113696D+02  0.3349460434D-01
      0.2825394365D+01  0.2347269535D+00
      0.6401216923D+00  0.8137573261D+00
 Atom H7       Shell    22 S   1     bf   66 -    66          7.124152606733          4.111199319783         -2.962125568818
      0.1612777588D+00  0.1000000000D+01
 Atom C8       Shell    23 S   6     bf   67 -    67          9.549146558039          0.959848670266         -3.410953458879
      0.3047524880D+04  0.1834737132D-02
      0.4573695180D+03  0.1403732281D-01
      0.1039486850D+03  0.6884262226D-01
      0.2921015530D+02  0.2321844432D+00
      0.9286662960D+01  0.4679413484D+00
      0.3163926960D+01  0.3623119853D+00
 Atom C8       Shell    24 SP   3    bf   68 -    71          9.549146558039          0.959848670266         -3.410953458879
      0.7868272350D+01 -0.1193324198D+00  0.6899906659D-01
      0.1881288540D+01 -0.1608541517D+00  0.3164239610D+00
      0.5442492580D+00  0.1143456438D+01  0.7443082909D+00
 Atom C8       Shell    25 SP   1    bf   72 -    75          9.549146558039          0.959848670266         -3.410953458879
      0.1687144782D+00  0.1000000000D+01  0.1000000000D+01
 Atom C8       Shell    26 D   1     bf   76 -    81          9.549146558039          0.959848670266         -3.410953458879
      0.8000000000D+00  0.1000000000D+01
 Atom H9       Shell    27 S   3     bf   82 -    82          9.716358181223         -1.015786755881         -2.786593065731
      0.1873113696D+02  0.3349460434D-01
      0.2825394365D+01  0.2347269535D+00
      0.6401216923D+00  0.8137573261D+00
 Atom H9       Shell    28 S   1     bf   83 -    83          9.716358181223         -1.015786755881         -2.786593065731
      0.1612777588D+00  0.1000000000D+01
 Atom C10      Shell    29 S   6     bf   84 -    84          9.322813926823          1.041591419760         -6.338022774897
      0.3047524880D+04  0.1834737132D-02
      0.4573695180D+03  0.1403732281D-01
      0.1039486850D+03  0.6884262226D-01
      0.2921015530D+02  0.2321844432D+00
      0.9286662960D+01  0.4679413484D+00
      0.3163926960D+01  0.3623119853D+00
 Atom C10      Shell    30 SP   3    bf   85 -    88          9.322813926823          1.041591419760         -6.338022774897
      0.7868272350D+01 -0.1193324198D+00  0.6899906659D-01
      0.1881288540D+01 -0.1608541517D+00  0.3164239610D+00
      0.5442492580D+00  0.1143456438D+01  0.7443082909D+00
 Atom C10      Shell    31 SP   1    bf   89 -    92          9.322813926823          1.041591419760         -6.338022774897
      0.1687144782D+00  0.1000000000D+01  0.1000000000D+01
 Atom C10      Shell    32 D   1     bf   93 -    98          9.322813926823          1.041591419760         -6.338022774897
      0.8000000000D+00  0.1000000000D+01
 Atom H11      Shell    33 S   3     bf   99 -    99          9.386862433542          3.060309823840         -6.849314031603
      0.1873113696D+02  0.3349460434D-01
      0.2825394365D+01  0.2347269535D+00
      0.6401216923D+00  0.8137573261D+00
 Atom H11      Shell    34 S   1     bf  100 -   100          9.386862433542          3.060309823840         -6.849314031603
      0.1612777588D+00  0.1000000000D+01
 Atom C12      Shell    35 S   6     bf  101 -   101          2.748852872700          2.644152785280         -1.446660565824
      0.3047524880D+04  0.1834737132D-02
      0.4573695180D+03  0.1403732281D-01
      0.1039486850D+03  0.6884262226D-01
      0.2921015530D+02  0.2321844432D+00
      0.9286662960D+01  0.4679413484D+00
      0.3163926960D+01  0.3623119853D+00
 Atom C12      Shell    36 SP   3    bf  102 -   105          2.748852872700          2.644152785280         -1.446660565824
      0.7868272350D+01 -0.1193324198D+00  0.6899906659D-01
      0.1881288540D+01 -0.1608541517D+00  0.3164239610D+00
      0.5442492580D+00  0.1143456438D+01  0.7443082909D+00
 Atom C12      Shell    37 SP   1    bf  106 -   109          2.748852872700          2.644152785280         -1.446660565824
      0.1687144782D+00  0.1000000000D+01  0.1000000000D+01
 Atom C12      Shell    38 D   1     bf  110 -   115          2.748852872700          2.644152785280         -1.446660565824
      0.8000000000D+00  0.1000000000D+01
 Atom H13      Shell    39 S   3     bf  116 -   116          2.675333360959          4.483626716128         -2.419444071319
      0.1873113696D+02  0.3349460434D-01
      0.2825394365D+01  0.2347269535D+00
      0.6401216923D+00  0.8137573261D+00
 Atom H13      Shell    40 S   1     bf  117 -   117          2.675333360959          4.483626716128         -2.419444071319
      0.1612777588D+00  0.1000000000D+01
 Atom C14      Shell    41 S   6     bf  118 -   118          4.448664571690          1.224955080222         -5.916677890082
      0.3047524880D+04  0.1834737132D-02
      0.4573695180D+03  0.1403732281D-01
      0.1039486850D+03  0.6884262226D-01
      0.2921015530D+02  0.2321844432D+00
      0.9286662960D+01  0.4679413484D+00
      0.3163926960D+01  0.3623119853D+00
 Atom C14      Shell    42 SP   3    bf  119 -   122          4.448664571690          1.224955080222         -5.916677890082
      0.7868272350D+01 -0.1193324198D+00  0.6899906659D-01
      0.1881288540D+01 -0.1608541517D+00  0.3164239610D+00
      0.5442492580D+00  0.1143456438D+01  0.7443082909D+00
 Atom C14      Shell    43 SP   1    bf  123 -   126          4.448664571690          1.224955080222         -5.916677890082
      0.1687144782D+00  0.1000000000D+01  0.1000000000D+01
 Atom C14      Shell    44 D   1     bf  127 -   132          4.448664571690          1.224955080222         -5.916677890082
      0.8000000000D+00  0.1000000000D+01
 Atom H15      Shell    45 S   3     bf  133 -   133          4.346949061032          3.243907205629         -6.398130749095
      0.1873113696D+02  0.3349460434D-01
      0.2825394365D+01  0.2347269535D+00
      0.6401216923D+00  0.8137573261D+00
 Atom H15      Shell    46 S   1     bf  134 -   134          4.346949061032          3.243907205629         -6.398130749095
      0.1612777588D+00  0.1000000000D+01
 Atom H16      Shell    47 S   3     bf  135 -   135          2.727852818617          0.356693498768         -6.666394475680
      0.1873113696D+02  0.3349460434D-01
      0.2825394365D+01  0.2347269535D+00
      0.6401216923D+00  0.8137573261D+00
 Atom H16      Shell    48 S   1     bf  136 -   136          2.727852818617          0.356693498768         -6.666394475680
      0.1612777588D+00  0.1000000000D+01
 Atom C17      Shell    49 S   6     bf  137 -   137         11.626730214617         -0.202208878733         -7.727555218971
      0.3047524880D+04  0.1834737132D-02
      0.4573695180D+03  0.1403732281D-01
      0.1039486850D+03  0.6884262226D-01
      0.2921015530D+02  0.2321844432D+00
      0.9286662960D+01  0.4679413484D+00
      0.3163926960D+01  0.3623119853D+00
 Atom C17      Shell    50 SP   3    bf  138 -   141         11.626730214617         -0.202208878733         -7.727555218971
      0.7868272350D+01 -0.1193324198D+00  0.6899906659D-01
      0.1881288540D+01 -0.1608541517D+00  0.3164239610D+00
      0.5442492580D+00  0.1143456438D+01  0.7443082909D+00
 Atom C17      Shell    51 SP   1    bf  142 -   145         11.626730214617         -0.202208878733         -7.727555218971
      0.1687144782D+00  0.1000000000D+01  0.1000000000D+01
 Atom C17      Shell    52 D   1     bf  146 -   151         11.626730214617         -0.202208878733         -7.727555218971
      0.8000000000D+00  0.1000000000D+01
 Atom C18      Shell    53 S   6     bf  152 -   152          6.991717311217          2.387117660199          0.670956107399
      0.3047524880D+04  0.1834737132D-02
      0.4573695180D+03  0.1403732281D-01
      0.1039486850D+03  0.6884262226D-01
      0.2921015530D+02  0.2321844432D+00
      0.9286662960D+01  0.4679413484D+00
      0.3163926960D+01  0.3623119853D+00
 Atom C18      Shell    54 SP   3    bf  153 -   156          6.991717311217          2.387117660199          0.670956107399
      0.7868272350D+01 -0.1193324198D+00  0.6899906659D-01
      0.1881288540D+01 -0.1608541517D+00  0.3164239610D+00
      0.5442492580D+00  0.1143456438D+01  0.7443082909D+00
 Atom C18      Shell    55 SP   1    bf  157 -   160          6.991717311217          2.387117660199          0.670956107399
      0.1687144782D+00  0.1000000000D+01  0.1000000000D+01
 Atom C18      Shell    56 D   1     bf  161 -   166          6.991717311217          2.387117660199          0.670956107399
      0.8000000000D+00  0.1000000000D+01
 Atom H19      Shell    57 S   3     bf  167 -   167          8.269415044650          3.814525469414          1.439996465514
      0.1873113696D+02  0.3349460434D-01
      0.2825394365D+01  0.2347269535D+00
      0.6401216923D+00  0.8137573261D+00
 Atom H19      Shell    58 S   1     bf  168 -   168          8.269415044650          3.814525469414          1.439996465514
      0.1612777588D+00  0.1000000000D+01
 Atom H20      Shell    59 S   3     bf  169 -   169          7.514592948165          0.601835084411          1.577877668286
      0.1873113696D+02  0.3349460434D-01
      0.2825394365D+01  0.2347269535D+00
      0.6401216923D+00  0.8137573261D+00
 Atom H20      Shell    60 S   1     bf  170 -   170          7.514592948165          0.601835084411          1.577877668286
      0.1612777588D+00  0.1000000000D+01
 Atom C21      Shell    61 S   6     bf  171 -   171          6.741103626713          0.026239036328         -7.252117244855
      0.3047524880D+04  0.1834737132D-02
      0.4573695180D+03  0.1403732281D-01
      0.1039486850D+03  0.6884262226D-01
      0.2921015530D+02  0.2321844432D+00
      0.9286662960D+01  0.4679413484D+00
      0.3163926960D+01  0.3623119853D+00
 Atom C21      Shell    62 SP   3    bf  172 -   175          6.741103626713          0.026239036328         -7.252117244855
      0.7868272350D+01 -0.1193324198D+00  0.6899906659D-01
      0.1881288540D+01 -0.1608541517D+00  0.3164239610D+00
      0.5442492580D+00  0.1143456438D+01  0.7443082909D+00
 Atom C21      Shell    63 SP   1    bf  176 -   179          6.741103626713          0.026239036328         -7.252117244855
      0.1687144782D+00  0.1000000000D+01  0.1000000000D+01
 Atom C21      Shell    64 D   1     bf  180 -   185          6.741103626713          0.026239036328         -7.252117244855
      0.8000000000D+00  0.1000000000D+01
 Atom H22      Shell    65 S   3     bf  186 -   186          6.662693069103         -2.025402894535         -6.988032590922
      0.1873113696D+02  0.3349460434D-01
      0.2825394365D+01  0.2347269535D+00
      0.6401216923D+00  0.8137573261D+00
 Atom H22      Shell    66 S   1     bf  187 -   187          6.662693069103         -2.025402894535         -6.988032590922
      0.1612777588D+00  0.1000000000D+01
 Atom H23      Shell    67 S   3     bf  188 -   188          6.551644749096          0.345618550896         -9.289026171587
      0.1873113696D+02  0.3349460434D-01
      0.2825394365D+01  0.2347269535D+00
      0.6401216923D+00  0.8137573261D+00
 Atom H23      Shell    68 S   1     bf  189 -   189          6.551644749096          0.345618550896         -9.289026171587
      0.1612777588D+00  0.1000000000D+01
 Atom C24      Shell    69 S   6     bf  190 -   190          4.165728463389          3.026969310088          1.124664555350
      0.3047524880D+04  0.1834737132D-02
      0.4573695180D+03  0.1403732281D-01
      0.1039486850D+03  0.6884262226D-01
      0.2921015530D+02  0.2321844432D+00
      0.9286662960D+01  0.4679413484D+00
      0.3163926960D+01  0.3623119853D+00
 Atom C24      Shell    70 SP   3    bf  191 -   194          4.165728463389          3.026969310088          1.124664555350
      0.7868272350D+01 -0.1193324198D+00  0.6899906659D-01
      0.1881288540D+01 -0.1608541517D+00  0.3164239610D+00
      0.5442492580D+00  0.1143456438D+01  0.7443082909D+00
 Atom C24      Shell    71 SP   1    bf  195 -   198          4.165728463389          3.026969310088          1.124664555350
      0.1687144782D+00  0.1000000000D+01  0.1000000000D+01
 Atom C24      Shell    72 D   1     bf  199 -   204          4.165728463389          3.026969310088          1.124664555350
      0.8000000000D+00  0.1000000000D+01
 Atom H25      Shell    73 S   3     bf  205 -   205          3.356831041029          1.798137683472          2.584584989297
      0.1873113696D+02  0.3349460434D-01
      0.2825394365D+01  0.2347269535D+00
      0.6401216923D+00  0.8137573261D+00
 Atom H25      Shell    74 S   1     bf  206 -   206          3.356831041029          1.798137683472          2.584584989297
      0.1612777588D+00  0.1000000000D+01
 Atom H26      Shell    75 S   3     bf  207 -   207          3.939700059182          4.965492744862          1.808258168468
      0.1873113696D+02  0.3349460434D-01
      0.2825394365D+01  0.2347269535D+00
      0.6401216923D+00  0.8137573261D+00
 Atom H26      Shell    76 S   1     bf  208 -   208          3.939700059182          4.965492744862          1.808258168468
      0.1612777588D+00  0.1000000000D+01
 Atom C27      Shell    77 S   6     bf  209 -   209         11.974589130330          2.328845290378         -2.559183328414
      0.3047524880D+04  0.1834737132D-02
      0.4573695180D+03  0.1403732281D-01
      0.1039486850D+03  0.6884262226D-01
      0.2921015530D+02  0.2321844432D+00
      0.9286662960D+01  0.4679413484D+00
      0.3163926960D+01  0.3623119853D+00
 Atom C27      Shell    78 SP   3    bf  210 -   213         11.974589130330          2.328845290378         -2.559183328414
      0.7868272350D+01 -0.1193324198D+00  0.6899906659D-01
      0.1881288540D+01 -0.1608541517D+00  0.3164239610D+00
      0.5442492580D+00  0.1143456438D+01  0.7443082909D+00
 Atom C27      Shell    79 SP   1    bf  214 -   217         11.974589130330          2.328845290378         -2.559183328414
      0.1687144782D+00  0.1000000000D+01  0.1000000000D+01
 Atom C27      Shell    80 D   1     bf  218 -   223         11.974589130330          2.328845290378         -2.559183328414
      0.8000000000D+00  0.1000000000D+01
 Atom H28      Shell    81 S   3     bf  224 -   224         11.596877114855          4.369424405410         -2.464914151302
      0.1873113696D+02  0.3349460434D-01
      0.2825394365D+01  0.2347269535D+00
      0.6401216923D+00  0.8137573261D+00
 Atom H28      Shell    82 S   1     bf  225 -   225         11.596877114855          4.369424405410         -2.464914151302
      0.1612777588D+00  0.1000000000D+01
 Atom C29      Shell    83 S   6     bf  226 -   226         -0.027312381874          1.776076491473         -1.083086271851
      0.3047524880D+04  0.1834737132D-02
      0.4573695180D+03  0.1403732281D-01
      0.1039486850D+03  0.6884262226D-01
      0.2921015530D+02  0.2321844432D+00
      0.9286662960D+01  0.4679413484D+00
      0.3163926960D+01  0.3623119853D+00
 Atom C29      Shell    84 SP   3    bf  227 -   230         -0.027312381874          1.776076491473         -1.083086271851
      0.7868272350D+01 -0.1193324198D+00  0.6899906659D-01
      0.1881288540D+01 -0.1608541517D+00  0.3164239610D+00
      0.5442492580D+00  0.1143456438D+01  0.7443082909D+00
 Atom C29      Shell    85 SP   1    bf  231 -   234         -0.027312381874          1.776076491473         -1.083086271851
      0.1687144782D+00  0.1000000000D+01  0.1000000000D+01
 Atom C29      Shell    86 D   1     bf  235 -   240         -0.027312381874          1.776076491473         -1.083086271851
      0.8000000000D+00  0.1000000000D+01
 Atom H30      Shell    87 S   3     bf  241 -   241          0.000000000000          0.000000000000          0.000000000000
      0.1873113696D+02  0.3349460434D-01
      0.2825394365D+01  0.2347269535D+00
      0.6401216923D+00  0.8137573261D+00
 Atom H30      Shell    88 S   1     bf  242 -   242          0.000000000000          0.000000000000          0.000000000000
      0.1612777588D+00  0.1000000000D+01
 Atom C31      Shell    89 S   6     bf  243 -   243          4.399865550151         -1.832648429028         -2.212142796397
      0.3047524880D+04  0.1834737132D-02
      0.4573695180D+03  0.1403732281D-01
      0.1039486850D+03  0.6884262226D-01
      0.2921015530D+02  0.2321844432D+00
      0.9286662960D+01  0.4679413484D+00
      0.3163926960D+01  0.3623119853D+00
 Atom C31      Shell    90 SP   3    bf  244 -   247          4.399865550151         -1.832648429028         -2.212142796397
      0.7868272350D+01 -0.1193324198D+00  0.6899906659D-01
      0.1881288540D+01 -0.1608541517D+00  0.3164239610D+00
      0.5442492580D+00  0.1143456438D+01  0.7443082909D+00
 Atom C31      Shell    91 SP   1    bf  248 -   251          4.399865550151         -1.832648429028         -2.212142796397
      0.1687144782D+00  0.1000000000D+01  0.1000000000D+01
 Atom C31      Shell    92 D   1     bf  252 -   257          4.399865550151         -1.832648429028         -2.212142796397
      0.8000000000D+00  0.1000000000D+01
 Atom H32      Shell    93 S   3     bf  258 -   258          5.931107763244         -2.993404183488         -2.970676315007
      0.1873113696D+02  0.3349460434D-01
      0.2825394365D+01  0.2347269535D+00
      0.6401216923D+00  0.8137573261D+00
 Atom H32      Shell    94 S   1     bf  259 -   259          5.931107763244         -2.993404183488         -2.970676315007
      0.1612777588D+00  0.1000000000D+01
 Atom H33      Shell    95 S   3     bf  260 -   260          4.434260115345         -2.046790682626         -0.156260773627
      0.1873113696D+02  0.3349460434D-01
      0.2825394365D+01  0.2347269535D+00
      0.6401216923D+00  0.8137573261D+00
 Atom H33      Shell    96 S   1     bf  261 -   261          4.434260115345         -2.046790682626         -0.156260773627
      0.1612777588D+00  0.1000000000D+01
 Atom H34      Shell    97 S   3     bf  262 -   262          2.623464913954         -2.651743172649         -2.886757413590
      0.1873113696D+02  0.3349460434D-01
      0.2825394365D+01  0.2347269535D+00
      0.6401216923D+00  0.8137573261D+00
 Atom H34      Shell    98 S   1     bf  263 -   263          2.623464913954         -2.651743172649         -2.886757413590
      0.1612777588D+00  0.1000000000D+01
 Atom C35      Shell    99 S   6     bf  264 -   264         14.103521974966          0.701285758298         -6.528935607801
      0.3047524880D+04  0.1834737132D-02
      0.4573695180D+03  0.1403732281D-01
      0.1039486850D+03  0.6884262226D-01
      0.2921015530D+02  0.2321844432D+00
      0.9286662960D+01  0.4679413484D+00
      0.3163926960D+01  0.3623119853D+00
 Atom C35      Shell   100 SP   3    bf  265 -   268         14.103521974966          0.701285758298         -6.528935607801
      0.7868272350D+01 -0.1193324198D+00  0.6899906659D-01
      0.1881288540D+01 -0.1608541517D+00  0.3164239610D+00
      0.5442492580D+00  0.1143456438D+01  0.7443082909D+00
 Atom C35      Shell   101 SP   1    bf  269 -   272         14.103521974966          0.701285758298         -6.528935607801
      0.1687144782D+00  0.1000000000D+01  0.1000000000D+01
 Atom C35      Shell   102 D   1     bf  273 -   278         14.103521974966          0.701285758298         -6.528935607801
      0.8000000000D+00  0.1000000000D+01
 Atom C36      Shell   103 S   6     bf  279 -   279         11.602379789484          0.657764458389        -10.549022349005
      0.3047524880D+04  0.1834737132D-02
      0.4573695180D+03  0.1403732281D-01
      0.1039486850D+03  0.6884262226D-01
      0.2921015530D+02  0.2321844432D+00
      0.9286662960D+01  0.4679413484D+00
      0.3163926960D+01  0.3623119853D+00
 Atom C36      Shell   104 SP   3    bf  280 -   283         11.602379789484          0.657764458389        -10.549022349005
      0.7868272350D+01 -0.1193324198D+00  0.6899906659D-01
      0.1881288540D+01 -0.1608541517D+00  0.3164239610D+00
      0.5442492580D+00  0.1143456438D+01  0.7443082909D+00
 Atom C36      Shell   105 SP   1    bf  284 -   287         11.602379789484          0.657764458389        -10.549022349005
      0.1687144782D+00  0.1000000000D+01  0.1000000000D+01
 Atom C36      Shell   106 D   1     bf  288 -   293         11.602379789484          0.657764458389        -10.549022349005
      0.8000000000D+00  0.1000000000D+01
 Atom H37      Shell   107 S   3     bf  294 -   294         11.302361596291          2.711717373134        -10.598497344479
      0.1873113696D+02  0.3349460434D-01
      0.2825394365D+01  0.2347269535D+00
      0.6401216923D+00  0.8137573261D+00
 Atom H37      Shell   108 S   1     bf  295 -   295         11.302361596291          2.711717373134        -10.598497344479
      0.1612777588D+00  0.1000000000D+01
 Atom H38      Shell   109 S   3     bf  296 -   296          9.983066341946         -0.194823753417        -11.515282198635
      0.1873113696D+02  0.3349460434D-01
      0.2825394365D+01  0.2347269535D+00
      0.6401216923D+00  0.8137573261D+00
 Atom H38      Shell   110 S   1     bf  297 -   297          9.983066341946         -0.194823753417        -11.515282198635
      0.1612777588D+00  0.1000000000D+01
 Atom C39      Shell   111 S   6     bf  298 -   298         14.186445444245          1.867593169088         -4.280503625686
      0.3047524880D+04  0.1834737132D-02
      0.4573695180D+03  0.1403732281D-01
[...]
 **** Fit      -0.018845
 **** Fit      -0.020247
 **** Fit      -0.021805
 **** Fit      -0.022747
 **** Fit      -0.022122
 **** Fit      -0.019704
 **** Fit      -0.016118
 **** Fit      -0.012217
 **** Fit      -0.008591
 **** Fit      -0.005495
 **** Fit      -0.002990
 **** Fit      -0.001068
 **** Fit       0.000310
 **** Fit       0.001215
 **** Fit       0.001750
 **** Fit       0.002018
 **** Fit       0.002107
 **** Fit      -0.015636
 **** Fit      -0.018368
 **** Fit      -0.021384
 **** Fit      -0.024568
 **** Fit      -0.027766
 **** Fit      -0.030839
 **** Fit      -0.033615
 **** Fit      -0.035581
 **** Fit      -0.035757
 **** Fit      -0.033366
 **** Fit      -0.028681
 **** Fit      -0.022846
 **** Fit      -0.017026
 **** Fit      -0.011889
 **** Fit      -0.007648
 **** Fit      -0.004305
 **** Fit      -0.001805
 **** Fit      -0.000069
 **** Fit       0.001027
 **** Fit       0.001640
 **** Fit       0.001926
 **** Fit       0.002003
 **** Fit       0.001949
 **** Fit      -0.018642
 **** Fit      -0.022287
 **** Fit      -0.026478
 **** Fit      -0.031097
 **** Fit      -0.035882
 **** Fit      -0.040416
 **** Fit      -0.044112
 **** Fit      -0.046106
 **** Fit      -0.045373
 **** Fit      -0.041447
 **** Fit      -0.035038
 **** Fit      -0.027613
 **** Fit      -0.020471
 **** Fit      -0.014285
 **** Fit      -0.009234
 **** Fit      -0.005285
 **** Fit      -0.002364
 **** Fit      -0.000368
 **** Fit       0.000862
 **** Fit       0.001528
 **** Fit       0.001822
 **** Fit       0.001886
 **** Fit       0.001808
 **** Fit      -0.020681
 **** Fit      -0.024851
 **** Fit      -0.029689
 **** Fit      -0.035063
 **** Fit      -0.040628
 **** Fit      -0.045784
 **** Fit      -0.049679
 **** Fit      -0.051291
 **** Fit      -0.049745
 **** Fit      -0.044918
 **** Fit      -0.037759
 **** Fit      -0.029765
 **** Fit      -0.022169
 **** Fit      -0.015596
 **** Fit      -0.010209
 **** Fit      -0.005985
 **** Fit      -0.002855
 **** Fit      -0.000717
 **** Fit       0.000601
 **** Fit       0.001315
 **** Fit       0.001632
 **** Fit       0.001701
 **** Fit       0.001615
 **** Fit      -0.021634
 **** Fit      -0.025900
 **** Fit      -0.030802
 **** Fit      -0.036177
 **** Fit      -0.041635
 **** Fit      -0.046518
 **** Fit      -0.049928
 **** Fit      -0.050927
 **** Fit      -0.048890
 **** Fit      -0.043945
 **** Fit      -0.037034
 **** Fit      -0.029446
 **** Fit      -0.022214
 **** Fit      -0.015886
 **** Fit      -0.010635
 **** Fit      -0.006471
 **** Fit      -0.003351
 **** Fit      -0.001186
 **** Fit       0.000179
 **** Fit       0.000947
 **** Fit       0.001309
 **** Fit       0.001411
 **** Fit       0.001342
 **** Fit      -0.025582
 **** Fit      -0.030083
 **** Fit      -0.034887
 **** Fit      -0.039604
 **** Fit      -0.043625
 **** Fit      -0.046188
 **** Fit      -0.046577
 **** Fit      -0.044426
 **** Fit      -0.039957
 **** Fit      -0.033948
 **** Fit      -0.027377
 **** Fit      -0.021039
 **** Fit      -0.015393
 **** Fit      -0.010624
 **** Fit      -0.006779
 **** Fit      -0.003844
 **** Fit      -0.001754
 **** Fit      -0.000383
 **** Fit       0.000433
 **** Fit       0.000856
 **** Fit       0.001010
 **** Fit      -0.028083
 **** Fit      -0.032038
 **** Fit      -0.035758
 **** Fit      -0.038749
 **** Fit      -0.040449
 **** Fit      -0.040388
 **** Fit      -0.038383
 **** Fit      -0.034656
 **** Fit      -0.029774
 **** Fit      -0.024422
 **** Fit      -0.019177
 **** Fit      -0.014408
 **** Fit      -0.010298
 **** Fit      -0.006920
 **** Fit      -0.004280
 **** Fit      -0.002340
 **** Fit      -0.001010
 **** Fit      -0.000168
 **** Fit       0.000309
 **** Fit       0.000520
 **** Fit      -0.025388
 **** Fit      -0.028464
 **** Fit      -0.031222
 **** Fit      -0.033297
 **** Fit      -0.034313
 **** Fit      -0.033988
 **** Fit      -0.032247
 **** Fit      -0.029274
 **** Fit      -0.025455
 **** Fit      -0.021251
 **** Fit      -0.017065
 **** Fit      -0.013183
 **** Fit      -0.009769
 **** Fit      -0.006903
 **** Fit      -0.004609
 **** Fit      -0.002867
 **** Fit      -0.001620
 **** Fit      -0.000786
 **** Fit      -0.000277
 **** Fit      -0.026736
 **** Fit      -0.028111
 **** Fit      -0.028655
 **** Fit      -0.028211
 **** Fit      -0.026759
 **** Fit      -0.024437
 **** Fit      -0.021501
 **** Fit      -0.011898
 **** Fit      -0.009129
 **** Fit      -0.006756
 **** Fit      -0.004811
 **** Fit      -0.003289
 **** Fit      -0.002157
 **** Fit      -0.001363
 **** Fit       0.010264
 **** Fit       0.010891
 **** Fit       0.011152
 **** Fit       0.011037
 **** Fit       0.008211
 **** Fit       0.009539
 **** Fit       0.010648
 **** Fit       0.011386
 **** Fit       0.011655
 **** Fit       0.011447
 **** Fit       0.010843
 **** Fit       0.009982
 **** Fit       0.006204
 **** Fit       0.007779
 **** Fit       0.009316
 **** Fit       0.010611
 **** Fit       0.011459
 **** Fit       0.011722
 **** Fit       0.011396
 **** Fit       0.010605
 **** Fit       0.009548
 **** Fit       0.008419
 **** Fit       0.003505
 **** Fit       0.005011
 **** Fit       0.006695
 **** Fit       0.008386
 **** Fit       0.009828
 **** Fit       0.010753
 **** Fit       0.010984
 **** Fit       0.010525
 **** Fit       0.009559
 **** Fit       0.008354
 **** Fit       0.007150
 **** Fit       0.006097
 **** Fit       0.001644
 **** Fit       0.003049
 **** Fit       0.004694
 **** Fit       0.006398
 **** Fit       0.007871
 **** Fit       0.008790
 **** Fit       0.008946
 **** Fit       0.008365
 **** Fit       0.007300
 **** Fit       0.006083
 **** Fit       0.004980
 **** Fit       0.004123
 **** Fit      -0.000913
 **** Fit       0.000177
 **** Fit       0.001543
 **** Fit       0.003016
 **** Fit       0.004300
 **** Fit       0.005056
 **** Fit       0.005076
 **** Fit       0.004430
 **** Fit       0.003436
 **** Fit       0.002461
 **** Fit       0.001744
 **** Fit       0.001354
 **** Fit       0.001243
 **** Fit      -0.004387
 **** Fit      -0.004143
 **** Fit      -0.003622
 **** Fit      -0.002839
 **** Fit      -0.001926
 **** Fit      -0.001137
 **** Fit      -0.000765
 **** Fit      -0.000953
 **** Fit      -0.001557
 **** Fit      -0.002215
 **** Fit      -0.002595
 **** Fit      -0.002558
 **** Fit      -0.002155
 **** Fit      -0.001524
 **** Fit      -0.000803
 **** Fit      -0.000093
 **** Fit       0.000541
 **** Fit       0.001063
 **** Fit       0.001459
 **** Fit      -0.007426
 **** Fit      -0.007880
 **** Fit      -0.008163
 **** Fit      -0.008260
 **** Fit      -0.008240
 **** Fit      -0.008263
 **** Fit      -0.008496
 **** Fit      -0.008947
 **** Fit      -0.009367
 **** Fit      -0.009391
 **** Fit      -0.008806
 **** Fit      -0.007659
 **** Fit      -0.006170
 **** Fit      -0.004579
 **** Fit      -0.003063
 **** Fit      -0.001725
 **** Fit      -0.000615
 **** Fit       0.000252
 **** Fit       0.000886
 **** Fit       0.001314
 **** Fit      -0.011809
 **** Fit      -0.013038
 **** Fit      -0.014204
 **** Fit      -0.015296
 **** Fit      -0.016334
 **** Fit      -0.017299
 **** Fit      -0.018007
 **** Fit      -0.018101
 **** Fit      -0.017260
 **** Fit      -0.015461
 **** Fit      -0.012994
 **** Fit      -0.010268
 **** Fit      -0.007621
 **** Fit      -0.005254
 **** Fit      -0.003259
 **** Fit      -0.001664
 **** Fit      -0.000458
 **** Fit       0.000399
 **** Fit       0.000964
 **** Fit       0.001302
 **** Fit      -0.015513
 **** Fit      -0.017675
 **** Fit      -0.019909
 **** Fit      -0.022114
 **** Fit      -0.024155
 **** Fit      -0.025799
 **** Fit      -0.026672
 **** Fit      -0.026336
 **** Fit      -0.024562
 **** Fit      -0.021543
 **** Fit      -0.017808
 **** Fit      -0.013927
 **** Fit      -0.010310
 **** Fit      -0.007170
 **** Fit      -0.004584
 **** Fit      -0.002557
 **** Fit      -0.001054
 **** Fit      -0.000008
 **** Fit       0.000667
 **** Fit       0.001063
 **** Fit      -0.018574
 **** Fit      -0.021486
 **** Fit      -0.024568
 **** Fit      -0.027642
 **** Fit      -0.030425
 **** Fit      -0.032509
 **** Fit      -0.033381
 **** Fit      -0.032588
 **** Fit      -0.030021
 **** Fit      -0.026060
 **** Fit      -0.021389
 **** Fit      -0.016674
 **** Fit      -0.012358
 **** Fit      -0.008656
 **** Fit      -0.005633
 **** Fit      -0.003285
 **** Fit      -0.001560
 **** Fit      -0.000373
 **** Fit       0.000386
 **** Fit       0.000825
 **** Fit      -0.020680
 **** Fit      -0.024031
 **** Fit      -0.027584
 **** Fit      -0.031099
 **** Fit      -0.034199
 **** Fit      -0.036375
 **** Fit      -0.037072
 **** Fit      -0.035894
 **** Fit      -0.032850
 **** Fit      -0.028417
 **** Fit      -0.023325
 **** Fit      -0.018244
 **** Fit      -0.013611
 **** Fit      -0.009638
 **** Fit      -0.006394
 **** Fit      -0.003872
 **** Fit      -0.002018
 **** Fit      -0.000741
 **** Fit       0.000077
 **** Fit       0.000553
 **** Fit      -0.021703
 **** Fit      -0.025147
 **** Fit      -0.028754
 **** Fit      -0.032251
 **** Fit      -0.035229
 **** Fit      -0.037177
 **** Fit      -0.037592
 **** Fit      -0.036179
 **** Fit      -0.033029
 **** Fit      -0.028622
 **** Fit      -0.023626
 **** Fit      -0.018644
 **** Fit      -0.014078
 **** Fit      -0.010134
 **** Fit      -0.006888
 **** Fit      -0.004345
 **** Fit      -0.002458
 **** Fit      -0.001142
 **** Fit      -0.000286
 **** Fit       0.000224
 **** Fit      -0.024954
 **** Fit      -0.028278
 **** Fit      -0.031407
 **** Fit      -0.033961
 **** Fit      -0.035495
 **** Fit      -0.035617
 **** Fit      -0.034137
 **** Fit      -0.031182
 **** Fit      -0.027166
 **** Fit      -0.022639
 **** Fit      -0.018099
 **** Fit      -0.013893
 **** Fit      -0.010215
 **** Fit      -0.007151
 **** Fit      -0.004717
 **** Fit      -0.002882
 **** Fit      -0.001575
 **** Fit      -0.000702
 **** Fit      -0.000165
 **** Fit      -0.026610
 **** Fit      -0.029197
 **** Fit      -0.031204
 **** Fit      -0.032289
 **** Fit      -0.032176
 **** Fit      -0.030761
 **** Fit      -0.028169
 **** Fit      -0.024727
 **** Fit      -0.020852
 **** Fit      -0.013251
 **** Fit      -0.009985
 **** Fit      -0.007221
 **** Fit      -0.004988
 **** Fit      -0.003270
 **** Fit      -0.002014
 **** Fit      -0.001149
 **** Fit      -0.026275
 **** Fit      -0.027755
 **** Fit      -0.028451
 **** Fit      -0.028187
 **** Fit      -0.026911
 **** Fit      -0.024734
 **** Fit      -0.021898
 **** Fit      -0.009543
 **** Fit      -0.007137
 **** Fit      -0.005155
 **** Fit      -0.003596
 **** Fit      -0.002425
 **** Fit       0.008346
 **** Fit       0.008564
 **** Fit       0.008472
 **** Fit       0.006464
 **** Fit       0.007313
 **** Fit       0.007878
 **** Fit       0.008089
 **** Fit       0.007944
 **** Fit       0.007511
 **** Fit       0.006901
 **** Fit       0.004237
 **** Fit       0.005287
 **** Fit       0.006168
 **** Fit       0.006745
 **** Fit       0.006931
 **** Fit       0.006736
 **** Fit       0.006250
 **** Fit       0.005612
 **** Fit       0.004951
 **** Fit       0.001363
 **** Fit       0.002344
 **** Fit       0.003325
 **** Fit       0.004155
 **** Fit       0.004683
 **** Fit       0.004822
 **** Fit       0.004594
 **** Fit       0.004116
 **** Fit       0.003547
 **** Fit       0.003024
 **** Fit      -0.001071
 **** Fit      -0.000336
 **** Fit       0.000428
 **** Fit       0.001078
 **** Fit       0.001469
 **** Fit       0.001532
 **** Fit       0.001309
 **** Fit       0.000942
 **** Fit       0.000594
 **** Fit       0.000377
 **** Fit       0.000330
 **** Fit      -0.004112
 **** Fit      -0.003795
 **** Fit      -0.003425
 **** Fit      -0.003113
 **** Fit      -0.002964
 **** Fit      -0.003008
 **** Fit      -0.003164
 **** Fit      -0.003283
 **** Fit      -0.003228
 **** Fit      -0.002940
 **** Fit      -0.002448
 **** Fit      -0.007606
 **** Fit      -0.007860
 **** Fit      -0.008048
 **** Fit      -0.008220
 **** Fit      -0.008408
 **** Fit      -0.008573
 **** Fit      -0.008593
 **** Fit      -0.008323
 **** Fit      -0.007687
 **** Fit      -0.006718
 **** Fit      -0.005533
 **** Fit      -0.011266
 **** Fit      -0.012180
 **** Fit      -0.013020
 **** Fit      -0.013756
 **** Fit      -0.014325
 **** Fit      -0.014601
 **** Fit      -0.014418
 **** Fit      -0.013658
 **** Fit      -0.012332
 **** Fit      -0.010589
 **** Fit      -0.008642
 **** Fit      -0.004886
 **** Fit      -0.003309
 **** Fit      -0.002000
 **** Fit      -0.000967
 **** Fit      -0.000192
 **** Fit      -0.014721
 **** Fit      -0.016278
 **** Fit      -0.017752
 **** Fit      -0.019027
 **** Fit      -0.019939
 **** Fit      -0.020279
 **** Fit      -0.019851
 **** Fit      -0.018580
 **** Fit      -0.016575
 **** Fit      -0.014093
 **** Fit      -0.008860
 **** Fit      -0.006529
 **** Fit      -0.004531
 **** Fit      -0.002900
 **** Fit      -0.001630
 **** Fit      -0.000690
 **** Fit      -0.017595
 **** Fit      -0.019666
 **** Fit      -0.021634
 **** Fit      -0.023308
 **** Fit      -0.024444
 **** Fit      -0.024775
 **** Fit      -0.024101
 **** Fit      -0.022396
 **** Fit      -0.019851
 **** Fit      -0.016805
 **** Fit      -0.010572
 **** Fit      -0.007848
 **** Fit      -0.005534
 **** Fit      -0.003658
 **** Fit      -0.002206
 **** Fit      -0.001138
 **** Fit      -0.000393
 **** Fit      -0.019607
 **** Fit      -0.021980
 **** Fit      -0.024216
 **** Fit      -0.026076
 **** Fit      -0.027272
 **** Fit      -0.027519
 **** Fit      -0.026640
 **** Fit      -0.024656
 **** Fit      -0.021806
 **** Fit      -0.018462
 **** Fit      -0.011711
 **** Fit      -0.008775
 **** Fit      -0.006284
 **** Fit      -0.004265
 **** Fit      -0.002703
 **** Fit      -0.001551
 **** Fit      -0.000747
 **** Fit      -0.023075
 **** Fit      -0.025334
 **** Fit      -0.027159
 **** Fit      -0.028259
 **** Fit      -0.028375
 **** Fit      -0.027366
 **** Fit      -0.025288
 **** Fit      -0.022389
 **** Fit      -0.019028
 **** Fit      -0.012259
 **** Fit      -0.009303
 **** Fit      -0.006782
 **** Fit      -0.004729
 **** Fit      -0.003129
 **** Fit      -0.001942
 **** Fit      -0.025118
 **** Fit      -0.026742
 **** Fit      -0.027647
 **** Fit      -0.027620
 **** Fit      -0.026566
 **** Fit      -0.024556
 **** Fit      -0.021818
 **** Fit      -0.009473
 **** Fit      -0.007052
 **** Fit      -0.005060
 **** Fit      -0.003491
 **** Fit      -0.025230
 **** Fit      -0.025904
 **** Fit      -0.025757
 **** Fit      -0.024730
 **** Fit      -0.022897
 **** Fit       0.003709
 **** Fit       0.004088
 **** Fit       0.004249
 **** Fit       0.004198
 **** Fit       0.001370
 **** Fit       0.001858
 **** Fit       0.002188
 **** Fit       0.002321
 **** Fit       0.002272
 **** Fit       0.002098
 **** Fit      -0.001439
 **** Fit      -0.001036
 **** Fit      -0.000689
 **** Fit      -0.000458
 **** Fit      -0.000366
 **** Fit      -0.000388
 **** Fit      -0.000459
 **** Fit      -0.000505
 **** Fit      -0.004165
 **** Fit      -0.004033
 **** Fit      -0.003910
 **** Fit      -0.003829
 **** Fit      -0.003790
 **** Fit      -0.003751
 **** Fit      -0.003646
 **** Fit      -0.003418
 **** Fit      -0.007246
 **** Fit      -0.007465
 **** Fit      -0.007634
 **** Fit      -0.007744
 **** Fit      -0.007763
 **** Fit      -0.007627
 **** Fit      -0.007277
 **** Fit      -0.006687
 **** Fit      -0.010440
 **** Fit      -0.011052
 **** Fit      -0.011544
 **** Fit      -0.011861
 **** Fit      -0.011927
 **** Fit      -0.011663
 **** Fit      -0.011023
 **** Fit      -0.010024
 **** Fit      -0.014431
 **** Fit      -0.015226
 **** Fit      -0.015725
 **** Fit      -0.015815
 **** Fit      -0.015405
 **** Fit      -0.014470
 **** Fit      -0.017239
 **** Fit      -0.018260
 **** Fit      -0.018881
 **** Fit      -0.018961
 **** Fit      -0.018409
 **** Fit      -0.017223
 **** Fit      -0.020340
 **** Fit      -0.021002
 **** Fit      -0.021040
 **** Fit      -0.020370
 **** Fit      -0.019013
 **** Fit      -0.021970
 **** Fit      -0.021943
 **** Fit      -0.021197
 -----------------------------------------------------------------
 Leave Link  602 at Wed May 17 11:39:54 2017, MaxMem=    33554432 cpu:        37.9
 (Enter /home/michal/g09/l9999.exe)

 Test job not archived.
 1\1\GINC-LINUX\SP\RHF\6-31G(d)\C27H46O2\MICHAL\17-May-2017\0\\#P HF/6-
 31G* SCF(Conver=6) NoSymm Test Pop=chelpg IOp(6/33=2) GFInput GFPrint\
 \MEP - Input generated by R.E.D.-III.x MOLECULE\\0,1\O,0,6.7030107,0.9
 006199,0.\H,0,7.05684371,0.,0.\O,0,9.85714189,0.37409713,-6.41150447\H
 ,0,9.98909315,-0.58262773,-6.47006434\C,0,2.44508739,0.51137836,-1.597
 97275\C,0,3.80227679,1.1447758,-1.17331527\H,0,3.76993919,2.17555298,-
 1.56748934\C,0,5.05319072,0.50793004,-1.80499883\H,0,5.1416753,-0.5375
 312,-1.47460154\C,0,4.93342065,0.55118644,-3.3539372\H,0,4.96731366,1.
 61944621,-3.62450088\C,0,1.45463029,1.39922539,-0.7655398\H,0,1.415725
 44,2.37263307,-1.28031466\C,0,2.3541319,0.64821831,-3.13097109\H,0,2.3
 0030637,1.71660176,-3.38574497\H,0,1.44351754,0.18875407,-3.52770402\C
 ,0,6.15260064,-0.10700433,-4.0892461\C,0,3.69985745,1.26320826,0.35505
 468\H,0,4.37598597,2.01855994,0.76201331\H,0,3.97655132,0.31847741,0.8
 349769\C,0,3.5672384,0.0138851,-3.83765516\H,0,3.52574532,-1.07179705,
 -3.69790758\H,0,3.46698108,0.18289346,-4.91554094\C,0,2.20440856,1.601
 80317,0.59514685\H,0,1.77635848,0.95153348,1.36770347\H,0,2.08479948,2
 .62762559,0.95688901\C,0,6.33667965,1.23237185,-1.35426149\H,0,6.13680
 306,2.31219981,-1.30437639\C,0,-0.01445309,0.9398592,-0.57314457\H,0,0
 .,0.,0.\C,0,2.32830857,-0.96979578,-1.17061555\H,0,3.13860705,-1.58404
 127,-1.5720142\H,0,2.34650939,-1.08311498,-0.08268964\H,0,1.38827784,-
 1.40324205,-1.52760623\C,0,7.46326239,0.37110444,-3.45496392\C,0,6.139
 71495,0.34807396,-5.5823022\H,0,5.98095216,1.43497903,-5.60848324\H,0,
 5.28281118,-0.10309629,-6.09362489\C,0,7.5071436,0.98828774,-2.2651449
 6\H,0,8.46355428,1.33686355,-1.87546544\C,0,6.09911109,-1.6567348,-4.0
 1926272\H,0,5.269998,-2.05429308,-4.61262975\H,0,7.01679522,-2.1082722
 8,-4.40506529\H,0,5.9784897,-2.003177,-2.98826735\C,0,8.74055014,0.128
 1444,-4.23688334\H,0,9.58876388,0.60304414,-3.73416302\H,0,8.95668678,
 -0.95208115,-4.26948514\C,0,7.42027057,0.0293008,-6.36940543\H,0,7.554
 58635,-1.0587221,-6.46182907\H,0,7.34021407,0.42266733,-7.38915436\C,0
 ,-0.79074441,1.97813263,0.27546362\H,0,-0.20308802,2.22862473,1.166334
 45\H,0,-0.87315848,2.90813801,-0.30567409\C,0,8.65043013,0.62665503,-5
 .68683105\H,0,8.56407238,1.72008497,-5.68273608\C,0,-0.75166317,0.6760
 2289,-1.89799653\H,0,-0.72829861,1.56346748,-2.54321471\H,0,-1.8011100
 9,0.42138799,-1.7227698\H,0,-0.31324223,-0.15347006,-2.45702529\C,0,-2
 .18361511,1.5269665,0.74741211\H,0,-2.86122009,1.40928618,-0.10600879\
 H,0,-2.09366892,0.52846637,1.19851973\C,0,-2.82815476,2.4610326,1.7884
 2907\H,0,-2.17285697,2.50644308,2.6703225\H,0,-3.76916745,2.00700252,2
 .13312138\C,0,-3.12957645,3.90454146,1.33196115\H,0,-2.18668954,4.3658
 2485,1.00487521\C,0,-3.66212847,4.73329623,2.51190687\H,0,-4.61034495,
 4.32239067,2.88200396\H,0,-3.84334504,5.7736356,2.21845318\H,0,-2.9535
 4211,4.73918244,3.3481328\C,0,-4.11290034,3.95372649,0.15174362\H,0,-5
 .06686128,3.48096708,0.41973136\H,0,-4.32577678,4.98930904,-0.13708088
 \H,0,-3.72322951,3.43934844,-0.73271281\\Version=EM64L-G09RevD.01\HF=-
 1198.9275404\RMSD=4.801e-07\Dipole=-0.4165833,-0.9092036,-0.3719721\Qu
 adrupole=-10.0019132,7.4952118,2.5067014,-15.1813305,2.8997605,5.16546
 96\PG=C01 [X(C27H46O2)]\\@


 IN-LAWS ARE LIKE SEEDS. YOU DON'T NEED THEM
 BUT THEY COME WITH THE TOMATO.
 Job cpu time:       0 days  0 hours 11 minutes 21.9 seconds.
 File lengths (MBytes):  RWF=    150 Int=      0 D2E=      0 Chk=     11 Scr=      1
 Normal termination of Gaussian 09 at Wed May 17 11:39:54 2017.
