 Entering Gaussian System, Link 0=/home/michal/g09/g09
 Input=JOB2-gau_m1-1-3.com
 Output=JOB2-gau_m1-1-3.log
 Initial command:
 /home/michal/g09/l1.exe "/home/michal/gauss_scratch/Gau-29365.inp" -scrdir="/home/michal/gauss_scratch/"
 Entering Link 1 = /home/michal/g09/l1.exe PID=     29366.
  
 Copyright (c) 1988,1990,1992,1993,1995,1998,2003,2009,2013,
            Gaussian, Inc.  All Rights Reserved.
  
 This is part of the Gaussian(R) 09 program.  It is based on
 the Gaussian(R) 03 system (copyright 2003, Gaussian, Inc.),
 the Gaussian(R) 98 system (copyright 1998, Gaussian, Inc.),
 the Gaussian(R) 94 system (copyright 1995, Gaussian, Inc.),
 the Gaussian 92(TM) system (copyright 1992, Gaussian, Inc.),
 the Gaussian 90(TM) system (copyright 1990, Gaussian, Inc.),
 the Gaussian 88(TM) system (copyright 1988, Gaussian, Inc.),
 the Gaussian 86(TM) system (copyright 1986, Carnegie Mellon
 University), and the Gaussian 82(TM) system (copyright 1983,
 Carnegie Mellon University). Gaussian is a federally registered
 trademark of Gaussian, Inc.
  
 This software contains proprietary and confidential information,
 including trade secrets, belonging to Gaussian, Inc.
  
 This software is provided under written license and may be
 used, copied, transmitted, or stored only in accord with that
 written license.
  
 The following legend is applicable only to US Government
 contracts under FAR:
  
                    RESTRICTED RIGHTS LEGEND
  
 Use, reproduction and disclosure by the US Government is
 subject to restrictions as set forth in subparagraphs (a)
 and (c) of the Commercial Computer Software - Restricted
 Rights clause in FAR 52.227-19.
  
 Gaussian, Inc.
 340 Quinnipiac St., Bldg. 40, Wallingford CT 06492
  
  
 ---------------------------------------------------------------
 Warning -- This program may not be used in any manner that
 competes with the business of Gaussian, Inc. or will provide
 assistance to any competitor of Gaussian, Inc.  The licensee
 of this program is prohibited from giving any competitor of
 Gaussian, Inc. access to this program.  By using this program,
 the user acknowledges that Gaussian, Inc. is engaged in the
 business of creating and licensing software in the field of
 computational chemistry and represents and warrants to the
 licensee that it is not a competitor of Gaussian, Inc. and that
 it will not use this program in any manner prohibited above.
 ---------------------------------------------------------------
  

 Cite this work as:
 Gaussian 09, Revision D.01,
 M. J. Frisch, G. W. Trucks, H. B. Schlegel, G. E. Scuseria, 
 M. A. Robb, J. R. Cheeseman, G. Scalmani, V. Barone, B. Mennucci, 
 G. A. Petersson, H. Nakatsuji, M. Caricato, X. Li, H. P. Hratchian, 
 A. F. Izmaylov, J. Bloino, G. Zheng, J. L. Sonnenberg, M. Hada, 
 M. Ehara, K. Toyota, R. Fukuda, J. Hasegawa, M. Ishida, T. Nakajima, 
 Y. Honda, O. Kitao, H. Nakai, T. Vreven, J. A. Montgomery, Jr., 
 J. E. Peralta, F. Ogliaro, M. Bearpark, J. J. Heyd, E. Brothers, 
 K. N. Kudin, V. N. Staroverov, T. Keith, R. Kobayashi, J. Normand, 
 K. Raghavachari, A. Rendell, J. C. Burant, S. S. Iyengar, J. Tomasi, 
 M. Cossi, N. Rega, J. M. Millam, M. Klene, J. E. Knox, J. B. Cross, 
 V. Bakken, C. Adamo, J. Jaramillo, R. Gomperts, R. E. Stratmann, 
 O. Yazyev, A. J. Austin, R. Cammi, C. Pomelli, J. W. Ochterski, 
 R. L. Martin, K. Morokuma, V. G. Zakrzewski, G. A. Voth, 
 P. Salvador, J. J. Dannenberg, S. Dapprich, A. D. Daniels, 
 O. Farkas, J. B. Foresman, J. V. Ortiz, J. Cioslowski, 
 and D. J. Fox, Gaussian, Inc., Wallingford CT, 2013.
 
 ******************************************
 Gaussian 09:  EM64L-G09RevD.01 24-Apr-2013
                17-May-2017 
 ******************************************
 %Mem=256MB
 %NProc=12
 Will use up to   12 processors via shared memory.
 ----------------------------------------------------------------------
 #P HF/6-31G* SCF(Conver=6) NoSymm Test Pop=chelpg IOp(6/33=2) GFInput 
 GFPrint
 ----------------------------------------------------------------------
 1/38=1/1;
 2/12=2,15=1,17=6,18=5,40=1/2;
 3/5=1,6=6,7=1,11=9,16=1,24=110,25=1,30=1/1,2,3;
 4//1;
 5/5=2,6=6,38=5/2;
 6/7=2,8=2,9=2,10=2,15=8,20=3,28=1,33=2/1,2;
 99/5=1,9=1/99;
 Leave Link    1 at Wed May 17 11:32:08 2017, MaxMem=    33554432 cpu:         0.6
 (Enter /home/michal/g09/l101.exe)
 ----------------------------------------------
 MEP - Input generated by R.E.D.-III.x MOLECULE
 ----------------------------------------------
 Symbolic Z-matrix:
 Charge =  0 Multiplicity = 1
 O                     6.11927   3.72574   0. 
 H                     5.85217   3.73793  -0.92995 
 O                     0.        0.        0. 
 H                    -0.11127  -0.16638  -0.94662 
 C                     8.82849   0.07561   0.41524 
 C                     7.90323   1.26889   0.79383 
 H                     7.68354   1.12856   1.86666 
 C                     6.53073   1.28522   0.09704 
 H                     6.66941   1.40098  -0.98802 
 C                     5.78567  -0.04845   0.38273 
 H                     5.57495  -0.04487   1.46492 
 C                     10.08489   0.41181   1.29298 
 H                     9.80743   0.15708   2.32841 
 C                     8.06511  -1.21105   0.7879 
 H                     7.93762  -1.24014   1.87977 
 H                     8.62654  -2.11061   0.51725 
 C                     4.38488  -0.1386   -0.31745 
 C                     8.81846   2.49915   0.69727 
 H                     8.45059   3.34109   1.28814 
 H                     8.87693   2.85672  -0.33623 
 C                     6.68369  -1.27642   0.10928 
 H                     6.82902  -1.39586  -0.96984 
 H                     6.17491  -2.18604   0.44728 
 C                     10.192    1.9716    1.19106 
 H                     10.99177   2.25492   0.49603 
 H                     10.45751   2.40799   2.15876 
 C                     5.67766   2.47799   0.57127 
 H                     5.83747   2.62332   1.64915 
 C                     11.43423  -0.29841   1.00732 
 H                     11.76303   0.        0. 
 C                     9.20425   0.07666  -1.08452 
 H                     8.32508   0.05722  -1.73392 
 H                     9.78763   0.96062  -1.35846 
 H                     9.80823  -0.80205  -1.33338 
 C                     3.617     1.17243  -0.11665 
 C                     3.56714  -1.28881   0.34941 
 H                     3.65061  -1.18184   1.43977 
 H                     4.021    -2.25281   0.09655 
 C                     4.20853   2.29812   0.30928 
 H                     3.60826   3.19419   0.46682 
 C                     4.51868  -0.4123   -1.83955 
 H                     4.90163  -1.41931  -2.03155 
 H                     3.55482  -0.33196  -2.34891 
 H                     5.19434   0.30625  -2.31359 
 C                     2.12872   1.15598  -0.4107 
 H                     1.67675   2.11291  -0.13192 
 H                     1.96494   1.03257  -1.49357 
 C                     2.07575  -1.32284  -0.01857 
 H                     1.94837  -1.54079  -1.08939 
 H                     1.57408  -2.13002   0.52717 
 C                     12.5159   0.18988   2.00329 
 H                     12.47974   1.28298   2.07091 
 H                     12.26468  -0.18449   3.0078 
 C                     1.39771   0.0088    0.30244 
 H                     1.43665   0.18051   1.38504 
 C                     11.33494  -1.83398   1.03966 
 H                     10.92427  -2.17972   1.99676 
 H                     12.31831  -2.2971    0.91547 
 H                     10.69776  -2.22462   0.24317 
 C                     13.96075  -0.20868   1.65904 
 H                     14.06244  -1.2998    1.65853 
 H                     14.18389   0.12428   0.6362 
 C                     14.97807   0.39834   2.63919 
 H                     14.71453   0.08153   3.65879 
 H                     14.86975   1.49252   2.62558 
 C                     16.46618   0.05518   2.39476 
 H                     17.02893   0.58      3.181 
 C                     16.98132   0.58037   1.04446 
 H                     16.51256   0.05857   0.20216 
 H                     18.06409   0.4347    0.95683 
 H                     16.77811   1.6516    0.92914 
 C                     16.76349  -1.44521   2.5537 
 H                     16.28744  -2.03815   1.76421 
 H                     17.84132  -1.63669   2.50008 
 H                     16.40489  -1.82315   3.51841 
 
 NAtoms=     75 NQM=       75 NQMF=       0 NMMI=      0 NMMIF=      0
                NMic=       0 NMicF=      0.
                    Isotopes and Nuclear Properties:
 (Nuclear quadrupole moments (NQMom) in fm**2, nuclear magnetic moments (NMagM)
  in nuclear magnetons)

  Atom         1           2           3           4           5           6           7           8           9          10
 IAtWgt=          16           1          16           1          12          12           1          12           1          12
 AtmWgt=  15.9949146   1.0078250  15.9949146   1.0078250  12.0000000  12.0000000   1.0078250  12.0000000   1.0078250  12.0000000
 NucSpn=           0           1           0           1           0           0           1           0           1           0
 AtZEff=   0.0000000   0.0000000   0.0000000   0.0000000   0.0000000   0.0000000   0.0000000   0.0000000   0.0000000   0.0000000
 NQMom=    0.0000000   0.0000000   0.0000000   0.0000000   0.0000000   0.0000000   0.0000000   0.0000000   0.0000000   0.0000000
 NMagM=    0.0000000   2.7928460   0.0000000   2.7928460   0.0000000   0.0000000   2.7928460   0.0000000   2.7928460   0.0000000
 AtZNuc=   8.0000000   1.0000000   8.0000000   1.0000000   6.0000000   6.0000000   1.0000000   6.0000000   1.0000000   6.0000000

  Atom        11          12          13          14          15          16          17          18          19          20
 IAtWgt=           1          12           1          12           1           1          12          12           1           1
 AtmWgt=   1.0078250  12.0000000   1.0078250  12.0000000   1.0078250   1.0078250  12.0000000  12.0000000   1.0078250   1.0078250
 NucSpn=           1           0           1           0           1           1           0           0           1           1
 AtZEff=   0.0000000   0.0000000   0.0000000   0.0000000   0.0000000   0.0000000   0.0000000   0.0000000   0.0000000   0.0000000
 NQMom=    0.0000000   0.0000000   0.0000000   0.0000000   0.0000000   0.0000000   0.0000000   0.0000000   0.0000000   0.0000000
 NMagM=    2.7928460   0.0000000   2.7928460   0.0000000   2.7928460   2.7928460   0.0000000   0.0000000   2.7928460   2.7928460
 AtZNuc=   1.0000000   6.0000000   1.0000000   6.0000000   1.0000000   1.0000000   6.0000000   6.0000000   1.0000000   1.0000000

  Atom        21          22          23          24          25          26          27          28          29          30
 IAtWgt=          12           1           1          12           1           1          12           1          12           1
 AtmWgt=  12.0000000   1.0078250   1.0078250  12.0000000   1.0078250   1.0078250  12.0000000   1.0078250  12.0000000   1.0078250
 NucSpn=           0           1           1           0           1           1           0           1           0           1
 AtZEff=   0.0000000   0.0000000   0.0000000   0.0000000   0.0000000   0.0000000   0.0000000   0.0000000   0.0000000   0.0000000
 NQMom=    0.0000000   0.0000000   0.0000000   0.0000000   0.0000000   0.0000000   0.0000000   0.0000000   0.0000000   0.0000000
 NMagM=    0.0000000   2.7928460   2.7928460   0.0000000   2.7928460   2.7928460   0.0000000   2.7928460   0.0000000   2.7928460
 AtZNuc=   6.0000000   1.0000000   1.0000000   6.0000000   1.0000000   1.0000000   6.0000000   1.0000000   6.0000000   1.0000000

  Atom        31          32          33          34          35          36          37          38          39          40
 IAtWgt=          12           1           1           1          12          12           1           1          12           1
 AtmWgt=  12.0000000   1.0078250   1.0078250   1.0078250  12.0000000  12.0000000   1.0078250   1.0078250  12.0000000   1.0078250
 NucSpn=           0           1           1           1           0           0           1           1           0           1
 AtZEff=   0.0000000   0.0000000   0.0000000   0.0000000   0.0000000   0.0000000   0.0000000   0.0000000   0.0000000   0.0000000
 NQMom=    0.0000000   0.0000000   0.0000000   0.0000000   0.0000000   0.0000000   0.0000000   0.0000000   0.0000000   0.0000000
 NMagM=    0.0000000   2.7928460   2.7928460   2.7928460   0.0000000   0.0000000   2.7928460   2.7928460   0.0000000   2.7928460
 AtZNuc=   6.0000000   1.0000000   1.0000000   1.0000000   6.0000000   6.0000000   1.0000000   1.0000000   6.0000000   1.0000000

  Atom        41          42          43          44          45          46          47          48          49          50
 IAtWgt=          12           1           1           1          12           1           1          12           1           1
 AtmWgt=  12.0000000   1.0078250   1.0078250   1.0078250  12.0000000   1.0078250   1.0078250  12.0000000   1.0078250   1.0078250
 NucSpn=           0           1           1           1           0           1           1           0           1           1
 AtZEff=   0.0000000   0.0000000   0.0000000   0.0000000   0.0000000   0.0000000   0.0000000   0.0000000   0.0000000   0.0000000
 NQMom=    0.0000000   0.0000000   0.0000000   0.0000000   0.0000000   0.0000000   0.0000000   0.0000000   0.0000000   0.0000000
 NMagM=    0.0000000   2.7928460   2.7928460   2.7928460   0.0000000   2.7928460   2.7928460   0.0000000   2.7928460   2.7928460
 AtZNuc=   6.0000000   1.0000000   1.0000000   1.0000000   6.0000000   1.0000000   1.0000000   6.0000000   1.0000000   1.0000000

  Atom        51          52          53          54          55          56          57          58          59          60
 IAtWgt=          12           1           1          12           1          12           1           1           1          12
 AtmWgt=  12.0000000   1.0078250   1.0078250  12.0000000   1.0078250  12.0000000   1.0078250   1.0078250   1.0078250  12.0000000
 NucSpn=           0           1           1           0           1           0           1           1           1           0
 AtZEff=   0.0000000   0.0000000   0.0000000   0.0000000   0.0000000   0.0000000   0.0000000   0.0000000   0.0000000   0.0000000
 NQMom=    0.0000000   0.0000000   0.0000000   0.0000000   0.0000000   0.0000000   0.0000000   0.0000000   0.0000000   0.0000000
 NMagM=    0.0000000   2.7928460   2.7928460   0.0000000   2.7928460   0.0000000   2.7928460   2.7928460   2.7928460   0.0000000
 AtZNuc=   6.0000000   1.0000000   1.0000000   6.0000000   1.0000000   6.0000000   1.0000000   1.0000000   1.0000000   6.0000000

  Atom        61          62          63          64          65          66          67          68          69          70
 IAtWgt=           1           1          12           1           1          12           1          12           1           1
 AtmWgt=   1.0078250   1.0078250  12.0000000   1.0078250   1.0078250  12.0000000   1.0078250  12.0000000   1.0078250   1.0078250
 NucSpn=           1           1           0           1           1           0           1           0           1           1
 AtZEff=   0.0000000   0.0000000   0.0000000   0.0000000   0.0000000   0.0000000   0.0000000   0.0000000   0.0000000   0.0000000
 NQMom=    0.0000000   0.0000000   0.0000000   0.0000000   0.0000000   0.0000000   0.0000000   0.0000000   0.0000000   0.0000000
 NMagM=    2.7928460   2.7928460   0.0000000   2.7928460   2.7928460   0.0000000   2.7928460   0.0000000   2.7928460   2.7928460
 AtZNuc=   1.0000000   1.0000000   6.0000000   1.0000000   1.0000000   6.0000000   1.0000000   6.0000000   1.0000000   1.0000000

  Atom        71          72          73          74          75
 IAtWgt=           1          12           1           1           1
 AtmWgt=   1.0078250  12.0000000   1.0078250   1.0078250   1.0078250
 NucSpn=           1           0           1           1           1
 AtZEff=   0.0000000   0.0000000   0.0000000   0.0000000   0.0000000
 NQMom=    0.0000000   0.0000000   0.0000000   0.0000000   0.0000000
 NMagM=    2.7928460   0.0000000   2.7928460   2.7928460   2.7928460
 AtZNuc=   1.0000000   6.0000000   1.0000000   1.0000000   1.0000000
 Leave Link  101 at Wed May 17 11:32:08 2017, MaxMem=    33554432 cpu:         1.1
 (Enter /home/michal/g09/l202.exe)
 Symmetry turned off by external request.
 Stoichiometry    C27H46O2
 Framework group  C1[X(C27H46O2)]
 Deg. of freedom   219
 Full point group                 C1      NOp   1
                          Input orientation:                          
 ---------------------------------------------------------------------
 Center     Atomic      Atomic             Coordinates (Angstroms)
 Number     Number       Type             X           Y           Z
 ---------------------------------------------------------------------
      1          8           0        6.119272    3.725742    0.000000
      2          1           0        5.852169    3.737926   -0.929950
      3          8           0        0.000000    0.000000    0.000000
      4          1           0       -0.111266   -0.166384   -0.946621
      5          6           0        8.828490    0.075613    0.415237
      6          6           0        7.903235    1.268890    0.793827
      7          1           0        7.683539    1.128555    1.866665
      8          6           0        6.530725    1.285221    0.097039
      9          1           0        6.669412    1.400980   -0.988020
     10          6           0        5.785674   -0.048446    0.382731
     11          1           0        5.574950   -0.044866    1.464923
     12          6           0       10.084888    0.411806    1.292981
     13          1           0        9.807435    0.157076    2.328414
     14          6           0        8.065115   -1.211046    0.787904
     15          1           0        7.937624   -1.240141    1.879769
     16          1           0        8.626537   -2.110612    0.517247
     17          6           0        4.384883   -0.138596   -0.317452
     18          6           0        8.818456    2.499153    0.697270
     19          1           0        8.450594    3.341095    1.288136
     20          1           0        8.876928    2.856720   -0.336233
     21          6           0        6.683686   -1.276416    0.109283
     22          1           0        6.829022   -1.395864   -0.969842
     23          1           0        6.174915   -2.186037    0.447283
     24          6           0       10.192002    1.971596    1.191059
     25          1           0       10.991765    2.254918    0.496034
     26          1           0       10.457506    2.407989    2.158764
     27          6           0        5.677657    2.477993    0.571269
     28          1           0        5.837472    2.623317    1.649146
     29          6           0       11.434229   -0.298409    1.007324
     30          1           0       11.763035    0.000000    0.000000
     31          6           0        9.204249    0.076656   -1.084518
     32          1           0        8.325076    0.057217   -1.733921
     33          1           0        9.787631    0.960623   -1.358461
     34          1           0        9.808233   -0.802055   -1.333380
     35          6           0        3.616996    1.172429   -0.116649
     36          6           0        3.567139   -1.288805    0.349406
     37          1           0        3.650615   -1.181836    1.439772
     38          1           0        4.020996   -2.252805    0.096554
     39          6           0        4.208526    2.298123    0.309281
     40          1           0        3.608257    3.194194    0.466818
     41          6           0        4.518679   -0.412296   -1.839546
     42          1           0        4.901630   -1.419314   -2.031547
     43          1           0        3.554819   -0.331956   -2.348907
     44          1           0        5.194343    0.306250   -2.313593
     45          6           0        2.128723    1.155980   -0.410701
     46          1           0        1.676749    2.112913   -0.131920
     47          1           0        1.964939    1.032570   -1.493569
     48          6           0        2.075749   -1.322841   -0.018566
     49          1           0        1.948375   -1.540795   -1.089386
     50          1           0        1.574080   -2.130021    0.527172
     51          6           0       12.515897    0.189879    2.003286
     52          1           0       12.479738    1.282977    2.070906
     53          1           0       12.264683   -0.184485    3.007796
     54          6           0        1.397707    0.008796    0.302437
     55          1           0        1.436649    0.180507    1.385039
     56          6           0       11.334937   -1.833976    1.039656
     57          1           0       10.924266   -2.179721    1.996758
     58          1           0       12.318309   -2.297096    0.915474
     59          1           0       10.697764   -2.224620    0.243168
     60          6           0       13.960746   -0.208675    1.659040
     61          1           0       14.062436   -1.299799    1.658532
     62          1           0       14.183886    0.124280    0.636195
     63          6           0       14.978068    0.398342    2.639192
     64          1           0       14.714529    0.081531    3.658790
     65          1           0       14.869749    1.492518    2.625576
     66          6           0       16.466177    0.055180    2.394762
     67          1           0       17.028934    0.580000    3.181002
     68          6           0       16.981322    0.580375    1.044460
     69          1           0       16.512562    0.058574    0.202159
     70          1           0       18.064091    0.434703    0.956828
     71          1           0       16.778109    1.651597    0.929141
     72          6           0       16.763489   -1.445206    2.553697
     73          1           0       16.287440   -2.038152    1.764212
     74          1           0       17.841324   -1.636688    2.500080
     75          1           0       16.404887   -1.823145    3.518411
 ---------------------------------------------------------------------
 Rotational constants (GHZ):      0.5029768      0.0522021      0.0493572
 Leave Link  202 at Wed May 17 11:32:08 2017, MaxMem=    33554432 cpu:         0.0
 (Enter /home/michal/g09/l301.exe)
 Standard basis: 6-31G(d) (6D, 7F)
 Ernie: Thresh=  0.10000D-02 Tol=  0.10000D-05 Strict=F.
 AO basis set in the form of general basis input (Overlap normalization):
      1 0
 S   6 1.00       0.000000000000
      0.5484671660D+04  0.1831074430D-02
      0.8252349460D+03  0.1395017220D-01
      0.1880469580D+03  0.6844507810D-01
      0.5296450000D+02  0.2327143360D+00
      0.1689757040D+02  0.4701928980D+00
      0.5799635340D+01  0.3585208530D+00
 SP   3 1.00       0.000000000000
      0.1553961625D+02 -0.1107775495D+00  0.7087426823D-01
      0.3599933586D+01 -0.1480262627D+00  0.3397528391D+00
      0.1013761750D+01  0.1130767015D+01  0.7271585773D+00
 SP   1 1.00       0.000000000000
      0.2700058226D+00  0.1000000000D+01  0.1000000000D+01
 D   1 1.00       0.000000000000
      0.8000000000D+00  0.1000000000D+01
 ****
      2 0
 S   3 1.00       0.000000000000
      0.1873113696D+02  0.3349460434D-01
      0.2825394365D+01  0.2347269535D+00
      0.6401216923D+00  0.8137573261D+00
 S   1 1.00       0.000000000000
      0.1612777588D+00  0.1000000000D+01
 ****
      3 0
 S   6 1.00       0.000000000000
      0.5484671660D+04  0.1831074430D-02
      0.8252349460D+03  0.1395017220D-01
      0.1880469580D+03  0.6844507810D-01
      0.5296450000D+02  0.2327143360D+00
      0.1689757040D+02  0.4701928980D+00
      0.5799635340D+01  0.3585208530D+00
 SP   3 1.00       0.000000000000
      0.1553961625D+02 -0.1107775495D+00  0.7087426823D-01
      0.3599933586D+01 -0.1480262627D+00  0.3397528391D+00
      0.1013761750D+01  0.1130767015D+01  0.7271585773D+00
 SP   1 1.00       0.000000000000
      0.2700058226D+00  0.1000000000D+01  0.1000000000D+01
 D   1 1.00       0.000000000000
      0.8000000000D+00  0.1000000000D+01
 ****
      4 0
 S   3 1.00       0.000000000000
      0.1873113696D+02  0.3349460434D-01
      0.2825394365D+01  0.2347269535D+00
      0.6401216923D+00  0.8137573261D+00
 S   1 1.00       0.000000000000
      0.1612777588D+00  0.1000000000D+01
 ****
      5 0
 S   6 1.00       0.000000000000
      0.3047524880D+04  0.1834737132D-02
      0.4573695180D+03  0.1403732281D-01
      0.1039486850D+03  0.6884262226D-01
      0.2921015530D+02  0.2321844432D+00
      0.9286662960D+01  0.4679413484D+00
      0.3163926960D+01  0.3623119853D+00
 SP   3 1.00       0.000000000000
      0.7868272350D+01 -0.1193324198D+00  0.6899906659D-01
      0.1881288540D+01 -0.1608541517D+00  0.3164239610D+00
      0.5442492580D+00  0.1143456438D+01  0.7443082909D+00
 SP   1 1.00       0.000000000000
      0.1687144782D+00  0.1000000000D+01  0.1000000000D+01
 D   1 1.00       0.000000000000
      0.8000000000D+00  0.1000000000D+01
 ****
      6 0
 S   6 1.00       0.000000000000
      0.3047524880D+04  0.1834737132D-02
      0.4573695180D+03  0.1403732281D-01
      0.1039486850D+03  0.6884262226D-01
      0.2921015530D+02  0.2321844432D+00
      0.9286662960D+01  0.4679413484D+00
      0.3163926960D+01  0.3623119853D+00
 SP   3 1.00       0.000000000000
      0.7868272350D+01 -0.1193324198D+00  0.6899906659D-01
      0.1881288540D+01 -0.1608541517D+00  0.3164239610D+00
      0.5442492580D+00  0.1143456438D+01  0.7443082909D+00
 SP   1 1.00       0.000000000000
      0.1687144782D+00  0.1000000000D+01  0.1000000000D+01
 D   1 1.00       0.000000000000
      0.8000000000D+00  0.1000000000D+01
 ****
      7 0
 S   3 1.00       0.000000000000
      0.1873113696D+02  0.3349460434D-01
      0.2825394365D+01  0.2347269535D+00
      0.6401216923D+00  0.8137573261D+00
 S   1 1.00       0.000000000000
      0.1612777588D+00  0.1000000000D+01
 ****
      8 0
 S   6 1.00       0.000000000000
      0.3047524880D+04  0.1834737132D-02
      0.4573695180D+03  0.1403732281D-01
      0.1039486850D+03  0.6884262226D-01
      0.2921015530D+02  0.2321844432D+00
      0.9286662960D+01  0.4679413484D+00
      0.3163926960D+01  0.3623119853D+00
 SP   3 1.00       0.000000000000
      0.7868272350D+01 -0.1193324198D+00  0.6899906659D-01
      0.1881288540D+01 -0.1608541517D+00  0.3164239610D+00
      0.5442492580D+00  0.1143456438D+01  0.7443082909D+00
 SP   1 1.00       0.000000000000
      0.1687144782D+00  0.1000000000D+01  0.1000000000D+01
 D   1 1.00       0.000000000000
      0.8000000000D+00  0.1000000000D+01
 ****
      9 0
 S   3 1.00       0.000000000000
      0.1873113696D+02  0.3349460434D-01
      0.2825394365D+01  0.2347269535D+00
      0.6401216923D+00  0.8137573261D+00
 S   1 1.00       0.000000000000
      0.1612777588D+00  0.1000000000D+01
 ****
     10 0
 S   6 1.00       0.000000000000
      0.3047524880D+04  0.1834737132D-02
      0.4573695180D+03  0.1403732281D-01
      0.1039486850D+03  0.6884262226D-01
      0.2921015530D+02  0.2321844432D+00
      0.9286662960D+01  0.4679413484D+00
      0.3163926960D+01  0.3623119853D+00
 SP   3 1.00       0.000000000000
      0.7868272350D+01 -0.1193324198D+00  0.6899906659D-01
      0.1881288540D+01 -0.1608541517D+00  0.3164239610D+00
      0.5442492580D+00  0.1143456438D+01  0.7443082909D+00
 SP   1 1.00       0.000000000000
      0.1687144782D+00  0.1000000000D+01  0.1000000000D+01
 D   1 1.00       0.000000000000
      0.8000000000D+00  0.1000000000D+01
 ****
     11 0
 S   3 1.00       0.000000000000
      0.1873113696D+02  0.3349460434D-01
      0.2825394365D+01  0.2347269535D+00
      0.6401216923D+00  0.8137573261D+00
 S   1 1.00       0.000000000000
      0.1612777588D+00  0.1000000000D+01
 ****
     12 0
 S   6 1.00       0.000000000000
      0.3047524880D+04  0.1834737132D-02
      0.4573695180D+03  0.1403732281D-01
      0.1039486850D+03  0.6884262226D-01
      0.2921015530D+02  0.2321844432D+00
      0.9286662960D+01  0.4679413484D+00
      0.3163926960D+01  0.3623119853D+00
 SP   3 1.00       0.000000000000
      0.7868272350D+01 -0.1193324198D+00  0.6899906659D-01
      0.1881288540D+01 -0.1608541517D+00  0.3164239610D+00
      0.5442492580D+00  0.1143456438D+01  0.7443082909D+00
 SP   1 1.00       0.000000000000
      0.1687144782D+00  0.1000000000D+01  0.1000000000D+01
 D   1 1.00       0.000000000000
      0.8000000000D+00  0.1000000000D+01
 ****
     13 0
 S   3 1.00       0.000000000000
      0.1873113696D+02  0.3349460434D-01
      0.2825394365D+01  0.2347269535D+00
      0.6401216923D+00  0.8137573261D+00
 S   1 1.00       0.000000000000
      0.1612777588D+00  0.1000000000D+01
 ****
     14 0
 S   6 1.00       0.000000000000
      0.3047524880D+04  0.1834737132D-02
      0.4573695180D+03  0.1403732281D-01
      0.1039486850D+03  0.6884262226D-01
      0.2921015530D+02  0.2321844432D+00
      0.9286662960D+01  0.4679413484D+00
      0.3163926960D+01  0.3623119853D+00
 SP   3 1.00       0.000000000000
      0.7868272350D+01 -0.1193324198D+00  0.6899906659D-01
      0.1881288540D+01 -0.1608541517D+00  0.3164239610D+00
      0.5442492580D+00  0.1143456438D+01  0.7443082909D+00
 SP   1 1.00       0.000000000000
      0.1687144782D+00  0.1000000000D+01  0.1000000000D+01
 D   1 1.00       0.000000000000
      0.8000000000D+00  0.1000000000D+01
 ****
     15 0
 S   3 1.00       0.000000000000
      0.1873113696D+02  0.3349460434D-01
      0.2825394365D+01  0.2347269535D+00
      0.6401216923D+00  0.8137573261D+00
 S   1 1.00       0.000000000000
      0.1612777588D+00  0.1000000000D+01
 ****
     16 0
 S   3 1.00       0.000000000000
      0.1873113696D+02  0.3349460434D-01
      0.2825394365D+01  0.2347269535D+00
      0.6401216923D+00  0.8137573261D+00
 S   1 1.00       0.000000000000
      0.1612777588D+00  0.1000000000D+01
 ****
     17 0
 S   6 1.00       0.000000000000
      0.3047524880D+04  0.1834737132D-02
      0.4573695180D+03  0.1403732281D-01
      0.1039486850D+03  0.6884262226D-01
      0.2921015530D+02  0.2321844432D+00
      0.9286662960D+01  0.4679413484D+00
      0.3163926960D+01  0.3623119853D+00
 SP   3 1.00       0.000000000000
      0.7868272350D+01 -0.1193324198D+00  0.6899906659D-01
      0.1881288540D+01 -0.1608541517D+00  0.3164239610D+00
      0.5442492580D+00  0.1143456438D+01  0.7443082909D+00
 SP   1 1.00       0.000000000000
      0.1687144782D+00  0.1000000000D+01  0.1000000000D+01
 D   1 1.00       0.000000000000
      0.8000000000D+00  0.1000000000D+01
 ****
     18 0
 S   6 1.00       0.000000000000
      0.3047524880D+04  0.1834737132D-02
      0.4573695180D+03  0.1403732281D-01
      0.1039486850D+03  0.6884262226D-01
      0.2921015530D+02  0.2321844432D+00
      0.9286662960D+01  0.4679413484D+00
      0.3163926960D+01  0.3623119853D+00
 SP   3 1.00       0.000000000000
      0.7868272350D+01 -0.1193324198D+00  0.6899906659D-01
      0.1881288540D+01 -0.1608541517D+00  0.3164239610D+00
      0.5442492580D+00  0.1143456438D+01  0.7443082909D+00
 SP   1 1.00       0.000000000000
      0.1687144782D+00  0.1000000000D+01  0.1000000000D+01
 D   1 1.00       0.000000000000
      0.8000000000D+00  0.1000000000D+01
 ****
     19 0
 S   3 1.00       0.000000000000
      0.1873113696D+02  0.3349460434D-01
      0.2825394365D+01  0.2347269535D+00
      0.6401216923D+00  0.8137573261D+00
 S   1 1.00       0.000000000000
      0.1612777588D+00  0.1000000000D+01
 ****
     20 0
 S   3 1.00       0.000000000000
      0.1873113696D+02  0.3349460434D-01
      0.2825394365D+01  0.2347269535D+00
      0.6401216923D+00  0.8137573261D+00
 S   1 1.00       0.000000000000
      0.1612777588D+00  0.1000000000D+01
 ****
     21 0
 S   6 1.00       0.000000000000
      0.3047524880D+04  0.1834737132D-02
      0.4573695180D+03  0.1403732281D-01
      0.1039486850D+03  0.6884262226D-01
      0.2921015530D+02  0.2321844432D+00
      0.9286662960D+01  0.4679413484D+00
      0.3163926960D+01  0.3623119853D+00
 SP   3 1.00       0.000000000000
      0.7868272350D+01 -0.1193324198D+00  0.6899906659D-01
      0.1881288540D+01 -0.1608541517D+00  0.3164239610D+00
      0.5442492580D+00  0.1143456438D+01  0.7443082909D+00
 SP   1 1.00       0.000000000000
      0.1687144782D+00  0.1000000000D+01  0.1000000000D+01
 D   1 1.00       0.000000000000
      0.8000000000D+00  0.1000000000D+01
 ****
     22 0
 S   3 1.00       0.000000000000
      0.1873113696D+02  0.3349460434D-01
      0.2825394365D+01  0.2347269535D+00
      0.6401216923D+00  0.8137573261D+00
 S   1 1.00       0.000000000000
      0.1612777588D+00  0.1000000000D+01
 ****
     23 0
 S   3 1.00       0.000000000000
      0.1873113696D+02  0.3349460434D-01
      0.2825394365D+01  0.2347269535D+00
      0.6401216923D+00  0.8137573261D+00
 S   1 1.00       0.000000000000
      0.1612777588D+00  0.1000000000D+01
 ****
     24 0
 S   6 1.00       0.000000000000
      0.3047524880D+04  0.1834737132D-02
      0.4573695180D+03  0.1403732281D-01
      0.1039486850D+03  0.6884262226D-01
      0.2921015530D+02  0.2321844432D+00
      0.9286662960D+01  0.4679413484D+00
      0.3163926960D+01  0.3623119853D+00
 SP   3 1.00       0.000000000000
      0.7868272350D+01 -0.1193324198D+00  0.6899906659D-01
      0.1881288540D+01 -0.1608541517D+00  0.3164239610D+00
      0.5442492580D+00  0.1143456438D+01  0.7443082909D+00
 SP   1 1.00       0.000000000000
      0.1687144782D+00  0.1000000000D+01  0.1000000000D+01
 D   1 1.00       0.000000000000
      0.8000000000D+00  0.1000000000D+01
 ****
     25 0
 S   3 1.00       0.000000000000
      0.1873113696D+02  0.3349460434D-01
      0.2825394365D+01  0.2347269535D+00
      0.6401216923D+00  0.8137573261D+00
 S   1 1.00       0.000000000000
      0.1612777588D+00  0.1000000000D+01
 ****
     26 0
 S   3 1.00       0.000000000000
      0.1873113696D+02  0.3349460434D-01
      0.2825394365D+01  0.2347269535D+00
      0.6401216923D+00  0.8137573261D+00
 S   1 1.00       0.000000000000
      0.1612777588D+00  0.1000000000D+01
 ****
     27 0
 S   6 1.00       0.000000000000
      0.3047524880D+04  0.1834737132D-02
      0.4573695180D+03  0.1403732281D-01
      0.1039486850D+03  0.6884262226D-01
      0.2921015530D+02  0.2321844432D+00
      0.9286662960D+01  0.4679413484D+00
      0.3163926960D+01  0.3623119853D+00
 SP   3 1.00       0.000000000000
      0.7868272350D+01 -0.1193324198D+00  0.6899906659D-01
      0.1881288540D+01 -0.1608541517D+00  0.3164239610D+00
      0.5442492580D+00  0.1143456438D+01  0.7443082909D+00
 SP   1 1.00       0.000000000000
      0.1687144782D+00  0.1000000000D+01  0.1000000000D+01
 D   1 1.00       0.000000000000
      0.8000000000D+00  0.1000000000D+01
 ****
     28 0
 S   3 1.00       0.000000000000
      0.1873113696D+02  0.3349460434D-01
      0.2825394365D+01  0.2347269535D+00
      0.6401216923D+00  0.8137573261D+00
 S   1 1.00       0.000000000000
      0.1612777588D+00  0.1000000000D+01
 ****
     29 0
 S   6 1.00       0.000000000000
      0.3047524880D+04  0.1834737132D-02
      0.4573695180D+03  0.1403732281D-01
      0.1039486850D+03  0.6884262226D-01
      0.2921015530D+02  0.2321844432D+00
      0.9286662960D+01  0.4679413484D+00
      0.3163926960D+01  0.3623119853D+00
 SP   3 1.00       0.000000000000
      0.7868272350D+01 -0.1193324198D+00  0.6899906659D-01
      0.1881288540D+01 -0.1608541517D+00  0.3164239610D+00
      0.5442492580D+00  0.1143456438D+01  0.7443082909D+00
 SP   1 1.00       0.000000000000
      0.1687144782D+00  0.1000000000D+01  0.1000000000D+01
 D   1 1.00       0.000000000000
      0.8000000000D+00  0.1000000000D+01
 ****
     30 0
 S   3 1.00       0.000000000000
      0.1873113696D+02  0.3349460434D-01
      0.2825394365D+01  0.2347269535D+00
      0.6401216923D+00  0.8137573261D+00
 S   1 1.00       0.000000000000
      0.1612777588D+00  0.1000000000D+01
 ****
     31 0
 S   6 1.00       0.000000000000
      0.3047524880D+04  0.1834737132D-02
      0.4573695180D+03  0.1403732281D-01
      0.1039486850D+03  0.6884262226D-01
      0.2921015530D+02  0.2321844432D+00
      0.9286662960D+01  0.4679413484D+00
      0.3163926960D+01  0.3623119853D+00
 SP   3 1.00       0.000000000000
      0.7868272350D+01 -0.1193324198D+00  0.6899906659D-01
      0.1881288540D+01 -0.1608541517D+00  0.3164239610D+00
      0.5442492580D+00  0.1143456438D+01  0.7443082909D+00
 SP   1 1.00       0.000000000000
      0.1687144782D+00  0.1000000000D+01  0.1000000000D+01
 D   1 1.00       0.000000000000
      0.8000000000D+00  0.1000000000D+01
 ****
     32 0
 S   3 1.00       0.000000000000
      0.1873113696D+02  0.3349460434D-01
      0.2825394365D+01  0.2347269535D+00
      0.6401216923D+00  0.8137573261D+00
 S   1 1.00       0.000000000000
      0.1612777588D+00  0.1000000000D+01
 ****
     33 0
 S   3 1.00       0.000000000000
      0.1873113696D+02  0.3349460434D-01
      0.2825394365D+01  0.2347269535D+00
      0.6401216923D+00  0.8137573261D+00
 S   1 1.00       0.000000000000
      0.1612777588D+00  0.1000000000D+01
 ****
     34 0
 S   3 1.00       0.000000000000
      0.1873113696D+02  0.3349460434D-01
      0.2825394365D+01  0.2347269535D+00
      0.6401216923D+00  0.8137573261D+00
 S   1 1.00       0.000000000000
      0.1612777588D+00  0.1000000000D+01
 ****
     35 0
 S   6 1.00       0.000000000000
      0.3047524880D+04  0.1834737132D-02
      0.4573695180D+03  0.1403732281D-01
      0.1039486850D+03  0.6884262226D-01
      0.2921015530D+02  0.2321844432D+00
      0.9286662960D+01  0.4679413484D+00
      0.3163926960D+01  0.3623119853D+00
 SP   3 1.00       0.000000000000
      0.7868272350D+01 -0.1193324198D+00  0.6899906659D-01
      0.1881288540D+01 -0.1608541517D+00  0.3164239610D+00
      0.5442492580D+00  0.1143456438D+01  0.7443082909D+00
 SP   1 1.00       0.000000000000
      0.1687144782D+00  0.1000000000D+01  0.1000000000D+01
 D   1 1.00       0.000000000000
      0.8000000000D+00  0.1000000000D+01
 ****
     36 0
 S   6 1.00       0.000000000000
      0.3047524880D+04  0.1834737132D-02
      0.4573695180D+03  0.1403732281D-01
      0.1039486850D+03  0.6884262226D-01
      0.2921015530D+02  0.2321844432D+00
      0.9286662960D+01  0.4679413484D+00
      0.3163926960D+01  0.3623119853D+00
 SP   3 1.00       0.000000000000
      0.7868272350D+01 -0.1193324198D+00  0.6899906659D-01
      0.1881288540D+01 -0.1608541517D+00  0.3164239610D+00
      0.5442492580D+00  0.1143456438D+01  0.7443082909D+00
 SP   1 1.00       0.000000000000
      0.1687144782D+00  0.1000000000D+01  0.1000000000D+01
 D   1 1.00       0.000000000000
      0.8000000000D+00  0.1000000000D+01
 ****
     37 0
 S   3 1.00       0.000000000000
      0.1873113696D+02  0.3349460434D-01
      0.2825394365D+01  0.2347269535D+00
      0.6401216923D+00  0.8137573261D+00
 S   1 1.00       0.000000000000
      0.1612777588D+00  0.1000000000D+01
 ****
     38 0
 S   3 1.00       0.000000000000
      0.1873113696D+02  0.3349460434D-01
      0.2825394365D+01  0.2347269535D+00
      0.6401216923D+00  0.8137573261D+00
 S   1 1.00       0.000000000000
      0.1612777588D+00  0.1000000000D+01
 ****
     39 0
 S   6 1.00       0.000000000000
      0.3047524880D+04  0.1834737132D-02
      0.4573695180D+03  0.1403732281D-01
      0.1039486850D+03  0.6884262226D-01
      0.2921015530D+02  0.2321844432D+00
      0.9286662960D+01  0.4679413484D+00
      0.3163926960D+01  0.3623119853D+00
 SP   3 1.00       0.000000000000
      0.7868272350D+01 -0.1193324198D+00  0.6899906659D-01
      0.1881288540D+01 -0.1608541517D+00  0.3164239610D+00
      0.5442492580D+00  0.1143456438D+01  0.7443082909D+00
 SP   1 1.00       0.000000000000
      0.1687144782D+00  0.1000000000D+01  0.1000000000D+01
 D   1 1.00       0.000000000000
      0.8000000000D+00  0.1000000000D+01
 ****
     40 0
 S   3 1.00       0.000000000000
      0.1873113696D+02  0.3349460434D-01
      0.2825394365D+01  0.2347269535D+00
      0.6401216923D+00  0.8137573261D+00
 S   1 1.00       0.000000000000
      0.1612777588D+00  0.1000000000D+01
 ****
     41 0
 S   6 1.00       0.000000000000
      0.3047524880D+04  0.1834737132D-02
      0.4573695180D+03  0.1403732281D-01
      0.1039486850D+03  0.6884262226D-01
      0.2921015530D+02  0.2321844432D+00
      0.9286662960D+01  0.4679413484D+00
      0.3163926960D+01  0.3623119853D+00
 SP   3 1.00       0.000000000000
      0.7868272350D+01 -0.1193324198D+00  0.6899906659D-01
      0.1881288540D+01 -0.1608541517D+00  0.3164239610D+00
      0.5442492580D+00  0.1143456438D+01  0.7443082909D+00
 SP   1 1.00       0.000000000000
      0.1687144782D+00  0.1000000000D+01  0.1000000000D+01
 D   1 1.00       0.000000000000
      0.8000000000D+00  0.1000000000D+01
 ****
     42 0
 S   3 1.00       0.000000000000
      0.1873113696D+02  0.3349460434D-01
      0.2825394365D+01  0.2347269535D+00
      0.6401216923D+00  0.8137573261D+00
 S   1 1.00       0.000000000000
      0.1612777588D+00  0.1000000000D+01
 ****
     43 0
 S   3 1.00       0.000000000000
      0.1873113696D+02  0.3349460434D-01
      0.2825394365D+01  0.2347269535D+00
      0.6401216923D+00  0.8137573261D+00
 S   1 1.00       0.000000000000
      0.1612777588D+00  0.1000000000D+01
 ****
     44 0
 S   3 1.00       0.000000000000
      0.1873113696D+02  0.3349460434D-01
      0.2825394365D+01  0.2347269535D+00
      0.6401216923D+00  0.8137573261D+00
 S   1 1.00       0.000000000000
      0.1612777588D+00  0.1000000000D+01
 ****
     45 0
 S   6 1.00       0.000000000000
      0.3047524880D+04  0.1834737132D-02
      0.4573695180D+03  0.1403732281D-01
      0.1039486850D+03  0.6884262226D-01
      0.2921015530D+02  0.2321844432D+00
      0.9286662960D+01  0.4679413484D+00
      0.3163926960D+01  0.3623119853D+00
 SP   3 1.00       0.000000000000
      0.7868272350D+01 -0.1193324198D+00  0.6899906659D-01
      0.1881288540D+01 -0.1608541517D+00  0.3164239610D+00
      0.5442492580D+00  0.1143456438D+01  0.7443082909D+00
 SP   1 1.00       0.000000000000
      0.1687144782D+00  0.1000000000D+01  0.1000000000D+01
 D   1 1.00       0.000000000000
      0.8000000000D+00  0.1000000000D+01
 ****
     46 0
 S   3 1.00       0.000000000000
      0.1873113696D+02  0.3349460434D-01
      0.2825394365D+01  0.2347269535D+00
      0.6401216923D+00  0.8137573261D+00
 S   1 1.00       0.000000000000
      0.1612777588D+00  0.1000000000D+01
 ****
     47 0
 S   3 1.00       0.000000000000
      0.1873113696D+02  0.3349460434D-01
      0.2825394365D+01  0.2347269535D+00
      0.6401216923D+00  0.8137573261D+00
 S   1 1.00       0.000000000000
      0.1612777588D+00  0.1000000000D+01
 ****
     48 0
 S   6 1.00       0.000000000000
      0.3047524880D+04  0.1834737132D-02
      0.4573695180D+03  0.1403732281D-01
      0.1039486850D+03  0.6884262226D-01
      0.2921015530D+02  0.2321844432D+00
      0.9286662960D+01  0.4679413484D+00
      0.3163926960D+01  0.3623119853D+00
 SP   3 1.00       0.000000000000
      0.7868272350D+01 -0.1193324198D+00  0.6899906659D-01
      0.1881288540D+01 -0.1608541517D+00  0.3164239610D+00
      0.5442492580D+00  0.1143456438D+01  0.7443082909D+00
 SP   1 1.00       0.000000000000
      0.1687144782D+00  0.1000000000D+01  0.1000000000D+01
 D   1 1.00       0.000000000000
      0.8000000000D+00  0.1000000000D+01
 ****
     49 0
 S   3 1.00       0.000000000000
      0.1873113696D+02  0.3349460434D-01
      0.2825394365D+01  0.2347269535D+00
      0.6401216923D+00  0.8137573261D+00
 S   1 1.00       0.000000000000
      0.1612777588D+00  0.1000000000D+01
 ****
     50 0
 S   3 1.00       0.000000000000
      0.1873113696D+02  0.3349460434D-01
      0.2825394365D+01  0.2347269535D+00
      0.6401216923D+00  0.8137573261D+00
 S   1 1.00       0.000000000000
      0.1612777588D+00  0.1000000000D+01
 ****
     51 0
 S   6 1.00       0.000000000000
      0.3047524880D+04  0.1834737132D-02
      0.4573695180D+03  0.1403732281D-01
      0.1039486850D+03  0.6884262226D-01
      0.2921015530D+02  0.2321844432D+00
      0.9286662960D+01  0.4679413484D+00
      0.3163926960D+01  0.3623119853D+00
 SP   3 1.00       0.000000000000
      0.7868272350D+01 -0.1193324198D+00  0.6899906659D-01
      0.1881288540D+01 -0.1608541517D+00  0.3164239610D+00
      0.5442492580D+00  0.1143456438D+01  0.7443082909D+00
 SP   1 1.00       0.000000000000
      0.1687144782D+00  0.1000000000D+01  0.1000000000D+01
 D   1 1.00       0.000000000000
      0.8000000000D+00  0.1000000000D+01
 ****
     52 0
 S   3 1.00       0.000000000000
      0.1873113696D+02  0.3349460434D-01
      0.2825394365D+01  0.2347269535D+00
      0.6401216923D+00  0.8137573261D+00
 S   1 1.00       0.000000000000
      0.1612777588D+00  0.1000000000D+01
 ****
     53 0
 S   3 1.00       0.000000000000
      0.1873113696D+02  0.3349460434D-01
      0.2825394365D+01  0.2347269535D+00
      0.6401216923D+00  0.8137573261D+00
 S   1 1.00       0.000000000000
      0.1612777588D+00  0.1000000000D+01
 ****
     54 0
 S   6 1.00       0.000000000000
      0.3047524880D+04  0.1834737132D-02
      0.4573695180D+03  0.1403732281D-01
      0.1039486850D+03  0.6884262226D-01
      0.2921015530D+02  0.2321844432D+00
      0.9286662960D+01  0.4679413484D+00
      0.3163926960D+01  0.3623119853D+00
 SP   3 1.00       0.000000000000
      0.7868272350D+01 -0.1193324198D+00  0.6899906659D-01
      0.1881288540D+01 -0.1608541517D+00  0.3164239610D+00
      0.5442492580D+00  0.1143456438D+01  0.7443082909D+00
 SP   1 1.00       0.000000000000
      0.1687144782D+00  0.1000000000D+01  0.1000000000D+01
 D   1 1.00       0.000000000000
      0.8000000000D+00  0.1000000000D+01
 ****
     55 0
 S   3 1.00       0.000000000000
      0.1873113696D+02  0.3349460434D-01
      0.2825394365D+01  0.2347269535D+00
      0.6401216923D+00  0.8137573261D+00
 S   1 1.00       0.000000000000
      0.1612777588D+00  0.1000000000D+01
 ****
     56 0
 S   6 1.00       0.000000000000
      0.3047524880D+04  0.1834737132D-02
      0.4573695180D+03  0.1403732281D-01
      0.1039486850D+03  0.6884262226D-01
      0.2921015530D+02  0.2321844432D+00
      0.9286662960D+01  0.4679413484D+00
      0.3163926960D+01  0.3623119853D+00
 SP   3 1.00       0.000000000000
      0.7868272350D+01 -0.1193324198D+00  0.6899906659D-01
      0.1881288540D+01 -0.1608541517D+00  0.3164239610D+00
      0.5442492580D+00  0.1143456438D+01  0.7443082909D+00
 SP   1 1.00       0.000000000000
      0.1687144782D+00  0.1000000000D+01  0.1000000000D+01
 D   1 1.00       0.000000000000
      0.8000000000D+00  0.1000000000D+01
 ****
     57 0
 S   3 1.00       0.000000000000
      0.1873113696D+02  0.3349460434D-01
      0.2825394365D+01  0.2347269535D+00
      0.6401216923D+00  0.8137573261D+00
 S   1 1.00       0.000000000000
      0.1612777588D+00  0.1000000000D+01
 ****
     58 0
 S   3 1.00       0.000000000000
      0.1873113696D+02  0.3349460434D-01
      0.2825394365D+01  0.2347269535D+00
      0.6401216923D+00  0.8137573261D+00
 S   1 1.00       0.000000000000
      0.1612777588D+00  0.1000000000D+01
 ****
     59 0
 S   3 1.00       0.000000000000
      0.1873113696D+02  0.3349460434D-01
      0.2825394365D+01  0.2347269535D+00
      0.6401216923D+00  0.8137573261D+00
 S   1 1.00       0.000000000000
      0.1612777588D+00  0.1000000000D+01
 ****
     60 0
 S   6 1.00       0.000000000000
      0.3047524880D+04  0.1834737132D-02
      0.4573695180D+03  0.1403732281D-01
      0.1039486850D+03  0.6884262226D-01
      0.2921015530D+02  0.2321844432D+00
      0.9286662960D+01  0.4679413484D+00
      0.3163926960D+01  0.3623119853D+00
 SP   3 1.00       0.000000000000
      0.7868272350D+01 -0.1193324198D+00  0.6899906659D-01
      0.1881288540D+01 -0.1608541517D+00  0.3164239610D+00
      0.5442492580D+00  0.1143456438D+01  0.7443082909D+00
 SP   1 1.00       0.000000000000
      0.1687144782D+00  0.1000000000D+01  0.1000000000D+01
 D   1 1.00       0.000000000000
      0.8000000000D+00  0.1000000000D+01
 ****
     61 0
 S   3 1.00       0.000000000000
      0.1873113696D+02  0.3349460434D-01
      0.2825394365D+01  0.2347269535D+00
      0.6401216923D+00  0.8137573261D+00
 S   1 1.00       0.000000000000
      0.1612777588D+00  0.1000000000D+01
 ****
     62 0
 S   3 1.00       0.000000000000
      0.1873113696D+02  0.3349460434D-01
      0.2825394365D+01  0.2347269535D+00
      0.6401216923D+00  0.8137573261D+00
 S   1 1.00       0.000000000000
      0.1612777588D+00  0.1000000000D+01
 ****
     63 0
 S   6 1.00       0.000000000000
      0.3047524880D+04  0.1834737132D-02
      0.4573695180D+03  0.1403732281D-01
      0.1039486850D+03  0.6884262226D-01
      0.2921015530D+02  0.2321844432D+00
      0.9286662960D+01  0.4679413484D+00
      0.3163926960D+01  0.3623119853D+00
 SP   3 1.00       0.000000000000
      0.7868272350D+01 -0.1193324198D+00  0.6899906659D-01
      0.1881288540D+01 -0.1608541517D+00  0.3164239610D+00
      0.5442492580D+00  0.1143456438D+01  0.7443082909D+00
 SP   1 1.00       0.000000000000
      0.1687144782D+00  0.1000000000D+01  0.1000000000D+01
 D   1 1.00       0.000000000000
      0.8000000000D+00  0.1000000000D+01
 ****
     64 0
 S   3 1.00       0.000000000000
      0.1873113696D+02  0.3349460434D-01
      0.2825394365D+01  0.2347269535D+00
      0.6401216923D+00  0.8137573261D+00
 S   1 1.00       0.000000000000
      0.1612777588D+00  0.1000000000D+01
 ****
     65 0
 S   3 1.00       0.000000000000
      0.1873113696D+02  0.3349460434D-01
      0.2825394365D+01  0.2347269535D+00
      0.6401216923D+00  0.8137573261D+00
 S   1 1.00       0.000000000000
      0.1612777588D+00  0.1000000000D+01
 ****
     66 0
 S   6 1.00       0.000000000000
      0.3047524880D+04  0.1834737132D-02
      0.4573695180D+03  0.1403732281D-01
      0.1039486850D+03  0.6884262226D-01
      0.2921015530D+02  0.2321844432D+00
      0.9286662960D+01  0.4679413484D+00
      0.3163926960D+01  0.3623119853D+00
 SP   3 1.00       0.000000000000
      0.7868272350D+01 -0.1193324198D+00  0.6899906659D-01
      0.1881288540D+01 -0.1608541517D+00  0.3164239610D+00
      0.5442492580D+00  0.1143456438D+01  0.7443082909D+00
 SP   1 1.00       0.000000000000
      0.1687144782D+00  0.1000000000D+01  0.1000000000D+01
 D   1 1.00       0.000000000000
      0.8000000000D+00  0.1000000000D+01
 ****
     67 0
 S   3 1.00       0.000000000000
      0.1873113696D+02  0.3349460434D-01
      0.2825394365D+01  0.2347269535D+00
      0.6401216923D+00  0.8137573261D+00
 S   1 1.00       0.000000000000
      0.1612777588D+00  0.1000000000D+01
 ****
     68 0
 S   6 1.00       0.000000000000
      0.3047524880D+04  0.1834737132D-02
      0.4573695180D+03  0.1403732281D-01
      0.1039486850D+03  0.6884262226D-01
      0.2921015530D+02  0.2321844432D+00
      0.9286662960D+01  0.4679413484D+00
      0.3163926960D+01  0.3623119853D+00
 SP   3 1.00       0.000000000000
      0.7868272350D+01 -0.1193324198D+00  0.6899906659D-01
      0.1881288540D+01 -0.1608541517D+00  0.3164239610D+00
      0.5442492580D+00  0.1143456438D+01  0.7443082909D+00
 SP   1 1.00       0.000000000000
      0.1687144782D+00  0.1000000000D+01  0.1000000000D+01
 D   1 1.00       0.000000000000
      0.8000000000D+00  0.1000000000D+01
 ****
     69 0
 S   3 1.00       0.000000000000
      0.1873113696D+02  0.3349460434D-01
      0.2825394365D+01  0.2347269535D+00
      0.6401216923D+00  0.8137573261D+00
 S   1 1.00       0.000000000000
      0.1612777588D+00  0.1000000000D+01
 ****
     70 0
 S   3 1.00       0.000000000000
      0.1873113696D+02  0.3349460434D-01
      0.2825394365D+01  0.2347269535D+00
      0.6401216923D+00  0.8137573261D+00
 S   1 1.00       0.000000000000
      0.1612777588D+00  0.1000000000D+01
 ****
     71 0
 S   3 1.00       0.000000000000
      0.1873113696D+02  0.3349460434D-01
      0.2825394365D+01  0.2347269535D+00
      0.6401216923D+00  0.8137573261D+00
 S   1 1.00       0.000000000000
      0.1612777588D+00  0.1000000000D+01
 ****
     72 0
 S   6 1.00       0.000000000000
      0.3047524880D+04  0.1834737132D-02
      0.4573695180D+03  0.1403732281D-01
      0.1039486850D+03  0.6884262226D-01
      0.2921015530D+02  0.2321844432D+00
      0.9286662960D+01  0.4679413484D+00
      0.3163926960D+01  0.3623119853D+00
 SP   3 1.00       0.000000000000
      0.7868272350D+01 -0.1193324198D+00  0.6899906659D-01
      0.1881288540D+01 -0.1608541517D+00  0.3164239610D+00
      0.5442492580D+00  0.1143456438D+01  0.7443082909D+00
 SP   1 1.00       0.000000000000
      0.1687144782D+00  0.1000000000D+01  0.1000000000D+01
 D   1 1.00       0.000000000000
      0.8000000000D+00  0.1000000000D+01
 ****
     73 0
 S   3 1.00       0.000000000000
      0.1873113696D+02  0.3349460434D-01
      0.2825394365D+01  0.2347269535D+00
      0.6401216923D+00  0.8137573261D+00
 S   1 1.00       0.000000000000
      0.1612777588D+00  0.1000000000D+01
 ****
     74 0
 S   3 1.00       0.000000000000
      0.1873113696D+02  0.3349460434D-01
      0.2825394365D+01  0.2347269535D+00
      0.6401216923D+00  0.8137573261D+00
 S   1 1.00       0.000000000000
      0.1612777588D+00  0.1000000000D+01
 ****
     75 0
 S   3 1.00       0.000000000000
      0.1873113696D+02  0.3349460434D-01
      0.2825394365D+01  0.2347269535D+00
      0.6401216923D+00  0.8137573261D+00
 S   1 1.00       0.000000000000
      0.1612777588D+00  0.1000000000D+01
 ****

 AO basis set (Overlap normalization):
 Atom O1       Shell     1 S   6     bf    1 -     1         11.563748458300          7.040632645399          0.000000000000
      0.5484671660D+04  0.1831074430D-02
      0.8252349460D+03  0.1395017220D-01
      0.1880469580D+03  0.6844507810D-01
      0.5296450000D+02  0.2327143360D+00
      0.1689757040D+02  0.4701928980D+00
      0.5799635340D+01  0.3585208530D+00
 Atom O1       Shell     2 SP   3    bf    2 -     5         11.563748458300          7.040632645399          0.000000000000
      0.1553961625D+02 -0.1107775495D+00  0.7087426823D-01
      0.3599933586D+01 -0.1480262627D+00  0.3397528391D+00
      0.1013761750D+01  0.1130767015D+01  0.7271585773D+00
 Atom O1       Shell     3 SP   1    bf    6 -     9         11.563748458300          7.040632645399          0.000000000000
      0.2700058226D+00  0.1000000000D+01  0.1000000000D+01
 Atom O1       Shell     4 D   1     bf   10 -    15         11.563748458300          7.040632645399          0.000000000000
      0.8000000000D+00  0.1000000000D+01
 Atom H2       Shell     5 S   3     bf   16 -    16         11.058996844541          7.063655859178         -1.757351138530
      0.1873113696D+02  0.3349460434D-01
      0.2825394365D+01  0.2347269535D+00
      0.6401216923D+00  0.8137573261D+00
 Atom H2       Shell     6 S   1     bf   17 -    17         11.058996844541          7.063655859178         -1.757351138530
      0.1612777588D+00  0.1000000000D+01
 Atom O3       Shell     7 S   6     bf   18 -    18          0.000000000000          0.000000000000          0.000000000000
      0.5484671660D+04  0.1831074430D-02
      0.8252349460D+03  0.1395017220D-01
      0.1880469580D+03  0.6844507810D-01
      0.5296450000D+02  0.2327143360D+00
      0.1689757040D+02  0.4701928980D+00
      0.5799635340D+01  0.3585208530D+00
 Atom O3       Shell     8 SP   3    bf   19 -    22          0.000000000000          0.000000000000          0.000000000000
      0.1553961625D+02 -0.1107775495D+00  0.7087426823D-01
      0.3599933586D+01 -0.1480262627D+00  0.3397528391D+00
      0.1013761750D+01  0.1130767015D+01  0.7271585773D+00
 Atom O3       Shell     9 SP   1    bf   23 -    26          0.000000000000          0.000000000000          0.000000000000
      0.2700058226D+00  0.1000000000D+01  0.1000000000D+01
 Atom O3       Shell    10 D   1     bf   27 -    32          0.000000000000          0.000000000000          0.000000000000
      0.8000000000D+00  0.1000000000D+01
 Atom H4       Shell    11 S   3     bf   33 -    33         -0.210262834819         -0.314419739360         -1.788855121940
      0.1873113696D+02  0.3349460434D-01
      0.2825394365D+01  0.2347269535D+00
      0.6401216923D+00  0.8137573261D+00
 Atom H4       Shell    12 S   1     bf   34 -    34         -0.210262834819         -0.314419739360         -1.788855121940
      0.1612777588D+00  0.1000000000D+01
 Atom C5       Shell    13 S   6     bf   35 -    35         16.683429022810          0.142887559730          0.784685003926
      0.3047524880D+04  0.1834737132D-02
      0.4573695180D+03  0.1403732281D-01
      0.1039486850D+03  0.6884262226D-01
      0.2921015530D+02  0.2321844432D+00
      0.9286662960D+01  0.4679413484D+00
      0.3163926960D+01  0.3623119853D+00
 Atom C5       Shell    14 SP   3    bf   36 -    39         16.683429022810          0.142887559730          0.784685003926
      0.7868272350D+01 -0.1193324198D+00  0.6899906659D-01
      0.1881288540D+01 -0.1608541517D+00  0.3164239610D+00
      0.5442492580D+00  0.1143456438D+01  0.7443082909D+00
 Atom C5       Shell    15 SP   1    bf   40 -    43         16.683429022810          0.142887559730          0.784685003926
      0.1687144782D+00  0.1000000000D+01  0.1000000000D+01
 Atom C5       Shell    16 D   1     bf   44 -    49         16.683429022810          0.142887559730          0.784685003926
      0.8000000000D+00  0.1000000000D+01
 Atom C6       Shell    17 S   6     bf   50 -    50         14.934948882357          2.397853893559          1.500115494609
      0.3047524880D+04  0.1834737132D-02
      0.4573695180D+03  0.1403732281D-01
      0.1039486850D+03  0.6884262226D-01
      0.2921015530D+02  0.2321844432D+00
      0.9286662960D+01  0.4679413484D+00
      0.3163926960D+01  0.3623119853D+00
 Atom C6       Shell    18 SP   3    bf   51 -    54         14.934948882357          2.397853893559          1.500115494609
      0.7868272350D+01 -0.1193324198D+00  0.6899906659D-01
      0.1881288540D+01 -0.1608541517D+00  0.3164239610D+00
      0.5442492580D+00  0.1143456438D+01  0.7443082909D+00
 Atom C6       Shell    19 SP   1    bf   55 -    58         14.934948882357          2.397853893559          1.500115494609
      0.1687144782D+00  0.1000000000D+01  0.1000000000D+01
 Atom C6       Shell    20 D   1     bf   59 -    64         14.934948882357          2.397853893559          1.500115494609
      0.8000000000D+00  0.1000000000D+01
 Atom H7       Shell    21 S   3     bf   65 -    65         14.519783704353          2.132660329433          3.527484781466
      0.1873113696D+02  0.3349460434D-01
      0.2825394365D+01  0.2347269535D+00
      0.6401216923D+00  0.8137573261D+00
 Atom H7       Shell    22 S   1     bf   66 -    66         14.519783704353          2.132660329433          3.527484781466
      0.1612777588D+00  0.1000000000D+01
 Atom C8       Shell    23 S   6     bf   67 -    67         12.341282568464          2.428715256699          0.183376964134
      0.3047524880D+04  0.1834737132D-02
      0.4573695180D+03  0.1403732281D-01
      0.1039486850D+03  0.6884262226D-01
      0.2921015530D+02  0.2321844432D+00
      0.9286662960D+01  0.4679413484D+00
      0.3163926960D+01  0.3623119853D+00
 Atom C8       Shell    24 SP   3    bf   68 -    71         12.341282568464          2.428715256699          0.183376964134
      0.7868272350D+01 -0.1193324198D+00  0.6899906659D-01
      0.1881288540D+01 -0.1608541517D+00  0.3164239610D+00
      0.5442492580D+00  0.1143456438D+01  0.7443082909D+00
 Atom C8       Shell    25 SP   1    bf   72 -    75         12.341282568464          2.428715256699          0.183376964134
      0.1687144782D+00  0.1000000000D+01  0.1000000000D+01
 Atom C8       Shell    26 D   1     bf   76 -    81         12.341282568464          2.428715256699          0.183376964134
      0.8000000000D+00  0.1000000000D+01
 Atom H9       Shell    27 S   3     bf   82 -    82         12.603361674950          2.647468328678         -1.867087780732
      0.1873113696D+02  0.3349460434D-01
      0.2825394365D+01  0.2347269535D+00
      0.6401216923D+00  0.8137573261D+00
 Atom H9       Shell    28 S   1     bf   83 -    83         12.603361674950          2.647468328678         -1.867087780732
      0.1612777588D+00  0.1000000000D+01
 Atom C10      Shell    29 S   6     bf   84 -    84         10.933339184082         -0.091548897446          0.723257244997
      0.3047524880D+04  0.1834737132D-02
      0.4573695180D+03  0.1403732281D-01
      0.1039486850D+03  0.6884262226D-01
      0.2921015530D+02  0.2321844432D+00
      0.9286662960D+01  0.4679413484D+00
      0.3163926960D+01  0.3623119853D+00
 Atom C10      Shell    30 SP   3    bf   85 -    88         10.933339184082         -0.091548897446          0.723257244997
      0.7868272350D+01 -0.1193324198D+00  0.6899906659D-01
      0.1881288540D+01 -0.1608541517D+00  0.3164239610D+00
      0.5442492580D+00  0.1143456438D+01  0.7443082909D+00
 Atom C10      Shell    31 SP   1    bf   89 -    92         10.933339184082         -0.091548897446          0.723257244997
      0.1687144782D+00  0.1000000000D+01  0.1000000000D+01
 Atom C10      Shell    32 D   1     bf   93 -    98         10.933339184082         -0.091548897446          0.723257244997
      0.8000000000D+00  0.1000000000D+01
 Atom H11      Shell    33 S   3     bf   99 -    99         10.535129592702         -0.084783715685          2.768304145039
      0.1873113696D+02  0.3349460434D-01
      0.2825394365D+01  0.2347269535D+00
      0.6401216923D+00  0.8137573261D+00
 Atom H11      Shell    34 S   1     bf  100 -   100         10.535129592702         -0.084783715685          2.768304145039
      0.1612777588D+00  0.1000000000D+01
 Atom C12      Shell    35 S   6     bf  101 -   101         19.057677288996          0.778200503187          2.443379739360
      0.3047524880D+04  0.1834737132D-02
      0.4573695180D+03  0.1403732281D-01
      0.1039486850D+03  0.6884262226D-01
      0.2921015530D+02  0.2321844432D+00
      0.9286662960D+01  0.4679413484D+00
      0.3163926960D+01  0.3623119853D+00
 Atom C12      Shell    36 SP   3    bf  102 -   105         19.057677288996          0.778200503187          2.443379739360
      0.7868272350D+01 -0.1193324198D+00  0.6899906659D-01
      0.1881288540D+01 -0.1608541517D+00  0.3164239610D+00
      0.5442492580D+00  0.1143456438D+01  0.7443082909D+00
 Atom C12      Shell    37 SP   1    bf  106 -   109         19.057677288996          0.778200503187          2.443379739360
      0.1687144782D+00  0.1000000000D+01  0.1000000000D+01
 Atom C12      Shell    38 D   1     bf  110 -   115         19.057677288996          0.778200503187          2.443379739360
      0.8000000000D+00  0.1000000000D+01
 Atom H13      Shell    39 S   3     bf  116 -   116         18.533366197180          0.296831321248          4.400063876908
      0.1873113696D+02  0.3349460434D-01
      0.2825394365D+01  0.2347269535D+00
      0.6401216923D+00  0.8137573261D+00
 Atom H13      Shell    40 S   1     bf  117 -   117         18.533366197180          0.296831321248          4.400063876908
      0.1612777588D+00  0.1000000000D+01
 Atom C14      Shell    41 S   6     bf  118 -   118         15.240858088899         -2.288546030217          1.488922873491
      0.3047524880D+04  0.1834737132D-02
      0.4573695180D+03  0.1403732281D-01
      0.1039486850D+03  0.6884262226D-01
      0.2921015530D+02  0.2321844432D+00
      0.9286662960D+01  0.4679413484D+00
      0.3163926960D+01  0.3623119853D+00
 Atom C14      Shell    42 SP   3    bf  119 -   122         15.240858088899         -2.288546030217          1.488922873491
      0.7868272350D+01 -0.1193324198D+00  0.6899906659D-01
      0.1881288540D+01 -0.1608541517D+00  0.3164239610D+00
      0.5442492580D+00  0.1143456438D+01  0.7443082909D+00
 Atom C14      Shell    43 SP   1    bf  123 -   126         15.240858088899         -2.288546030217          1.488922873491
      0.1687144782D+00  0.1000000000D+01  0.1000000000D+01
 Atom C14      Shell    44 D   1     bf  127 -   132         15.240858088899         -2.288546030217          1.488922873491
      0.8000000000D+00  0.1000000000D+01
 Atom H15      Shell    45 S   3     bf  133 -   133         14.999936223916         -2.343526024683          3.552248319629
      0.1873113696D+02  0.3349460434D-01
      0.2825394365D+01  0.2347269535D+00
      0.6401216923D+00  0.8137573261D+00
 Atom H15      Shell    46 S   1     bf  134 -   134         14.999936223916         -2.343526024683          3.552248319629
      0.1612777588D+00  0.1000000000D+01
 Atom H16      Shell    47 S   3     bf  135 -   135         16.301792442999         -3.988478785063          0.977454606139
      0.1873113696D+02  0.3349460434D-01
      0.2825394365D+01  0.2347269535D+00
      0.6401216923D+00  0.8137573261D+00
 Atom H16      Shell    48 S   1     bf  136 -   136         16.301792442999         -3.988478785063          0.977454606139
      0.1612777588D+00  0.1000000000D+01
 Atom C17      Shell    49 S   6     bf  137 -   137          8.286228920712         -0.261909068929         -0.599896433268
      0.3047524880D+04  0.1834737132D-02
      0.4573695180D+03  0.1403732281D-01
      0.1039486850D+03  0.6884262226D-01
      0.2921015530D+02  0.2321844432D+00
      0.9286662960D+01  0.4679413484D+00
      0.3163926960D+01  0.3623119853D+00
 Atom C17      Shell    50 SP   3    bf  138 -   141          8.286228920712         -0.261909068929         -0.599896433268
      0.7868272350D+01 -0.1193324198D+00  0.6899906659D-01
      0.1881288540D+01 -0.1608541517D+00  0.3164239610D+00
      0.5442492580D+00  0.1143456438D+01  0.7443082909D+00
 Atom C17      Shell    51 SP   1    bf  142 -   145          8.286228920712         -0.261909068929         -0.599896433268
      0.1687144782D+00  0.1000000000D+01  0.1000000000D+01
 Atom C17      Shell    52 D   1     bf  146 -   151          8.286228920712         -0.261909068929         -0.599896433268
      0.8000000000D+00  0.1000000000D+01
 Atom C18      Shell    53 S   6     bf  152 -   152         16.664466622621          4.722715414481          1.317648546992
      0.3047524880D+04  0.1834737132D-02
      0.4573695180D+03  0.1403732281D-01
      0.1039486850D+03  0.6884262226D-01
      0.2921015530D+02  0.2321844432D+00
      0.9286662960D+01  0.4679413484D+00
      0.3163926960D+01  0.3623119853D+00
 Atom C18      Shell    54 SP   3    bf  153 -   156         16.664466622621          4.722715414481          1.317648546992
      0.7868272350D+01 -0.1193324198D+00  0.6899906659D-01
      0.1881288540D+01 -0.1608541517D+00  0.3164239610D+00
      0.5442492580D+00  0.1143456438D+01  0.7443082909D+00
 Atom C18      Shell    55 SP   1    bf  157 -   160         16.664466622621          4.722715414481          1.317648546992
      0.1687144782D+00  0.1000000000D+01  0.1000000000D+01
 Atom C18      Shell    56 D   1     bf  161 -   166         16.664466622621          4.722715414481          1.317648546992
      0.8000000000D+00  0.1000000000D+01
 Atom H19      Shell    57 S   3     bf  167 -   167         15.969308169029          6.313753853652          2.434224734342
      0.1873113696D+02  0.3349460434D-01
      0.2825394365D+01  0.2347269535D+00
      0.6401216923D+00  0.8137573261D+00
 Atom H19      Shell    58 S   1     bf  168 -   168         15.969308169029          6.313753853652          2.434224734342
      0.1612777588D+00  0.1000000000D+01
 Atom H20      Shell    59 S   3     bf  169 -   169         16.774962367810          5.398418060392         -0.635387436462
      0.1873113696D+02  0.3349460434D-01
      0.2825394365D+01  0.2347269535D+00
      0.6401216923D+00  0.8137573261D+00
 Atom H20      Shell    60 S   1     bf  170 -   170         16.774962367810          5.398418060392         -0.635387436462
      0.1612777588D+00  0.1000000000D+01
 Atom C21      Shell    61 S   6     bf  171 -   171         12.630336306072         -2.412075840154          0.206514355165
      0.3047524880D+04  0.1834737132D-02
      0.4573695180D+03  0.1403732281D-01
      0.1039486850D+03  0.6884262226D-01
      0.2921015530D+02  0.2321844432D+00
      0.9286662960D+01  0.4679413484D+00
      0.3163926960D+01  0.3623119853D+00
 Atom C21      Shell    62 SP   3    bf  172 -   175         12.630336306072         -2.412075840154          0.206514355165
      0.7868272350D+01 -0.1193324198D+00  0.6899906659D-01
      0.1881288540D+01 -0.1608541517D+00  0.3164239610D+00
      0.5442492580D+00  0.1143456438D+01  0.7443082909D+00
 Atom C21      Shell    63 SP   1    bf  176 -   179         12.630336306072         -2.412075840154          0.206514355165
      0.1687144782D+00  0.1000000000D+01  0.1000000000D+01
 Atom C21      Shell    64 D   1     bf  180 -   185         12.630336306072         -2.412075840154          0.206514355165
      0.8000000000D+00  0.1000000000D+01
 Atom H22      Shell    65 S   3     bf  186 -   186         12.904981411040         -2.637800263015         -1.832735280841
      0.1873113696D+02  0.3349460434D-01
      0.2825394365D+01  0.2347269535D+00
      0.6401216923D+00  0.8137573261D+00
 Atom H22      Shell    66 S   1     bf  187 -   187         12.904981411040         -2.637800263015         -1.832735280841
      0.1612777588D+00  0.1000000000D+01
 Atom H23      Shell    67 S   3     bf  188 -   188         11.668897903697         -4.131010584951          0.845242978608
      0.1873113696D+02  0.3349460434D-01
      0.2825394365D+01  0.2347269535D+00
      0.6401216923D+00  0.8137573261D+00
 Atom H23      Shell    68 S   1     bf  189 -   189         11.668897903697         -4.131010584951          0.845242978608
      0.1612777588D+00  0.1000000000D+01
 Atom C24      Shell    69 S   6     bf  190 -   190         19.260092393542          3.725776503590          2.250775223622
      0.3047524880D+04  0.1834737132D-02
      0.4573695180D+03  0.1403732281D-01
      0.1039486850D+03  0.6884262226D-01
      0.2921015530D+02  0.2321844432D+00
      0.9286662960D+01  0.4679413484D+00
      0.3163926960D+01  0.3623119853D+00
 Atom C24      Shell    70 SP   3    bf  191 -   194         19.260092393542          3.725776503590          2.250775223622
      0.7868272350D+01 -0.1193324198D+00  0.6899906659D-01
      0.1881288540D+01 -0.1608541517D+00  0.3164239610D+00
      0.5442492580D+00  0.1143456438D+01  0.7443082909D+00
 Atom C24      Shell    71 SP   1    bf  195 -   198         19.260092393542          3.725776503590          2.250775223622
      0.1687144782D+00  0.1000000000D+01  0.1000000000D+01
 Atom C24      Shell    72 D   1     bf  199 -   204         19.260092393542          3.725776503590          2.250775223622
      0.8000000000D+00  0.1000000000D+01
 Atom H25      Shell    73 S   3     bf  205 -   205         20.771425699319          4.261177131964          0.937369206285
      0.1873113696D+02  0.3349460434D-01
      0.2825394365D+01  0.2347269535D+00
      0.6401216923D+00  0.8137573261D+00
 Atom H25      Shell    74 S   1     bf  206 -   206         20.771425699319          4.261177131964          0.937369206285
      0.1612777588D+00  0.1000000000D+01
 Atom H26      Shell    75 S   3     bf  207 -   207         19.761822391906          4.550438985111          4.079472632149
      0.1873113696D+02  0.3349460434D-01
      0.2825394365D+01  0.2347269535D+00
      0.6401216923D+00  0.8137573261D+00
 Atom H26      Shell    76 S   1     bf  208 -   208         19.761822391906          4.550438985111          4.079472632149
      0.1612777588D+00  0.1000000000D+01
 Atom C27      Shell    77 S   6     bf  209 -   209         10.729217165509          4.682728185899          1.079541996002
      0.3047524880D+04  0.1834737132D-02
      0.4573695180D+03  0.1403732281D-01
      0.1039486850D+03  0.6884262226D-01
      0.2921015530D+02  0.2321844432D+00
      0.9286662960D+01  0.4679413484D+00
      0.3163926960D+01  0.3623119853D+00
 Atom C27      Shell    78 SP   3    bf  210 -   213         10.729217165509          4.682728185899          1.079541996002
      0.7868272350D+01 -0.1193324198D+00  0.6899906659D-01
      0.1881288540D+01 -0.1608541517D+00  0.3164239610D+00
      0.5442492580D+00  0.1143456438D+01  0.7443082909D+00
 Atom C27      Shell    79 SP   1    bf  214 -   217         10.729217165509          4.682728185899          1.079541996002
      0.1687144782D+00  0.1000000000D+01  0.1000000000D+01
 Atom C27      Shell    80 D   1     bf  218 -   223         10.729217165509          4.682728185899          1.079541996002
      0.8000000000D+00  0.1000000000D+01
 Atom H28      Shell    81 S   3     bf  224 -   224         11.031222972648          4.957349801572          3.116433480562
      0.1873113696D+02  0.3349460434D-01
      0.2825394365D+01  0.2347269535D+00
      0.6401216923D+00  0.8137573261D+00
 Atom H28      Shell    82 S   1     bf  225 -   225         11.031222972648          4.957349801572          3.116433480562
      0.1612777588D+00  0.1000000000D+01
 Atom C29      Shell    83 S   6     bf  226 -   226         21.607561331802         -0.563911304486          1.903565693398
      0.3047524880D+04  0.1834737132D-02
      0.4573695180D+03  0.1403732281D-01
      0.1039486850D+03  0.6884262226D-01
      0.2921015530D+02  0.2321844432D+00
      0.9286662960D+01  0.4679413484D+00
      0.3163926960D+01  0.3623119853D+00
 Atom C29      Shell    84 SP   3    bf  227 -   230         21.607561331802         -0.563911304486          1.903565693398
      0.7868272350D+01 -0.1193324198D+00  0.6899906659D-01
      0.1881288540D+01 -0.1608541517D+00  0.3164239610D+00
      0.5442492580D+00  0.1143456438D+01  0.7443082909D+00
 Atom C29      Shell    85 SP   1    bf  231 -   234         21.607561331802         -0.563911304486          1.903565693398
      0.1687144782D+00  0.1000000000D+01  0.1000000000D+01
 Atom C29      Shell    86 D   1     bf  235 -   240         21.607561331802         -0.563911304486          1.903565693398
      0.8000000000D+00  0.1000000000D+01
 Atom H30      Shell    87 S   3     bf  241 -   241         22.228914395884          0.000000000000          0.000000000000
      0.1873113696D+02  0.3349460434D-01
      0.2825394365D+01  0.2347269535D+00
      0.6401216923D+00  0.8137573261D+00
 Atom H30      Shell    88 S   1     bf  242 -   242         22.228914395884          0.000000000000          0.000000000000
      0.1612777588D+00  0.1000000000D+01
 Atom C31      Shell    89 S   6     bf  243 -   243         17.393509604325          0.144859413360         -2.049441099116
      0.3047524880D+04  0.1834737132D-02
      0.4573695180D+03  0.1403732281D-01
      0.1039486850D+03  0.6884262226D-01
      0.2921015530D+02  0.2321844432D+00
      0.9286662960D+01  0.4679413484D+00
      0.3163926960D+01  0.3623119853D+00
 Atom C31      Shell    90 SP   3    bf  244 -   247         17.393509604325          0.144859413360         -2.049441099116
      0.7868272350D+01 -0.1193324198D+00  0.6899906659D-01
      0.1881288540D+01 -0.1608541517D+00  0.3164239610D+00
      0.5442492580D+00  0.1143456438D+01  0.7443082909D+00
 Atom C31      Shell    91 SP   1    bf  248 -   251         17.393509604325          0.144859413360         -2.049441099116
      0.1687144782D+00  0.1000000000D+01  0.1000000000D+01
 Atom C31      Shell    92 D   1     bf  252 -   257         17.393509604325          0.144859413360         -2.049441099116
      0.8000000000D+00  0.1000000000D+01
 Atom H32      Shell    93 S   3     bf  258 -   258         15.732114469144          0.108124006611         -3.276635788265
      0.1873113696D+02  0.3349460434D-01
      0.2825394365D+01  0.2347269535D+00
      0.6401216923D+00  0.8137573261D+00
 Atom H32      Shell    94 S   1     bf  259 -   259         15.732114469144          0.108124006611         -3.276635788265
      0.1612777588D+00  0.1000000000D+01
 Atom H33      Shell    95 S   3     bf  260 -   260         18.495942967913          1.815313555472         -2.567118647494
      0.1873113696D+02  0.3349460434D-01
      0.2825394365D+01  0.2347269535D+00
      0.6401216923D+00  0.8137573261D+00
 Atom H33      Shell    96 S   1     bf  261 -   261         18.495942967913          1.815313555472         -2.567118647494
      0.1612777588D+00  0.1000000000D+01
 Atom H34      Shell    97 S   3     bf  262 -   262         18.534874841141         -1.515663896669         -2.519722105101
      0.1873113696D+02  0.3349460434D-01
      0.2825394365D+01  0.2347269535D+00
      0.6401216923D+00  0.8137573261D+00
 Atom H34      Shell    98 S   1     bf  263 -   263         18.534874841141         -1.515663896669         -2.519722105101
      0.1612777588D+00  0.1000000000D+01
 Atom C35      Shell    99 S   6     bf  264 -   264          6.835132317277          2.215570589527         -0.220435173901
      0.3047524880D+04  0.1834737132D-02
      0.4573695180D+03  0.1403732281D-01
      0.1039486850D+03  0.6884262226D-01
      0.2921015530D+02  0.2321844432D+00
      0.9286662960D+01  0.4679413484D+00
      0.3163926960D+01  0.3623119853D+00
 Atom C35      Shell   100 SP   3    bf  265 -   268          6.835132317277          2.215570589527         -0.220435173901
      0.7868272350D+01 -0.1193324198D+00  0.6899906659D-01
      0.1881288540D+01 -0.1608541517D+00  0.3164239610D+00
      0.5442492580D+00  0.1143456438D+01  0.7443082909D+00
 Atom C35      Shell   101 SP   1    bf  269 -   272          6.835132317277          2.215570589527         -0.220435173901
      0.1687144782D+00  0.1000000000D+01  0.1000000000D+01
 Atom C35      Shell   102 D   1     bf  273 -   278          6.835132317277          2.215570589527         -0.220435173901
      0.8000000000D+00  0.1000000000D+01
 Atom C36      Shell   103 S   6     bf  279 -   279          6.740915334401         -2.435488639872          0.660282102721
      0.3047524880D+04  0.1834737132D-02
      0.4573695180D+03  0.1403732281D-01
      0.1039486850D+03  0.6884262226D-01
      0.2921015530D+02  0.2321844432D+00
      0.9286662960D+01  0.4679413484D+00
      0.3163926960D+01  0.3623119853D+00
 Atom C36      Shell   104 SP   3    bf  280 -   283          6.740915334401         -2.435488639872          0.660282102721
      0.7868272350D+01 -0.1193324198D+00  0.6899906659D-01
      0.1881288540D+01 -0.1608541517D+00  0.3164239610D+00
      0.5442492580D+00  0.1143456438D+01  0.7443082909D+00
 Atom C36      Shell   105 SP   1    bf  284 -   287          6.740915334401         -2.435488639872          0.660282102721
      0.1687144782D+00  0.1000000000D+01  0.1000000000D+01
 Atom C36      Shell   106 D   1     bf  288 -   293          6.740915334401         -2.435488639872          0.660282102721
      0.8000000000D+00  0.1000000000D+01
 Atom H37      Shell   107 S   3     bf  294 -   294          6.898662434323         -2.233345844862          2.720773999009
      0.1873113696D+02  0.3349460434D-01
      0.2825394365D+01  0.2347269535D+00
      0.6401216923D+00  0.8137573261D+00
 Atom H37      Shell   108 S   1     bf  295 -   295          6.898662434323         -2.233345844862          2.720773999009
      0.1612777588D+00  0.1000000000D+01
 Atom H38      Shell   109 S   3     bf  296 -   296          7.598581523785         -4.257185179994          0.182460050117
      0.1873113696D+02  0.3349460434D-01
      0.2825394365D+01  0.2347269535D+00
      0.6401216923D+00  0.8137573261D+00
 Atom H38      Shell   110 S   1     bf  297 -   297          7.598581523785         -4.257185179994          0.182460050117
      0.1612777588D+00  0.1000000000D+01
 Atom C39      Shell   111 S   6     bf  298 -   298          7.952961430848          4.342822144822          0.584456123543
      0.3047524880D+04  0.1834737132D-02
[...]
 **** Fit       0.000404
 **** Fit       0.000186
 **** Fit      -0.000005
 **** Fit       0.000234
 **** Fit       0.000434
 **** Fit       0.000685
 **** Fit       0.000957
 **** Fit       0.001191
 **** Fit       0.001315
 **** Fit       0.001277
 **** Fit       0.001077
 **** Fit       0.000771
 **** Fit       0.000442
 **** Fit       0.000157
 **** Fit      -0.000052
 **** Fit       0.000393
 **** Fit       0.000674
 **** Fit       0.001027
 **** Fit       0.001417
 **** Fit       0.001762
 **** Fit       0.001954
 **** Fit       0.001910
 **** Fit       0.001627
 **** Fit       0.001195
 **** Fit       0.000734
 **** Fit       0.000339
 **** Fit       0.000054
 **** Fit       0.000575
 **** Fit       0.000931
 **** Fit       0.001378
 **** Fit       0.001876
 **** Fit       0.002324
 **** Fit       0.002579
 **** Fit       0.002524
 **** Fit       0.002157
 **** Fit       0.001598
 **** Fit       0.001009
 **** Fit       0.000514
 **** Fit       0.000159
 **** Fit      -0.000060
 **** Fit       0.000463
 **** Fit       0.000779
 **** Fit       0.001188
 **** Fit       0.001691
 **** Fit       0.002249
 **** Fit       0.002751
 **** Fit       0.003033
 **** Fit       0.002959
 **** Fit       0.002527
 **** Fit       0.001879
 **** Fit       0.001206
 **** Fit       0.000645
 **** Fit       0.000246
 **** Fit      -0.000001
 **** Fit       0.000373
 **** Fit       0.000663
 **** Fit       0.001019
 **** Fit       0.001447
 **** Fit       0.001945
 **** Fit       0.002479
 **** Fit       0.002948
 **** Fit       0.003195
 **** Fit       0.003089
 **** Fit       0.002631
 **** Fit       0.001964
 **** Fit       0.001279
 **** Fit       0.000710
 **** Fit       0.000305
 **** Fit       0.000051
 **** Fit       0.000053
 **** Fit       0.000285
 **** Fit       0.000587
 **** Fit       0.000943
 **** Fit       0.001333
 **** Fit       0.001744
 **** Fit       0.002170
 **** Fit       0.002588
 **** Fit       0.002927
 **** Fit       0.003070
 **** Fit       0.002916
 **** Fit       0.002471
 **** Fit       0.001856
 **** Fit       0.001231
 **** Fit       0.000711
 **** Fit       0.000336
 **** Fit       0.000097
 **** Fit      -0.000073
 **** Fit       0.000155
 **** Fit       0.000483
 **** Fit       0.000893
 **** Fit       0.001345
 **** Fit       0.001777
 **** Fit       0.002146
 **** Fit       0.002440
 **** Fit       0.002664
 **** Fit       0.002799
 **** Fit       0.002787
 **** Fit       0.002569
 **** Fit       0.002156
 **** Fit       0.001631
 **** Fit       0.001109
 **** Fit       0.000671
 **** Fit       0.000350
 **** Fit      -0.000031
 **** Fit       0.000286
 **** Fit       0.000740
 **** Fit       0.001304
 **** Fit       0.001896
 **** Fit       0.002396
 **** Fit       0.002709
 **** Fit       0.002823
 **** Fit       0.002795
 **** Fit       0.002681
 **** Fit       0.002488
 **** Fit       0.002197
 **** Fit       0.001812
 **** Fit       0.001380
 **** Fit       0.000966
 **** Fit       0.000619
 **** Fit       0.000359
 **** Fit      -0.000239
 **** Fit       0.000008
 **** Fit       0.000421
 **** Fit       0.001023
 **** Fit       0.001777
 **** Fit       0.002555
 **** Fit       0.003153
 **** Fit       0.003407
 **** Fit       0.003309
 **** Fit       0.002995
 **** Fit       0.002615
 **** Fit       0.002241
 **** Fit       0.001877
 **** Fit       0.001512
 **** Fit       0.001158
 **** Fit       0.000838
 **** Fit       0.000572
 **** Fit      -0.000274
 **** Fit       0.000016
 **** Fit       0.000510
 **** Fit       0.001246
 **** Fit       0.002185
 **** Fit       0.003152
 **** Fit       0.003857
 **** Fit       0.004054
 **** Fit       0.003745
 **** Fit       0.003158
 **** Fit       0.002542
 **** Fit       0.002021
 **** Fit       0.001604
 **** Fit       0.001263
 **** Fit       0.000974
 **** Fit       0.000732
 **** Fit      -0.000337
 **** Fit      -0.000033
 **** Fit       0.000496
 **** Fit       0.001298
 **** Fit       0.002336
 **** Fit       0.003410
 **** Fit       0.004170
 **** Fit       0.004319
 **** Fit       0.003864
 **** Fit       0.003102
 **** Fit       0.002351
 **** Fit       0.001762
 **** Fit       0.001340
 **** Fit       0.001039
 **** Fit       0.000815
 **** Fit       0.000642
 **** Fit      -0.000431
 **** Fit      -0.000152
 **** Fit       0.000344
 **** Fit       0.001102
 **** Fit       0.002090
 **** Fit       0.003111
 **** Fit       0.003821
 **** Fit       0.003932
 **** Fit       0.003457
 **** Fit       0.002696
 **** Fit       0.001966
 **** Fit       0.001417
 **** Fit       0.001053
 **** Fit       0.000818
 **** Fit       0.000663
 **** Fit       0.000553
 **** Fit      -0.000549
 **** Fit      -0.000329
 **** Fit       0.000072
 **** Fit       0.000686
 **** Fit       0.001481
 **** Fit       0.002297
 **** Fit       0.002859
 **** Fit       0.002946
 **** Fit       0.002572
 **** Fit       0.001976
 **** Fit       0.001410
 **** Fit       0.000997
 **** Fit       0.000740
 **** Fit       0.000593
 **** Fit       0.000510
 **** Fit       0.000458
 **** Fit      -0.000669
 **** Fit      -0.000526
 **** Fit      -0.000252
 **** Fit       0.000171
 **** Fit       0.000713
 **** Fit       0.001263
 **** Fit       0.001643
 **** Fit       0.001716
 **** Fit       0.001496
 **** Fit       0.001135
 **** Fit       0.000795
 **** Fit       0.000559
 **** Fit       0.000428
 **** Fit       0.000372
 **** Fit      -0.000770
 **** Fit      -0.000702
 **** Fit      -0.000549
 **** Fit      -0.000304
 **** Fit       0.000010
 **** Fit       0.000328
 **** Fit       0.000554
 **** Fit       0.000621
 **** Fit       0.000538
 **** Fit       0.000384
 **** Fit       0.000246
 **** Fit       0.000168
 **** Fit       0.000149
 **** Fit       0.000170
 **** Fit      -0.000824
 **** Fit      -0.000764
 **** Fit      -0.000650
 **** Fit      -0.000497
 **** Fit      -0.000336
 **** Fit      -0.000211
 **** Fit      -0.000149
 **** Fit      -0.000144
 **** Fit      -0.000160
 **** Fit      -0.000161
 **** Fit      -0.000131
 **** Fit      -0.000073
 **** Fit      -0.000880
 **** Fit      -0.000846
 **** Fit      -0.000787
 **** Fit      -0.000716
 **** Fit      -0.000647
 **** Fit      -0.000590
 **** Fit      -0.000540
 **** Fit      -0.000486
 **** Fit      -0.000416
 **** Fit      -0.000328
 **** Fit      -0.000916
 **** Fit      -0.000903
 **** Fit      -0.000875
 **** Fit      -0.000834
 **** Fit      -0.000782
 **** Fit      -0.000718
 **** Fit      -0.000638
 **** Fit      -0.000542
 **** Fit       0.000552
 **** Fit       0.000642
 **** Fit       0.000680
 **** Fit       0.000651
 **** Fit       0.000556
 **** Fit       0.000415
 **** Fit       0.000659
 **** Fit       0.000832
 **** Fit       0.000970
 **** Fit       0.001033
 **** Fit       0.000998
 **** Fit       0.000868
 **** Fit       0.000670
 **** Fit       0.000448
 **** Fit       0.000675
 **** Fit       0.000909
 **** Fit       0.001143
 **** Fit       0.001331
 **** Fit       0.001421
 **** Fit       0.001379
 **** Fit       0.001206
 **** Fit       0.000944
 **** Fit       0.000653
 **** Fit       0.000385
 **** Fit       0.000879
 **** Fit       0.001163
 **** Fit       0.001447
 **** Fit       0.001676
 **** Fit       0.001786
 **** Fit       0.001732
 **** Fit       0.001519
 **** Fit       0.001196
 **** Fit       0.000841
 **** Fit       0.000517
 **** Fit       0.000260
 **** Fit       0.001084
 **** Fit       0.001397
 **** Fit       0.001705
 **** Fit       0.001949
 **** Fit       0.002060
 **** Fit       0.001990
 **** Fit       0.001742
 **** Fit       0.001377
 **** Fit       0.000979
 **** Fit       0.000618
 **** Fit       0.000334
 **** Fit       0.001291
 **** Fit       0.001601
 **** Fit       0.001892
 **** Fit       0.002112
 **** Fit       0.002197
 **** Fit       0.002103
 **** Fit       0.001835
 **** Fit       0.001455
 **** Fit       0.001045
 **** Fit       0.000676
 **** Fit       0.000385
 **** Fit       0.000649
 **** Fit       0.000929
 **** Fit       0.001223
 **** Fit       0.001513
 **** Fit       0.001785
 **** Fit       0.002016
 **** Fit       0.002169
 **** Fit       0.002198
 **** Fit       0.002071
 **** Fit       0.001796
 **** Fit       0.001428
 **** Fit       0.001039
 **** Fit       0.000689
 **** Fit       0.000412
 **** Fit       0.000281
 **** Fit       0.000545
 **** Fit       0.000858
 **** Fit       0.001190
 **** Fit       0.001504
 **** Fit       0.001771
 **** Fit       0.001975
 **** Fit       0.002108
 **** Fit       0.002159
 **** Fit       0.002108
 **** Fit       0.001939
 **** Fit       0.001665
 **** Fit       0.001327
 **** Fit       0.000980
 **** Fit       0.000669
 **** Fit       0.000374
 **** Fit       0.000710
 **** Fit       0.001102
 **** Fit       0.001499
 **** Fit       0.001838
 **** Fit       0.002071
 **** Fit       0.002185
 **** Fit       0.002195
 **** Fit       0.002122
 **** Fit       0.001978
 **** Fit       0.001764
 **** Fit       0.001493
 **** Fit       0.001191
 **** Fit       0.000894
 **** Fit       0.000631
 **** Fit       0.000143
 **** Fit       0.000455
 **** Fit       0.000867
 **** Fit       0.001344
 **** Fit       0.001813
 **** Fit       0.002182
 **** Fit       0.002379
 **** Fit       0.002394
 **** Fit       0.002271
 **** Fit       0.002072
 **** Fit       0.001836
 **** Fit       0.001581
 **** Fit       0.001315
 **** Fit       0.001049
 **** Fit       0.000802
 **** Fit       0.000141
 **** Fit       0.000495
 **** Fit       0.000967
 **** Fit       0.001516
 **** Fit       0.002047
 **** Fit       0.002440
 **** Fit       0.002602
 **** Fit       0.002526
 **** Fit       0.002287
 **** Fit       0.001983
 **** Fit       0.001677
 **** Fit       0.001395
 **** Fit       0.001140
 **** Fit       0.000094
 **** Fit       0.000462
 **** Fit       0.000957
 **** Fit       0.001535
 **** Fit       0.002091
 **** Fit       0.002487
 **** Fit       0.002617
 **** Fit       0.002480
 **** Fit       0.002172
 **** Fit       0.001810
 **** Fit       0.001476
 **** Fit       0.001195
 **** Fit      -0.000004
 **** Fit       0.000341
 **** Fit       0.000808
 **** Fit       0.001353
 **** Fit       0.001875
 **** Fit       0.002239
 **** Fit       0.002344
 **** Fit       0.002191
 **** Fit       0.001880
 **** Fit       0.001529
 **** Fit       0.001217
 **** Fit       0.000971
 **** Fit      -0.000143
 **** Fit       0.000145
 **** Fit       0.000536
 **** Fit       0.000991
 **** Fit       0.001425
 **** Fit       0.001725
 **** Fit       0.001812
 **** Fit       0.001687
 **** Fit       0.001434
 **** Fit       0.001153
 **** Fit       0.000910
 **** Fit       0.000726
 **** Fit      -0.000300
 **** Fit      -0.000088
 **** Fit       0.000202
 **** Fit       0.000537
 **** Fit       0.000857
 **** Fit       0.001081
 **** Fit       0.001155
 **** Fit       0.001082
 **** Fit       0.000919
 **** Fit       0.000738
 **** Fit       0.000586
 **** Fit       0.000478
 **** Fit      -0.000312
 **** Fit      -0.000123
 **** Fit       0.000098
 **** Fit       0.000309
 **** Fit       0.000463
 **** Fit       0.000528
 **** Fit       0.000506
 **** Fit       0.000433
 **** Fit       0.000350
 **** Fit       0.000285
 **** Fit       0.000247
 **** Fit      -0.000491
 **** Fit      -0.000383
 **** Fit      -0.000254
 **** Fit      -0.000126
 **** Fit      -0.000025
 **** Fit       0.000033
 **** Fit       0.000050
 **** Fit       0.000044
 **** Fit       0.000035
 **** Fit       0.000037
 **** Fit      -0.000557
 **** Fit      -0.000490
 **** Fit      -0.000417
 **** Fit      -0.000351
 **** Fit      -0.000299
 **** Fit      -0.000260
 **** Fit      -0.000226
 **** Fit      -0.000189
 **** Fit      -0.000533
 **** Fit      -0.000487
 **** Fit       0.000833
 **** Fit       0.000802
 **** Fit       0.000712
 **** Fit       0.000937
 **** Fit       0.001043
 **** Fit       0.001085
 **** Fit       0.001048
 **** Fit       0.000935
 **** Fit       0.000765
 **** Fit       0.001149
 **** Fit       0.001273
 **** Fit       0.001320
 **** Fit       0.001274
 **** Fit       0.001137
 **** Fit       0.000935
 **** Fit       0.000706
 **** Fit       0.001156
 **** Fit       0.001335
 **** Fit       0.001462
 **** Fit       0.001505
 **** Fit       0.001445
 **** Fit       0.001288
 **** Fit       0.001062
 **** Fit       0.000808
 **** Fit       0.001314
 **** Fit       0.001482
 **** Fit       0.001593
 **** Fit       0.001618
 **** Fit       0.001540
 **** Fit       0.001367
 **** Fit       0.001129
 **** Fit       0.000865
 **** Fit       0.001454
 **** Fit       0.001591
 **** Fit       0.001664
 **** Fit       0.001656
 **** Fit       0.001556
 **** Fit       0.001373
 **** Fit       0.001134
 **** Fit       0.000876
 **** Fit       0.000777
 **** Fit       0.001021
 **** Fit       0.001249
 **** Fit       0.001442
 **** Fit       0.001584
 **** Fit       0.001669
 **** Fit       0.001689
 **** Fit       0.001636
 **** Fit       0.001510
 **** Fit       0.001320
 **** Fit       0.001090
 **** Fit       0.000643
 **** Fit       0.000920
 **** Fit       0.001196
 **** Fit       0.001434
 **** Fit       0.001607
 **** Fit       0.001703
 **** Fit       0.001724
 **** Fit       0.001680
 **** Fit       0.001577
 **** Fit       0.001423
 **** Fit       0.001230
 **** Fit       0.000439
 **** Fit       0.000727
 **** Fit       0.001044
 **** Fit       0.001350
 **** Fit       0.001595
 **** Fit       0.001746
 **** Fit       0.001792
 **** Fit       0.001749
 **** Fit       0.001640
 **** Fit       0.001490
 **** Fit       0.000450
 **** Fit       0.000766
 **** Fit       0.001112
 **** Fit       0.001438
 **** Fit       0.001686
 **** Fit       0.001815
 **** Fit       0.001817
 **** Fit       0.001718
 **** Fit       0.001559
 **** Fit       0.001374
 **** Fit       0.000411
 **** Fit       0.000733
 **** Fit       0.001086
 **** Fit       0.001415
 **** Fit       0.001655
 **** Fit       0.001764
 **** Fit       0.001735
 **** Fit       0.001603
 **** Fit       0.001418
 **** Fit       0.001220
 **** Fit       0.000314
 **** Fit       0.000618
 **** Fit       0.000949
 **** Fit       0.001255
 **** Fit       0.001475
 **** Fit       0.001566
 **** Fit       0.001525
 **** Fit       0.001390
 **** Fit       0.001210
 **** Fit       0.001025
 **** Fit       0.000170
 **** Fit       0.000430
 **** Fit       0.000714
 **** Fit       0.000975
 **** Fit       0.001162
 **** Fit       0.001239
 **** Fit       0.001206
 **** Fit       0.001093
 **** Fit       0.000945
 **** Fit       0.000797
 **** Fit      -0.000001
 **** Fit       0.000202
 **** Fit       0.000424
 **** Fit       0.000628
 **** Fit       0.000777
 **** Fit       0.000844
 **** Fit       0.000828
 **** Fit       0.000754
 **** Fit       0.000654
 **** Fit       0.000556
 **** Fit      -0.000026
 **** Fit       0.000132
 **** Fit       0.000280
 **** Fit       0.000392
 **** Fit       0.000450
 **** Fit       0.000456
 **** Fit       0.000423
 **** Fit       0.000373
 **** Fit      -0.000118
 **** Fit      -0.000017
 **** Fit       0.000064
 **** Fit       0.000116
 **** Fit       0.000138
 **** Fit       0.000139
 **** Fit       0.001034
 **** Fit       0.001205
 **** Fit       0.001320
 **** Fit       0.001370
 **** Fit       0.000846
 **** Fit       0.001060
 **** Fit       0.001228
 **** Fit       0.001329
 **** Fit       0.001355
 **** Fit       0.001317
 **** Fit       0.000806
 **** Fit       0.001017
 **** Fit       0.001177
 **** Fit       0.001265
 **** Fit       0.001274
 **** Fit       0.001219
 **** Fit       0.000700
 **** Fit       0.000896
 **** Fit       0.001043
 **** Fit       0.001118
 **** Fit       0.001119
 **** Fit       0.001061
 **** Fit       0.000537
 **** Fit       0.000708
 **** Fit       0.000835
 **** Fit       0.000901
 **** Fit       0.000902
 **** Fit       0.000853
 **** Fit       0.000480
 **** Fit       0.000586
 **** Fit       0.000643
 **** Fit       0.000650
 -----------------------------------------------------------------
 Leave Link  602 at Wed May 17 11:33:03 2017, MaxMem=    33554432 cpu:        39.6
 (Enter /home/michal/g09/l9999.exe)

 Test job not archived.
 1\1\GINC-LINUX\SP\RHF\6-31G(d)\C27H46O2\MICHAL\17-May-2017\0\\#P HF/6-
 31G* SCF(Conver=6) NoSymm Test Pop=chelpg IOp(6/33=2) GFInput GFPrint\
 \MEP - Input generated by R.E.D.-III.x MOLECULE\\0,1\O,0,6.11927213,3.
 72574233,0.\H,0,5.85216908,3.73792569,-0.92995017\O,0,0.,0.,0.\H,0,-0.
 1112663,-0.16638376,-0.94662136\C,0,8.8284904,0.07561284,0.41523742\C,
 0,7.90323456,1.26888963,0.79382693\H,0,7.68353861,1.12855524,1.8666645
 5\C,0,6.53072546,1.28522076,0.09703891\H,0,6.66941175,1.4009799,-0.988
 0203\C,0,5.78567391,-0.04844559,0.38273125\H,0,5.57495047,-0.04486561,
 1.46492346\C,0,10.08488847,0.41180597,1.29298087\H,0,9.80743499,0.1570
 7637,2.32841352\C,0,8.06511474,-1.2110464,0.78790405\H,0,7.93762438,-1
 .24014056,1.87976885\H,0,8.62653702,-2.11061207,0.5172467\C,0,4.384883
 49,-0.13859631,-0.31745152\C,0,8.81845593,2.49915336,0.69726958\H,0,8.
 45059392,3.34109464,1.28813625\H,0,8.87692776,2.8567198,-0.33623255\C,
 0,6.68368611,-1.27641556,0.10928269\H,0,6.82902204,-1.39586378,-0.9698
 4174\H,0,6.17491482,-2.18603665,0.44728332\C,0,10.19200193,1.97159601,
 1.19105895\H,0,10.99176507,2.25491782,0.49603442\H,0,10.45750601,2.407
 9886,2.15876394\C,0,5.67765719,2.47799303,0.57126902\H,0,5.83747178,2.
 62331653,1.64914557\C,0,11.43422899,-0.29840901,1.00732358\H,0,11.7630
 3487,0.,0.\C,0,9.20424886,0.0766563,-1.08451752\H,0,8.32507642,0.05721
 676,-1.73392098\H,0,9.78763147,0.96062256,-1.35846068\H,0,9.80823333,-
 0.80205479,-1.33337951\C,0,3.61699624,1.17242946,-0.11664927\C,0,3.567
 13876,-1.28880508,0.34940624\H,0,3.65061493,-1.18183572,1.43977159\H,0
 ,4.02099616,-2.25280537,0.0965537\C,0,4.20852593,2.2981225,0.30928086\
 H,0,3.60825746,3.19419417,0.46681787\C,0,4.51867892,-0.41229642,-1.839
 54608\H,0,4.90163009,-1.41931393,-2.03154682\H,0,3.55481911,-0.3319563
 4,-2.348907\H,0,5.19434255,0.30624958,-2.31359307\C,0,2.12872267,1.155
 98023,-0.41070118\H,0,1.67674884,2.11291313,-0.13192023\H,0,1.96493879
 ,1.03257003,-1.49356868\C,0,2.0757487,-1.32284084,-0.01856565\H,0,1.94
 837492,-1.54079474,-1.08938568\H,0,1.57408011,-2.13002051,0.52717221\C
 ,0,12.51589679,0.18987866,2.00328626\H,0,12.47973811,1.28297661,2.0709
 0572\H,0,12.26468304,-0.18448508,3.00779645\C,0,1.39770704,0.00879588,
 0.30243688\H,0,1.43664895,0.18050711,1.38503875\C,0,11.33493681,-1.833
 97562,1.03965569\H,0,10.92426597,-2.17972096,1.9967575\H,0,12.31830945
 ,-2.29709563,0.91547434\H,0,10.69776438,-2.22461997,0.24316811\C,0,13.
 96074589,-0.20867502,1.65903965\H,0,14.06243604,-1.29979877,1.65853169
 \H,0,14.18388635,0.12427974,0.63619507\C,0,14.97806768,0.3983424,2.639
 19213\H,0,14.71452935,0.0815309,3.65879015\H,0,14.86974871,1.49251771,
 2.62557606\C,0,16.46617705,0.05518004,2.39476235\H,0,17.0289336,0.5800
 0032,3.18100217\C,0,16.98132191,0.58037485,1.04446003\H,0,16.51256155,
 0.05857371,0.2021592\H,0,18.06409052,0.43470322,0.95682769\H,0,16.7781
 0912,1.65159689,0.92914062\C,0,16.76348889,-1.44520566,2.55369666\H,0,
 16.28743996,-2.03815235,1.76421246\H,0,17.84132397,-1.6366883,2.500080
 05\H,0,16.4048871,-1.82314525,3.5184112\\Version=EM64L-G09RevD.01\HF=-
 1198.9273872\RMSD=4.886e-07\Dipole=0.2204127,-0.6987298,-0.7470504\Qua
 drupole=-3.2344433,-3.1895217,6.423965,-7.6834021,-1.9755709,-2.118442
 \PG=C01 [X(C27H46O2)]\\@


 PENOTUS DIED A HUNDRED YEARS OLD WANTING BUT TWO...
 AND HE USED TO SAY BEFORE HE DIED, HAVING SPENT HIS
 WHOLE LIFE IN VAINLY SEARCHING AFTER THE PHILOSOPHER'S
 STONE, THAT IF HE HAD A MORTAL ENEMY HE DID NOT DARE
 TO ENCOUNTER OPENLY, HE WOULD ADVISE HIM ABOVE ALL
 THINGS TO GIVE HIMSELF UP TO THE STUDY AND PRACTICE
 OF ALCHEMY.  --  NICOLAS LEMERY, M.D.
 "A COURSE OF CHYMISTRY", WALTER KETTILBY, LONDON, 1686
 Job cpu time:       0 days  0 hours 11 minutes  0.6 seconds.
 File lengths (MBytes):  RWF=    150 Int=      0 D2E=      0 Chk=     11 Scr=      1
 Normal termination of Gaussian 09 at Wed May 17 11:33:03 2017.
