 Entering Gaussian System, Link 0=/home/michal/g09/g09
 Input=JOB2-gau_m1-9-2.com
 Output=JOB2-gau_m1-9-2.log
 Initial command:
 /home/michal/g09/l1.exe "/home/michal/gauss_scratch/Gau-943.inp" -scrdir="/home/michal/gauss_scratch/"
 Entering Link 1 = /home/michal/g09/l1.exe PID=       944.
  
 Copyright (c) 1988,1990,1992,1993,1995,1998,2003,2009,2013,
            Gaussian, Inc.  All Rights Reserved.
  
 This is part of the Gaussian(R) 09 program.  It is based on
 the Gaussian(R) 03 system (copyright 2003, Gaussian, Inc.),
 the Gaussian(R) 98 system (copyright 1998, Gaussian, Inc.),
 the Gaussian(R) 94 system (copyright 1995, Gaussian, Inc.),
 the Gaussian 92(TM) system (copyright 1992, Gaussian, Inc.),
 the Gaussian 90(TM) system (copyright 1990, Gaussian, Inc.),
 the Gaussian 88(TM) system (copyright 1988, Gaussian, Inc.),
 the Gaussian 86(TM) system (copyright 1986, Carnegie Mellon
 University), and the Gaussian 82(TM) system (copyright 1983,
 Carnegie Mellon University). Gaussian is a federally registered
 trademark of Gaussian, Inc.
  
 This software contains proprietary and confidential information,
 including trade secrets, belonging to Gaussian, Inc.
  
 This software is provided under written license and may be
 used, copied, transmitted, or stored only in accord with that
 written license.
  
 The following legend is applicable only to US Government
 contracts under FAR:
  
                    RESTRICTED RIGHTS LEGEND
  
 Use, reproduction and disclosure by the US Government is
 subject to restrictions as set forth in subparagraphs (a)
 and (c) of the Commercial Computer Software - Restricted
 Rights clause in FAR 52.227-19.
  
 Gaussian, Inc.
 340 Quinnipiac St., Bldg. 40, Wallingford CT 06492
  
  
 ---------------------------------------------------------------
 Warning -- This program may not be used in any manner that
 competes with the business of Gaussian, Inc. or will provide
 assistance to any competitor of Gaussian, Inc.  The licensee
 of this program is prohibited from giving any competitor of
 Gaussian, Inc. access to this program.  By using this program,
 the user acknowledges that Gaussian, Inc. is engaged in the
 business of creating and licensing software in the field of
 computational chemistry and represents and warrants to the
 licensee that it is not a competitor of Gaussian, Inc. and that
 it will not use this program in any manner prohibited above.
 ---------------------------------------------------------------
  

 Cite this work as:
 Gaussian 09, Revision D.01,
 M. J. Frisch, G. W. Trucks, H. B. Schlegel, G. E. Scuseria, 
 M. A. Robb, J. R. Cheeseman, G. Scalmani, V. Barone, B. Mennucci, 
 G. A. Petersson, H. Nakatsuji, M. Caricato, X. Li, H. P. Hratchian, 
 A. F. Izmaylov, J. Bloino, G. Zheng, J. L. Sonnenberg, M. Hada, 
 M. Ehara, K. Toyota, R. Fukuda, J. Hasegawa, M. Ishida, T. Nakajima, 
 Y. Honda, O. Kitao, H. Nakai, T. Vreven, J. A. Montgomery, Jr., 
 J. E. Peralta, F. Ogliaro, M. Bearpark, J. J. Heyd, E. Brothers, 
 K. N. Kudin, V. N. Staroverov, T. Keith, R. Kobayashi, J. Normand, 
 K. Raghavachari, A. Rendell, J. C. Burant, S. S. Iyengar, J. Tomasi, 
 M. Cossi, N. Rega, J. M. Millam, M. Klene, J. E. Knox, J. B. Cross, 
 V. Bakken, C. Adamo, J. Jaramillo, R. Gomperts, R. E. Stratmann, 
 O. Yazyev, A. J. Austin, R. Cammi, C. Pomelli, J. W. Ochterski, 
 R. L. Martin, K. Morokuma, V. G. Zakrzewski, G. A. Voth, 
 P. Salvador, J. J. Dannenberg, S. Dapprich, A. D. Daniels, 
 O. Farkas, J. B. Foresman, J. V. Ortiz, J. Cioslowski, 
 and D. J. Fox, Gaussian, Inc., Wallingford CT, 2013.
 
 ******************************************
 Gaussian 09:  EM64L-G09RevD.01 24-Apr-2013
                17-May-2017 
 ******************************************
 %Mem=256MB
 %NProc=12
 Will use up to   12 processors via shared memory.
 ----------------------------------------------------------------------
 #P HF/6-31G* SCF(Conver=6) NoSymm Test Pop=chelpg IOp(6/33=2) GFInput 
 GFPrint
 ----------------------------------------------------------------------
 1/38=1/1;
 2/12=2,15=1,17=6,18=5,40=1/2;
 3/5=1,6=6,7=1,11=9,16=1,24=110,25=1,30=1/1,2,3;
 4//1;
 5/5=2,6=6,38=5/2;
 6/7=2,8=2,9=2,10=2,15=8,20=3,28=1,33=2/1,2;
 99/5=1,9=1/99;
 Leave Link    1 at Wed May 17 12:02:18 2017, MaxMem=    33554432 cpu:         0.6
 (Enter /home/michal/g09/l101.exe)
 ----------------------------------------------
 MEP - Input generated by R.E.D.-III.x MOLECULE
 ----------------------------------------------
 Symbolic Z-matrix:
 Charge =  0 Multiplicity = 1
 O                     7.13055   0.87672   0. 
 H                     7.54004   0.        0. 
 O                     8.68881  -0.14806  -6.92026 
 H                     8.87064  -1.09833  -6.92935 
 C                     2.67308   0.07646  -0.47589 
 C                     4.0294    0.82908  -0.4376 
 H                     3.8253    1.81055  -0.89899 
 C                     5.13652   0.20282  -1.30226 
 H                     5.38427  -0.79834  -0.92019 
 C                     4.64009   0.08914  -2.77396 
 H                     4.53641   1.12758  -3.12949 
 C                     1.84269   0.98772   0.48132 
 H                     1.72223   1.92304  -0.08463 
 C                     2.18715   0.06889  -1.93446 
 H                     1.98661   1.10428  -2.2459 
 H                     1.24033  -0.47811  -2.03702 
 C                     5.69198  -0.57769  -3.72866 
 C                     4.26581   1.09716   1.0626 
 H                     4.91802   1.95758   1.22995 
 H                     4.7637    0.24399   1.53508 
 C                     3.23467  -0.55471  -2.8773 
 H                     3.30172  -1.62749  -2.66874 
 H                     2.87103  -0.47061  -3.90726 
 C                     2.83301   1.30276   1.6449 
 H                     2.67174   0.63881   2.49879 
 H                     2.68935   2.32281   2.01657 
 C                     6.42963   1.03856  -1.24886 
 H                     6.16355   2.10521  -1.25234 
 C                     0.39509   0.55601   0.86205 
 H                     0.        0.        0. 
 C                     2.78399  -1.36936   0.05658 
 H                     3.4852   -1.97132  -0.52729 
 H                     3.123    -1.40146   1.09562 
 H                     1.81169  -1.87043   0.00816 
 C                     7.07947   0.02385  -3.47776 
 C                     5.28965  -0.27356  -5.20594 
 H                     5.0513    0.79626  -5.2836 
 H                     4.37034  -0.8151   -5.45231 
 C                     7.36375   0.7586   -2.39246 
 H                     8.35845   1.19008  -2.28083 
 C                     5.7683   -2.11378  -3.51777 
 H                     4.85465  -2.6098   -3.85952 
 H                     6.60042  -2.55482  -4.07266 
 H                     5.91767  -2.36209  -2.46256 
 C                     8.14608  -0.23376  -4.52554 
 H                     9.05442   0.32832  -4.28751 
 H                     8.42358  -1.30036  -4.51991 
 C                     6.36396  -0.60512  -6.2533 
 H                     6.54923  -1.68914  -6.28471 
 H                     6.01415  -0.3182   -7.25147 
 C                     0.27838  -0.35251   2.11075 
 H                     1.08218  -1.09622   2.11697 
 H                     0.43541   0.26722   3.00382 
 C                     7.67617   0.11536  -5.94543 
 H                     7.51602   1.19845  -6.01117 
 C                    -0.48916   1.80867   1.03275 
 H                    -0.1061    2.44867   1.83749 
 H                    -1.52389   1.55145   1.28054 
 H                    -0.51027   2.40557   0.11418 
 C                    -1.06277  -1.09967   2.27128 
 H                    -1.08767  -1.5233    3.28309 
 H                    -1.89442  -0.38646   2.22491 
 C                    -1.28187  -2.22823   1.24922 
 H                    -0.43013  -2.92164   1.30763 
 H                    -1.26488  -1.81135   0.23339 
 C                    -2.58461  -3.04937   1.40248 
 H                    -2.56299  -3.79976   0.59819 
 C                    -3.84898  -2.1998    1.19155 
 H                    -3.97968  -1.46313   1.99251 
 H                    -4.74489  -2.83101   1.17961 
 H                    -3.81076  -1.65652   0.23997 
 C                    -2.65137  -3.81819   2.73261 
 H                    -2.74541  -3.14044   3.58879 
 H                    -3.51827  -4.48856   2.75102 
 H                    -1.75378  -4.42886   2.88605 
 
 NAtoms=     75 NQM=       75 NQMF=       0 NMMI=      0 NMMIF=      0
                NMic=       0 NMicF=      0.
                    Isotopes and Nuclear Properties:
 (Nuclear quadrupole moments (NQMom) in fm**2, nuclear magnetic moments (NMagM)
  in nuclear magnetons)

  Atom         1           2           3           4           5           6           7           8           9          10
 IAtWgt=          16           1          16           1          12          12           1          12           1          12
 AtmWgt=  15.9949146   1.0078250  15.9949146   1.0078250  12.0000000  12.0000000   1.0078250  12.0000000   1.0078250  12.0000000
 NucSpn=           0           1           0           1           0           0           1           0           1           0
 AtZEff=   0.0000000   0.0000000   0.0000000   0.0000000   0.0000000   0.0000000   0.0000000   0.0000000   0.0000000   0.0000000
 NQMom=    0.0000000   0.0000000   0.0000000   0.0000000   0.0000000   0.0000000   0.0000000   0.0000000   0.0000000   0.0000000
 NMagM=    0.0000000   2.7928460   0.0000000   2.7928460   0.0000000   0.0000000   2.7928460   0.0000000   2.7928460   0.0000000
 AtZNuc=   8.0000000   1.0000000   8.0000000   1.0000000   6.0000000   6.0000000   1.0000000   6.0000000   1.0000000   6.0000000

  Atom        11          12          13          14          15          16          17          18          19          20
 IAtWgt=           1          12           1          12           1           1          12          12           1           1
 AtmWgt=   1.0078250  12.0000000   1.0078250  12.0000000   1.0078250   1.0078250  12.0000000  12.0000000   1.0078250   1.0078250
 NucSpn=           1           0           1           0           1           1           0           0           1           1
 AtZEff=   0.0000000   0.0000000   0.0000000   0.0000000   0.0000000   0.0000000   0.0000000   0.0000000   0.0000000   0.0000000
 NQMom=    0.0000000   0.0000000   0.0000000   0.0000000   0.0000000   0.0000000   0.0000000   0.0000000   0.0000000   0.0000000
 NMagM=    2.7928460   0.0000000   2.7928460   0.0000000   2.7928460   2.7928460   0.0000000   0.0000000   2.7928460   2.7928460
 AtZNuc=   1.0000000   6.0000000   1.0000000   6.0000000   1.0000000   1.0000000   6.0000000   6.0000000   1.0000000   1.0000000

  Atom        21          22          23          24          25          26          27          28          29          30
 IAtWgt=          12           1           1          12           1           1          12           1          12           1
 AtmWgt=  12.0000000   1.0078250   1.0078250  12.0000000   1.0078250   1.0078250  12.0000000   1.0078250  12.0000000   1.0078250
 NucSpn=           0           1           1           0           1           1           0           1           0           1
 AtZEff=   0.0000000   0.0000000   0.0000000   0.0000000   0.0000000   0.0000000   0.0000000   0.0000000   0.0000000   0.0000000
 NQMom=    0.0000000   0.0000000   0.0000000   0.0000000   0.0000000   0.0000000   0.0000000   0.0000000   0.0000000   0.0000000
 NMagM=    0.0000000   2.7928460   2.7928460   0.0000000   2.7928460   2.7928460   0.0000000   2.7928460   0.0000000   2.7928460
 AtZNuc=   6.0000000   1.0000000   1.0000000   6.0000000   1.0000000   1.0000000   6.0000000   1.0000000   6.0000000   1.0000000

  Atom        31          32          33          34          35          36          37          38          39          40
 IAtWgt=          12           1           1           1          12          12           1           1          12           1
 AtmWgt=  12.0000000   1.0078250   1.0078250   1.0078250  12.0000000  12.0000000   1.0078250   1.0078250  12.0000000   1.0078250
 NucSpn=           0           1           1           1           0           0           1           1           0           1
 AtZEff=   0.0000000   0.0000000   0.0000000   0.0000000   0.0000000   0.0000000   0.0000000   0.0000000   0.0000000   0.0000000
 NQMom=    0.0000000   0.0000000   0.0000000   0.0000000   0.0000000   0.0000000   0.0000000   0.0000000   0.0000000   0.0000000
 NMagM=    0.0000000   2.7928460   2.7928460   2.7928460   0.0000000   0.0000000   2.7928460   2.7928460   0.0000000   2.7928460
 AtZNuc=   6.0000000   1.0000000   1.0000000   1.0000000   6.0000000   6.0000000   1.0000000   1.0000000   6.0000000   1.0000000

  Atom        41          42          43          44          45          46          47          48          49          50
 IAtWgt=          12           1           1           1          12           1           1          12           1           1
 AtmWgt=  12.0000000   1.0078250   1.0078250   1.0078250  12.0000000   1.0078250   1.0078250  12.0000000   1.0078250   1.0078250
 NucSpn=           0           1           1           1           0           1           1           0           1           1
 AtZEff=   0.0000000   0.0000000   0.0000000   0.0000000   0.0000000   0.0000000   0.0000000   0.0000000   0.0000000   0.0000000
 NQMom=    0.0000000   0.0000000   0.0000000   0.0000000   0.0000000   0.0000000   0.0000000   0.0000000   0.0000000   0.0000000
 NMagM=    0.0000000   2.7928460   2.7928460   2.7928460   0.0000000   2.7928460   2.7928460   0.0000000   2.7928460   2.7928460
 AtZNuc=   6.0000000   1.0000000   1.0000000   1.0000000   6.0000000   1.0000000   1.0000000   6.0000000   1.0000000   1.0000000

  Atom        51          52          53          54          55          56          57          58          59          60
 IAtWgt=          12           1           1          12           1          12           1           1           1          12
 AtmWgt=  12.0000000   1.0078250   1.0078250  12.0000000   1.0078250  12.0000000   1.0078250   1.0078250   1.0078250  12.0000000
 NucSpn=           0           1           1           0           1           0           1           1           1           0
 AtZEff=   0.0000000   0.0000000   0.0000000   0.0000000   0.0000000   0.0000000   0.0000000   0.0000000   0.0000000   0.0000000
 NQMom=    0.0000000   0.0000000   0.0000000   0.0000000   0.0000000   0.0000000   0.0000000   0.0000000   0.0000000   0.0000000
 NMagM=    0.0000000   2.7928460   2.7928460   0.0000000   2.7928460   0.0000000   2.7928460   2.7928460   2.7928460   0.0000000
 AtZNuc=   6.0000000   1.0000000   1.0000000   6.0000000   1.0000000   6.0000000   1.0000000   1.0000000   1.0000000   6.0000000

  Atom        61          62          63          64          65          66          67          68          69          70
 IAtWgt=           1           1          12           1           1          12           1          12           1           1
 AtmWgt=   1.0078250   1.0078250  12.0000000   1.0078250   1.0078250  12.0000000   1.0078250  12.0000000   1.0078250   1.0078250
 NucSpn=           1           1           0           1           1           0           1           0           1           1
 AtZEff=   0.0000000   0.0000000   0.0000000   0.0000000   0.0000000   0.0000000   0.0000000   0.0000000   0.0000000   0.0000000
 NQMom=    0.0000000   0.0000000   0.0000000   0.0000000   0.0000000   0.0000000   0.0000000   0.0000000   0.0000000   0.0000000
 NMagM=    2.7928460   2.7928460   0.0000000   2.7928460   2.7928460   0.0000000   2.7928460   0.0000000   2.7928460   2.7928460
 AtZNuc=   1.0000000   1.0000000   6.0000000   1.0000000   1.0000000   6.0000000   1.0000000   6.0000000   1.0000000   1.0000000

  Atom        71          72          73          74          75
 IAtWgt=           1          12           1           1           1
 AtmWgt=   1.0078250  12.0000000   1.0078250   1.0078250   1.0078250
 NucSpn=           1           0           1           1           1
 AtZEff=   0.0000000   0.0000000   0.0000000   0.0000000   0.0000000
 NQMom=    0.0000000   0.0000000   0.0000000   0.0000000   0.0000000
 NMagM=    2.7928460   0.0000000   2.7928460   2.7928460   2.7928460
 AtZNuc=   1.0000000   6.0000000   1.0000000   1.0000000   1.0000000
 Leave Link  101 at Wed May 17 12:02:18 2017, MaxMem=    33554432 cpu:         1.8
 (Enter /home/michal/g09/l202.exe)
 Symmetry turned off by external request.
 Stoichiometry    C27H46O2
 Framework group  C1[X(C27H46O2)]
 Deg. of freedom   219
 Full point group                 C1      NOp   1
                          Input orientation:                          
 ---------------------------------------------------------------------
 Center     Atomic      Atomic             Coordinates (Angstroms)
 Number     Number       Type             X           Y           Z
 ---------------------------------------------------------------------
      1          8           0        7.130555    0.876721    0.000000
      2          1           0        7.540038    0.000000    0.000000
      3          8           0        8.688815   -0.148061   -6.920257
      4          1           0        8.870642   -1.098334   -6.929353
      5          6           0        2.673082    0.076464   -0.475885
      6          6           0        4.029401    0.829084   -0.437597
      7          1           0        3.825303    1.810548   -0.898990
      8          6           0        5.136525    0.202824   -1.302256
      9          1           0        5.384270   -0.798340   -0.920193
     10          6           0        4.640087    0.089138   -2.773963
     11          1           0        4.536415    1.127580   -3.129490
     12          6           0        1.842691    0.987721    0.481323
     13          1           0        1.722228    1.923042   -0.084628
     14          6           0        2.187150    0.068885   -1.934459
     15          1           0        1.986613    1.104284   -2.245902
     16          1           0        1.240329   -0.478109   -2.037020
     17          6           0        5.691980   -0.577689   -3.728660
     18          6           0        4.265806    1.097163    1.062605
     19          1           0        4.918016    1.957577    1.229948
     20          1           0        4.763704    0.243992    1.535084
     21          6           0        3.234668   -0.554707   -2.877301
     22          1           0        3.301718   -1.627494   -2.668741
     23          1           0        2.871029   -0.470614   -3.907263
     24          6           0        2.833014    1.302760    1.644898
     25          1           0        2.671744    0.638814    2.498793
     26          1           0        2.689351    2.322812    2.016573
     27          6           0        6.429626    1.038565   -1.248860
     28          1           0        6.163547    2.105215   -1.252336
     29          6           0        0.395094    0.556013    0.862049
     30          1           0        0.000000    0.000000    0.000000
     31          6           0        2.783988   -1.369362    0.056576
     32          1           0        3.485197   -1.971316   -0.527287
     33          1           0        3.123001   -1.401462    1.095625
     34          1           0        1.811687   -1.870431    0.008164
     35          6           0        7.079472    0.023849   -3.477764
     36          6           0        5.289648   -0.273557   -5.205940
     37          1           0        5.051298    0.796262   -5.283603
     38          1           0        4.370337   -0.815096   -5.452314
     39          6           0        7.363747    0.758602   -2.392463
     40          1           0        8.358450    1.190077   -2.280826
     41          6           0        5.768296   -2.113782   -3.517767
     42          1           0        4.854649   -2.609797   -3.859519
     43          1           0        6.600424   -2.554823   -4.072655
     44          1           0        5.917666   -2.362095   -2.462557
     45          6           0        8.146077   -0.233762   -4.525542
     46          1           0        9.054419    0.328321   -4.287511
     47          1           0        8.423578   -1.300357   -4.519915
     48          6           0        6.363957   -0.605117   -6.253296
     49          1           0        6.549233   -1.689140   -6.284709
     50          1           0        6.014150   -0.318199   -7.251471
     51          6           0        0.278382   -0.352513    2.110752
     52          1           0        1.082182   -1.096215    2.116969
     53          1           0        0.435410    0.267223    3.003824
     54          6           0        7.676171    0.115362   -5.945434
     55          1           0        7.516025    1.198451   -6.011168
     56          6           0       -0.489163    1.808675    1.032750
     57          1           0       -0.106100    2.448675    1.837494
     58          1           0       -1.523888    1.551454    1.280543
     59          1           0       -0.510268    2.405567    0.114184
     60          6           0       -1.062771   -1.099672    2.271283
     61          1           0       -1.087673   -1.523300    3.283094
     62          1           0       -1.894420   -0.386463    2.224910
     63          6           0       -1.281868   -2.228230    1.249224
     64          1           0       -0.430128   -2.921640    1.307632
     65          1           0       -1.264878   -1.811351    0.233392
     66          6           0       -2.584614   -3.049366    1.402477
     67          1           0       -2.562989   -3.799760    0.598194
     68          6           0       -3.848983   -2.199802    1.191550
     69          1           0       -3.979677   -1.463132    1.992507
     70          1           0       -4.744891   -2.831005    1.179614
     71          1           0       -3.810758   -1.656515    0.239972
     72          6           0       -2.651374   -3.818194    2.732615
     73          1           0       -2.745407   -3.140436    3.588785
     74          1           0       -3.518266   -4.488559    2.751021
     75          1           0       -1.753778   -4.428857    2.886054
 ---------------------------------------------------------------------
 Rotational constants (GHZ):      0.3341632      0.0635551      0.0579594
 Leave Link  202 at Wed May 17 12:02:18 2017, MaxMem=    33554432 cpu:         0.1
 (Enter /home/michal/g09/l301.exe)
 Standard basis: 6-31G(d) (6D, 7F)
 Ernie: Thresh=  0.10000D-02 Tol=  0.10000D-05 Strict=F.
 AO basis set in the form of general basis input (Overlap normalization):
      1 0
 S   6 1.00       0.000000000000
      0.5484671660D+04  0.1831074430D-02
      0.8252349460D+03  0.1395017220D-01
      0.1880469580D+03  0.6844507810D-01
      0.5296450000D+02  0.2327143360D+00
      0.1689757040D+02  0.4701928980D+00
      0.5799635340D+01  0.3585208530D+00
 SP   3 1.00       0.000000000000
      0.1553961625D+02 -0.1107775495D+00  0.7087426823D-01
      0.3599933586D+01 -0.1480262627D+00  0.3397528391D+00
      0.1013761750D+01  0.1130767015D+01  0.7271585773D+00
 SP   1 1.00       0.000000000000
      0.2700058226D+00  0.1000000000D+01  0.1000000000D+01
 D   1 1.00       0.000000000000
      0.8000000000D+00  0.1000000000D+01
 ****
      2 0
 S   3 1.00       0.000000000000
      0.1873113696D+02  0.3349460434D-01
      0.2825394365D+01  0.2347269535D+00
      0.6401216923D+00  0.8137573261D+00
 S   1 1.00       0.000000000000
      0.1612777588D+00  0.1000000000D+01
 ****
      3 0
 S   6 1.00       0.000000000000
      0.5484671660D+04  0.1831074430D-02
      0.8252349460D+03  0.1395017220D-01
      0.1880469580D+03  0.6844507810D-01
      0.5296450000D+02  0.2327143360D+00
      0.1689757040D+02  0.4701928980D+00
      0.5799635340D+01  0.3585208530D+00
 SP   3 1.00       0.000000000000
      0.1553961625D+02 -0.1107775495D+00  0.7087426823D-01
      0.3599933586D+01 -0.1480262627D+00  0.3397528391D+00
      0.1013761750D+01  0.1130767015D+01  0.7271585773D+00
 SP   1 1.00       0.000000000000
      0.2700058226D+00  0.1000000000D+01  0.1000000000D+01
 D   1 1.00       0.000000000000
      0.8000000000D+00  0.1000000000D+01
 ****
      4 0
 S   3 1.00       0.000000000000
      0.1873113696D+02  0.3349460434D-01
      0.2825394365D+01  0.2347269535D+00
      0.6401216923D+00  0.8137573261D+00
 S   1 1.00       0.000000000000
      0.1612777588D+00  0.1000000000D+01
 ****
      5 0
 S   6 1.00       0.000000000000
      0.3047524880D+04  0.1834737132D-02
      0.4573695180D+03  0.1403732281D-01
      0.1039486850D+03  0.6884262226D-01
      0.2921015530D+02  0.2321844432D+00
      0.9286662960D+01  0.4679413484D+00
      0.3163926960D+01  0.3623119853D+00
 SP   3 1.00       0.000000000000
      0.7868272350D+01 -0.1193324198D+00  0.6899906659D-01
      0.1881288540D+01 -0.1608541517D+00  0.3164239610D+00
      0.5442492580D+00  0.1143456438D+01  0.7443082909D+00
 SP   1 1.00       0.000000000000
      0.1687144782D+00  0.1000000000D+01  0.1000000000D+01
 D   1 1.00       0.000000000000
      0.8000000000D+00  0.1000000000D+01
 ****
      6 0
 S   6 1.00       0.000000000000
      0.3047524880D+04  0.1834737132D-02
      0.4573695180D+03  0.1403732281D-01
      0.1039486850D+03  0.6884262226D-01
      0.2921015530D+02  0.2321844432D+00
      0.9286662960D+01  0.4679413484D+00
      0.3163926960D+01  0.3623119853D+00
 SP   3 1.00       0.000000000000
      0.7868272350D+01 -0.1193324198D+00  0.6899906659D-01
      0.1881288540D+01 -0.1608541517D+00  0.3164239610D+00
      0.5442492580D+00  0.1143456438D+01  0.7443082909D+00
 SP   1 1.00       0.000000000000
      0.1687144782D+00  0.1000000000D+01  0.1000000000D+01
 D   1 1.00       0.000000000000
      0.8000000000D+00  0.1000000000D+01
 ****
      7 0
 S   3 1.00       0.000000000000
      0.1873113696D+02  0.3349460434D-01
      0.2825394365D+01  0.2347269535D+00
      0.6401216923D+00  0.8137573261D+00
 S   1 1.00       0.000000000000
      0.1612777588D+00  0.1000000000D+01
 ****
      8 0
 S   6 1.00       0.000000000000
      0.3047524880D+04  0.1834737132D-02
      0.4573695180D+03  0.1403732281D-01
      0.1039486850D+03  0.6884262226D-01
      0.2921015530D+02  0.2321844432D+00
      0.9286662960D+01  0.4679413484D+00
      0.3163926960D+01  0.3623119853D+00
 SP   3 1.00       0.000000000000
      0.7868272350D+01 -0.1193324198D+00  0.6899906659D-01
      0.1881288540D+01 -0.1608541517D+00  0.3164239610D+00
      0.5442492580D+00  0.1143456438D+01  0.7443082909D+00
 SP   1 1.00       0.000000000000
      0.1687144782D+00  0.1000000000D+01  0.1000000000D+01
 D   1 1.00       0.000000000000
      0.8000000000D+00  0.1000000000D+01
 ****
      9 0
 S   3 1.00       0.000000000000
      0.1873113696D+02  0.3349460434D-01
      0.2825394365D+01  0.2347269535D+00
      0.6401216923D+00  0.8137573261D+00
 S   1 1.00       0.000000000000
      0.1612777588D+00  0.1000000000D+01
 ****
     10 0
 S   6 1.00       0.000000000000
      0.3047524880D+04  0.1834737132D-02
      0.4573695180D+03  0.1403732281D-01
      0.1039486850D+03  0.6884262226D-01
      0.2921015530D+02  0.2321844432D+00
      0.9286662960D+01  0.4679413484D+00
      0.3163926960D+01  0.3623119853D+00
 SP   3 1.00       0.000000000000
      0.7868272350D+01 -0.1193324198D+00  0.6899906659D-01
      0.1881288540D+01 -0.1608541517D+00  0.3164239610D+00
      0.5442492580D+00  0.1143456438D+01  0.7443082909D+00
 SP   1 1.00       0.000000000000
      0.1687144782D+00  0.1000000000D+01  0.1000000000D+01
 D   1 1.00       0.000000000000
      0.8000000000D+00  0.1000000000D+01
 ****
     11 0
 S   3 1.00       0.000000000000
      0.1873113696D+02  0.3349460434D-01
      0.2825394365D+01  0.2347269535D+00
      0.6401216923D+00  0.8137573261D+00
 S   1 1.00       0.000000000000
      0.1612777588D+00  0.1000000000D+01
 ****
     12 0
 S   6 1.00       0.000000000000
      0.3047524880D+04  0.1834737132D-02
      0.4573695180D+03  0.1403732281D-01
      0.1039486850D+03  0.6884262226D-01
      0.2921015530D+02  0.2321844432D+00
      0.9286662960D+01  0.4679413484D+00
      0.3163926960D+01  0.3623119853D+00
 SP   3 1.00       0.000000000000
      0.7868272350D+01 -0.1193324198D+00  0.6899906659D-01
      0.1881288540D+01 -0.1608541517D+00  0.3164239610D+00
      0.5442492580D+00  0.1143456438D+01  0.7443082909D+00
 SP   1 1.00       0.000000000000
      0.1687144782D+00  0.1000000000D+01  0.1000000000D+01
 D   1 1.00       0.000000000000
      0.8000000000D+00  0.1000000000D+01
 ****
     13 0
 S   3 1.00       0.000000000000
      0.1873113696D+02  0.3349460434D-01
      0.2825394365D+01  0.2347269535D+00
      0.6401216923D+00  0.8137573261D+00
 S   1 1.00       0.000000000000
      0.1612777588D+00  0.1000000000D+01
 ****
     14 0
 S   6 1.00       0.000000000000
      0.3047524880D+04  0.1834737132D-02
      0.4573695180D+03  0.1403732281D-01
      0.1039486850D+03  0.6884262226D-01
      0.2921015530D+02  0.2321844432D+00
      0.9286662960D+01  0.4679413484D+00
      0.3163926960D+01  0.3623119853D+00
 SP   3 1.00       0.000000000000
      0.7868272350D+01 -0.1193324198D+00  0.6899906659D-01
      0.1881288540D+01 -0.1608541517D+00  0.3164239610D+00
      0.5442492580D+00  0.1143456438D+01  0.7443082909D+00
 SP   1 1.00       0.000000000000
      0.1687144782D+00  0.1000000000D+01  0.1000000000D+01
 D   1 1.00       0.000000000000
      0.8000000000D+00  0.1000000000D+01
 ****
     15 0
 S   3 1.00       0.000000000000
      0.1873113696D+02  0.3349460434D-01
      0.2825394365D+01  0.2347269535D+00
      0.6401216923D+00  0.8137573261D+00
 S   1 1.00       0.000000000000
      0.1612777588D+00  0.1000000000D+01
 ****
     16 0
 S   3 1.00       0.000000000000
      0.1873113696D+02  0.3349460434D-01
      0.2825394365D+01  0.2347269535D+00
      0.6401216923D+00  0.8137573261D+00
 S   1 1.00       0.000000000000
      0.1612777588D+00  0.1000000000D+01
 ****
     17 0
 S   6 1.00       0.000000000000
      0.3047524880D+04  0.1834737132D-02
      0.4573695180D+03  0.1403732281D-01
      0.1039486850D+03  0.6884262226D-01
      0.2921015530D+02  0.2321844432D+00
      0.9286662960D+01  0.4679413484D+00
      0.3163926960D+01  0.3623119853D+00
 SP   3 1.00       0.000000000000
      0.7868272350D+01 -0.1193324198D+00  0.6899906659D-01
      0.1881288540D+01 -0.1608541517D+00  0.3164239610D+00
      0.5442492580D+00  0.1143456438D+01  0.7443082909D+00
 SP   1 1.00       0.000000000000
      0.1687144782D+00  0.1000000000D+01  0.1000000000D+01
 D   1 1.00       0.000000000000
      0.8000000000D+00  0.1000000000D+01
 ****
     18 0
 S   6 1.00       0.000000000000
      0.3047524880D+04  0.1834737132D-02
      0.4573695180D+03  0.1403732281D-01
      0.1039486850D+03  0.6884262226D-01
      0.2921015530D+02  0.2321844432D+00
      0.9286662960D+01  0.4679413484D+00
      0.3163926960D+01  0.3623119853D+00
 SP   3 1.00       0.000000000000
      0.7868272350D+01 -0.1193324198D+00  0.6899906659D-01
      0.1881288540D+01 -0.1608541517D+00  0.3164239610D+00
      0.5442492580D+00  0.1143456438D+01  0.7443082909D+00
 SP   1 1.00       0.000000000000
      0.1687144782D+00  0.1000000000D+01  0.1000000000D+01
 D   1 1.00       0.000000000000
      0.8000000000D+00  0.1000000000D+01
 ****
     19 0
 S   3 1.00       0.000000000000
      0.1873113696D+02  0.3349460434D-01
      0.2825394365D+01  0.2347269535D+00
      0.6401216923D+00  0.8137573261D+00
 S   1 1.00       0.000000000000
      0.1612777588D+00  0.1000000000D+01
 ****
     20 0
 S   3 1.00       0.000000000000
      0.1873113696D+02  0.3349460434D-01
      0.2825394365D+01  0.2347269535D+00
      0.6401216923D+00  0.8137573261D+00
 S   1 1.00       0.000000000000
      0.1612777588D+00  0.1000000000D+01
 ****
     21 0
 S   6 1.00       0.000000000000
      0.3047524880D+04  0.1834737132D-02
      0.4573695180D+03  0.1403732281D-01
      0.1039486850D+03  0.6884262226D-01
      0.2921015530D+02  0.2321844432D+00
      0.9286662960D+01  0.4679413484D+00
      0.3163926960D+01  0.3623119853D+00
 SP   3 1.00       0.000000000000
      0.7868272350D+01 -0.1193324198D+00  0.6899906659D-01
      0.1881288540D+01 -0.1608541517D+00  0.3164239610D+00
      0.5442492580D+00  0.1143456438D+01  0.7443082909D+00
 SP   1 1.00       0.000000000000
      0.1687144782D+00  0.1000000000D+01  0.1000000000D+01
 D   1 1.00       0.000000000000
      0.8000000000D+00  0.1000000000D+01
 ****
     22 0
 S   3 1.00       0.000000000000
      0.1873113696D+02  0.3349460434D-01
      0.2825394365D+01  0.2347269535D+00
      0.6401216923D+00  0.8137573261D+00
 S   1 1.00       0.000000000000
      0.1612777588D+00  0.1000000000D+01
 ****
     23 0
 S   3 1.00       0.000000000000
      0.1873113696D+02  0.3349460434D-01
      0.2825394365D+01  0.2347269535D+00
      0.6401216923D+00  0.8137573261D+00
 S   1 1.00       0.000000000000
      0.1612777588D+00  0.1000000000D+01
 ****
     24 0
 S   6 1.00       0.000000000000
      0.3047524880D+04  0.1834737132D-02
      0.4573695180D+03  0.1403732281D-01
      0.1039486850D+03  0.6884262226D-01
      0.2921015530D+02  0.2321844432D+00
      0.9286662960D+01  0.4679413484D+00
      0.3163926960D+01  0.3623119853D+00
 SP   3 1.00       0.000000000000
      0.7868272350D+01 -0.1193324198D+00  0.6899906659D-01
      0.1881288540D+01 -0.1608541517D+00  0.3164239610D+00
      0.5442492580D+00  0.1143456438D+01  0.7443082909D+00
 SP   1 1.00       0.000000000000
      0.1687144782D+00  0.1000000000D+01  0.1000000000D+01
 D   1 1.00       0.000000000000
      0.8000000000D+00  0.1000000000D+01
 ****
     25 0
 S   3 1.00       0.000000000000
      0.1873113696D+02  0.3349460434D-01
      0.2825394365D+01  0.2347269535D+00
      0.6401216923D+00  0.8137573261D+00
 S   1 1.00       0.000000000000
      0.1612777588D+00  0.1000000000D+01
 ****
     26 0
 S   3 1.00       0.000000000000
      0.1873113696D+02  0.3349460434D-01
      0.2825394365D+01  0.2347269535D+00
      0.6401216923D+00  0.8137573261D+00
 S   1 1.00       0.000000000000
      0.1612777588D+00  0.1000000000D+01
 ****
     27 0
 S   6 1.00       0.000000000000
      0.3047524880D+04  0.1834737132D-02
      0.4573695180D+03  0.1403732281D-01
      0.1039486850D+03  0.6884262226D-01
      0.2921015530D+02  0.2321844432D+00
      0.9286662960D+01  0.4679413484D+00
      0.3163926960D+01  0.3623119853D+00
 SP   3 1.00       0.000000000000
      0.7868272350D+01 -0.1193324198D+00  0.6899906659D-01
      0.1881288540D+01 -0.1608541517D+00  0.3164239610D+00
      0.5442492580D+00  0.1143456438D+01  0.7443082909D+00
 SP   1 1.00       0.000000000000
      0.1687144782D+00  0.1000000000D+01  0.1000000000D+01
 D   1 1.00       0.000000000000
      0.8000000000D+00  0.1000000000D+01
 ****
     28 0
 S   3 1.00       0.000000000000
      0.1873113696D+02  0.3349460434D-01
      0.2825394365D+01  0.2347269535D+00
      0.6401216923D+00  0.8137573261D+00
 S   1 1.00       0.000000000000
      0.1612777588D+00  0.1000000000D+01
 ****
     29 0
 S   6 1.00       0.000000000000
      0.3047524880D+04  0.1834737132D-02
      0.4573695180D+03  0.1403732281D-01
      0.1039486850D+03  0.6884262226D-01
      0.2921015530D+02  0.2321844432D+00
      0.9286662960D+01  0.4679413484D+00
      0.3163926960D+01  0.3623119853D+00
 SP   3 1.00       0.000000000000
      0.7868272350D+01 -0.1193324198D+00  0.6899906659D-01
      0.1881288540D+01 -0.1608541517D+00  0.3164239610D+00
      0.5442492580D+00  0.1143456438D+01  0.7443082909D+00
 SP   1 1.00       0.000000000000
      0.1687144782D+00  0.1000000000D+01  0.1000000000D+01
 D   1 1.00       0.000000000000
      0.8000000000D+00  0.1000000000D+01
 ****
     30 0
 S   3 1.00       0.000000000000
      0.1873113696D+02  0.3349460434D-01
      0.2825394365D+01  0.2347269535D+00
      0.6401216923D+00  0.8137573261D+00
 S   1 1.00       0.000000000000
      0.1612777588D+00  0.1000000000D+01
 ****
     31 0
 S   6 1.00       0.000000000000
      0.3047524880D+04  0.1834737132D-02
      0.4573695180D+03  0.1403732281D-01
      0.1039486850D+03  0.6884262226D-01
      0.2921015530D+02  0.2321844432D+00
      0.9286662960D+01  0.4679413484D+00
      0.3163926960D+01  0.3623119853D+00
 SP   3 1.00       0.000000000000
      0.7868272350D+01 -0.1193324198D+00  0.6899906659D-01
      0.1881288540D+01 -0.1608541517D+00  0.3164239610D+00
      0.5442492580D+00  0.1143456438D+01  0.7443082909D+00
 SP   1 1.00       0.000000000000
      0.1687144782D+00  0.1000000000D+01  0.1000000000D+01
 D   1 1.00       0.000000000000
      0.8000000000D+00  0.1000000000D+01
 ****
     32 0
 S   3 1.00       0.000000000000
      0.1873113696D+02  0.3349460434D-01
      0.2825394365D+01  0.2347269535D+00
      0.6401216923D+00  0.8137573261D+00
 S   1 1.00       0.000000000000
      0.1612777588D+00  0.1000000000D+01
 ****
     33 0
 S   3 1.00       0.000000000000
      0.1873113696D+02  0.3349460434D-01
      0.2825394365D+01  0.2347269535D+00
      0.6401216923D+00  0.8137573261D+00
 S   1 1.00       0.000000000000
      0.1612777588D+00  0.1000000000D+01
 ****
     34 0
 S   3 1.00       0.000000000000
      0.1873113696D+02  0.3349460434D-01
      0.2825394365D+01  0.2347269535D+00
      0.6401216923D+00  0.8137573261D+00
 S   1 1.00       0.000000000000
      0.1612777588D+00  0.1000000000D+01
 ****
     35 0
 S   6 1.00       0.000000000000
      0.3047524880D+04  0.1834737132D-02
      0.4573695180D+03  0.1403732281D-01
      0.1039486850D+03  0.6884262226D-01
      0.2921015530D+02  0.2321844432D+00
      0.9286662960D+01  0.4679413484D+00
      0.3163926960D+01  0.3623119853D+00
 SP   3 1.00       0.000000000000
      0.7868272350D+01 -0.1193324198D+00  0.6899906659D-01
      0.1881288540D+01 -0.1608541517D+00  0.3164239610D+00
      0.5442492580D+00  0.1143456438D+01  0.7443082909D+00
 SP   1 1.00       0.000000000000
      0.1687144782D+00  0.1000000000D+01  0.1000000000D+01
 D   1 1.00       0.000000000000
      0.8000000000D+00  0.1000000000D+01
 ****
     36 0
 S   6 1.00       0.000000000000
      0.3047524880D+04  0.1834737132D-02
      0.4573695180D+03  0.1403732281D-01
      0.1039486850D+03  0.6884262226D-01
      0.2921015530D+02  0.2321844432D+00
      0.9286662960D+01  0.4679413484D+00
      0.3163926960D+01  0.3623119853D+00
 SP   3 1.00       0.000000000000
      0.7868272350D+01 -0.1193324198D+00  0.6899906659D-01
      0.1881288540D+01 -0.1608541517D+00  0.3164239610D+00
      0.5442492580D+00  0.1143456438D+01  0.7443082909D+00
 SP   1 1.00       0.000000000000
      0.1687144782D+00  0.1000000000D+01  0.1000000000D+01
 D   1 1.00       0.000000000000
      0.8000000000D+00  0.1000000000D+01
 ****
     37 0
 S   3 1.00       0.000000000000
      0.1873113696D+02  0.3349460434D-01
      0.2825394365D+01  0.2347269535D+00
      0.6401216923D+00  0.8137573261D+00
 S   1 1.00       0.000000000000
      0.1612777588D+00  0.1000000000D+01
 ****
     38 0
 S   3 1.00       0.000000000000
      0.1873113696D+02  0.3349460434D-01
      0.2825394365D+01  0.2347269535D+00
      0.6401216923D+00  0.8137573261D+00
 S   1 1.00       0.000000000000
      0.1612777588D+00  0.1000000000D+01
 ****
     39 0
 S   6 1.00       0.000000000000
      0.3047524880D+04  0.1834737132D-02
      0.4573695180D+03  0.1403732281D-01
      0.1039486850D+03  0.6884262226D-01
      0.2921015530D+02  0.2321844432D+00
      0.9286662960D+01  0.4679413484D+00
      0.3163926960D+01  0.3623119853D+00
 SP   3 1.00       0.000000000000
      0.7868272350D+01 -0.1193324198D+00  0.6899906659D-01
      0.1881288540D+01 -0.1608541517D+00  0.3164239610D+00
      0.5442492580D+00  0.1143456438D+01  0.7443082909D+00
 SP   1 1.00       0.000000000000
      0.1687144782D+00  0.1000000000D+01  0.1000000000D+01
 D   1 1.00       0.000000000000
      0.8000000000D+00  0.1000000000D+01
 ****
     40 0
 S   3 1.00       0.000000000000
      0.1873113696D+02  0.3349460434D-01
      0.2825394365D+01  0.2347269535D+00
      0.6401216923D+00  0.8137573261D+00
 S   1 1.00       0.000000000000
      0.1612777588D+00  0.1000000000D+01
 ****
     41 0
 S   6 1.00       0.000000000000
      0.3047524880D+04  0.1834737132D-02
      0.4573695180D+03  0.1403732281D-01
      0.1039486850D+03  0.6884262226D-01
      0.2921015530D+02  0.2321844432D+00
      0.9286662960D+01  0.4679413484D+00
      0.3163926960D+01  0.3623119853D+00
 SP   3 1.00       0.000000000000
      0.7868272350D+01 -0.1193324198D+00  0.6899906659D-01
      0.1881288540D+01 -0.1608541517D+00  0.3164239610D+00
      0.5442492580D+00  0.1143456438D+01  0.7443082909D+00
 SP   1 1.00       0.000000000000
      0.1687144782D+00  0.1000000000D+01  0.1000000000D+01
 D   1 1.00       0.000000000000
      0.8000000000D+00  0.1000000000D+01
 ****
     42 0
 S   3 1.00       0.000000000000
      0.1873113696D+02  0.3349460434D-01
      0.2825394365D+01  0.2347269535D+00
      0.6401216923D+00  0.8137573261D+00
 S   1 1.00       0.000000000000
      0.1612777588D+00  0.1000000000D+01
 ****
     43 0
 S   3 1.00       0.000000000000
      0.1873113696D+02  0.3349460434D-01
      0.2825394365D+01  0.2347269535D+00
      0.6401216923D+00  0.8137573261D+00
 S   1 1.00       0.000000000000
      0.1612777588D+00  0.1000000000D+01
 ****
     44 0
 S   3 1.00       0.000000000000
      0.1873113696D+02  0.3349460434D-01
      0.2825394365D+01  0.2347269535D+00
      0.6401216923D+00  0.8137573261D+00
 S   1 1.00       0.000000000000
      0.1612777588D+00  0.1000000000D+01
 ****
     45 0
 S   6 1.00       0.000000000000
      0.3047524880D+04  0.1834737132D-02
      0.4573695180D+03  0.1403732281D-01
      0.1039486850D+03  0.6884262226D-01
      0.2921015530D+02  0.2321844432D+00
      0.9286662960D+01  0.4679413484D+00
      0.3163926960D+01  0.3623119853D+00
 SP   3 1.00       0.000000000000
      0.7868272350D+01 -0.1193324198D+00  0.6899906659D-01
      0.1881288540D+01 -0.1608541517D+00  0.3164239610D+00
      0.5442492580D+00  0.1143456438D+01  0.7443082909D+00
 SP   1 1.00       0.000000000000
      0.1687144782D+00  0.1000000000D+01  0.1000000000D+01
 D   1 1.00       0.000000000000
      0.8000000000D+00  0.1000000000D+01
 ****
     46 0
 S   3 1.00       0.000000000000
      0.1873113696D+02  0.3349460434D-01
      0.2825394365D+01  0.2347269535D+00
      0.6401216923D+00  0.8137573261D+00
 S   1 1.00       0.000000000000
      0.1612777588D+00  0.1000000000D+01
 ****
     47 0
 S   3 1.00       0.000000000000
      0.1873113696D+02  0.3349460434D-01
      0.2825394365D+01  0.2347269535D+00
      0.6401216923D+00  0.8137573261D+00
 S   1 1.00       0.000000000000
      0.1612777588D+00  0.1000000000D+01
 ****
     48 0
 S   6 1.00       0.000000000000
      0.3047524880D+04  0.1834737132D-02
      0.4573695180D+03  0.1403732281D-01
      0.1039486850D+03  0.6884262226D-01
      0.2921015530D+02  0.2321844432D+00
      0.9286662960D+01  0.4679413484D+00
      0.3163926960D+01  0.3623119853D+00
 SP   3 1.00       0.000000000000
      0.7868272350D+01 -0.1193324198D+00  0.6899906659D-01
      0.1881288540D+01 -0.1608541517D+00  0.3164239610D+00
      0.5442492580D+00  0.1143456438D+01  0.7443082909D+00
 SP   1 1.00       0.000000000000
      0.1687144782D+00  0.1000000000D+01  0.1000000000D+01
 D   1 1.00       0.000000000000
      0.8000000000D+00  0.1000000000D+01
 ****
     49 0
 S   3 1.00       0.000000000000
      0.1873113696D+02  0.3349460434D-01
      0.2825394365D+01  0.2347269535D+00
      0.6401216923D+00  0.8137573261D+00
 S   1 1.00       0.000000000000
      0.1612777588D+00  0.1000000000D+01
 ****
     50 0
 S   3 1.00       0.000000000000
      0.1873113696D+02  0.3349460434D-01
      0.2825394365D+01  0.2347269535D+00
      0.6401216923D+00  0.8137573261D+00
 S   1 1.00       0.000000000000
      0.1612777588D+00  0.1000000000D+01
 ****
     51 0
 S   6 1.00       0.000000000000
      0.3047524880D+04  0.1834737132D-02
      0.4573695180D+03  0.1403732281D-01
      0.1039486850D+03  0.6884262226D-01
      0.2921015530D+02  0.2321844432D+00
      0.9286662960D+01  0.4679413484D+00
      0.3163926960D+01  0.3623119853D+00
 SP   3 1.00       0.000000000000
      0.7868272350D+01 -0.1193324198D+00  0.6899906659D-01
      0.1881288540D+01 -0.1608541517D+00  0.3164239610D+00
      0.5442492580D+00  0.1143456438D+01  0.7443082909D+00
 SP   1 1.00       0.000000000000
      0.1687144782D+00  0.1000000000D+01  0.1000000000D+01
 D   1 1.00       0.000000000000
      0.8000000000D+00  0.1000000000D+01
 ****
     52 0
 S   3 1.00       0.000000000000
      0.1873113696D+02  0.3349460434D-01
      0.2825394365D+01  0.2347269535D+00
      0.6401216923D+00  0.8137573261D+00
 S   1 1.00       0.000000000000
      0.1612777588D+00  0.1000000000D+01
 ****
     53 0
 S   3 1.00       0.000000000000
      0.1873113696D+02  0.3349460434D-01
      0.2825394365D+01  0.2347269535D+00
      0.6401216923D+00  0.8137573261D+00
 S   1 1.00       0.000000000000
      0.1612777588D+00  0.1000000000D+01
 ****
     54 0
 S   6 1.00       0.000000000000
      0.3047524880D+04  0.1834737132D-02
      0.4573695180D+03  0.1403732281D-01
      0.1039486850D+03  0.6884262226D-01
      0.2921015530D+02  0.2321844432D+00
      0.9286662960D+01  0.4679413484D+00
      0.3163926960D+01  0.3623119853D+00
 SP   3 1.00       0.000000000000
      0.7868272350D+01 -0.1193324198D+00  0.6899906659D-01
      0.1881288540D+01 -0.1608541517D+00  0.3164239610D+00
      0.5442492580D+00  0.1143456438D+01  0.7443082909D+00
 SP   1 1.00       0.000000000000
      0.1687144782D+00  0.1000000000D+01  0.1000000000D+01
 D   1 1.00       0.000000000000
      0.8000000000D+00  0.1000000000D+01
 ****
     55 0
 S   3 1.00       0.000000000000
      0.1873113696D+02  0.3349460434D-01
      0.2825394365D+01  0.2347269535D+00
      0.6401216923D+00  0.8137573261D+00
 S   1 1.00       0.000000000000
      0.1612777588D+00  0.1000000000D+01
 ****
     56 0
 S   6 1.00       0.000000000000
      0.3047524880D+04  0.1834737132D-02
      0.4573695180D+03  0.1403732281D-01
      0.1039486850D+03  0.6884262226D-01
      0.2921015530D+02  0.2321844432D+00
      0.9286662960D+01  0.4679413484D+00
      0.3163926960D+01  0.3623119853D+00
 SP   3 1.00       0.000000000000
      0.7868272350D+01 -0.1193324198D+00  0.6899906659D-01
      0.1881288540D+01 -0.1608541517D+00  0.3164239610D+00
      0.5442492580D+00  0.1143456438D+01  0.7443082909D+00
 SP   1 1.00       0.000000000000
      0.1687144782D+00  0.1000000000D+01  0.1000000000D+01
 D   1 1.00       0.000000000000
      0.8000000000D+00  0.1000000000D+01
 ****
     57 0
 S   3 1.00       0.000000000000
      0.1873113696D+02  0.3349460434D-01
      0.2825394365D+01  0.2347269535D+00
      0.6401216923D+00  0.8137573261D+00
 S   1 1.00       0.000000000000
      0.1612777588D+00  0.1000000000D+01
 ****
     58 0
 S   3 1.00       0.000000000000
      0.1873113696D+02  0.3349460434D-01
      0.2825394365D+01  0.2347269535D+00
      0.6401216923D+00  0.8137573261D+00
 S   1 1.00       0.000000000000
      0.1612777588D+00  0.1000000000D+01
 ****
     59 0
 S   3 1.00       0.000000000000
      0.1873113696D+02  0.3349460434D-01
      0.2825394365D+01  0.2347269535D+00
      0.6401216923D+00  0.8137573261D+00
 S   1 1.00       0.000000000000
      0.1612777588D+00  0.1000000000D+01
 ****
     60 0
 S   6 1.00       0.000000000000
      0.3047524880D+04  0.1834737132D-02
      0.4573695180D+03  0.1403732281D-01
      0.1039486850D+03  0.6884262226D-01
      0.2921015530D+02  0.2321844432D+00
      0.9286662960D+01  0.4679413484D+00
      0.3163926960D+01  0.3623119853D+00
 SP   3 1.00       0.000000000000
      0.7868272350D+01 -0.1193324198D+00  0.6899906659D-01
      0.1881288540D+01 -0.1608541517D+00  0.3164239610D+00
      0.5442492580D+00  0.1143456438D+01  0.7443082909D+00
 SP   1 1.00       0.000000000000
      0.1687144782D+00  0.1000000000D+01  0.1000000000D+01
 D   1 1.00       0.000000000000
      0.8000000000D+00  0.1000000000D+01
 ****
     61 0
 S   3 1.00       0.000000000000
      0.1873113696D+02  0.3349460434D-01
      0.2825394365D+01  0.2347269535D+00
      0.6401216923D+00  0.8137573261D+00
 S   1 1.00       0.000000000000
      0.1612777588D+00  0.1000000000D+01
 ****
     62 0
 S   3 1.00       0.000000000000
      0.1873113696D+02  0.3349460434D-01
      0.2825394365D+01  0.2347269535D+00
      0.6401216923D+00  0.8137573261D+00
 S   1 1.00       0.000000000000
      0.1612777588D+00  0.1000000000D+01
 ****
     63 0
 S   6 1.00       0.000000000000
      0.3047524880D+04  0.1834737132D-02
      0.4573695180D+03  0.1403732281D-01
      0.1039486850D+03  0.6884262226D-01
      0.2921015530D+02  0.2321844432D+00
      0.9286662960D+01  0.4679413484D+00
      0.3163926960D+01  0.3623119853D+00
 SP   3 1.00       0.000000000000
      0.7868272350D+01 -0.1193324198D+00  0.6899906659D-01
      0.1881288540D+01 -0.1608541517D+00  0.3164239610D+00
      0.5442492580D+00  0.1143456438D+01  0.7443082909D+00
 SP   1 1.00       0.000000000000
      0.1687144782D+00  0.1000000000D+01  0.1000000000D+01
 D   1 1.00       0.000000000000
      0.8000000000D+00  0.1000000000D+01
 ****
     64 0
 S   3 1.00       0.000000000000
      0.1873113696D+02  0.3349460434D-01
      0.2825394365D+01  0.2347269535D+00
      0.6401216923D+00  0.8137573261D+00
 S   1 1.00       0.000000000000
      0.1612777588D+00  0.1000000000D+01
 ****
     65 0
 S   3 1.00       0.000000000000
      0.1873113696D+02  0.3349460434D-01
      0.2825394365D+01  0.2347269535D+00
      0.6401216923D+00  0.8137573261D+00
 S   1 1.00       0.000000000000
      0.1612777588D+00  0.1000000000D+01
 ****
     66 0
 S   6 1.00       0.000000000000
      0.3047524880D+04  0.1834737132D-02
      0.4573695180D+03  0.1403732281D-01
      0.1039486850D+03  0.6884262226D-01
      0.2921015530D+02  0.2321844432D+00
      0.9286662960D+01  0.4679413484D+00
      0.3163926960D+01  0.3623119853D+00
 SP   3 1.00       0.000000000000
      0.7868272350D+01 -0.1193324198D+00  0.6899906659D-01
      0.1881288540D+01 -0.1608541517D+00  0.3164239610D+00
      0.5442492580D+00  0.1143456438D+01  0.7443082909D+00
 SP   1 1.00       0.000000000000
      0.1687144782D+00  0.1000000000D+01  0.1000000000D+01
 D   1 1.00       0.000000000000
      0.8000000000D+00  0.1000000000D+01
 ****
     67 0
 S   3 1.00       0.000000000000
      0.1873113696D+02  0.3349460434D-01
      0.2825394365D+01  0.2347269535D+00
      0.6401216923D+00  0.8137573261D+00
 S   1 1.00       0.000000000000
      0.1612777588D+00  0.1000000000D+01
 ****
     68 0
 S   6 1.00       0.000000000000
      0.3047524880D+04  0.1834737132D-02
      0.4573695180D+03  0.1403732281D-01
      0.1039486850D+03  0.6884262226D-01
      0.2921015530D+02  0.2321844432D+00
      0.9286662960D+01  0.4679413484D+00
      0.3163926960D+01  0.3623119853D+00
 SP   3 1.00       0.000000000000
      0.7868272350D+01 -0.1193324198D+00  0.6899906659D-01
      0.1881288540D+01 -0.1608541517D+00  0.3164239610D+00
      0.5442492580D+00  0.1143456438D+01  0.7443082909D+00
 SP   1 1.00       0.000000000000
      0.1687144782D+00  0.1000000000D+01  0.1000000000D+01
 D   1 1.00       0.000000000000
      0.8000000000D+00  0.1000000000D+01
 ****
     69 0
 S   3 1.00       0.000000000000
      0.1873113696D+02  0.3349460434D-01
      0.2825394365D+01  0.2347269535D+00
      0.6401216923D+00  0.8137573261D+00
 S   1 1.00       0.000000000000
      0.1612777588D+00  0.1000000000D+01
 ****
     70 0
 S   3 1.00       0.000000000000
      0.1873113696D+02  0.3349460434D-01
      0.2825394365D+01  0.2347269535D+00
      0.6401216923D+00  0.8137573261D+00
 S   1 1.00       0.000000000000
      0.1612777588D+00  0.1000000000D+01
 ****
     71 0
 S   3 1.00       0.000000000000
      0.1873113696D+02  0.3349460434D-01
      0.2825394365D+01  0.2347269535D+00
      0.6401216923D+00  0.8137573261D+00
 S   1 1.00       0.000000000000
      0.1612777588D+00  0.1000000000D+01
 ****
     72 0
 S   6 1.00       0.000000000000
      0.3047524880D+04  0.1834737132D-02
      0.4573695180D+03  0.1403732281D-01
      0.1039486850D+03  0.6884262226D-01
      0.2921015530D+02  0.2321844432D+00
      0.9286662960D+01  0.4679413484D+00
      0.3163926960D+01  0.3623119853D+00
 SP   3 1.00       0.000000000000
      0.7868272350D+01 -0.1193324198D+00  0.6899906659D-01
      0.1881288540D+01 -0.1608541517D+00  0.3164239610D+00
      0.5442492580D+00  0.1143456438D+01  0.7443082909D+00
 SP   1 1.00       0.000000000000
      0.1687144782D+00  0.1000000000D+01  0.1000000000D+01
 D   1 1.00       0.000000000000
      0.8000000000D+00  0.1000000000D+01
 ****
     73 0
 S   3 1.00       0.000000000000
      0.1873113696D+02  0.3349460434D-01
      0.2825394365D+01  0.2347269535D+00
      0.6401216923D+00  0.8137573261D+00
 S   1 1.00       0.000000000000
      0.1612777588D+00  0.1000000000D+01
 ****
     74 0
 S   3 1.00       0.000000000000
      0.1873113696D+02  0.3349460434D-01
      0.2825394365D+01  0.2347269535D+00
      0.6401216923D+00  0.8137573261D+00
 S   1 1.00       0.000000000000
      0.1612777588D+00  0.1000000000D+01
 ****
     75 0
 S   3 1.00       0.000000000000
      0.1873113696D+02  0.3349460434D-01
      0.2825394365D+01  0.2347269535D+00
      0.6401216923D+00  0.8137573261D+00
 S   1 1.00       0.000000000000
      0.1612777588D+00  0.1000000000D+01
 ****

 AO basis set (Overlap normalization):
 Atom O1       Shell     1 S   6     bf    1 -     1         13.474795501869          1.656762792820          0.000000000000
      0.5484671660D+04  0.1831074430D-02
      0.8252349460D+03  0.1395017220D-01
      0.1880469580D+03  0.6844507810D-01
      0.5296450000D+02  0.2327143360D+00
      0.1689757040D+02  0.4701928980D+00
      0.5799635340D+01  0.3585208530D+00
 Atom O1       Shell     2 SP   3    bf    2 -     5         13.474795501869          1.656762792820          0.000000000000
      0.1553961625D+02 -0.1107775495D+00  0.7087426823D-01
      0.3599933586D+01 -0.1480262627D+00  0.3397528391D+00
      0.1013761750D+01  0.1130767015D+01  0.7271585773D+00
 Atom O1       Shell     3 SP   1    bf    6 -     9         13.474795501869          1.656762792820          0.000000000000
      0.2700058226D+00  0.1000000000D+01  0.1000000000D+01
 Atom O1       Shell     4 D   1     bf   10 -    15         13.474795501869          1.656762792820          0.000000000000
      0.8000000000D+00  0.1000000000D+01
 Atom H2       Shell     5 S   3     bf   16 -    16         14.248607116112          0.000000000000          0.000000000000
      0.1873113696D+02  0.3349460434D-01
      0.2825394365D+01  0.2347269535D+00
      0.6401216923D+00  0.8137573261D+00
 Atom H2       Shell     6 S   1     bf   17 -    17         14.248607116112          0.000000000000          0.000000000000
      0.1612777588D+00  0.1000000000D+01
 Atom O3       Shell     7 S   6     bf   18 -    18         16.419480221288         -0.279794230735        -13.077391085000
      0.5484671660D+04  0.1831074430D-02
      0.8252349460D+03  0.1395017220D-01
      0.1880469580D+03  0.6844507810D-01
      0.5296450000D+02  0.2327143360D+00
      0.1689757040D+02  0.4701928980D+00
      0.5799635340D+01  0.3585208530D+00
 Atom O3       Shell     8 SP   3    bf   19 -    22         16.419480221288         -0.279794230735        -13.077391085000
      0.1553961625D+02 -0.1107775495D+00  0.7087426823D-01
      0.3599933586D+01 -0.1480262627D+00  0.3397528391D+00
      0.1013761750D+01  0.1130767015D+01  0.7271585773D+00
 Atom O3       Shell     9 SP   1    bf   23 -    26         16.419480221288         -0.279794230735        -13.077391085000
      0.2700058226D+00  0.1000000000D+01  0.1000000000D+01
 Atom O3       Shell    10 D   1     bf   27 -    32         16.419480221288         -0.279794230735        -13.077391085000
      0.8000000000D+00  0.1000000000D+01
 Atom H4       Shell    11 S   3     bf   33 -    33         16.763084758763         -2.075551312814        -13.094579750446
      0.1873113696D+02  0.3349460434D-01
      0.2825394365D+01  0.2347269535D+00
      0.6401216923D+00  0.8137573261D+00
 Atom H4       Shell    12 S   1     bf   34 -    34         16.763084758763         -2.075551312814        -13.094579750446
      0.1612777588D+00  0.1000000000D+01
 Atom C5       Shell    13 S   6     bf   35 -    35          5.051392948541          0.144496359176         -0.899292849872
      0.3047524880D+04  0.1834737132D-02
      0.4573695180D+03  0.1403732281D-01
      0.1039486850D+03  0.6884262226D-01
      0.2921015530D+02  0.2321844432D+00
      0.9286662960D+01  0.4679413484D+00
      0.3163926960D+01  0.3623119853D+00
 Atom C5       Shell    14 SP   3    bf   36 -    39          5.051392948541          0.144496359176         -0.899292849872
      0.7868272350D+01 -0.1193324198D+00  0.6899906659D-01
      0.1881288540D+01 -0.1608541517D+00  0.3164239610D+00
      0.5442492580D+00  0.1143456438D+01  0.7443082909D+00
 Atom C5       Shell    15 SP   1    bf   40 -    43          5.051392948541          0.144496359176         -0.899292849872
      0.1687144782D+00  0.1000000000D+01  0.1000000000D+01
 Atom C5       Shell    16 D   1     bf   44 -    49          5.051392948541          0.144496359176         -0.899292849872
      0.8000000000D+00  0.1000000000D+01
 Atom C6       Shell    17 S   6     bf   50 -    50          7.614463916041          1.566741909027         -0.826938070833
      0.3047524880D+04  0.1834737132D-02
      0.4573695180D+03  0.1403732281D-01
      0.1039486850D+03  0.6884262226D-01
      0.2921015530D+02  0.2321844432D+00
      0.9286662960D+01  0.4679413484D+00
      0.3163926960D+01  0.3623119853D+00
 Atom C6       Shell    18 SP   3    bf   51 -    54          7.614463916041          1.566741909027         -0.826938070833
      0.7868272350D+01 -0.1193324198D+00  0.6899906659D-01
      0.1881288540D+01 -0.1608541517D+00  0.3164239610D+00
      0.5442492580D+00  0.1143456438D+01  0.7443082909D+00
 Atom C6       Shell    19 SP   1    bf   55 -    58          7.614463916041          1.566741909027         -0.826938070833
      0.1687144782D+00  0.1000000000D+01  0.1000000000D+01
 Atom C6       Shell    20 D   1     bf   59 -    64          7.614463916041          1.566741909027         -0.826938070833
      0.8000000000D+00  0.1000000000D+01
 Atom H7       Shell    21 S   3     bf   65 -    65          7.228774913025          3.421439983827         -1.698843989134
      0.1873113696D+02  0.3349460434D-01
      0.2825394365D+01  0.2347269535D+00
      0.6401216923D+00  0.8137573261D+00
 Atom H7       Shell    22 S   1     bf   66 -    66          7.228774913025          3.421439983827         -1.698843989134
      0.1612777588D+00  0.1000000000D+01
 Atom C8       Shell    23 S   6     bf   67 -    67          9.706625449131          0.383282663553         -2.460906760270
      0.3047524880D+04  0.1834737132D-02
      0.4573695180D+03  0.1403732281D-01
      0.1039486850D+03  0.6884262226D-01
      0.2921015530D+02  0.2321844432D+00
      0.9286662960D+01  0.4679413484D+00
      0.3163926960D+01  0.3623119853D+00
 Atom C8       Shell    24 SP   3    bf   68 -    71          9.706625449131          0.383282663553         -2.460906760270
      0.7868272350D+01 -0.1193324198D+00  0.6899906659D-01
      0.1881288540D+01 -0.1608541517D+00  0.3164239610D+00
      0.5442492580D+00  0.1143456438D+01  0.7443082909D+00
 Atom C8       Shell    25 SP   1    bf   72 -    75          9.706625449131          0.383282663553         -2.460906760270
      0.1687144782D+00  0.1000000000D+01  0.1000000000D+01
 Atom C8       Shell    26 D   1     bf   76 -    81          9.706625449131          0.383282663553         -2.460906760270
      0.8000000000D+00  0.1000000000D+01
 Atom H9       Shell    27 S   3     bf   82 -    82         10.174795876690         -1.508643734161         -1.738912154686
      0.1873113696D+02  0.3349460434D-01
      0.2825394365D+01  0.2347269535D+00
      0.6401216923D+00  0.8137573261D+00
 Atom H9       Shell    28 S   1     bf   83 -    83         10.174795876690         -1.508643734161         -1.738912154686
      0.1612777588D+00  0.1000000000D+01
 Atom C10      Shell    29 S   6     bf   84 -    84          8.768494399756          0.168446011191         -5.242029938121
      0.3047524880D+04  0.1834737132D-02
      0.4573695180D+03  0.1403732281D-01
      0.1039486850D+03  0.6884262226D-01
      0.2921015530D+02  0.2321844432D+00
      0.9286662960D+01  0.4679413484D+00
      0.3163926960D+01  0.3623119853D+00
 Atom C10      Shell    30 SP   3    bf   85 -    88          8.768494399756          0.168446011191         -5.242029938121
      0.7868272350D+01 -0.1193324198D+00  0.6899906659D-01
      0.1881288540D+01 -0.1608541517D+00  0.3164239610D+00
      0.5442492580D+00  0.1143456438D+01  0.7443082909D+00
 Atom C10      Shell    31 SP   1    bf   89 -    92          8.768494399756          0.168446011191         -5.242029938121
      0.1687144782D+00  0.1000000000D+01  0.1000000000D+01
 Atom C10      Shell    32 D   1     bf   93 -    98          8.768494399756          0.168446011191         -5.242029938121
      0.8000000000D+00  0.1000000000D+01
 Atom H11      Shell    33 S   3     bf   99 -    99          8.572581842834          2.130817978734         -5.913878827734
      0.1873113696D+02  0.3349460434D-01
      0.2825394365D+01  0.2347269535D+00
      0.6401216923D+00  0.8137573261D+00
 Atom H11      Shell    34 S   1     bf  100 -   100          8.572581842834          2.130817978734         -5.913878827734
      0.1612777588D+00  0.1000000000D+01
 Atom C12      Shell    35 S   6     bf  101 -   101          3.482182112321          1.866522110111          0.909569010507
      0.3047524880D+04  0.1834737132D-02
      0.4573695180D+03  0.1403732281D-01
      0.1039486850D+03  0.6884262226D-01
      0.2921015530D+02  0.2321844432D+00
      0.9286662960D+01  0.4679413484D+00
      0.3163926960D+01  0.3623119853D+00
 Atom C12      Shell    36 SP   3    bf  102 -   105          3.482182112321          1.866522110111          0.909569010507
      0.7868272350D+01 -0.1193324198D+00  0.6899906659D-01
      0.1881288540D+01 -0.1608541517D+00  0.3164239610D+00
      0.5442492580D+00  0.1143456438D+01  0.7443082909D+00
 Atom C12      Shell    37 SP   1    bf  106 -   109          3.482182112321          1.866522110111          0.909569010507
      0.1687144782D+00  0.1000000000D+01  0.1000000000D+01
 Atom C12      Shell    38 D   1     bf  110 -   115          3.482182112321          1.866522110111          0.909569010507
      0.8000000000D+00  0.1000000000D+01
 Atom H13      Shell    39 S   3     bf  116 -   116          3.254539560744          3.634022665345         -0.159923705379
      0.1873113696D+02  0.3349460434D-01
      0.2825394365D+01  0.2347269535D+00
      0.6401216923D+00  0.8137573261D+00
 Atom H13      Shell    40 S   1     bf  117 -   117          3.254539560744          3.634022665345         -0.159923705379
      0.1612777588D+00  0.1000000000D+01
 Atom C14      Shell    41 S   6     bf  118 -   118          4.133114492644          0.130173992534         -3.655598008755
      0.3047524880D+04  0.1834737132D-02
      0.4573695180D+03  0.1403732281D-01
      0.1039486850D+03  0.6884262226D-01
      0.2921015530D+02  0.2321844432D+00
      0.9286662960D+01  0.4679413484D+00
      0.3163926960D+01  0.3623119853D+00
 Atom C14      Shell    42 SP   3    bf  119 -   122          4.133114492644          0.130173992534         -3.655598008755
      0.7868272350D+01 -0.1193324198D+00  0.6899906659D-01
      0.1881288540D+01 -0.1608541517D+00  0.3164239610D+00
      0.5442492580D+00  0.1143456438D+01  0.7443082909D+00
 Atom C14      Shell    43 SP   1    bf  123 -   126          4.133114492644          0.130173992534         -3.655598008755
      0.1687144782D+00  0.1000000000D+01  0.1000000000D+01
 Atom C14      Shell    44 D   1     bf  127 -   132          4.133114492644          0.130173992534         -3.655598008755
      0.8000000000D+00  0.1000000000D+01
 Atom H15      Shell    45 S   3     bf  133 -   133          3.754155239024          2.086794389619         -4.244139720197
      0.1873113696D+02  0.3349460434D-01
      0.2825394365D+01  0.2347269535D+00
      0.6401216923D+00  0.8137573261D+00
 Atom H15      Shell    46 S   1     bf  134 -   134          3.754155239024          2.086794389619         -4.244139720197
      0.1612777588D+00  0.1000000000D+01
 Atom H16      Shell    47 S   3     bf  135 -   135          2.343882937258         -0.903494637031         -3.849410097286
      0.1873113696D+02  0.3349460434D-01
      0.2825394365D+01  0.2347269535D+00
      0.6401216923D+00  0.8137573261D+00
 Atom H16      Shell    48 S   1     bf  136 -   136          2.343882937258         -0.903494637031         -3.849410097286
      0.1612777588D+00  0.1000000000D+01
 Atom C17      Shell    49 S   6     bf  137 -   137         10.756284223136         -1.091673319679         -7.046147168611
      0.3047524880D+04  0.1834737132D-02
      0.4573695180D+03  0.1403732281D-01
      0.1039486850D+03  0.6884262226D-01
      0.2921015530D+02  0.2321844432D+00
      0.9286662960D+01  0.4679413484D+00
      0.3163926960D+01  0.3623119853D+00
 Atom C17      Shell    50 SP   3    bf  138 -   141         10.756284223136         -1.091673319679         -7.046147168611
      0.7868272350D+01 -0.1193324198D+00  0.6899906659D-01
      0.1881288540D+01 -0.1608541517D+00  0.3164239610D+00
      0.5442492580D+00  0.1143456438D+01  0.7443082909D+00
 Atom C17      Shell    51 SP   1    bf  142 -   145         10.756284223136         -1.091673319679         -7.046147168611
      0.1687144782D+00  0.1000000000D+01  0.1000000000D+01
 Atom C17      Shell    52 D   1     bf  146 -   151         10.756284223136         -1.091673319679         -7.046147168611
      0.8000000000D+00  0.1000000000D+01
 Atom C18      Shell    53 S   6     bf  152 -   152          8.061205170507          2.073337460854          2.008031889414
      0.3047524880D+04  0.1834737132D-02
      0.4573695180D+03  0.1403732281D-01
      0.1039486850D+03  0.6884262226D-01
      0.2921015530D+02  0.2321844432D+00
      0.9286662960D+01  0.4679413484D+00
      0.3163926960D+01  0.3623119853D+00
 Atom C18      Shell    54 SP   3    bf  153 -   156          8.061205170507          2.073337460854          2.008031889414
      0.7868272350D+01 -0.1193324198D+00  0.6899906659D-01
      0.1881288540D+01 -0.1608541517D+00  0.3164239610D+00
      0.5442492580D+00  0.1143456438D+01  0.7443082909D+00
 Atom C18      Shell    55 SP   1    bf  157 -   160          8.061205170507          2.073337460854          2.008031889414
      0.1687144782D+00  0.1000000000D+01  0.1000000000D+01
 Atom C18      Shell    56 D   1     bf  161 -   166          8.061205170507          2.073337460854          2.008031889414
      0.8000000000D+00  0.1000000000D+01
 Atom H19      Shell    57 S   3     bf  167 -   167          9.293702487876          3.699284130577          2.324263932827
      0.1873113696D+02  0.3349460434D-01
      0.2825394365D+01  0.2347269535D+00
      0.6401216923D+00  0.8137573261D+00
 Atom H19      Shell    58 S   1     bf  168 -   168          9.293702487876          3.699284130577          2.324263932827
      0.1612777588D+00  0.1000000000D+01
 Atom H20      Shell    59 S   3     bf  169 -   169          9.002096221591          0.461077435005          2.900888785612
      0.1873113696D+02  0.3349460434D-01
      0.2825394365D+01  0.2347269535D+00
      0.6401216923D+00  0.8137573261D+00
 Atom H20      Shell    60 S   1     bf  170 -   170          9.002096221591          0.461077435005          2.900888785612
      0.1612777588D+00  0.1000000000D+01
 Atom C21      Shell    61 S   6     bf  171 -   171          6.112636650809         -1.048244937604         -5.437309984809
      0.3047524880D+04  0.1834737132D-02
      0.4573695180D+03  0.1403732281D-01
      0.1039486850D+03  0.6884262226D-01
      0.2921015530D+02  0.2321844432D+00
      0.9286662960D+01  0.4679413484D+00
      0.3163926960D+01  0.3623119853D+00
 Atom C21      Shell    62 SP   3    bf  172 -   175          6.112636650809         -1.048244937604         -5.437309984809
      0.7868272350D+01 -0.1193324198D+00  0.6899906659D-01
      0.1881288540D+01 -0.1608541517D+00  0.3164239610D+00
      0.5442492580D+00  0.1143456438D+01  0.7443082909D+00
 Atom C21      Shell    63 SP   1    bf  176 -   179          6.112636650809         -1.048244937604         -5.437309984809
      0.1687144782D+00  0.1000000000D+01  0.1000000000D+01
 Atom C21      Shell    64 D   1     bf  180 -   185          6.112636650809         -1.048244937604         -5.437309984809
      0.8000000000D+00  0.1000000000D+01
 Atom H22      Shell    65 S   3     bf  186 -   186          6.239342958094         -3.075518623216         -5.043189080480
      0.1873113696D+02  0.3349460434D-01
      0.2825394365D+01  0.2347269535D+00
      0.6401216923D+00  0.8137573261D+00
 Atom H22      Shell    66 S   1     bf  187 -   187          6.239342958094         -3.075518623216         -5.043189080480
      0.1612777588D+00  0.1000000000D+01
 Atom H23      Shell    67 S   3     bf  188 -   188          5.425459209874         -0.889331215254         -7.383657773945
      0.1873113696D+02  0.3349460434D-01
      0.2825394365D+01  0.2347269535D+00
      0.6401216923D+00  0.8137573261D+00
 Atom H23      Shell    68 S   1     bf  189 -   189          5.425459209874         -0.889331215254         -7.383657773945
      0.1612777588D+00  0.1000000000D+01
 Atom C24      Shell    69 S   6     bf  190 -   190          5.353620685117          2.461859919234          3.108406585353
      0.3047524880D+04  0.1834737132D-02
      0.4573695180D+03  0.1403732281D-01
      0.1039486850D+03  0.6884262226D-01
      0.2921015530D+02  0.2321844432D+00
      0.9286662960D+01  0.4679413484D+00
      0.3163926960D+01  0.3623119853D+00
 Atom C24      Shell    70 SP   3    bf  191 -   194          5.353620685117          2.461859919234          3.108406585353
      0.7868272350D+01 -0.1193324198D+00  0.6899906659D-01
      0.1881288540D+01 -0.1608541517D+00  0.3164239610D+00
      0.5442492580D+00  0.1143456438D+01  0.7443082909D+00
 Atom C24      Shell    71 SP   1    bf  195 -   198          5.353620685117          2.461859919234          3.108406585353
      0.1687144782D+00  0.1000000000D+01  0.1000000000D+01
 Atom C24      Shell    72 D   1     bf  199 -   204          5.353620685117          2.461859919234          3.108406585353
      0.8000000000D+00  0.1000000000D+01
 Atom H25      Shell    73 S   3     bf  205 -   205          5.048863965852          1.207183642134          4.722033525703
      0.1873113696D+02  0.3349460434D-01
      0.2825394365D+01  0.2347269535D+00
      0.6401216923D+00  0.8137573261D+00
 Atom H25      Shell    74 S   1     bf  206 -   206          5.048863965852          1.207183642134          4.722033525703
      0.1612777588D+00  0.1000000000D+01
 Atom H26      Shell    75 S   3     bf  207 -   207          5.082137451017          4.389478935023          3.810770300129
      0.1873113696D+02  0.3349460434D-01
      0.2825394365D+01  0.2347269535D+00
      0.6401216923D+00  0.8137573261D+00
 Atom H26      Shell    76 S   1     bf  208 -   208          5.082137451017          4.389478935023          3.810770300129
      0.1612777588D+00  0.1000000000D+01
 Atom C27      Shell    77 S   6     bf  209 -   209         12.150232862696          1.962603043255         -2.360003680672
      0.3047524880D+04  0.1834737132D-02
      0.4573695180D+03  0.1403732281D-01
      0.1039486850D+03  0.6884262226D-01
      0.2921015530D+02  0.2321844432D+00
      0.9286662960D+01  0.4679413484D+00
      0.3163926960D+01  0.3623119853D+00
 Atom C27      Shell    78 SP   3    bf  210 -   213         12.150232862696          1.962603043255         -2.360003680672
      0.7868272350D+01 -0.1193324198D+00  0.6899906659D-01
      0.1881288540D+01 -0.1608541517D+00  0.3164239610D+00
      0.5442492580D+00  0.1143456438D+01  0.7443082909D+00
 Atom C27      Shell    79 SP   1    bf  214 -   217         12.150232862696          1.962603043255         -2.360003680672
      0.1687144782D+00  0.1000000000D+01  0.1000000000D+01
 Atom C27      Shell    80 D   1     bf  218 -   223         12.150232862696          1.962603043255         -2.360003680672
      0.8000000000D+00  0.1000000000D+01
 Atom H28      Shell    81 S   3     bf  224 -   224         11.647416082833          3.978279517384         -2.366571556127
      0.1873113696D+02  0.3349460434D-01
      0.2825394365D+01  0.2347269535D+00
      0.6401216923D+00  0.8137573261D+00
 Atom H28      Shell    82 S   1     bf  225 -   225         11.647416082833          3.978279517384         -2.366571556127
      0.1612777588D+00  0.1000000000D+01
 Atom C29      Shell    83 S   6     bf  226 -   226          0.746619834692          1.050711937276          1.629035805032
      0.3047524880D+04  0.1834737132D-02
      0.4573695180D+03  0.1403732281D-01
      0.1039486850D+03  0.6884262226D-01
      0.2921015530D+02  0.2321844432D+00
      0.9286662960D+01  0.4679413484D+00
      0.3163926960D+01  0.3623119853D+00
 Atom C29      Shell    84 SP   3    bf  227 -   230          0.746619834692          1.050711937276          1.629035805032
      0.7868272350D+01 -0.1193324198D+00  0.6899906659D-01
      0.1881288540D+01 -0.1608541517D+00  0.3164239610D+00
      0.5442492580D+00  0.1143456438D+01  0.7443082909D+00
 Atom C29      Shell    85 SP   1    bf  231 -   234          0.746619834692          1.050711937276          1.629035805032
      0.1687144782D+00  0.1000000000D+01  0.1000000000D+01
 Atom C29      Shell    86 D   1     bf  235 -   240          0.746619834692          1.050711937276          1.629035805032
      0.8000000000D+00  0.1000000000D+01
 Atom H30      Shell    87 S   3     bf  241 -   241          0.000000000000          0.000000000000          0.000000000000
      0.1873113696D+02  0.3349460434D-01
      0.2825394365D+01  0.2347269535D+00
      0.6401216923D+00  0.8137573261D+00
 Atom H30      Shell    88 S   1     bf  242 -   242          0.000000000000          0.000000000000          0.000000000000
      0.1612777588D+00  0.1000000000D+01
 Atom C31      Shell    89 S   6     bf  243 -   243          5.260974612678         -2.587719723698          0.106913107900
      0.3047524880D+04  0.1834737132D-02
      0.4573695180D+03  0.1403732281D-01
      0.1039486850D+03  0.6884262226D-01
      0.2921015530D+02  0.2321844432D+00
      0.9286662960D+01  0.4679413484D+00
      0.3163926960D+01  0.3623119853D+00
 Atom C31      Shell    90 SP   3    bf  244 -   247          5.260974612678         -2.587719723698          0.106913107900
      0.7868272350D+01 -0.1193324198D+00  0.6899906659D-01
      0.1881288540D+01 -0.1608541517D+00  0.3164239610D+00
      0.5442492580D+00  0.1143456438D+01  0.7443082909D+00
 Atom C31      Shell    91 SP   1    bf  248 -   251          5.260974612678         -2.587719723698          0.106913107900
      0.1687144782D+00  0.1000000000D+01  0.1000000000D+01
 Atom C31      Shell    92 D   1     bf  252 -   257          5.260974612678         -2.587719723698          0.106913107900
      0.8000000000D+00  0.1000000000D+01
 Atom H32      Shell    93 S   3     bf  258 -   258          6.586066960983         -3.725247531451         -0.996428476965
      0.1873113696D+02  0.3349460434D-01
      0.2825394365D+01  0.2347269535D+00
      0.6401216923D+00  0.8137573261D+00
 Atom H32      Shell    94 S   1     bf  259 -   259          6.586066960983         -3.725247531451         -0.996428476965
      0.1612777588D+00  0.1000000000D+01
 Atom H33      Shell    95 S   3     bf  260 -   260          5.901616451550         -2.648378571961          2.070430589630
      0.1873113696D+02  0.3349460434D-01
      0.2825394365D+01  0.2347269535D+00
      0.6401216923D+00  0.8137573261D+00
 Atom H33      Shell    96 S   1     bf  261 -   261          5.901616451550         -2.648378571961          2.070430589630
      0.1612777588D+00  0.1000000000D+01
 Atom H34      Shell    97 S   3     bf  262 -   262          3.423591399235         -3.534602605021          0.015428158786
      0.1873113696D+02  0.3349460434D-01
      0.2825394365D+01  0.2347269535D+00
      0.6401216923D+00  0.8137573261D+00
 Atom H34      Shell    98 S   1     bf  263 -   263          3.423591399235         -3.534602605021          0.015428158786
      0.1612777588D+00  0.1000000000D+01
 Atom C35      Shell    99 S   6     bf  264 -   264         13.378262451747          0.045067379345         -6.572022346288
      0.3047524880D+04  0.1834737132D-02
      0.4573695180D+03  0.1403732281D-01
      0.1039486850D+03  0.6884262226D-01
      0.2921015530D+02  0.2321844432D+00
      0.9286662960D+01  0.4679413484D+00
      0.3163926960D+01  0.3623119853D+00
 Atom C35      Shell   100 SP   3    bf  265 -   268         13.378262451747          0.045067379345         -6.572022346288
      0.7868272350D+01 -0.1193324198D+00  0.6899906659D-01
      0.1881288540D+01 -0.1608541517D+00  0.3164239610D+00
      0.5442492580D+00  0.1143456438D+01  0.7443082909D+00
 Atom C35      Shell   101 SP   1    bf  269 -   272         13.378262451747          0.045067379345         -6.572022346288
      0.1687144782D+00  0.1000000000D+01  0.1000000000D+01
 Atom C35      Shell   102 D   1     bf  273 -   278         13.378262451747          0.045067379345         -6.572022346288
      0.8000000000D+00  0.1000000000D+01
 Atom C36      Shell   103 S   6     bf  279 -   279          9.995986512901         -0.516947528275         -9.837801072105
      0.3047524880D+04  0.1834737132D-02
      0.4573695180D+03  0.1403732281D-01
      0.1039486850D+03  0.6884262226D-01
      0.2921015530D+02  0.2321844432D+00
      0.9286662960D+01  0.4679413484D+00
      0.3163926960D+01  0.3623119853D+00
 Atom C36      Shell   104 SP   3    bf  280 -   283          9.995986512901         -0.516947528275         -9.837801072105
      0.7868272350D+01 -0.1193324198D+00  0.6899906659D-01
      0.1881288540D+01 -0.1608541517D+00  0.3164239610D+00
      0.5442492580D+00  0.1143456438D+01  0.7443082909D+00
 Atom C36      Shell   105 SP   1    bf  284 -   287          9.995986512901         -0.516947528275         -9.837801072105
      0.1687144782D+00  0.1000000000D+01  0.1000000000D+01
 Atom C36      Shell   106 D   1     bf  288 -   293          9.995986512901         -0.516947528275         -9.837801072105
      0.8000000000D+00  0.1000000000D+01
 Atom H37      Shell   107 S   3     bf  294 -   294          9.545569230881          1.504717015537         -9.984562305845
      0.1873113696D+02  0.3349460434D-01
      0.2825394365D+01  0.2347269535D+00
      0.6401216923D+00  0.8137573261D+00
 Atom H37      Shell   108 S   1     bf  295 -   295          9.545569230881          1.504717015537         -9.984562305845
      0.1612777588D+00  0.1000000000D+01
 Atom H38      Shell   109 S   3     bf  296 -   296          8.258739603780         -1.540308419880        -10.303380779622
      0.1873113696D+02  0.3349460434D-01
      0.2825394365D+01  0.2347269535D+00
      0.6401216923D+00  0.8137573261D+00
 Atom H38      Shell   110 S   1     bf  297 -   297          8.258739603780         -1.540308419880        -10.303380779622
      0.1612777588D+00  0.1000000000D+01
 Atom C39      Shell   111 S   6     bf  298 -   298         13.915465935543          1.433550099448         -4.521099550706
      0.3047524880D+04  0.1834737132D-02
[...]
 **** Fit       0.004059
 **** Fit       0.003531
 **** Fit       0.002882
 **** Fit       0.002111
 **** Fit       0.001251
 **** Fit       0.000353
 **** Fit      -0.025434
 **** Fit      -0.028234
 **** Fit      -0.030625
 **** Fit      -0.032197
 **** Fit      -0.032525
 **** Fit      -0.031320
 **** Fit      -0.028568
 **** Fit      -0.024569
 **** Fit      -0.019817
 **** Fit      -0.014815
 **** Fit      -0.009939
 **** Fit      -0.005452
 **** Fit      -0.001595
 **** Fit       0.001376
 **** Fit       0.003300
 **** Fit       0.004258
 **** Fit       0.004544
 **** Fit       0.004474
 **** Fit       0.004232
 **** Fit       0.003862
 **** Fit       0.003332
 **** Fit       0.002610
 **** Fit       0.001708
 **** Fit       0.000677
 **** Fit      -0.000408
 **** Fit      -0.001475
 **** Fit      -0.025724
 **** Fit      -0.027503
 **** Fit      -0.028536
 **** Fit      -0.028535
 **** Fit      -0.027325
 **** Fit      -0.024931
 **** Fit      -0.021583
 **** Fit      -0.017639
 **** Fit      -0.013471
 **** Fit      -0.009382
 **** Fit      -0.005602
 **** Fit      -0.002331
 **** Fit       0.000248
 **** Fit       0.002036
 **** Fit       0.003086
 **** Fit       0.003585
 **** Fit       0.003735
 **** Fit       0.003661
 **** Fit       0.003390
 **** Fit       0.002893
 **** Fit       0.002149
 **** Fit       0.001177
 **** Fit       0.000045
 **** Fit      -0.001157
 **** Fit      -0.002341
 **** Fit      -0.024727
 **** Fit      -0.024508
 **** Fit      -0.023370
 **** Fit      -0.021351
 **** Fit      -0.015439
 **** Fit      -0.012069
 **** Fit      -0.008747
 **** Fit      -0.005661
 **** Fit      -0.002968
 **** Fit      -0.000789
 **** Fit       0.000815
 **** Fit       0.001875
 **** Fit       0.002499
 **** Fit       0.002802
 **** Fit       0.002858
 **** Fit       0.002673
 **** Fit       0.002224
 **** Fit       0.001496
 **** Fit       0.000518
 **** Fit      -0.000638
 **** Fit      -0.001877
 **** Fit      -0.010741
 **** Fit      -0.008093
 **** Fit      -0.005619
 **** Fit      -0.003436
 **** Fit      -0.001628
 **** Fit      -0.000232
 **** Fit       0.000766
 **** Fit       0.001422
 **** Fit       0.001796
 **** Fit       0.001921
 **** Fit       0.001793
 **** Fit       0.001392
 **** Fit       0.000710
 **** Fit      -0.000223
 **** Fit      -0.001337
 **** Fit      -0.002541
 **** Fit      -0.007458
 **** Fit      -0.005494
 **** Fit      -0.003741
 **** Fit      -0.002259
 **** Fit      -0.001075
 **** Fit      -0.000185
 **** Fit       0.000435
 **** Fit       0.000812
 **** Fit       0.000956
 **** Fit       0.000856
 **** Fit       0.000496
 **** Fit      -0.000125
 **** Fit      -0.000979
 **** Fit      -0.002005
 **** Fit      -0.002711
 **** Fit      -0.001728
 **** Fit       0.000048
 **** Fit      -0.000043
 **** Fit      -0.000367
 **** Fit      -0.000922
 **** Fit      -0.001682
 **** Fit       0.009600
 **** Fit       0.010366
 **** Fit       0.010803
 **** Fit       0.010901
 **** Fit       0.006979
 **** Fit       0.008333
 **** Fit       0.009507
 **** Fit       0.010369
 **** Fit       0.010835
 **** Fit       0.010897
 **** Fit       0.010620
 **** Fit       0.010111
 **** Fit       0.004582
 **** Fit       0.006071
 **** Fit       0.007544
 **** Fit       0.008833
 **** Fit       0.009773
 **** Fit       0.010262
 **** Fit       0.010295
 **** Fit       0.009961
 **** Fit       0.009397
 **** Fit       0.008737
 **** Fit       0.007457
 **** Fit       0.006906
 **** Fit       0.006421
 **** Fit       0.005996
 **** Fit       0.002978
 **** Fit       0.004458
 **** Fit       0.005959
 **** Fit       0.007292
 **** Fit       0.008267
 **** Fit       0.008768
 **** Fit       0.008800
 **** Fit       0.008475
 **** Fit       0.007953
 **** Fit       0.007374
 **** Fit       0.006824
 **** Fit       0.006340
 **** Fit       0.005927
 **** Fit       0.005575
 **** Fit       0.005273
 **** Fit       0.005013
 **** Fit      -0.000461
 **** Fit       0.000661
 **** Fit       0.001975
 **** Fit       0.003351
 **** Fit       0.004600
 **** Fit       0.005530
 **** Fit       0.006031
 **** Fit       0.006122
 **** Fit       0.005931
 **** Fit       0.005615
 **** Fit       0.005295
 **** Fit       0.005026
 **** Fit       0.004818
 **** Fit       0.004657
 **** Fit       0.004527
 **** Fit       0.004414
 **** Fit       0.004311
 **** Fit      -0.003134
 **** Fit      -0.002391
 **** Fit      -0.001446
 **** Fit      -0.000400
 **** Fit       0.000588
 **** Fit       0.001364
 **** Fit       0.001854
 **** Fit       0.002099
 **** Fit       0.002221
 **** Fit       0.002339
 **** Fit       0.002509
 **** Fit       0.002727
 **** Fit       0.002964
 **** Fit       0.003186
 **** Fit       0.003373
 **** Fit       0.003514
 **** Fit       0.003608
 **** Fit       0.003660
 **** Fit       0.003681
 **** Fit      -0.006252
 **** Fit      -0.006061
 **** Fit      -0.005689
 **** Fit      -0.005188
 **** Fit      -0.004647
 **** Fit      -0.004138
 **** Fit      -0.003664
 **** Fit      -0.003151
 **** Fit      -0.002513
 **** Fit      -0.001720
 **** Fit      -0.000824
 **** Fit       0.000089
 **** Fit       0.000937
 **** Fit       0.001668
 **** Fit       0.002259
 **** Fit       0.002705
 **** Fit       0.003015
 **** Fit       0.003210
 **** Fit       0.003320
 **** Fit       0.003373
 **** Fit      -0.009590
 **** Fit      -0.010070
 **** Fit      -0.010414
 **** Fit      -0.010611
 **** Fit      -0.010649
 **** Fit      -0.010480
 **** Fit      -0.010008
 **** Fit      -0.009128
 **** Fit      -0.007815
 **** Fit      -0.006169
 **** Fit      -0.004375
 **** Fit      -0.002620
 **** Fit      -0.001039
 **** Fit       0.000294
 **** Fit       0.001348
 **** Fit       0.002122
 **** Fit       0.002639
 **** Fit       0.002949
 **** Fit       0.003110
 **** Fit       0.003175
 **** Fit       0.003190
 **** Fit      -0.012834
 **** Fit      -0.014003
 **** Fit      -0.015092
 **** Fit      -0.016015
 **** Fit      -0.016647
 **** Fit      -0.016810
 **** Fit      -0.016305
 **** Fit      -0.015008
 **** Fit      -0.012973
 **** Fit      -0.010435
 **** Fit      -0.007713
 **** Fit      -0.005087
 **** Fit      -0.002741
 **** Fit      -0.000776
 **** Fit       0.000757
 **** Fit       0.001847
 **** Fit       0.002535
 **** Fit       0.002910
 **** Fit       0.003072
 **** Fit       0.003107
 **** Fit       0.003074
 **** Fit      -0.017410
 **** Fit      -0.019130
 **** Fit      -0.020656
 **** Fit      -0.021760
 **** Fit      -0.022156
 **** Fit      -0.021571
 **** Fit      -0.019884
 **** Fit      -0.017221
 **** Fit      -0.013928
 **** Fit      -0.010421
 **** Fit      -0.007044
 **** Fit      -0.004020
 **** Fit      -0.001481
 **** Fit       0.000485
 **** Fit       0.001845
 **** Fit       0.002654
 **** Fit       0.003044
 **** Fit       0.003167
 **** Fit       0.003141
 **** Fit       0.003036
 **** Fit      -0.019915
 **** Fit      -0.022041
 **** Fit      -0.023929
 **** Fit      -0.025283
 **** Fit      -0.025757
 **** Fit      -0.025055
 **** Fit      -0.023078
 **** Fit      -0.020005
 **** Fit      -0.016237
 **** Fit      -0.012231
 **** Fit      -0.008356
 **** Fit      -0.004856
 **** Fit      -0.001900
 **** Fit       0.000387
 **** Fit       0.001943
 **** Fit       0.002831
 **** Fit       0.003218
 **** Fit       0.003296
 **** Fit       0.003208
 **** Fit       0.003030
 **** Fit      -0.021323
 **** Fit      -0.023585
 **** Fit      -0.025554
 **** Fit      -0.026915
 **** Fit      -0.027317
 **** Fit      -0.026491
 **** Fit      -0.024372
 **** Fit      -0.021160
 **** Fit      -0.017255
 **** Fit      -0.013095
 **** Fit      -0.009041
 **** Fit      -0.005345
 **** Fit      -0.002196
 **** Fit       0.000251
 **** Fit       0.001917
 **** Fit       0.002862
 **** Fit       0.003266
 **** Fit       0.003334
 **** Fit       0.003217
 **** Fit       0.002991
 **** Fit       0.002684
 **** Fit       0.002305
 **** Fit      -0.023806
 **** Fit      -0.025624
 **** Fit      -0.026804
 **** Fit      -0.027041
 **** Fit      -0.026119
 **** Fit      -0.024007
 **** Fit      -0.020903
 **** Fit      -0.017157
 **** Fit      -0.013156
 **** Fit      -0.009227
 **** Fit      -0.005614
 **** Fit      -0.002509
 **** Fit      -0.000070
 **** Fit       0.001622
 **** Fit       0.002615
 **** Fit       0.003073
 **** Fit       0.003184
 **** Fit       0.003088
 **** Fit       0.002853
 **** Fit       0.002502
 **** Fit       0.002042
 **** Fit       0.001485
 **** Fit      -0.024493
 **** Fit      -0.025400
 **** Fit      -0.025447
 **** Fit      -0.024477
 **** Fit      -0.022493
 **** Fit      -0.019663
 **** Fit      -0.016277
 **** Fit      -0.012653
 **** Fit      -0.009071
 **** Fit      -0.005751
 **** Fit      -0.002873
 **** Fit      -0.000577
 **** Fit       0.001064
 **** Fit       0.002089
 **** Fit       0.002621
 **** Fit       0.002813
 **** Fit       0.002776
 **** Fit       0.002567
 **** Fit       0.002203
 **** Fit       0.001692
 **** Fit       0.001052
 **** Fit       0.000318
 **** Fit      -0.023113
 **** Fit      -0.022152
 **** Fit      -0.014964
 **** Fit      -0.011825
 **** Fit      -0.008705
 **** Fit      -0.005796
 **** Fit      -0.003248
 **** Fit      -0.001179
 **** Fit       0.000356
 **** Fit       0.001379
 **** Fit       0.001975
 **** Fit       0.002250
 **** Fit       0.002285
 **** Fit       0.002120
 **** Fit       0.001767
 **** Fit       0.001235
 **** Fit       0.000549
 **** Fit      -0.010855
 **** Fit      -0.008227
 **** Fit      -0.005759
 **** Fit      -0.003577
 **** Fit      -0.001769
 **** Fit      -0.000379
 **** Fit       0.000601
 **** Fit       0.001226
 **** Fit       0.001559
 **** Fit       0.001653
 **** Fit       0.001532
 **** Fit       0.001203
 **** Fit       0.000678
 **** Fit      -0.000018
 **** Fit      -0.007700
 **** Fit      -0.005654
 **** Fit      -0.003824
 **** Fit      -0.002281
 **** Fit      -0.001058
 **** Fit      -0.000154
 **** Fit       0.000458
 **** Fit       0.000813
 **** Fit       0.000852
 **** Fit       0.000552
 **** Fit       0.000052
 **** Fit      -0.003984
 **** Fit      -0.002688
 **** Fit      -0.001637
 **** Fit       0.005140
 **** Fit       0.006033
 **** Fit       0.006719
 **** Fit       0.007144
 **** Fit       0.007301
 **** Fit       0.007231
 **** Fit       0.002618
 **** Fit       0.003604
 **** Fit       0.004492
 **** Fit       0.005186
 **** Fit       0.005628
 **** Fit       0.005817
 **** Fit       0.005801
 **** Fit       0.005654
 **** Fit       0.000503
 **** Fit       0.001371
 **** Fit       0.002178
 **** Fit       0.002835
 **** Fit       0.003291
 **** Fit       0.003551
 **** Fit       0.003665
 **** Fit       0.003699
 **** Fit      -0.002788
 **** Fit      -0.002217
 **** Fit      -0.001580
 **** Fit      -0.000946
 **** Fit      -0.000380
 **** Fit       0.000087
 **** Fit       0.000470
 **** Fit       0.000811
 **** Fit       0.001150
 **** Fit       0.001505
 **** Fit       0.002794
 **** Fit       0.003000
 **** Fit      -0.005629
 **** Fit      -0.005430
 **** Fit      -0.005131
 **** Fit      -0.004759
 **** Fit      -0.004336
 **** Fit      -0.003855
 **** Fit      -0.003293
 **** Fit      -0.002625
 **** Fit      -0.001858
 **** Fit      -0.001031
 **** Fit       0.000577
 **** Fit       0.001262
 **** Fit       0.001829
 **** Fit       0.002271
 **** Fit       0.002591
 **** Fit       0.002807
 **** Fit      -0.008898
 **** Fit      -0.009007
 **** Fit      -0.008954
 **** Fit      -0.008701
 **** Fit      -0.008198
 **** Fit      -0.007410
 **** Fit      -0.006344
 **** Fit      -0.005066
 **** Fit      -0.003683
 **** Fit      -0.002309
 **** Fit      -0.001039
 **** Fit       0.000064
 **** Fit       0.000966
 **** Fit       0.001658
 **** Fit       0.002151
 **** Fit       0.002475
 **** Fit       0.002666
 **** Fit      -0.012284
 **** Fit      -0.012806
 **** Fit      -0.013073
 **** Fit      -0.012983
 **** Fit      -0.012443
 **** Fit      -0.011410
 **** Fit      -0.009928
 **** Fit      -0.008126
 **** Fit      -0.006179
 **** Fit      -0.004256
 **** Fit      -0.002488
 **** Fit      -0.000962
 **** Fit       0.000274
 **** Fit       0.001207
 **** Fit       0.001855
 **** Fit       0.002263
 **** Fit       0.002490
 **** Fit       0.002591
 **** Fit      -0.016094
 **** Fit      -0.016618
 **** Fit      -0.016644
 **** Fit      -0.016048
 **** Fit      -0.014790
 **** Fit      -0.012944
 **** Fit      -0.010693
 **** Fit      -0.008263
 **** Fit      -0.005865
 **** Fit      -0.003661
 **** Fit      -0.001761
 **** Fit      -0.000231
 **** Fit       0.000908
 **** Fit       0.001679
 **** Fit       0.002146
 **** Fit       0.002387
 **** Fit       0.002474
 **** Fit      -0.018516
 **** Fit      -0.019187
 **** Fit      -0.019261
 **** Fit      -0.018599
 **** Fit      -0.017169
 **** Fit      -0.015071
 **** Fit      -0.012517
 **** Fit      -0.009760
 **** Fit      -0.007034
 **** Fit      -0.004520
 **** Fit      -0.002347
 **** Fit      -0.000599
 **** Fit       0.000693
 **** Fit       0.001554
 **** Fit       0.002060
 **** Fit       0.002305
 **** Fit       0.002372
 **** Fit      -0.019889
 **** Fit      -0.020589
 **** Fit      -0.020641
 **** Fit      -0.019915
 **** Fit      -0.018393
 **** Fit      -0.016185
 **** Fit      -0.013509
 **** Fit      -0.010619
 **** Fit      -0.007750
 **** Fit      -0.005090
 **** Fit      -0.002779
 **** Fit      -0.000913
 **** Fit       0.000468
 **** Fit       0.001387
 **** Fit       0.001924
 **** Fit       0.002177
 **** Fit       0.002234
 **** Fit      -0.020847
 **** Fit      -0.020076
 **** Fit      -0.013739
 **** Fit      -0.010900
 **** Fit      -0.008071
 **** Fit      -0.005431
 **** Fit      -0.003123
 **** Fit      -0.001243
 **** Fit       0.000162
 **** Fit       0.001112
 **** Fit       0.001677
 **** Fit       0.001952
 **** Fit       0.002016
 **** Fit      -0.010735
 **** Fit      -0.008089
 **** Fit      -0.005606
 **** Fit      -0.003416
 **** Fit      -0.001613
 **** Fit      -0.000241
 **** Fit       0.000711
 **** Fit       0.001302
 **** Fit       0.001606
 **** Fit       0.001692
 **** Fit      -0.007899
 **** Fit      -0.005659
 **** Fit      -0.003667
 **** Fit      -0.002003
 **** Fit      -0.000710
 **** Fit       0.000217
 **** Fit       0.000818
 **** Fit       0.001150
 **** Fit      -0.005622
 **** Fit      -0.003866
 **** Fit      -0.002379
 **** Fit      -0.001197
 **** Fit      -0.000322
 **** Fit       0.000270
 **** Fit      -0.002709
 **** Fit      -0.001656
 **** Fit       0.001261
 **** Fit       0.001669
 **** Fit      -0.001667
 **** Fit      -0.001222
 **** Fit      -0.000796
 **** Fit      -0.000386
 **** Fit      -0.004495
 **** Fit      -0.004126
 **** Fit      -0.003679
 **** Fit      -0.003146
 **** Fit      -0.007513
 **** Fit      -0.007233
 **** Fit      -0.006759
 **** Fit      -0.006083
 **** Fit      -0.000122
 **** Fit       0.000640
 **** Fit       0.001246
 **** Fit      -0.002245
 **** Fit      -0.001050
 **** Fit      -0.000052
 **** Fit       0.000735
 **** Fit       0.001316
 **** Fit       0.001714
 **** Fit      -0.004914
 **** Fit      -0.003277
 **** Fit      -0.001829
 **** Fit      -0.000624
 **** Fit       0.000319
 **** Fit       0.001006
 **** Fit       0.001469
 **** Fit      -0.005929
 **** Fit      -0.004082
 **** Fit      -0.002449
 **** Fit      -0.001089
 **** Fit      -0.000029
 **** Fit       0.000738
 **** Fit       0.001248
 **** Fit       0.001550
 **** Fit      -0.006616
 **** Fit      -0.004662
 **** Fit      -0.002926
 **** Fit      -0.001477
 **** Fit      -0.000347
 **** Fit       0.000472
 **** Fit       0.001014
 **** Fit       0.001331
 **** Fit      -0.007001
 **** Fit      -0.005041
 **** Fit      -0.003292
 **** Fit      -0.001824
 **** Fit      -0.000670
 **** Fit       0.000172
 **** Fit       0.000734
 **** Fit      -0.005257
 **** Fit      -0.003573
 **** Fit      -0.002147
 **** Fit      -0.001014
 **** Fit      -0.000175
 **** Fit       0.000394
 **** Fit      -0.003785
 **** Fit      -0.002448
 **** Fit      -0.001372
 -----------------------------------------------------------------
 Leave Link  602 at Wed May 17 12:03:17 2017, MaxMem=    33554432 cpu:        37.5
 (Enter /home/michal/g09/l9999.exe)

 Test job not archived.
 1\1\GINC-LINUX\SP\RHF\6-31G(d)\C27H46O2\MICHAL\17-May-2017\0\\#P HF/6-
 31G* SCF(Conver=6) NoSymm Test Pop=chelpg IOp(6/33=2) GFInput GFPrint\
 \MEP - Input generated by R.E.D.-III.x MOLECULE\\0,1\O,0,7.13055467,0.
 87672111,0.\H,0,7.54003814,0.,0.\O,0,8.68881471,-0.14806073,-6.9202573
 1\H,0,8.8706424,-1.09833445,-6.92935316\C,0,2.67308202,0.07646418,-0.4
 7588528\C,0,4.02940076,0.82908411,-0.43759678\H,0,3.82530293,1.8105480
 6,-0.89898952\C,0,5.13652496,0.20282445,-1.30225577\H,0,5.38427008,-0.
 79833988,-0.92019268\C,0,4.64008739,0.08913779,-2.77396277\H,0,4.53641
 493,1.12758031,-3.12948989\C,0,1.84269141,0.98772096,0.48132319\H,0,1.
 72222816,1.92304197,-0.08462798\C,0,2.18714999,0.06888511,-1.93445915\
 H,0,1.98661339,1.10428403,-2.24590201\H,0,1.24032943,-0.47810877,-2.03
 702009\C,0,5.69198046,-0.57768864,-3.72866049\C,0,4.26580605,1.0971629
 3,1.06260471\H,0,4.91801554,1.95757685,1.2299475\H,0,4.76370415,0.2439
 9167,1.53508423\C,0,3.234668,-0.55470733,-2.87730052\H,0,3.30171809,-1
 .62749436,-2.66874072\H,0,2.87102936,-0.47061381,-3.90726341\C,0,2.833
 01405,1.30276016,1.64489792\H,0,2.67174374,0.63881407,2.49879252\H,0,2
 .68935131,2.32281221,2.01657279\C,0,6.42962631,1.0385648,-1.24886016\H
 ,0,6.16354713,2.10521485,-1.25233573\C,0,0.3950942,0.55601281,0.862048
 62\H,0,0.,0.,0.\C,0,2.78398786,-1.3693623,0.05657598\H,0,3.48519653,-1
 .97131609,-0.52728724\H,0,3.12300092,-1.40146158,1.09562468\H,0,1.8116
 8654,-1.87043114,0.00816423\C,0,7.07947158,0.02384863,-3.47776444\C,0,
 5.28964824,-0.27355685,-5.20594011\H,0,5.05129768,0.79626195,-5.283602
 81\H,0,4.37033677,-0.81509611,-5.45231428\C,0,7.36374742,0.75860204,-2
 .39246284\H,0,8.35845015,1.19007655,-2.2808257\C,0,5.768296,-2.1137822
 ,-3.51776688\H,0,4.85464853,-2.6097972,-3.85951885\H,0,6.6004237,-2.55
 482312,-4.07265524\H,0,5.9176665,-2.36209464,-2.46255749\C,0,8.1460769
 1,-0.23376178,-4.52554209\H,0,9.05441883,0.32832105,-4.28751078\H,0,8.
 42357769,-1.3003571,-4.51991495\C,0,6.36395712,-0.60511707,-6.25329598
 \H,0,6.54923341,-1.68914037,-6.28470938\H,0,6.01414972,-0.31819886,-7.
 25147083\C,0,0.27838194,-0.35251296,2.11075172\H,0,1.08218245,-1.09621
 518,2.11696909\H,0,0.43541032,0.26722318,3.00382446\C,0,7.67617106,0.1
 1536183,-5.94543441\H,0,7.51602463,1.19845116,-6.01116818\C,0,-0.48916
 317,1.80867493,1.0327498\H,0,-0.10609981,2.44867476,1.83749393\H,0,-1.
 52388811,1.55145379,1.2805429\H,0,-0.51026792,2.4055668,0.11418433\C,0
 ,-1.06277098,-1.09967166,2.2712833\H,0,-1.08767299,-1.52330011,3.28309
 44\H,0,-1.89442029,-0.38646257,2.22490955\C,0,-1.2818682,-2.22822999,1
 .24922415\H,0,-0.43012814,-2.92163982,1.30763234\H,0,-1.26487833,-1.81
 135124,0.23339198\C,0,-2.58461409,-3.04936579,1.40247672\H,0,-2.562989
 3,-3.79975967,0.59819439\C,0,-3.8489832,-2.19980247,1.1915498\H,0,-3.9
 7967678,-1.46313216,1.99250651\H,0,-4.74489132,-2.83100537,1.17961367\
 H,0,-3.81075753,-1.65651526,0.2399717\C,0,-2.65137423,-3.81819435,2.73
 261462\H,0,-2.74540659,-3.14043604,3.58878536\H,0,-3.51826606,-4.48855
 945,2.75102104\H,0,-1.75377776,-4.42885744,2.88605399\\Version=EM64L-G
 09RevD.01\HF=-1198.9227506\RMSD=4.965e-07\Dipole=-0.4654467,-0.9937654
 ,-0.1964324\Quadrupole=-6.7723389,8.332822,-1.560483,-15.4116682,4.297
 1703,6.0673034\PG=C01 [X(C27H46O2)]\\@


 ... SUBJECTS WHICH DISCLOSE THEIR FULL POWER, MEANING AND BEAUTY AS SOON
 AS THEY ARE PRESENTED TO THE MIND HAVE VERY LITTLE OF THOSE QUALITIES
 TO DISCLOSE.
                           -- CHARLES DUTTON (1882)
 Job cpu time:       0 days  0 hours 11 minutes 44.0 seconds.
 File lengths (MBytes):  RWF=    150 Int=      0 D2E=      0 Chk=     11 Scr=      1
 Normal termination of Gaussian 09 at Wed May 17 12:03:17 2017.
