 Entering Gaussian System, Link 0=/home/michal/g09/g09
 Input=JOB2-gau_m1-12-3.com
 Output=JOB2-gau_m1-12-3.log
 Initial command:
 /home/michal/g09/l1.exe "/home/michal/gauss_scratch/Gau-2635.inp" -scrdir="/home/michal/gauss_scratch/"
 Entering Link 1 = /home/michal/g09/l1.exe PID=      2636.
  
 Copyright (c) 1988,1990,1992,1993,1995,1998,2003,2009,2013,
            Gaussian, Inc.  All Rights Reserved.
  
 This is part of the Gaussian(R) 09 program.  It is based on
 the Gaussian(R) 03 system (copyright 2003, Gaussian, Inc.),
 the Gaussian(R) 98 system (copyright 1998, Gaussian, Inc.),
 the Gaussian(R) 94 system (copyright 1995, Gaussian, Inc.),
 the Gaussian 92(TM) system (copyright 1992, Gaussian, Inc.),
 the Gaussian 90(TM) system (copyright 1990, Gaussian, Inc.),
 the Gaussian 88(TM) system (copyright 1988, Gaussian, Inc.),
 the Gaussian 86(TM) system (copyright 1986, Carnegie Mellon
 University), and the Gaussian 82(TM) system (copyright 1983,
 Carnegie Mellon University). Gaussian is a federally registered
 trademark of Gaussian, Inc.
  
 This software contains proprietary and confidential information,
 including trade secrets, belonging to Gaussian, Inc.
  
 This software is provided under written license and may be
 used, copied, transmitted, or stored only in accord with that
 written license.
  
 The following legend is applicable only to US Government
 contracts under FAR:
  
                    RESTRICTED RIGHTS LEGEND
  
 Use, reproduction and disclosure by the US Government is
 subject to restrictions as set forth in subparagraphs (a)
 and (c) of the Commercial Computer Software - Restricted
 Rights clause in FAR 52.227-19.
  
 Gaussian, Inc.
 340 Quinnipiac St., Bldg. 40, Wallingford CT 06492
  
  
 ---------------------------------------------------------------
 Warning -- This program may not be used in any manner that
 competes with the business of Gaussian, Inc. or will provide
 assistance to any competitor of Gaussian, Inc.  The licensee
 of this program is prohibited from giving any competitor of
 Gaussian, Inc. access to this program.  By using this program,
 the user acknowledges that Gaussian, Inc. is engaged in the
 business of creating and licensing software in the field of
 computational chemistry and represents and warrants to the
 licensee that it is not a competitor of Gaussian, Inc. and that
 it will not use this program in any manner prohibited above.
 ---------------------------------------------------------------
  

 Cite this work as:
 Gaussian 09, Revision D.01,
 M. J. Frisch, G. W. Trucks, H. B. Schlegel, G. E. Scuseria, 
 M. A. Robb, J. R. Cheeseman, G. Scalmani, V. Barone, B. Mennucci, 
 G. A. Petersson, H. Nakatsuji, M. Caricato, X. Li, H. P. Hratchian, 
 A. F. Izmaylov, J. Bloino, G. Zheng, J. L. Sonnenberg, M. Hada, 
 M. Ehara, K. Toyota, R. Fukuda, J. Hasegawa, M. Ishida, T. Nakajima, 
 Y. Honda, O. Kitao, H. Nakai, T. Vreven, J. A. Montgomery, Jr., 
 J. E. Peralta, F. Ogliaro, M. Bearpark, J. J. Heyd, E. Brothers, 
 K. N. Kudin, V. N. Staroverov, T. Keith, R. Kobayashi, J. Normand, 
 K. Raghavachari, A. Rendell, J. C. Burant, S. S. Iyengar, J. Tomasi, 
 M. Cossi, N. Rega, J. M. Millam, M. Klene, J. E. Knox, J. B. Cross, 
 V. Bakken, C. Adamo, J. Jaramillo, R. Gomperts, R. E. Stratmann, 
 O. Yazyev, A. J. Austin, R. Cammi, C. Pomelli, J. W. Ochterski, 
 R. L. Martin, K. Morokuma, V. G. Zakrzewski, G. A. Voth, 
 P. Salvador, J. J. Dannenberg, S. Dapprich, A. D. Daniels, 
 O. Farkas, J. B. Foresman, J. V. Ortiz, J. Cioslowski, 
 and D. J. Fox, Gaussian, Inc., Wallingford CT, 2013.
 
 ******************************************
 Gaussian 09:  EM64L-G09RevD.01 24-Apr-2013
                17-May-2017 
 ******************************************
 %Mem=256MB
 %NProc=12
 Will use up to   12 processors via shared memory.
 ----------------------------------------------------------------------
 #P HF/6-31G* SCF(Conver=6) NoSymm Test Pop=chelpg IOp(6/33=2) GFInput 
 GFPrint
 ----------------------------------------------------------------------
 1/38=1/1;
 2/12=2,15=1,17=6,18=5,40=1/2;
 3/5=1,6=6,7=1,11=9,16=1,24=110,25=1,30=1/1,2,3;
 4//1;
 5/5=2,6=6,38=5/2;
 6/7=2,8=2,9=2,10=2,15=8,20=3,28=1,33=2/1,2;
 99/5=1,9=1/99;
 Leave Link    1 at Wed May 17 12:15:13 2017, MaxMem=    33554432 cpu:         0.9
 (Enter /home/michal/g09/l101.exe)
 ----------------------------------------------
 MEP - Input generated by R.E.D.-III.x MOLECULE
 ----------------------------------------------
 Symbolic Z-matrix:
 Charge =  0 Multiplicity = 1
 O                     5.54925   4.53529   0. 
 H                     5.21893   4.59785  -0.90736 
 O                     0.        0.        0. 
 H                    -0.1559   -0.10069  -0.94959 
 C                     8.72464   1.27548  -0.13406 
 C                     7.69723   2.29595   0.42296 
 H                     7.57909   2.03103   1.48776 
 C                     6.28644   2.17929  -0.17827 
 H                     6.3217    2.40605  -1.25395 
 C                     5.75371   0.73093   0.03055 
 H                     5.62128   0.62152   1.1196 
 C                     9.98273   1.69255   0.69016 
 H                     9.74292   1.37987   1.71697 
 C                     8.19405  -0.13377   0.17691 
 H                     8.16751  -0.26848   1.26793 
 H                     8.86419  -0.90909  -0.21813 
 C                     4.33015   0.50381  -0.58972 
 C                     8.45155   3.64042   0.39355 
 H                     8.05266   4.35321   1.11911 
 H                     8.35268   4.11922  -0.58629 
 C                     6.78055  -0.34695  -0.39902 
 H                     6.84703  -0.38168  -1.49132 
 H                     6.42243  -1.33447  -0.08811 
 C                     9.93485   3.2522    0.68063 
 H                     10.59202   3.66834  -0.08813 
 H                     10.28195   3.65997   1.6359 
 C                     5.31792   3.19059   0.46416 
 H                     5.53352   3.25448   1.54028 
 C                     11.34496   1.01328   0.36316 
 H                     11.11347   0.        0. 
 C                     8.95332   1.43517  -1.65346 
 H                     8.03702   1.27453  -2.22744 
 H                     9.32295   2.43087  -1.91318 
 H                     9.68723   0.70388  -2.00913 
 C                     3.40898   1.67302  -0.22307 
 C                     3.72387  -0.80141   0.01476 
 H                     3.87097  -0.77624   1.10336 
 H                     4.28278  -1.6678   -0.35412 
 C                     3.87158   2.83111   0.27024 
 H                     3.16854   3.61723   0.54558 
 C                     4.38887   0.38046  -2.13605 
 H                     4.88715  -0.5438   -2.44428 
 H                     3.38849   0.36868  -2.57643 
 H                     4.92651   1.2234   -2.58088 
 C                     1.91934   1.4725   -0.42946 
 H                     1.36384   2.33034  -0.03802 
 H                     1.697     1.41702  -1.50747 
 C                     2.22773  -1.01277  -0.26465 
 H                     2.05403  -1.15663  -1.34147 
 H                     1.87961  -1.92486   0.23327 
 C                     12.19315   1.70722  -0.72974 
 H                     11.54819   2.0789   -1.53304 
 H                     12.6737   2.59314  -0.29438 
 C                     1.40196   0.17936   0.21773 
 H                     1.49532   0.26454   1.30726 
 C                     12.16958   0.84899   1.65648 
 H                     12.3833   1.82567   2.10849 
 H                     13.12775   0.35307   1.47114 
 H                     11.62778   0.25105   2.39772 
 C                     13.25914   0.79672  -1.36345 
 H                     13.96653   0.45005  -0.60054 
 H                     12.76342  -0.1085   -1.74194 
 C                     14.0301   1.43824  -2.5318 
 H                     13.30883   1.72087  -3.3124 
 H                     14.68131   0.67517  -2.98362 
 C                     14.89626   2.67243  -2.20055 
 H                     14.24522   3.44383  -1.76496 
 C                     15.50197   3.25531  -3.48751 
 H                     16.1697   2.52931  -3.96917 
 H                     16.08806   4.15759  -3.27877 
 H                     14.72282   3.52138  -4.21112 
 C                     16.0013   2.35694  -1.17998 
 H                     16.66777   1.57083  -1.55846 
 H                     16.61401   3.2434   -0.98034 
 H                     15.59458   2.0163   -0.22234 
 
 NAtoms=     75 NQM=       75 NQMF=       0 NMMI=      0 NMMIF=      0
                NMic=       0 NMicF=      0.
                    Isotopes and Nuclear Properties:
 (Nuclear quadrupole moments (NQMom) in fm**2, nuclear magnetic moments (NMagM)
  in nuclear magnetons)

  Atom         1           2           3           4           5           6           7           8           9          10
 IAtWgt=          16           1          16           1          12          12           1          12           1          12
 AtmWgt=  15.9949146   1.0078250  15.9949146   1.0078250  12.0000000  12.0000000   1.0078250  12.0000000   1.0078250  12.0000000
 NucSpn=           0           1           0           1           0           0           1           0           1           0
 AtZEff=   0.0000000   0.0000000   0.0000000   0.0000000   0.0000000   0.0000000   0.0000000   0.0000000   0.0000000   0.0000000
 NQMom=    0.0000000   0.0000000   0.0000000   0.0000000   0.0000000   0.0000000   0.0000000   0.0000000   0.0000000   0.0000000
 NMagM=    0.0000000   2.7928460   0.0000000   2.7928460   0.0000000   0.0000000   2.7928460   0.0000000   2.7928460   0.0000000
 AtZNuc=   8.0000000   1.0000000   8.0000000   1.0000000   6.0000000   6.0000000   1.0000000   6.0000000   1.0000000   6.0000000

  Atom        11          12          13          14          15          16          17          18          19          20
 IAtWgt=           1          12           1          12           1           1          12          12           1           1
 AtmWgt=   1.0078250  12.0000000   1.0078250  12.0000000   1.0078250   1.0078250  12.0000000  12.0000000   1.0078250   1.0078250
 NucSpn=           1           0           1           0           1           1           0           0           1           1
 AtZEff=   0.0000000   0.0000000   0.0000000   0.0000000   0.0000000   0.0000000   0.0000000   0.0000000   0.0000000   0.0000000
 NQMom=    0.0000000   0.0000000   0.0000000   0.0000000   0.0000000   0.0000000   0.0000000   0.0000000   0.0000000   0.0000000
 NMagM=    2.7928460   0.0000000   2.7928460   0.0000000   2.7928460   2.7928460   0.0000000   0.0000000   2.7928460   2.7928460
 AtZNuc=   1.0000000   6.0000000   1.0000000   6.0000000   1.0000000   1.0000000   6.0000000   6.0000000   1.0000000   1.0000000

  Atom        21          22          23          24          25          26          27          28          29          30
 IAtWgt=          12           1           1          12           1           1          12           1          12           1
 AtmWgt=  12.0000000   1.0078250   1.0078250  12.0000000   1.0078250   1.0078250  12.0000000   1.0078250  12.0000000   1.0078250
 NucSpn=           0           1           1           0           1           1           0           1           0           1
 AtZEff=   0.0000000   0.0000000   0.0000000   0.0000000   0.0000000   0.0000000   0.0000000   0.0000000   0.0000000   0.0000000
 NQMom=    0.0000000   0.0000000   0.0000000   0.0000000   0.0000000   0.0000000   0.0000000   0.0000000   0.0000000   0.0000000
 NMagM=    0.0000000   2.7928460   2.7928460   0.0000000   2.7928460   2.7928460   0.0000000   2.7928460   0.0000000   2.7928460
 AtZNuc=   6.0000000   1.0000000   1.0000000   6.0000000   1.0000000   1.0000000   6.0000000   1.0000000   6.0000000   1.0000000

  Atom        31          32          33          34          35          36          37          38          39          40
 IAtWgt=          12           1           1           1          12          12           1           1          12           1
 AtmWgt=  12.0000000   1.0078250   1.0078250   1.0078250  12.0000000  12.0000000   1.0078250   1.0078250  12.0000000   1.0078250
 NucSpn=           0           1           1           1           0           0           1           1           0           1
 AtZEff=   0.0000000   0.0000000   0.0000000   0.0000000   0.0000000   0.0000000   0.0000000   0.0000000   0.0000000   0.0000000
 NQMom=    0.0000000   0.0000000   0.0000000   0.0000000   0.0000000   0.0000000   0.0000000   0.0000000   0.0000000   0.0000000
 NMagM=    0.0000000   2.7928460   2.7928460   2.7928460   0.0000000   0.0000000   2.7928460   2.7928460   0.0000000   2.7928460
 AtZNuc=   6.0000000   1.0000000   1.0000000   1.0000000   6.0000000   6.0000000   1.0000000   1.0000000   6.0000000   1.0000000

  Atom        41          42          43          44          45          46          47          48          49          50
 IAtWgt=          12           1           1           1          12           1           1          12           1           1
 AtmWgt=  12.0000000   1.0078250   1.0078250   1.0078250  12.0000000   1.0078250   1.0078250  12.0000000   1.0078250   1.0078250
 NucSpn=           0           1           1           1           0           1           1           0           1           1
 AtZEff=   0.0000000   0.0000000   0.0000000   0.0000000   0.0000000   0.0000000   0.0000000   0.0000000   0.0000000   0.0000000
 NQMom=    0.0000000   0.0000000   0.0000000   0.0000000   0.0000000   0.0000000   0.0000000   0.0000000   0.0000000   0.0000000
 NMagM=    0.0000000   2.7928460   2.7928460   2.7928460   0.0000000   2.7928460   2.7928460   0.0000000   2.7928460   2.7928460
 AtZNuc=   6.0000000   1.0000000   1.0000000   1.0000000   6.0000000   1.0000000   1.0000000   6.0000000   1.0000000   1.0000000

  Atom        51          52          53          54          55          56          57          58          59          60
 IAtWgt=          12           1           1          12           1          12           1           1           1          12
 AtmWgt=  12.0000000   1.0078250   1.0078250  12.0000000   1.0078250  12.0000000   1.0078250   1.0078250   1.0078250  12.0000000
 NucSpn=           0           1           1           0           1           0           1           1           1           0
 AtZEff=   0.0000000   0.0000000   0.0000000   0.0000000   0.0000000   0.0000000   0.0000000   0.0000000   0.0000000   0.0000000
 NQMom=    0.0000000   0.0000000   0.0000000   0.0000000   0.0000000   0.0000000   0.0000000   0.0000000   0.0000000   0.0000000
 NMagM=    0.0000000   2.7928460   2.7928460   0.0000000   2.7928460   0.0000000   2.7928460   2.7928460   2.7928460   0.0000000
 AtZNuc=   6.0000000   1.0000000   1.0000000   6.0000000   1.0000000   6.0000000   1.0000000   1.0000000   1.0000000   6.0000000

  Atom        61          62          63          64          65          66          67          68          69          70
 IAtWgt=           1           1          12           1           1          12           1          12           1           1
 AtmWgt=   1.0078250   1.0078250  12.0000000   1.0078250   1.0078250  12.0000000   1.0078250  12.0000000   1.0078250   1.0078250
 NucSpn=           1           1           0           1           1           0           1           0           1           1
 AtZEff=   0.0000000   0.0000000   0.0000000   0.0000000   0.0000000   0.0000000   0.0000000   0.0000000   0.0000000   0.0000000
 NQMom=    0.0000000   0.0000000   0.0000000   0.0000000   0.0000000   0.0000000   0.0000000   0.0000000   0.0000000   0.0000000
 NMagM=    2.7928460   2.7928460   0.0000000   2.7928460   2.7928460   0.0000000   2.7928460   0.0000000   2.7928460   2.7928460
 AtZNuc=   1.0000000   1.0000000   6.0000000   1.0000000   1.0000000   6.0000000   1.0000000   6.0000000   1.0000000   1.0000000

  Atom        71          72          73          74          75
 IAtWgt=           1          12           1           1           1
 AtmWgt=   1.0078250  12.0000000   1.0078250   1.0078250   1.0078250
 NucSpn=           1           0           1           1           1
 AtZEff=   0.0000000   0.0000000   0.0000000   0.0000000   0.0000000
 NQMom=    0.0000000   0.0000000   0.0000000   0.0000000   0.0000000
 NMagM=    2.7928460   0.0000000   2.7928460   2.7928460   2.7928460
 AtZNuc=   1.0000000   6.0000000   1.0000000   1.0000000   1.0000000
 Leave Link  101 at Wed May 17 12:15:13 2017, MaxMem=    33554432 cpu:         1.0
 (Enter /home/michal/g09/l202.exe)
 Symmetry turned off by external request.
 Stoichiometry    C27H46O2
 Framework group  C1[X(C27H46O2)]
 Deg. of freedom   219
 Full point group                 C1      NOp   1
                          Input orientation:                          
 ---------------------------------------------------------------------
 Center     Atomic      Atomic             Coordinates (Angstroms)
 Number     Number       Type             X           Y           Z
 ---------------------------------------------------------------------
      1          8           0        5.549252    4.535295    0.000000
      2          1           0        5.218927    4.597851   -0.907357
      3          8           0        0.000000    0.000000    0.000000
      4          1           0       -0.155901   -0.100689   -0.949593
      5          6           0        8.724641    1.275476   -0.134064
      6          6           0        7.697233    2.295949    0.422960
      7          1           0        7.579088    2.031031    1.487765
      8          6           0        6.286441    2.179293   -0.178274
      9          1           0        6.321700    2.406047   -1.253954
     10          6           0        5.753713    0.730928    0.030548
     11          1           0        5.621277    0.621523    1.119596
     12          6           0        9.982735    1.692546    0.690165
     13          1           0        9.742921    1.379868    1.716968
     14          6           0        8.194052   -0.133771    0.176906
     15          1           0        8.167506   -0.268483    1.267930
     16          1           0        8.864193   -0.909092   -0.218127
     17          6           0        4.330152    0.503812   -0.589720
     18          6           0        8.451547    3.640424    0.393550
     19          1           0        8.052665    4.353214    1.119111
     20          1           0        8.352678    4.119220   -0.586287
     21          6           0        6.780552   -0.346947   -0.399025
     22          1           0        6.847030   -0.381679   -1.491320
     23          1           0        6.422432   -1.334471   -0.088108
     24          6           0        9.934851    3.252197    0.680625
     25          1           0       10.592016    3.668342   -0.088133
     26          1           0       10.281949    3.659975    1.635902
     27          6           0        5.317919    3.190588    0.464160
     28          1           0        5.533520    3.254484    1.540277
     29          6           0       11.344960    1.013283    0.363156
     30          1           0       11.113467    0.000000    0.000000
     31          6           0        8.953324    1.435171   -1.653457
     32          1           0        8.037022    1.274529   -2.227438
     33          1           0        9.322949    2.430872   -1.913185
     34          1           0        9.687233    0.703882   -2.009125
     35          6           0        3.408982    1.673016   -0.223069
     36          6           0        3.723874   -0.801406    0.014761
     37          1           0        3.870975   -0.776245    1.103362
     38          1           0        4.282780   -1.667803   -0.354125
     39          6           0        3.871581    2.831111    0.270241
     40          1           0        3.168539    3.617229    0.545581
     41          6           0        4.388871    0.380458   -2.136051
     42          1           0        4.887153   -0.543801   -2.444276
     43          1           0        3.388486    0.368679   -2.576426
     44          1           0        4.926508    1.223401   -2.580877
     45          6           0        1.919338    1.472498   -0.429462
     46          1           0        1.363839    2.330341   -0.038022
     47          1           0        1.696995    1.417021   -1.507467
     48          6           0        2.227731   -1.012771   -0.264650
     49          1           0        2.054032   -1.156626   -1.341468
     50          1           0        1.879609   -1.924864    0.233271
     51          6           0       12.193146    1.707220   -0.729738
     52          1           0       11.548194    2.078904   -1.533038
     53          1           0       12.673704    2.593136   -0.294376
     54          6           0        1.401959    0.179365    0.217730
     55          1           0        1.495322    0.264538    1.307260
     56          6           0       12.169583    0.848991    1.656479
     57          1           0       12.383299    1.825672    2.108487
     58          1           0       13.127754    0.353072    1.471139
     59          1           0       11.627785    0.251050    2.397715
     60          6           0       13.259135    0.796724   -1.363449
     61          1           0       13.966528    0.450047   -0.600541
     62          1           0       12.763425   -0.108502   -1.741942
     63          6           0       14.030098    1.438241   -2.531802
     64          1           0       13.308833    1.720868   -3.312401
     65          1           0       14.681311    0.675166   -2.983615
     66          6           0       14.896262    2.672434   -2.200549
     67          1           0       14.245219    3.443830   -1.764960
     68          6           0       15.501970    3.255307   -3.487508
     69          1           0       16.169697    2.529314   -3.969172
     70          1           0       16.088063    4.157589   -3.278766
     71          1           0       14.722824    3.521380   -4.211120
     72          6           0       16.001299    2.356936   -1.179983
     73          1           0       16.667766    1.570832   -1.558461
     74          1           0       16.614010    3.243401   -0.980343
     75          1           0       15.594575    2.016304   -0.222342
 ---------------------------------------------------------------------
 Rotational constants (GHZ):      0.4240807      0.0571881      0.0554489
 Leave Link  202 at Wed May 17 12:15:13 2017, MaxMem=    33554432 cpu:         0.0
 (Enter /home/michal/g09/l301.exe)
 Standard basis: 6-31G(d) (6D, 7F)
 Ernie: Thresh=  0.10000D-02 Tol=  0.10000D-05 Strict=F.
 AO basis set in the form of general basis input (Overlap normalization):
      1 0
 S   6 1.00       0.000000000000
      0.5484671660D+04  0.1831074430D-02
      0.8252349460D+03  0.1395017220D-01
      0.1880469580D+03  0.6844507810D-01
      0.5296450000D+02  0.2327143360D+00
      0.1689757040D+02  0.4701928980D+00
      0.5799635340D+01  0.3585208530D+00
 SP   3 1.00       0.000000000000
      0.1553961625D+02 -0.1107775495D+00  0.7087426823D-01
      0.3599933586D+01 -0.1480262627D+00  0.3397528391D+00
      0.1013761750D+01  0.1130767015D+01  0.7271585773D+00
 SP   1 1.00       0.000000000000
      0.2700058226D+00  0.1000000000D+01  0.1000000000D+01
 D   1 1.00       0.000000000000
      0.8000000000D+00  0.1000000000D+01
 ****
      2 0
 S   3 1.00       0.000000000000
      0.1873113696D+02  0.3349460434D-01
      0.2825394365D+01  0.2347269535D+00
      0.6401216923D+00  0.8137573261D+00
 S   1 1.00       0.000000000000
      0.1612777588D+00  0.1000000000D+01
 ****
      3 0
 S   6 1.00       0.000000000000
      0.5484671660D+04  0.1831074430D-02
      0.8252349460D+03  0.1395017220D-01
      0.1880469580D+03  0.6844507810D-01
      0.5296450000D+02  0.2327143360D+00
      0.1689757040D+02  0.4701928980D+00
      0.5799635340D+01  0.3585208530D+00
 SP   3 1.00       0.000000000000
      0.1553961625D+02 -0.1107775495D+00  0.7087426823D-01
      0.3599933586D+01 -0.1480262627D+00  0.3397528391D+00
      0.1013761750D+01  0.1130767015D+01  0.7271585773D+00
 SP   1 1.00       0.000000000000
      0.2700058226D+00  0.1000000000D+01  0.1000000000D+01
 D   1 1.00       0.000000000000
      0.8000000000D+00  0.1000000000D+01
 ****
      4 0
 S   3 1.00       0.000000000000
      0.1873113696D+02  0.3349460434D-01
      0.2825394365D+01  0.2347269535D+00
      0.6401216923D+00  0.8137573261D+00
 S   1 1.00       0.000000000000
      0.1612777588D+00  0.1000000000D+01
 ****
      5 0
 S   6 1.00       0.000000000000
      0.3047524880D+04  0.1834737132D-02
      0.4573695180D+03  0.1403732281D-01
      0.1039486850D+03  0.6884262226D-01
      0.2921015530D+02  0.2321844432D+00
      0.9286662960D+01  0.4679413484D+00
      0.3163926960D+01  0.3623119853D+00
 SP   3 1.00       0.000000000000
      0.7868272350D+01 -0.1193324198D+00  0.6899906659D-01
      0.1881288540D+01 -0.1608541517D+00  0.3164239610D+00
      0.5442492580D+00  0.1143456438D+01  0.7443082909D+00
 SP   1 1.00       0.000000000000
      0.1687144782D+00  0.1000000000D+01  0.1000000000D+01
 D   1 1.00       0.000000000000
      0.8000000000D+00  0.1000000000D+01
 ****
      6 0
 S   6 1.00       0.000000000000
      0.3047524880D+04  0.1834737132D-02
      0.4573695180D+03  0.1403732281D-01
      0.1039486850D+03  0.6884262226D-01
      0.2921015530D+02  0.2321844432D+00
      0.9286662960D+01  0.4679413484D+00
      0.3163926960D+01  0.3623119853D+00
 SP   3 1.00       0.000000000000
      0.7868272350D+01 -0.1193324198D+00  0.6899906659D-01
      0.1881288540D+01 -0.1608541517D+00  0.3164239610D+00
      0.5442492580D+00  0.1143456438D+01  0.7443082909D+00
 SP   1 1.00       0.000000000000
      0.1687144782D+00  0.1000000000D+01  0.1000000000D+01
 D   1 1.00       0.000000000000
      0.8000000000D+00  0.1000000000D+01
 ****
      7 0
 S   3 1.00       0.000000000000
      0.1873113696D+02  0.3349460434D-01
      0.2825394365D+01  0.2347269535D+00
      0.6401216923D+00  0.8137573261D+00
 S   1 1.00       0.000000000000
      0.1612777588D+00  0.1000000000D+01
 ****
      8 0
 S   6 1.00       0.000000000000
      0.3047524880D+04  0.1834737132D-02
      0.4573695180D+03  0.1403732281D-01
      0.1039486850D+03  0.6884262226D-01
      0.2921015530D+02  0.2321844432D+00
      0.9286662960D+01  0.4679413484D+00
      0.3163926960D+01  0.3623119853D+00
 SP   3 1.00       0.000000000000
      0.7868272350D+01 -0.1193324198D+00  0.6899906659D-01
      0.1881288540D+01 -0.1608541517D+00  0.3164239610D+00
      0.5442492580D+00  0.1143456438D+01  0.7443082909D+00
 SP   1 1.00       0.000000000000
      0.1687144782D+00  0.1000000000D+01  0.1000000000D+01
 D   1 1.00       0.000000000000
      0.8000000000D+00  0.1000000000D+01
 ****
      9 0
 S   3 1.00       0.000000000000
      0.1873113696D+02  0.3349460434D-01
      0.2825394365D+01  0.2347269535D+00
      0.6401216923D+00  0.8137573261D+00
 S   1 1.00       0.000000000000
      0.1612777588D+00  0.1000000000D+01
 ****
     10 0
 S   6 1.00       0.000000000000
      0.3047524880D+04  0.1834737132D-02
      0.4573695180D+03  0.1403732281D-01
      0.1039486850D+03  0.6884262226D-01
      0.2921015530D+02  0.2321844432D+00
      0.9286662960D+01  0.4679413484D+00
      0.3163926960D+01  0.3623119853D+00
 SP   3 1.00       0.000000000000
      0.7868272350D+01 -0.1193324198D+00  0.6899906659D-01
      0.1881288540D+01 -0.1608541517D+00  0.3164239610D+00
      0.5442492580D+00  0.1143456438D+01  0.7443082909D+00
 SP   1 1.00       0.000000000000
      0.1687144782D+00  0.1000000000D+01  0.1000000000D+01
 D   1 1.00       0.000000000000
      0.8000000000D+00  0.1000000000D+01
 ****
     11 0
 S   3 1.00       0.000000000000
      0.1873113696D+02  0.3349460434D-01
      0.2825394365D+01  0.2347269535D+00
      0.6401216923D+00  0.8137573261D+00
 S   1 1.00       0.000000000000
      0.1612777588D+00  0.1000000000D+01
 ****
     12 0
 S   6 1.00       0.000000000000
      0.3047524880D+04  0.1834737132D-02
      0.4573695180D+03  0.1403732281D-01
      0.1039486850D+03  0.6884262226D-01
      0.2921015530D+02  0.2321844432D+00
      0.9286662960D+01  0.4679413484D+00
      0.3163926960D+01  0.3623119853D+00
 SP   3 1.00       0.000000000000
      0.7868272350D+01 -0.1193324198D+00  0.6899906659D-01
      0.1881288540D+01 -0.1608541517D+00  0.3164239610D+00
      0.5442492580D+00  0.1143456438D+01  0.7443082909D+00
 SP   1 1.00       0.000000000000
      0.1687144782D+00  0.1000000000D+01  0.1000000000D+01
 D   1 1.00       0.000000000000
      0.8000000000D+00  0.1000000000D+01
 ****
     13 0
 S   3 1.00       0.000000000000
      0.1873113696D+02  0.3349460434D-01
      0.2825394365D+01  0.2347269535D+00
      0.6401216923D+00  0.8137573261D+00
 S   1 1.00       0.000000000000
      0.1612777588D+00  0.1000000000D+01
 ****
     14 0
 S   6 1.00       0.000000000000
      0.3047524880D+04  0.1834737132D-02
      0.4573695180D+03  0.1403732281D-01
      0.1039486850D+03  0.6884262226D-01
      0.2921015530D+02  0.2321844432D+00
      0.9286662960D+01  0.4679413484D+00
      0.3163926960D+01  0.3623119853D+00
 SP   3 1.00       0.000000000000
      0.7868272350D+01 -0.1193324198D+00  0.6899906659D-01
      0.1881288540D+01 -0.1608541517D+00  0.3164239610D+00
      0.5442492580D+00  0.1143456438D+01  0.7443082909D+00
 SP   1 1.00       0.000000000000
      0.1687144782D+00  0.1000000000D+01  0.1000000000D+01
 D   1 1.00       0.000000000000
      0.8000000000D+00  0.1000000000D+01
 ****
     15 0
 S   3 1.00       0.000000000000
      0.1873113696D+02  0.3349460434D-01
      0.2825394365D+01  0.2347269535D+00
      0.6401216923D+00  0.8137573261D+00
 S   1 1.00       0.000000000000
      0.1612777588D+00  0.1000000000D+01
 ****
     16 0
 S   3 1.00       0.000000000000
      0.1873113696D+02  0.3349460434D-01
      0.2825394365D+01  0.2347269535D+00
      0.6401216923D+00  0.8137573261D+00
 S   1 1.00       0.000000000000
      0.1612777588D+00  0.1000000000D+01
 ****
     17 0
 S   6 1.00       0.000000000000
      0.3047524880D+04  0.1834737132D-02
      0.4573695180D+03  0.1403732281D-01
      0.1039486850D+03  0.6884262226D-01
      0.2921015530D+02  0.2321844432D+00
      0.9286662960D+01  0.4679413484D+00
      0.3163926960D+01  0.3623119853D+00
 SP   3 1.00       0.000000000000
      0.7868272350D+01 -0.1193324198D+00  0.6899906659D-01
      0.1881288540D+01 -0.1608541517D+00  0.3164239610D+00
      0.5442492580D+00  0.1143456438D+01  0.7443082909D+00
 SP   1 1.00       0.000000000000
      0.1687144782D+00  0.1000000000D+01  0.1000000000D+01
 D   1 1.00       0.000000000000
      0.8000000000D+00  0.1000000000D+01
 ****
     18 0
 S   6 1.00       0.000000000000
      0.3047524880D+04  0.1834737132D-02
      0.4573695180D+03  0.1403732281D-01
      0.1039486850D+03  0.6884262226D-01
      0.2921015530D+02  0.2321844432D+00
      0.9286662960D+01  0.4679413484D+00
      0.3163926960D+01  0.3623119853D+00
 SP   3 1.00       0.000000000000
      0.7868272350D+01 -0.1193324198D+00  0.6899906659D-01
      0.1881288540D+01 -0.1608541517D+00  0.3164239610D+00
      0.5442492580D+00  0.1143456438D+01  0.7443082909D+00
 SP   1 1.00       0.000000000000
      0.1687144782D+00  0.1000000000D+01  0.1000000000D+01
 D   1 1.00       0.000000000000
      0.8000000000D+00  0.1000000000D+01
 ****
     19 0
 S   3 1.00       0.000000000000
      0.1873113696D+02  0.3349460434D-01
      0.2825394365D+01  0.2347269535D+00
      0.6401216923D+00  0.8137573261D+00
 S   1 1.00       0.000000000000
      0.1612777588D+00  0.1000000000D+01
 ****
     20 0
 S   3 1.00       0.000000000000
      0.1873113696D+02  0.3349460434D-01
      0.2825394365D+01  0.2347269535D+00
      0.6401216923D+00  0.8137573261D+00
 S   1 1.00       0.000000000000
      0.1612777588D+00  0.1000000000D+01
 ****
     21 0
 S   6 1.00       0.000000000000
      0.3047524880D+04  0.1834737132D-02
      0.4573695180D+03  0.1403732281D-01
      0.1039486850D+03  0.6884262226D-01
      0.2921015530D+02  0.2321844432D+00
      0.9286662960D+01  0.4679413484D+00
      0.3163926960D+01  0.3623119853D+00
 SP   3 1.00       0.000000000000
      0.7868272350D+01 -0.1193324198D+00  0.6899906659D-01
      0.1881288540D+01 -0.1608541517D+00  0.3164239610D+00
      0.5442492580D+00  0.1143456438D+01  0.7443082909D+00
 SP   1 1.00       0.000000000000
      0.1687144782D+00  0.1000000000D+01  0.1000000000D+01
 D   1 1.00       0.000000000000
      0.8000000000D+00  0.1000000000D+01
 ****
     22 0
 S   3 1.00       0.000000000000
      0.1873113696D+02  0.3349460434D-01
      0.2825394365D+01  0.2347269535D+00
      0.6401216923D+00  0.8137573261D+00
 S   1 1.00       0.000000000000
      0.1612777588D+00  0.1000000000D+01
 ****
     23 0
 S   3 1.00       0.000000000000
      0.1873113696D+02  0.3349460434D-01
      0.2825394365D+01  0.2347269535D+00
      0.6401216923D+00  0.8137573261D+00
 S   1 1.00       0.000000000000
      0.1612777588D+00  0.1000000000D+01
 ****
     24 0
 S   6 1.00       0.000000000000
      0.3047524880D+04  0.1834737132D-02
      0.4573695180D+03  0.1403732281D-01
      0.1039486850D+03  0.6884262226D-01
      0.2921015530D+02  0.2321844432D+00
      0.9286662960D+01  0.4679413484D+00
      0.3163926960D+01  0.3623119853D+00
 SP   3 1.00       0.000000000000
      0.7868272350D+01 -0.1193324198D+00  0.6899906659D-01
      0.1881288540D+01 -0.1608541517D+00  0.3164239610D+00
      0.5442492580D+00  0.1143456438D+01  0.7443082909D+00
 SP   1 1.00       0.000000000000
      0.1687144782D+00  0.1000000000D+01  0.1000000000D+01
 D   1 1.00       0.000000000000
      0.8000000000D+00  0.1000000000D+01
 ****
     25 0
 S   3 1.00       0.000000000000
      0.1873113696D+02  0.3349460434D-01
      0.2825394365D+01  0.2347269535D+00
      0.6401216923D+00  0.8137573261D+00
 S   1 1.00       0.000000000000
      0.1612777588D+00  0.1000000000D+01
 ****
     26 0
 S   3 1.00       0.000000000000
      0.1873113696D+02  0.3349460434D-01
      0.2825394365D+01  0.2347269535D+00
      0.6401216923D+00  0.8137573261D+00
 S   1 1.00       0.000000000000
      0.1612777588D+00  0.1000000000D+01
 ****
     27 0
 S   6 1.00       0.000000000000
      0.3047524880D+04  0.1834737132D-02
      0.4573695180D+03  0.1403732281D-01
      0.1039486850D+03  0.6884262226D-01
      0.2921015530D+02  0.2321844432D+00
      0.9286662960D+01  0.4679413484D+00
      0.3163926960D+01  0.3623119853D+00
 SP   3 1.00       0.000000000000
      0.7868272350D+01 -0.1193324198D+00  0.6899906659D-01
      0.1881288540D+01 -0.1608541517D+00  0.3164239610D+00
      0.5442492580D+00  0.1143456438D+01  0.7443082909D+00
 SP   1 1.00       0.000000000000
      0.1687144782D+00  0.1000000000D+01  0.1000000000D+01
 D   1 1.00       0.000000000000
      0.8000000000D+00  0.1000000000D+01
 ****
     28 0
 S   3 1.00       0.000000000000
      0.1873113696D+02  0.3349460434D-01
      0.2825394365D+01  0.2347269535D+00
      0.6401216923D+00  0.8137573261D+00
 S   1 1.00       0.000000000000
      0.1612777588D+00  0.1000000000D+01
 ****
     29 0
 S   6 1.00       0.000000000000
      0.3047524880D+04  0.1834737132D-02
      0.4573695180D+03  0.1403732281D-01
      0.1039486850D+03  0.6884262226D-01
      0.2921015530D+02  0.2321844432D+00
      0.9286662960D+01  0.4679413484D+00
      0.3163926960D+01  0.3623119853D+00
 SP   3 1.00       0.000000000000
      0.7868272350D+01 -0.1193324198D+00  0.6899906659D-01
      0.1881288540D+01 -0.1608541517D+00  0.3164239610D+00
      0.5442492580D+00  0.1143456438D+01  0.7443082909D+00
 SP   1 1.00       0.000000000000
      0.1687144782D+00  0.1000000000D+01  0.1000000000D+01
 D   1 1.00       0.000000000000
      0.8000000000D+00  0.1000000000D+01
 ****
     30 0
 S   3 1.00       0.000000000000
      0.1873113696D+02  0.3349460434D-01
      0.2825394365D+01  0.2347269535D+00
      0.6401216923D+00  0.8137573261D+00
 S   1 1.00       0.000000000000
      0.1612777588D+00  0.1000000000D+01
 ****
     31 0
 S   6 1.00       0.000000000000
      0.3047524880D+04  0.1834737132D-02
      0.4573695180D+03  0.1403732281D-01
      0.1039486850D+03  0.6884262226D-01
      0.2921015530D+02  0.2321844432D+00
      0.9286662960D+01  0.4679413484D+00
      0.3163926960D+01  0.3623119853D+00
 SP   3 1.00       0.000000000000
      0.7868272350D+01 -0.1193324198D+00  0.6899906659D-01
      0.1881288540D+01 -0.1608541517D+00  0.3164239610D+00
      0.5442492580D+00  0.1143456438D+01  0.7443082909D+00
 SP   1 1.00       0.000000000000
      0.1687144782D+00  0.1000000000D+01  0.1000000000D+01
 D   1 1.00       0.000000000000
      0.8000000000D+00  0.1000000000D+01
 ****
     32 0
 S   3 1.00       0.000000000000
      0.1873113696D+02  0.3349460434D-01
      0.2825394365D+01  0.2347269535D+00
      0.6401216923D+00  0.8137573261D+00
 S   1 1.00       0.000000000000
      0.1612777588D+00  0.1000000000D+01
 ****
     33 0
 S   3 1.00       0.000000000000
      0.1873113696D+02  0.3349460434D-01
      0.2825394365D+01  0.2347269535D+00
      0.6401216923D+00  0.8137573261D+00
 S   1 1.00       0.000000000000
      0.1612777588D+00  0.1000000000D+01
 ****
     34 0
 S   3 1.00       0.000000000000
      0.1873113696D+02  0.3349460434D-01
      0.2825394365D+01  0.2347269535D+00
      0.6401216923D+00  0.8137573261D+00
 S   1 1.00       0.000000000000
      0.1612777588D+00  0.1000000000D+01
 ****
     35 0
 S   6 1.00       0.000000000000
      0.3047524880D+04  0.1834737132D-02
      0.4573695180D+03  0.1403732281D-01
      0.1039486850D+03  0.6884262226D-01
      0.2921015530D+02  0.2321844432D+00
      0.9286662960D+01  0.4679413484D+00
      0.3163926960D+01  0.3623119853D+00
 SP   3 1.00       0.000000000000
      0.7868272350D+01 -0.1193324198D+00  0.6899906659D-01
      0.1881288540D+01 -0.1608541517D+00  0.3164239610D+00
      0.5442492580D+00  0.1143456438D+01  0.7443082909D+00
 SP   1 1.00       0.000000000000
      0.1687144782D+00  0.1000000000D+01  0.1000000000D+01
 D   1 1.00       0.000000000000
      0.8000000000D+00  0.1000000000D+01
 ****
     36 0
 S   6 1.00       0.000000000000
      0.3047524880D+04  0.1834737132D-02
      0.4573695180D+03  0.1403732281D-01
      0.1039486850D+03  0.6884262226D-01
      0.2921015530D+02  0.2321844432D+00
      0.9286662960D+01  0.4679413484D+00
      0.3163926960D+01  0.3623119853D+00
 SP   3 1.00       0.000000000000
      0.7868272350D+01 -0.1193324198D+00  0.6899906659D-01
      0.1881288540D+01 -0.1608541517D+00  0.3164239610D+00
      0.5442492580D+00  0.1143456438D+01  0.7443082909D+00
 SP   1 1.00       0.000000000000
      0.1687144782D+00  0.1000000000D+01  0.1000000000D+01
 D   1 1.00       0.000000000000
      0.8000000000D+00  0.1000000000D+01
 ****
     37 0
 S   3 1.00       0.000000000000
      0.1873113696D+02  0.3349460434D-01
      0.2825394365D+01  0.2347269535D+00
      0.6401216923D+00  0.8137573261D+00
 S   1 1.00       0.000000000000
      0.1612777588D+00  0.1000000000D+01
 ****
     38 0
 S   3 1.00       0.000000000000
      0.1873113696D+02  0.3349460434D-01
      0.2825394365D+01  0.2347269535D+00
      0.6401216923D+00  0.8137573261D+00
 S   1 1.00       0.000000000000
      0.1612777588D+00  0.1000000000D+01
 ****
     39 0
 S   6 1.00       0.000000000000
      0.3047524880D+04  0.1834737132D-02
      0.4573695180D+03  0.1403732281D-01
      0.1039486850D+03  0.6884262226D-01
      0.2921015530D+02  0.2321844432D+00
      0.9286662960D+01  0.4679413484D+00
      0.3163926960D+01  0.3623119853D+00
 SP   3 1.00       0.000000000000
      0.7868272350D+01 -0.1193324198D+00  0.6899906659D-01
      0.1881288540D+01 -0.1608541517D+00  0.3164239610D+00
      0.5442492580D+00  0.1143456438D+01  0.7443082909D+00
 SP   1 1.00       0.000000000000
      0.1687144782D+00  0.1000000000D+01  0.1000000000D+01
 D   1 1.00       0.000000000000
      0.8000000000D+00  0.1000000000D+01
 ****
     40 0
 S   3 1.00       0.000000000000
      0.1873113696D+02  0.3349460434D-01
      0.2825394365D+01  0.2347269535D+00
      0.6401216923D+00  0.8137573261D+00
 S   1 1.00       0.000000000000
      0.1612777588D+00  0.1000000000D+01
 ****
     41 0
 S   6 1.00       0.000000000000
      0.3047524880D+04  0.1834737132D-02
      0.4573695180D+03  0.1403732281D-01
      0.1039486850D+03  0.6884262226D-01
      0.2921015530D+02  0.2321844432D+00
      0.9286662960D+01  0.4679413484D+00
      0.3163926960D+01  0.3623119853D+00
 SP   3 1.00       0.000000000000
      0.7868272350D+01 -0.1193324198D+00  0.6899906659D-01
      0.1881288540D+01 -0.1608541517D+00  0.3164239610D+00
      0.5442492580D+00  0.1143456438D+01  0.7443082909D+00
 SP   1 1.00       0.000000000000
      0.1687144782D+00  0.1000000000D+01  0.1000000000D+01
 D   1 1.00       0.000000000000
      0.8000000000D+00  0.1000000000D+01
 ****
     42 0
 S   3 1.00       0.000000000000
      0.1873113696D+02  0.3349460434D-01
      0.2825394365D+01  0.2347269535D+00
      0.6401216923D+00  0.8137573261D+00
 S   1 1.00       0.000000000000
      0.1612777588D+00  0.1000000000D+01
 ****
     43 0
 S   3 1.00       0.000000000000
      0.1873113696D+02  0.3349460434D-01
      0.2825394365D+01  0.2347269535D+00
      0.6401216923D+00  0.8137573261D+00
 S   1 1.00       0.000000000000
      0.1612777588D+00  0.1000000000D+01
 ****
     44 0
 S   3 1.00       0.000000000000
      0.1873113696D+02  0.3349460434D-01
      0.2825394365D+01  0.2347269535D+00
      0.6401216923D+00  0.8137573261D+00
 S   1 1.00       0.000000000000
      0.1612777588D+00  0.1000000000D+01
 ****
     45 0
 S   6 1.00       0.000000000000
      0.3047524880D+04  0.1834737132D-02
      0.4573695180D+03  0.1403732281D-01
      0.1039486850D+03  0.6884262226D-01
      0.2921015530D+02  0.2321844432D+00
      0.9286662960D+01  0.4679413484D+00
      0.3163926960D+01  0.3623119853D+00
 SP   3 1.00       0.000000000000
      0.7868272350D+01 -0.1193324198D+00  0.6899906659D-01
      0.1881288540D+01 -0.1608541517D+00  0.3164239610D+00
      0.5442492580D+00  0.1143456438D+01  0.7443082909D+00
 SP   1 1.00       0.000000000000
      0.1687144782D+00  0.1000000000D+01  0.1000000000D+01
 D   1 1.00       0.000000000000
      0.8000000000D+00  0.1000000000D+01
 ****
     46 0
 S   3 1.00       0.000000000000
      0.1873113696D+02  0.3349460434D-01
      0.2825394365D+01  0.2347269535D+00
      0.6401216923D+00  0.8137573261D+00
 S   1 1.00       0.000000000000
      0.1612777588D+00  0.1000000000D+01
 ****
     47 0
 S   3 1.00       0.000000000000
      0.1873113696D+02  0.3349460434D-01
      0.2825394365D+01  0.2347269535D+00
      0.6401216923D+00  0.8137573261D+00
 S   1 1.00       0.000000000000
      0.1612777588D+00  0.1000000000D+01
 ****
     48 0
 S   6 1.00       0.000000000000
      0.3047524880D+04  0.1834737132D-02
      0.4573695180D+03  0.1403732281D-01
      0.1039486850D+03  0.6884262226D-01
      0.2921015530D+02  0.2321844432D+00
      0.9286662960D+01  0.4679413484D+00
      0.3163926960D+01  0.3623119853D+00
 SP   3 1.00       0.000000000000
      0.7868272350D+01 -0.1193324198D+00  0.6899906659D-01
      0.1881288540D+01 -0.1608541517D+00  0.3164239610D+00
      0.5442492580D+00  0.1143456438D+01  0.7443082909D+00
 SP   1 1.00       0.000000000000
      0.1687144782D+00  0.1000000000D+01  0.1000000000D+01
 D   1 1.00       0.000000000000
      0.8000000000D+00  0.1000000000D+01
 ****
     49 0
 S   3 1.00       0.000000000000
      0.1873113696D+02  0.3349460434D-01
      0.2825394365D+01  0.2347269535D+00
      0.6401216923D+00  0.8137573261D+00
 S   1 1.00       0.000000000000
      0.1612777588D+00  0.1000000000D+01
 ****
     50 0
 S   3 1.00       0.000000000000
      0.1873113696D+02  0.3349460434D-01
      0.2825394365D+01  0.2347269535D+00
      0.6401216923D+00  0.8137573261D+00
 S   1 1.00       0.000000000000
      0.1612777588D+00  0.1000000000D+01
 ****
     51 0
 S   6 1.00       0.000000000000
      0.3047524880D+04  0.1834737132D-02
      0.4573695180D+03  0.1403732281D-01
      0.1039486850D+03  0.6884262226D-01
      0.2921015530D+02  0.2321844432D+00
      0.9286662960D+01  0.4679413484D+00
      0.3163926960D+01  0.3623119853D+00
 SP   3 1.00       0.000000000000
      0.7868272350D+01 -0.1193324198D+00  0.6899906659D-01
      0.1881288540D+01 -0.1608541517D+00  0.3164239610D+00
      0.5442492580D+00  0.1143456438D+01  0.7443082909D+00
 SP   1 1.00       0.000000000000
      0.1687144782D+00  0.1000000000D+01  0.1000000000D+01
 D   1 1.00       0.000000000000
      0.8000000000D+00  0.1000000000D+01
 ****
     52 0
 S   3 1.00       0.000000000000
      0.1873113696D+02  0.3349460434D-01
      0.2825394365D+01  0.2347269535D+00
      0.6401216923D+00  0.8137573261D+00
 S   1 1.00       0.000000000000
      0.1612777588D+00  0.1000000000D+01
 ****
     53 0
 S   3 1.00       0.000000000000
      0.1873113696D+02  0.3349460434D-01
      0.2825394365D+01  0.2347269535D+00
      0.6401216923D+00  0.8137573261D+00
 S   1 1.00       0.000000000000
      0.1612777588D+00  0.1000000000D+01
 ****
     54 0
 S   6 1.00       0.000000000000
      0.3047524880D+04  0.1834737132D-02
      0.4573695180D+03  0.1403732281D-01
      0.1039486850D+03  0.6884262226D-01
      0.2921015530D+02  0.2321844432D+00
      0.9286662960D+01  0.4679413484D+00
      0.3163926960D+01  0.3623119853D+00
 SP   3 1.00       0.000000000000
      0.7868272350D+01 -0.1193324198D+00  0.6899906659D-01
      0.1881288540D+01 -0.1608541517D+00  0.3164239610D+00
      0.5442492580D+00  0.1143456438D+01  0.7443082909D+00
 SP   1 1.00       0.000000000000
      0.1687144782D+00  0.1000000000D+01  0.1000000000D+01
 D   1 1.00       0.000000000000
      0.8000000000D+00  0.1000000000D+01
 ****
     55 0
 S   3 1.00       0.000000000000
      0.1873113696D+02  0.3349460434D-01
      0.2825394365D+01  0.2347269535D+00
      0.6401216923D+00  0.8137573261D+00
 S   1 1.00       0.000000000000
      0.1612777588D+00  0.1000000000D+01
 ****
     56 0
 S   6 1.00       0.000000000000
      0.3047524880D+04  0.1834737132D-02
      0.4573695180D+03  0.1403732281D-01
      0.1039486850D+03  0.6884262226D-01
      0.2921015530D+02  0.2321844432D+00
      0.9286662960D+01  0.4679413484D+00
      0.3163926960D+01  0.3623119853D+00
 SP   3 1.00       0.000000000000
      0.7868272350D+01 -0.1193324198D+00  0.6899906659D-01
      0.1881288540D+01 -0.1608541517D+00  0.3164239610D+00
      0.5442492580D+00  0.1143456438D+01  0.7443082909D+00
 SP   1 1.00       0.000000000000
      0.1687144782D+00  0.1000000000D+01  0.1000000000D+01
 D   1 1.00       0.000000000000
      0.8000000000D+00  0.1000000000D+01
 ****
     57 0
 S   3 1.00       0.000000000000
      0.1873113696D+02  0.3349460434D-01
      0.2825394365D+01  0.2347269535D+00
      0.6401216923D+00  0.8137573261D+00
 S   1 1.00       0.000000000000
      0.1612777588D+00  0.1000000000D+01
 ****
     58 0
 S   3 1.00       0.000000000000
      0.1873113696D+02  0.3349460434D-01
      0.2825394365D+01  0.2347269535D+00
      0.6401216923D+00  0.8137573261D+00
 S   1 1.00       0.000000000000
      0.1612777588D+00  0.1000000000D+01
 ****
     59 0
 S   3 1.00       0.000000000000
      0.1873113696D+02  0.3349460434D-01
      0.2825394365D+01  0.2347269535D+00
      0.6401216923D+00  0.8137573261D+00
 S   1 1.00       0.000000000000
      0.1612777588D+00  0.1000000000D+01
 ****
     60 0
 S   6 1.00       0.000000000000
      0.3047524880D+04  0.1834737132D-02
      0.4573695180D+03  0.1403732281D-01
      0.1039486850D+03  0.6884262226D-01
      0.2921015530D+02  0.2321844432D+00
      0.9286662960D+01  0.4679413484D+00
      0.3163926960D+01  0.3623119853D+00
 SP   3 1.00       0.000000000000
      0.7868272350D+01 -0.1193324198D+00  0.6899906659D-01
      0.1881288540D+01 -0.1608541517D+00  0.3164239610D+00
      0.5442492580D+00  0.1143456438D+01  0.7443082909D+00
 SP   1 1.00       0.000000000000
      0.1687144782D+00  0.1000000000D+01  0.1000000000D+01
 D   1 1.00       0.000000000000
      0.8000000000D+00  0.1000000000D+01
 ****
     61 0
 S   3 1.00       0.000000000000
      0.1873113696D+02  0.3349460434D-01
      0.2825394365D+01  0.2347269535D+00
      0.6401216923D+00  0.8137573261D+00
 S   1 1.00       0.000000000000
      0.1612777588D+00  0.1000000000D+01
 ****
     62 0
 S   3 1.00       0.000000000000
      0.1873113696D+02  0.3349460434D-01
      0.2825394365D+01  0.2347269535D+00
      0.6401216923D+00  0.8137573261D+00
 S   1 1.00       0.000000000000
      0.1612777588D+00  0.1000000000D+01
 ****
     63 0
 S   6 1.00       0.000000000000
      0.3047524880D+04  0.1834737132D-02
      0.4573695180D+03  0.1403732281D-01
      0.1039486850D+03  0.6884262226D-01
      0.2921015530D+02  0.2321844432D+00
      0.9286662960D+01  0.4679413484D+00
      0.3163926960D+01  0.3623119853D+00
 SP   3 1.00       0.000000000000
      0.7868272350D+01 -0.1193324198D+00  0.6899906659D-01
      0.1881288540D+01 -0.1608541517D+00  0.3164239610D+00
      0.5442492580D+00  0.1143456438D+01  0.7443082909D+00
 SP   1 1.00       0.000000000000
      0.1687144782D+00  0.1000000000D+01  0.1000000000D+01
 D   1 1.00       0.000000000000
      0.8000000000D+00  0.1000000000D+01
 ****
     64 0
 S   3 1.00       0.000000000000
      0.1873113696D+02  0.3349460434D-01
      0.2825394365D+01  0.2347269535D+00
      0.6401216923D+00  0.8137573261D+00
 S   1 1.00       0.000000000000
      0.1612777588D+00  0.1000000000D+01
 ****
     65 0
 S   3 1.00       0.000000000000
      0.1873113696D+02  0.3349460434D-01
      0.2825394365D+01  0.2347269535D+00
      0.6401216923D+00  0.8137573261D+00
 S   1 1.00       0.000000000000
      0.1612777588D+00  0.1000000000D+01
 ****
     66 0
 S   6 1.00       0.000000000000
      0.3047524880D+04  0.1834737132D-02
      0.4573695180D+03  0.1403732281D-01
      0.1039486850D+03  0.6884262226D-01
      0.2921015530D+02  0.2321844432D+00
      0.9286662960D+01  0.4679413484D+00
      0.3163926960D+01  0.3623119853D+00
 SP   3 1.00       0.000000000000
      0.7868272350D+01 -0.1193324198D+00  0.6899906659D-01
      0.1881288540D+01 -0.1608541517D+00  0.3164239610D+00
      0.5442492580D+00  0.1143456438D+01  0.7443082909D+00
 SP   1 1.00       0.000000000000
      0.1687144782D+00  0.1000000000D+01  0.1000000000D+01
 D   1 1.00       0.000000000000
      0.8000000000D+00  0.1000000000D+01
 ****
     67 0
 S   3 1.00       0.000000000000
      0.1873113696D+02  0.3349460434D-01
      0.2825394365D+01  0.2347269535D+00
      0.6401216923D+00  0.8137573261D+00
 S   1 1.00       0.000000000000
      0.1612777588D+00  0.1000000000D+01
 ****
     68 0
 S   6 1.00       0.000000000000
      0.3047524880D+04  0.1834737132D-02
      0.4573695180D+03  0.1403732281D-01
      0.1039486850D+03  0.6884262226D-01
      0.2921015530D+02  0.2321844432D+00
      0.9286662960D+01  0.4679413484D+00
      0.3163926960D+01  0.3623119853D+00
 SP   3 1.00       0.000000000000
      0.7868272350D+01 -0.1193324198D+00  0.6899906659D-01
      0.1881288540D+01 -0.1608541517D+00  0.3164239610D+00
      0.5442492580D+00  0.1143456438D+01  0.7443082909D+00
 SP   1 1.00       0.000000000000
      0.1687144782D+00  0.1000000000D+01  0.1000000000D+01
 D   1 1.00       0.000000000000
      0.8000000000D+00  0.1000000000D+01
 ****
     69 0
 S   3 1.00       0.000000000000
      0.1873113696D+02  0.3349460434D-01
      0.2825394365D+01  0.2347269535D+00
      0.6401216923D+00  0.8137573261D+00
 S   1 1.00       0.000000000000
      0.1612777588D+00  0.1000000000D+01
 ****
     70 0
 S   3 1.00       0.000000000000
      0.1873113696D+02  0.3349460434D-01
      0.2825394365D+01  0.2347269535D+00
      0.6401216923D+00  0.8137573261D+00
 S   1 1.00       0.000000000000
      0.1612777588D+00  0.1000000000D+01
 ****
     71 0
 S   3 1.00       0.000000000000
      0.1873113696D+02  0.3349460434D-01
      0.2825394365D+01  0.2347269535D+00
      0.6401216923D+00  0.8137573261D+00
 S   1 1.00       0.000000000000
      0.1612777588D+00  0.1000000000D+01
 ****
     72 0
 S   6 1.00       0.000000000000
      0.3047524880D+04  0.1834737132D-02
      0.4573695180D+03  0.1403732281D-01
      0.1039486850D+03  0.6884262226D-01
      0.2921015530D+02  0.2321844432D+00
      0.9286662960D+01  0.4679413484D+00
      0.3163926960D+01  0.3623119853D+00
 SP   3 1.00       0.000000000000
      0.7868272350D+01 -0.1193324198D+00  0.6899906659D-01
      0.1881288540D+01 -0.1608541517D+00  0.3164239610D+00
      0.5442492580D+00  0.1143456438D+01  0.7443082909D+00
 SP   1 1.00       0.000000000000
      0.1687144782D+00  0.1000000000D+01  0.1000000000D+01
 D   1 1.00       0.000000000000
      0.8000000000D+00  0.1000000000D+01
 ****
     73 0
 S   3 1.00       0.000000000000
      0.1873113696D+02  0.3349460434D-01
      0.2825394365D+01  0.2347269535D+00
      0.6401216923D+00  0.8137573261D+00
 S   1 1.00       0.000000000000
      0.1612777588D+00  0.1000000000D+01
 ****
     74 0
 S   3 1.00       0.000000000000
      0.1873113696D+02  0.3349460434D-01
      0.2825394365D+01  0.2347269535D+00
      0.6401216923D+00  0.8137573261D+00
 S   1 1.00       0.000000000000
      0.1612777588D+00  0.1000000000D+01
 ****
     75 0
 S   3 1.00       0.000000000000
      0.1873113696D+02  0.3349460434D-01
      0.2825394365D+01  0.2347269535D+00
      0.6401216923D+00  0.8137573261D+00
 S   1 1.00       0.000000000000
      0.1612777588D+00  0.1000000000D+01
 ****

 AO basis set (Overlap normalization):
 Atom O1       Shell     1 S   6     bf    1 -     1         10.486566220012          8.570465292873          0.000000000000
      0.5484671660D+04  0.1831074430D-02
      0.8252349460D+03  0.1395017220D-01
      0.1880469580D+03  0.6844507810D-01
      0.5296450000D+02  0.2327143360D+00
      0.1689757040D+02  0.4701928980D+00
      0.5799635340D+01  0.3585208530D+00
 Atom O1       Shell     2 SP   3    bf    2 -     5         10.486566220012          8.570465292873          0.000000000000
      0.1553961625D+02 -0.1107775495D+00  0.7087426823D-01
      0.3599933586D+01 -0.1480262627D+00  0.3397528391D+00
      0.1013761750D+01  0.1130767015D+01  0.7271585773D+00
 Atom O1       Shell     3 SP   1    bf    6 -     9         10.486566220012          8.570465292873          0.000000000000
      0.2700058226D+00  0.1000000000D+01  0.1000000000D+01
 Atom O1       Shell     4 D   1     bf   10 -    15         10.486566220012          8.570465292873          0.000000000000
      0.8000000000D+00  0.1000000000D+01
 Atom H2       Shell     5 S   3     bf   16 -    16          9.862341887146          8.688679605554         -1.714655667839
      0.1873113696D+02  0.3349460434D-01
      0.2825394365D+01  0.2347269535D+00
      0.6401216923D+00  0.8137573261D+00
 Atom H2       Shell     6 S   1     bf   17 -    17          9.862341887146          8.688679605554         -1.714655667839
      0.1612777588D+00  0.1000000000D+01
 Atom O3       Shell     7 S   6     bf   18 -    18          0.000000000000          0.000000000000          0.000000000000
      0.5484671660D+04  0.1831074430D-02
      0.8252349460D+03  0.1395017220D-01
      0.1880469580D+03  0.6844507810D-01
      0.5296450000D+02  0.2327143360D+00
      0.1689757040D+02  0.4701928980D+00
      0.5799635340D+01  0.3585208530D+00
 Atom O3       Shell     8 SP   3    bf   19 -    22          0.000000000000          0.000000000000          0.000000000000
      0.1553961625D+02 -0.1107775495D+00  0.7087426823D-01
      0.3599933586D+01 -0.1480262627D+00  0.3397528391D+00
      0.1013761750D+01  0.1130767015D+01  0.7271585773D+00
 Atom O3       Shell     9 SP   1    bf   23 -    26          0.000000000000          0.000000000000          0.000000000000
      0.2700058226D+00  0.1000000000D+01  0.1000000000D+01
 Atom O3       Shell    10 D   1     bf   27 -    32          0.000000000000          0.000000000000          0.000000000000
      0.8000000000D+00  0.1000000000D+01
 Atom H4       Shell    11 S   3     bf   33 -    33         -0.294610345021         -0.190275012539         -1.794470102993
      0.1873113696D+02  0.3349460434D-01
      0.2825394365D+01  0.2347269535D+00
      0.6401216923D+00  0.8137573261D+00
 Atom H4       Shell    12 S   1     bf   34 -    34         -0.294610345021         -0.190275012539         -1.794470102993
      0.1612777588D+00  0.1000000000D+01
 Atom C5       Shell    13 S   6     bf   35 -    35         16.487182702458          2.410300669219         -0.253344395457
      0.3047524880D+04  0.1834737132D-02
      0.4573695180D+03  0.1403732281D-01
      0.1039486850D+03  0.6884262226D-01
      0.2921015530D+02  0.2321844432D+00
      0.9286662960D+01  0.4679413484D+00
      0.3163926960D+01  0.3623119853D+00
 Atom C5       Shell    14 SP   3    bf   36 -    39         16.487182702458          2.410300669219         -0.253344395457
      0.7868272350D+01 -0.1193324198D+00  0.6899906659D-01
      0.1881288540D+01 -0.1608541517D+00  0.3164239610D+00
      0.5442492580D+00  0.1143456438D+01  0.7443082909D+00
 Atom C5       Shell    15 SP   1    bf   40 -    43         16.487182702458          2.410300669219         -0.253344395457
      0.1687144782D+00  0.1000000000D+01  0.1000000000D+01
 Atom C5       Shell    16 D   1     bf   44 -    49         16.487182702458          2.410300669219         -0.253344395457
      0.8000000000D+00  0.1000000000D+01
 Atom C6       Shell    17 S   6     bf   50 -    50         14.545661576222          4.338714258155          0.799278659652
      0.3047524880D+04  0.1834737132D-02
      0.4573695180D+03  0.1403732281D-01
      0.1039486850D+03  0.6884262226D-01
      0.2921015530D+02  0.2321844432D+00
      0.9286662960D+01  0.4679413484D+00
      0.3163926960D+01  0.3623119853D+00
 Atom C6       Shell    18 SP   3    bf   51 -    54         14.545661576222          4.338714258155          0.799278659652
      0.7868272350D+01 -0.1193324198D+00  0.6899906659D-01
      0.1881288540D+01 -0.1608541517D+00  0.3164239610D+00
      0.5442492580D+00  0.1143456438D+01  0.7443082909D+00
 Atom C6       Shell    19 SP   1    bf   55 -    58         14.545661576222          4.338714258155          0.799278659652
      0.1687144782D+00  0.1000000000D+01  0.1000000000D+01
 Atom C6       Shell    20 D   1     bf   59 -    64         14.545661576222          4.338714258155          0.799278659652
      0.8000000000D+00  0.1000000000D+01
 Atom H7       Shell    21 S   3     bf   65 -    65         14.322400675937          3.838092451887          2.811468041045
      0.1873113696D+02  0.3349460434D-01
      0.2825394365D+01  0.2347269535D+00
      0.6401216923D+00  0.8137573261D+00
 Atom H7       Shell    22 S   1     bf   66 -    66         14.322400675937          3.838092451887          2.811468041045
      0.1612777588D+00  0.1000000000D+01
 Atom C8       Shell    23 S   6     bf   67 -    67         11.879651387009          4.118266158527         -0.336889244484
      0.3047524880D+04  0.1834737132D-02
      0.4573695180D+03  0.1403732281D-01
      0.1039486850D+03  0.6884262226D-01
      0.2921015530D+02  0.2321844432D+00
      0.9286662960D+01  0.4679413484D+00
      0.3163926960D+01  0.3623119853D+00
 Atom C8       Shell    24 SP   3    bf   68 -    71         11.879651387009          4.118266158527         -0.336889244484
      0.7868272350D+01 -0.1193324198D+00  0.6899906659D-01
      0.1881288540D+01 -0.1608541517D+00  0.3164239610D+00
      0.5442492580D+00  0.1143456438D+01  0.7443082909D+00
 Atom C8       Shell    25 SP   1    bf   72 -    75         11.879651387009          4.118266158527         -0.336889244484
      0.1687144782D+00  0.1000000000D+01  0.1000000000D+01
 Atom C8       Shell    26 D   1     bf   76 -    81         11.879651387009          4.118266158527         -0.336889244484
      0.8000000000D+00  0.1000000000D+01
 Atom H9       Shell    27 S   3     bf   82 -    82         11.946281921030          4.546770289694         -2.369629870004
      0.1873113696D+02  0.3349460434D-01
      0.2825394365D+01  0.2347269535D+00
      0.6401216923D+00  0.8137573261D+00
 Atom H9       Shell    28 S   1     bf   83 -    83         11.946281921030          4.546770289694         -2.369629870004
      0.1612777588D+00  0.1000000000D+01
 Atom C10      Shell    29 S   6     bf   84 -    84         10.872941949505          1.381253761755          0.057727505085
      0.3047524880D+04  0.1834737132D-02
      0.4573695180D+03  0.1403732281D-01
      0.1039486850D+03  0.6884262226D-01
      0.2921015530D+02  0.2321844432D+00
      0.9286662960D+01  0.4679413484D+00
      0.3163926960D+01  0.3623119853D+00
 Atom C10      Shell    30 SP   3    bf   85 -    88         10.872941949505          1.381253761755          0.057727505085
      0.7868272350D+01 -0.1193324198D+00  0.6899906659D-01
      0.1881288540D+01 -0.1608541517D+00  0.3164239610D+00
      0.5442492580D+00  0.1143456438D+01  0.7443082909D+00
 Atom C10      Shell    31 SP   1    bf   89 -    92         10.872941949505          1.381253761755          0.057727505085
      0.1687144782D+00  0.1000000000D+01  0.1000000000D+01
 Atom C10      Shell    32 D   1     bf   93 -    98         10.872941949505          1.381253761755          0.057727505085
      0.8000000000D+00  0.1000000000D+01
 Atom H11      Shell    33 S   3     bf   99 -    99         10.622674065986          1.174507593885          2.115729517118
      0.1873113696D+02  0.3349460434D-01
      0.2825394365D+01  0.2347269535D+00
      0.6401216923D+00  0.8137573261D+00
 Atom H11      Shell    34 S   1     bf  100 -   100         10.622674065986          1.174507593885          2.115729517118
      0.1612777588D+00  0.1000000000D+01
 Atom C12      Shell    35 S   6     bf  101 -   101         18.864634980405          3.198448558489          1.304222250688
      0.3047524880D+04  0.1834737132D-02
      0.4573695180D+03  0.1403732281D-01
      0.1039486850D+03  0.6884262226D-01
      0.2921015530D+02  0.2321844432D+00
      0.9286662960D+01  0.4679413484D+00
      0.3163926960D+01  0.3623119853D+00
 Atom C12      Shell    36 SP   3    bf  102 -   105         18.864634980405          3.198448558489          1.304222250688
      0.7868272350D+01 -0.1193324198D+00  0.6899906659D-01
      0.1881288540D+01 -0.1608541517D+00  0.3164239610D+00
      0.5442492580D+00  0.1143456438D+01  0.7443082909D+00
 Atom C12      Shell    37 SP   1    bf  106 -   109         18.864634980405          3.198448558489          1.304222250688
      0.1687144782D+00  0.1000000000D+01  0.1000000000D+01
 Atom C12      Shell    38 D   1     bf  110 -   115         18.864634980405          3.198448558489          1.304222250688
      0.8000000000D+00  0.1000000000D+01
 Atom H13      Shell    39 S   3     bf  116 -   116         18.411452764491          2.607573299834          3.244599034367
      0.1873113696D+02  0.3349460434D-01
      0.2825394365D+01  0.2347269535D+00
      0.6401216923D+00  0.8137573261D+00
 Atom H13      Shell    40 S   1     bf  117 -   117         18.411452764491          2.607573299834          3.244599034367
      0.1612777588D+00  0.1000000000D+01
 Atom C14      Shell    41 S   6     bf  118 -   118         15.484513915165         -0.252790573420          0.334304250312
      0.3047524880D+04  0.1834737132D-02
      0.4573695180D+03  0.1403732281D-01
      0.1039486850D+03  0.6884262226D-01
      0.2921015530D+02  0.2321844432D+00
      0.9286662960D+01  0.4679413484D+00
      0.3163926960D+01  0.3623119853D+00
 Atom C14      Shell    42 SP   3    bf  119 -   122         15.484513915165         -0.252790573420          0.334304250312
      0.7868272350D+01 -0.1193324198D+00  0.6899906659D-01
      0.1881288540D+01 -0.1608541517D+00  0.3164239610D+00
      0.5442492580D+00  0.1143456438D+01  0.7443082909D+00
 Atom C14      Shell    43 SP   1    bf  123 -   126         15.484513915165         -0.252790573420          0.334304250312
      0.1687144782D+00  0.1000000000D+01  0.1000000000D+01
 Atom C14      Shell    44 D   1     bf  127 -   132         15.484513915165         -0.252790573420          0.334304250312
      0.8000000000D+00  0.1000000000D+01
 Atom H15      Shell    45 S   3     bf  133 -   133         15.434349396419         -0.507359379130          2.396041249355
      0.1873113696D+02  0.3349460434D-01
      0.2825394365D+01  0.2347269535D+00
      0.6401216923D+00  0.8137573261D+00
 Atom H15      Shell    46 S   1     bf  134 -   134         15.434349396419         -0.507359379130          2.396041249355
      0.1612777588D+00  0.1000000000D+01
 Atom H16      Shell    47 S   3     bf  135 -   135         16.750897763754         -1.717934852905         -0.412200329982
      0.1873113696D+02  0.3349460434D-01
      0.2825394365D+01  0.2347269535D+00
      0.6401216923D+00  0.8137573261D+00
 Atom H16      Shell    48 S   1     bf  136 -   136         16.750897763754         -1.717934852905         -0.412200329982
      0.1612777588D+00  0.1000000000D+01
 Atom C17      Shell    49 S   6     bf  137 -   137          8.182801299281          0.952066022160         -1.114409654133
      0.3047524880D+04  0.1834737132D-02
      0.4573695180D+03  0.1403732281D-01
      0.1039486850D+03  0.6884262226D-01
      0.2921015530D+02  0.2321844432D+00
      0.9286662960D+01  0.4679413484D+00
      0.3163926960D+01  0.3623119853D+00
 Atom C17      Shell    50 SP   3    bf  138 -   141          8.182801299281          0.952066022160         -1.114409654133
      0.7868272350D+01 -0.1193324198D+00  0.6899906659D-01
      0.1881288540D+01 -0.1608541517D+00  0.3164239610D+00
      0.5442492580D+00  0.1143456438D+01  0.7443082909D+00
 Atom C17      Shell    51 SP   1    bf  142 -   145          8.182801299281          0.952066022160         -1.114409654133
      0.1687144782D+00  0.1000000000D+01  0.1000000000D+01
 Atom C17      Shell    52 D   1     bf  146 -   151          8.182801299281          0.952066022160         -1.114409654133
      0.8000000000D+00  0.1000000000D+01
 Atom C18      Shell    53 S   6     bf  152 -   152         15.971109947307          6.879404197509          0.743701908570
      0.3047524880D+04  0.1834737132D-02
      0.4573695180D+03  0.1403732281D-01
      0.1039486850D+03  0.6884262226D-01
      0.2921015530D+02  0.2321844432D+00
      0.9286662960D+01  0.4679413484D+00
      0.3163926960D+01  0.3623119853D+00
 Atom C18      Shell    54 SP   3    bf  153 -   156         15.971109947307          6.879404197509          0.743701908570
      0.7868272350D+01 -0.1193324198D+00  0.6899906659D-01
      0.1881288540D+01 -0.1608541517D+00  0.3164239610D+00
      0.5442492580D+00  0.1143456438D+01  0.7443082909D+00
 Atom C18      Shell    55 SP   1    bf  157 -   160         15.971109947307          6.879404197509          0.743701908570
      0.1687144782D+00  0.1000000000D+01  0.1000000000D+01
 Atom C18      Shell    56 D   1     bf  161 -   166         15.971109947307          6.879404197509          0.743701908570
      0.8000000000D+00  0.1000000000D+01
 Atom H19      Shell    57 S   3     bf  167 -   167         15.217331168620          8.226381936590          2.114812905457
      0.1873113696D+02  0.3349460434D-01
      0.2825394365D+01  0.2347269535D+00
      0.6401216923D+00  0.8137573261D+00
 Atom H19      Shell    58 S   1     bf  168 -   168         15.217331168620          8.226381936590          2.114812905457
      0.1612777588D+00  0.1000000000D+01
 Atom H20      Shell    59 S   3     bf  169 -   169         15.784274311919          7.784197208674         -1.107921109381
      0.1873113696D+02  0.3349460434D-01
      0.2825394365D+01  0.2347269535D+00
      0.6401216923D+00  0.8137573261D+00
 Atom H20      Shell    60 S   1     bf  170 -   170         15.784274311919          7.784197208674         -1.107921109381
      0.1612777588D+00  0.1000000000D+01
 Atom C21      Shell    61 S   6     bf  171 -   171         12.813385723975         -0.655635719695         -0.754047913483
      0.3047524880D+04  0.1834737132D-02
      0.4573695180D+03  0.1403732281D-01
      0.1039486850D+03  0.6884262226D-01
      0.2921015530D+02  0.2321844432D+00
      0.9286662960D+01  0.4679413484D+00
      0.3163926960D+01  0.3623119853D+00
 Atom C21      Shell    62 SP   3    bf  172 -   175         12.813385723975         -0.655635719695         -0.754047913483
      0.7868272350D+01 -0.1193324198D+00  0.6899906659D-01
      0.1881288540D+01 -0.1608541517D+00  0.3164239610D+00
      0.5442492580D+00  0.1143456438D+01  0.7443082909D+00
 Atom C21      Shell    63 SP   1    bf  176 -   179         12.813385723975         -0.655635719695         -0.754047913483
      0.1687144782D+00  0.1000000000D+01  0.1000000000D+01
 Atom C21      Shell    64 D   1     bf  180 -   185         12.813385723975         -0.655635719695         -0.754047913483
      0.8000000000D+00  0.1000000000D+01
 Atom H22      Shell    65 S   3     bf  186 -   186         12.939011939392         -0.721269593256         -2.818186244214
      0.1873113696D+02  0.3349460434D-01
      0.2825394365D+01  0.2347269535D+00
      0.6401216923D+00  0.8137573261D+00
 Atom H22      Shell    66 S   1     bf  187 -   187         12.939011939392         -0.721269593256         -2.818186244214
      0.1612777588D+00  0.1000000000D+01
 Atom H23      Shell    67 S   3     bf  188 -   188         12.136637757156         -2.521784174257         -0.166499234226
      0.1873113696D+02  0.3349460434D-01
      0.2825394365D+01  0.2347269535D+00
      0.6401216923D+00  0.8137573261D+00
 Atom H23      Shell    68 S   1     bf  189 -   189         12.136637757156         -2.521784174257         -0.166499234226
      0.1612777588D+00  0.1000000000D+01
 Atom C24      Shell    69 S   6     bf  190 -   190         18.774146937415          6.145761357836          1.286195094860
      0.3047524880D+04  0.1834737132D-02
      0.4573695180D+03  0.1403732281D-01
      0.1039486850D+03  0.6884262226D-01
      0.2921015530D+02  0.2321844432D+00
      0.9286662960D+01  0.4679413484D+00
      0.3163926960D+01  0.3623119853D+00
 Atom C24      Shell    70 SP   3    bf  191 -   194         18.774146937415          6.145761357836          1.286195094860
      0.7868272350D+01 -0.1193324198D+00  0.6899906659D-01
      0.1881288540D+01 -0.1608541517D+00  0.3164239610D+00
      0.5442492580D+00  0.1143456438D+01  0.7443082909D+00
 Atom C24      Shell    71 SP   1    bf  195 -   198         18.774146937415          6.145761357836          1.286195094860
      0.1687144782D+00  0.1000000000D+01  0.1000000000D+01
 Atom C24      Shell    72 D   1     bf  199 -   204         18.774146937415          6.145761357836          1.286195094860
      0.8000000000D+00  0.1000000000D+01
 Atom H25      Shell    73 S   3     bf  205 -   205         20.016009208376          6.932161439406         -0.166546552968
      0.1873113696D+02  0.3349460434D-01
      0.2825394365D+01  0.2347269535D+00
      0.6401216923D+00  0.8137573261D+00
 Atom H25      Shell    74 S   1     bf  206 -   206         20.016009208376          6.932161439406         -0.166546552968
      0.1612777588D+00  0.1000000000D+01
 Atom H26      Shell    75 S   3     bf  207 -   207         19.430067004201          6.916349647318          3.091406268911
      0.1873113696D+02  0.3349460434D-01
      0.2825394365D+01  0.2347269535D+00
      0.6401216923D+00  0.8137573261D+00
 Atom H26      Shell    76 S   1     bf  208 -   208         19.430067004201          6.916349647318          3.091406268911
      0.1612777588D+00  0.1000000000D+01
 Atom C27      Shell    77 S   6     bf  209 -   209         10.049410242307          6.029338392145          0.877134393669
      0.3047524880D+04  0.1834737132D-02
      0.4573695180D+03  0.1403732281D-01
      0.1039486850D+03  0.6884262226D-01
      0.2921015530D+02  0.2321844432D+00
      0.9286662960D+01  0.4679413484D+00
      0.3163926960D+01  0.3623119853D+00
 Atom C27      Shell    78 SP   3    bf  210 -   213         10.049410242307          6.029338392145          0.877134393669
      0.7868272350D+01 -0.1193324198D+00  0.6899906659D-01
      0.1881288540D+01 -0.1608541517D+00  0.3164239610D+00
      0.5442492580D+00  0.1143456438D+01  0.7443082909D+00
 Atom C27      Shell    79 SP   1    bf  214 -   217         10.049410242307          6.029338392145          0.877134393669
      0.1687144782D+00  0.1000000000D+01  0.1000000000D+01
 Atom C27      Shell    80 D   1     bf  218 -   223         10.049410242307          6.029338392145          0.877134393669
      0.8000000000D+00  0.1000000000D+01
 Atom H28      Shell    81 S   3     bf  224 -   224         10.456837350845          6.150083237091          2.910701509810
      0.1873113696D+02  0.3349460434D-01
      0.2825394365D+01  0.2347269535D+00
      0.6401216923D+00  0.8137573261D+00
 Atom H28      Shell    82 S   1     bf  225 -   225         10.456837350845          6.150083237091          2.910701509810
      0.1612777588D+00  0.1000000000D+01
 Atom C29      Shell    83 S   6     bf  226 -   226         21.438867237364          1.914827516287          0.686264457548
      0.3047524880D+04  0.1834737132D-02
      0.4573695180D+03  0.1403732281D-01
      0.1039486850D+03  0.6884262226D-01
      0.2921015530D+02  0.2321844432D+00
      0.9286662960D+01  0.4679413484D+00
      0.3163926960D+01  0.3623119853D+00
 Atom C29      Shell    84 SP   3    bf  227 -   230         21.438867237364          1.914827516287          0.686264457548
      0.7868272350D+01 -0.1193324198D+00  0.6899906659D-01
      0.1881288540D+01 -0.1608541517D+00  0.3164239610D+00
      0.5442492580D+00  0.1143456438D+01  0.7443082909D+00
 Atom C29      Shell    85 SP   1    bf  231 -   234         21.438867237364          1.914827516287          0.686264457548
      0.1687144782D+00  0.1000000000D+01  0.1000000000D+01
 Atom C29      Shell    86 D   1     bf  235 -   240         21.438867237364          1.914827516287          0.686264457548
      0.8000000000D+00  0.1000000000D+01
 Atom H30      Shell    87 S   3     bf  241 -   241         21.001409168040          0.000000000000          0.000000000000
      0.1873113696D+02  0.3349460434D-01
      0.2825394365D+01  0.2347269535D+00
      0.6401216923D+00  0.8137573261D+00
 Atom H30      Shell    88 S   1     bf  242 -   242         21.001409168040          0.000000000000          0.000000000000
      0.1612777588D+00  0.1000000000D+01
 Atom C31      Shell    89 S   6     bf  243 -   243         16.919330905910          2.712080521805         -3.124581771777
      0.3047524880D+04  0.1834737132D-02
      0.4573695180D+03  0.1403732281D-01
      0.1039486850D+03  0.6884262226D-01
      0.2921015530D+02  0.2321844432D+00
      0.9286662960D+01  0.4679413484D+00
      0.3163926960D+01  0.3623119853D+00
 Atom C31      Shell    90 SP   3    bf  244 -   247         16.919330905910          2.712080521805         -3.124581771777
      0.7868272350D+01 -0.1193324198D+00  0.6899906659D-01
      0.1881288540D+01 -0.1608541517D+00  0.3164239610D+00
      0.5442492580D+00  0.1143456438D+01  0.7443082909D+00
 Atom C31      Shell    91 SP   1    bf  248 -   251         16.919330905910          2.712080521805         -3.124581771777
      0.1687144782D+00  0.1000000000D+01  0.1000000000D+01
 Atom C31      Shell    92 D   1     bf  252 -   257         16.919330905910          2.712080521805         -3.124581771777
      0.8000000000D+00  0.1000000000D+01
 Atom H32      Shell    93 S   3     bf  258 -   258         15.187770522874          2.408511533208         -4.209246966503
      0.1873113696D+02  0.3349460434D-01
      0.2825394365D+01  0.2347269535D+00
      0.6401216923D+00  0.8137573261D+00
 Atom H32      Shell    94 S   1     bf  259 -   259         15.187770522874          2.408511533208         -4.209246966503
      0.1612777588D+00  0.1000000000D+01
 Atom H33      Shell    95 S   3     bf  260 -   260         17.617819623867          4.593683175579         -3.615395483675
      0.1873113696D+02  0.3349460434D-01
      0.2825394365D+01  0.2347269535D+00
      0.6401216923D+00  0.8137573261D+00
 Atom H33      Shell    96 S   1     bf  261 -   261         17.617819623867          4.593683175579         -3.615395483675
      0.1612777588D+00  0.1000000000D+01
 Atom H34      Shell    97 S   3     bf  262 -   262         18.306216958610          1.330143378388         -3.796696489165
      0.1873113696D+02  0.3349460434D-01
      0.2825394365D+01  0.2347269535D+00
      0.6401216923D+00  0.8137573261D+00
 Atom H34      Shell    98 S   1     bf  263 -   263         18.306216958610          1.330143378388         -3.796696489165
      0.1612777588D+00  0.1000000000D+01
 Atom C35      Shell    99 S   6     bf  264 -   264          6.442042485320          3.161541980347         -0.421539639990
      0.3047524880D+04  0.1834737132D-02
      0.4573695180D+03  0.1403732281D-01
      0.1039486850D+03  0.6884262226D-01
      0.2921015530D+02  0.2321844432D+00
      0.9286662960D+01  0.4679413484D+00
      0.3163926960D+01  0.3623119853D+00
 Atom C35      Shell   100 SP   3    bf  265 -   268          6.442042485320          3.161541980347         -0.421539639990
      0.7868272350D+01 -0.1193324198D+00  0.6899906659D-01
      0.1881288540D+01 -0.1608541517D+00  0.3164239610D+00
      0.5442492580D+00  0.1143456438D+01  0.7443082909D+00
 Atom C35      Shell   101 SP   1    bf  269 -   272          6.442042485320          3.161541980347         -0.421539639990
      0.1687144782D+00  0.1000000000D+01  0.1000000000D+01
 Atom C35      Shell   102 D   1     bf  273 -   278          6.442042485320          3.161541980347         -0.421539639990
      0.8000000000D+00  0.1000000000D+01
 Atom C36      Shell   103 S   6     bf  279 -   279          7.037102240141         -1.514437936840          0.027893831708
      0.3047524880D+04  0.1834737132D-02
      0.4573695180D+03  0.1403732281D-01
      0.1039486850D+03  0.6884262226D-01
      0.2921015530D+02  0.2321844432D+00
      0.9286662960D+01  0.4679413484D+00
      0.3163926960D+01  0.3623119853D+00
 Atom C36      Shell   104 SP   3    bf  280 -   283          7.037102240141         -1.514437936840          0.027893831708
      0.7868272350D+01 -0.1193324198D+00  0.6899906659D-01
      0.1881288540D+01 -0.1608541517D+00  0.3164239610D+00
      0.5442492580D+00  0.1143456438D+01  0.7443082909D+00
 Atom C36      Shell   105 SP   1    bf  284 -   287          7.037102240141         -1.514437936840          0.027893831708
      0.1687144782D+00  0.1000000000D+01  0.1000000000D+01
 Atom C36      Shell   106 D   1     bf  288 -   293          7.037102240141         -1.514437936840          0.027893831708
      0.8000000000D+00  0.1000000000D+01
 Atom H37      Shell   107 S   3     bf  294 -   294          7.315081804665         -1.466889838412          2.085052780221
      0.1873113696D+02  0.3349460434D-01
      0.2825394365D+01  0.2347269535D+00
      0.6401216923D+00  0.8137573261D+00
 Atom H37      Shell   108 S   1     bf  295 -   295          7.315081804665         -1.466889838412          2.085052780221
      0.1612777588D+00  0.1000000000D+01
 Atom H38      Shell   109 S   3     bf  296 -   296          8.093280852763         -3.151690516763         -0.669198851068
      0.1873113696D+02  0.3349460434D-01
      0.2825394365D+01  0.2347269535D+00
      0.6401216923D+00  0.8137573261D+00
 Atom H38      Shell   110 S   1     bf  297 -   297          8.093280852763         -3.151690516763         -0.669198851068
      0.1612777588D+00  0.1000000000D+01
 Atom C39      Shell   111 S   6     bf  298 -   298          7.316227243263          5.350024574081          0.510681990103
      0.3047524880D+04  0.1834737132D-02
[...]
 **** Fit      -0.001658
 **** Fit      -0.001513
 **** Fit      -0.001294
 **** Fit      -0.001039
 **** Fit      -0.000775
 **** Fit      -0.000502
 **** Fit      -0.000185
 **** Fit       0.000213
 **** Fit       0.000692
 **** Fit       0.001168
 **** Fit       0.001489
 **** Fit       0.001527
 **** Fit       0.001276
 **** Fit       0.000850
 **** Fit       0.000393
 **** Fit       0.000004
 **** Fit      -0.000281
 **** Fit      -0.001397
 **** Fit      -0.001341
 **** Fit      -0.001195
 **** Fit      -0.000968
 **** Fit      -0.000693
 **** Fit      -0.000415
 **** Fit      -0.000158
 **** Fit       0.000082
 **** Fit       0.000339
 **** Fit       0.000639
 **** Fit       0.000977
 **** Fit       0.001291
 **** Fit       0.001483
 **** Fit       0.001475
 **** Fit       0.001261
 **** Fit       0.000913
 **** Fit       0.000526
 **** Fit       0.000176
 **** Fit      -0.000101
 **** Fit      -0.001100
 **** Fit      -0.000976
 **** Fit      -0.000771
 **** Fit      -0.000502
 **** Fit      -0.000209
 **** Fit       0.000065
 **** Fit       0.000295
 **** Fit       0.000489
 **** Fit       0.000674
 **** Fit       0.000872
 **** Fit       0.001080
 **** Fit       0.001258
 **** Fit       0.001349
 **** Fit       0.001306
 **** Fit       0.001127
 **** Fit       0.000852
 **** Fit       0.000541
 **** Fit       0.000246
 **** Fit      -0.000831
 **** Fit      -0.000671
 **** Fit      -0.000443
 **** Fit      -0.000169
 **** Fit       0.000112
 **** Fit       0.000362
 **** Fit       0.000560
 **** Fit       0.000712
 **** Fit       0.000837
 **** Fit       0.000955
 **** Fit       0.001066
 **** Fit       0.001148
 **** Fit       0.001169
 **** Fit       0.001105
 **** Fit       0.000953
 **** Fit       0.000737
 **** Fit       0.000491
 **** Fit      -0.000445
 **** Fit      -0.000223
 **** Fit       0.000029
 **** Fit       0.000280
 **** Fit       0.000497
 **** Fit       0.000664
 **** Fit       0.000783
 **** Fit       0.000867
 **** Fit       0.001002
 **** Fit       0.000983
 **** Fit       0.000908
 **** Fit       0.000778
 **** Fit       0.000123
 **** Fit       0.000335
 **** Fit       0.000517
 **** Fit       0.000656
 **** Fit       0.000750
 **** Fit       0.001057
 **** Fit       0.000955
 **** Fit       0.000796
 **** Fit       0.000586
 **** Fit       0.000350
 **** Fit       0.001186
 **** Fit       0.001147
 **** Fit       0.001039
 **** Fit       0.000850
 **** Fit       0.000589
 **** Fit       0.000287
 **** Fit      -0.000010
 **** Fit      -0.000261
 **** Fit       0.001201
 **** Fit       0.001225
 **** Fit       0.001201
 **** Fit       0.001091
 **** Fit       0.000871
 **** Fit       0.000549
 **** Fit       0.000170
 **** Fit      -0.000199
 **** Fit      -0.000500
 **** Fit      -0.000702
 **** Fit       0.001096
 **** Fit       0.001143
 **** Fit       0.001180
 **** Fit       0.001168
 **** Fit       0.001057
 **** Fit       0.000806
 **** Fit       0.000418
 **** Fit      -0.000042
 **** Fit      -0.000481
 **** Fit      -0.000821
 **** Fit      -0.001029
 **** Fit      -0.001113
 **** Fit       0.000921
 **** Fit       0.000937
 **** Fit       0.000966
 **** Fit       0.000994
 **** Fit       0.000980
 **** Fit       0.000858
 **** Fit       0.000573
 **** Fit       0.000127
 **** Fit      -0.000400
 **** Fit      -0.000884
 **** Fit      -0.001235
 **** Fit      -0.001420
 **** Fit      -0.001461
 **** Fit       0.000759
 **** Fit       0.000733
 **** Fit       0.000693
 **** Fit       0.000658
 **** Fit       0.000637
 **** Fit       0.000621
 **** Fit       0.000569
 **** Fit       0.000414
 **** Fit       0.000092
 **** Fit      -0.000393
 **** Fit      -0.000943
 **** Fit      -0.001421
 **** Fit      -0.001731
 **** Fit      -0.001853
 **** Fit      -0.001824
 **** Fit       0.000569
 **** Fit       0.000580
 **** Fit       0.000544
 **** Fit       0.000466
 **** Fit       0.000363
 **** Fit       0.000255
 **** Fit       0.000155
 **** Fit       0.000056
 **** Fit      -0.000076
 **** Fit      -0.000299
 **** Fit      -0.000661
 **** Fit      -0.001147
 **** Fit      -0.001654
 **** Fit      -0.002050
 **** Fit      -0.002259
 **** Fit      -0.002279
 **** Fit      -0.002162
 **** Fit      -0.001962
 **** Fit       0.000323
 **** Fit       0.000349
 **** Fit       0.000326
 **** Fit       0.000245
 **** Fit       0.000111
 **** Fit      -0.000058
 **** Fit      -0.000242
 **** Fit      -0.000431
 **** Fit      -0.000633
 **** Fit      -0.000871
 **** Fit      -0.001178
 **** Fit      -0.001570
 **** Fit      -0.002012
 **** Fit      -0.002407
 **** Fit      -0.002658
 **** Fit      -0.002722
 **** Fit      -0.002623
 **** Fit      -0.002416
 **** Fit      -0.002154
 **** Fit       0.000042
 **** Fit       0.000065
 **** Fit       0.000054
 **** Fit      -0.000010
 **** Fit      -0.000136
 **** Fit      -0.000317
 **** Fit      -0.000536
 **** Fit      -0.000775
 **** Fit      -0.001031
 **** Fit      -0.001314
 **** Fit      -0.001638
 **** Fit      -0.002005
 **** Fit      -0.002393
 **** Fit      -0.002746
 **** Fit      -0.002989
 **** Fit      -0.003072
 **** Fit      -0.002994
 **** Fit      -0.002795
 **** Fit      -0.002528
 **** Fit      -0.002232
 **** Fit      -0.000224
 **** Fit      -0.000246
 **** Fit      -0.000302
 **** Fit      -0.000409
 **** Fit      -0.000571
 **** Fit      -0.000781
 **** Fit      -0.001018
 **** Fit      -0.001270
 **** Fit      -0.001542
 **** Fit      -0.001846
 **** Fit      -0.002187
 **** Fit      -0.002545
 **** Fit      -0.002870
 **** Fit      -0.003099
 **** Fit      -0.003187
 **** Fit      -0.003130
 **** Fit      -0.002960
 **** Fit      -0.002721
 **** Fit      -0.002448
 **** Fit      -0.002165
 **** Fit      -0.001887
 **** Fit      -0.000507
 **** Fit      -0.000578
 **** Fit      -0.000680
 **** Fit      -0.000824
 **** Fit      -0.001008
 **** Fit      -0.001218
 **** Fit      -0.001435
 **** Fit      -0.001653
 **** Fit      -0.001879
 **** Fit      -0.002130
 **** Fit      -0.002406
 **** Fit      -0.002671
 **** Fit      -0.002868
 **** Fit      -0.002946
 **** Fit      -0.002898
 **** Fit      -0.002759
 **** Fit      -0.002575
 **** Fit      -0.002373
 **** Fit      -0.002162
 **** Fit      -0.001945
 **** Fit      -0.001728
 **** Fit      -0.000773
 **** Fit      -0.000886
 **** Fit      -0.001025
 **** Fit      -0.001190
 **** Fit      -0.001373
 **** Fit      -0.001555
 **** Fit      -0.001720
 **** Fit      -0.001863
 **** Fit      -0.001999
 **** Fit      -0.002142
 **** Fit      -0.002288
 **** Fit      -0.002400
 **** Fit      -0.002428
 **** Fit      -0.002348
 **** Fit      -0.002194
 **** Fit      -0.002030
 **** Fit      -0.001898
 **** Fit      -0.001798
 **** Fit      -0.001705
 **** Fit      -0.001599
 **** Fit      -0.001474
 **** Fit      -0.001124
 **** Fit      -0.001278
 **** Fit      -0.001441
 **** Fit      -0.001597
 **** Fit      -0.001727
 **** Fit      -0.001819
 **** Fit      -0.001871
 **** Fit      -0.001899
 **** Fit      -0.001915
 **** Fit      -0.001913
 **** Fit      -0.001859
 **** Fit      -0.001724
 **** Fit      -0.001513
 **** Fit      -0.001292
 **** Fit      -0.001142
 **** Fit      -0.001095
 **** Fit      -0.001121
 **** Fit      -0.001164
 **** Fit      -0.001183
 **** Fit      -0.001164
 **** Fit      -0.001405
 **** Fit      -0.001539
 **** Fit      -0.001645
 **** Fit      -0.001707
 **** Fit      -0.001718
 **** Fit      -0.001682
 **** Fit      -0.001613
 **** Fit      -0.001520
 **** Fit      -0.001395
 **** Fit      -0.001215
 **** Fit      -0.000967
 **** Fit      -0.000683
 **** Fit      -0.000443
 **** Fit      -0.000327
 **** Fit      -0.000358
 **** Fit      -0.000488
 **** Fit      -0.000643
 **** Fit      -0.000770
 **** Fit      -0.000846
 **** Fit      -0.001484
 **** Fit      -0.001525
 **** Fit      -0.001514
 **** Fit      -0.001449
 **** Fit      -0.001341
 **** Fit      -0.001203
 **** Fit      -0.001041
 **** Fit      -0.000846
 **** Fit      -0.000604
 **** Fit      -0.000317
 **** Fit      -0.000025
 **** Fit       0.000192
 **** Fit       0.000266
 **** Fit       0.000184
 **** Fit      -0.000004
 **** Fit      -0.000224
 **** Fit      -0.000419
 **** Fit      -0.000562
 **** Fit      -0.001312
 **** Fit      -0.001286
 **** Fit      -0.001206
 **** Fit      -0.001080
 **** Fit      -0.000924
 **** Fit      -0.000750
 **** Fit      -0.000561
 **** Fit      -0.000350
 **** Fit      -0.000106
 **** Fit       0.000159
 **** Fit       0.000408
 **** Fit       0.000575
 **** Fit       0.000609
 **** Fit       0.000504
 **** Fit       0.000301
 **** Fit       0.000062
 **** Fit      -0.000161
 **** Fit      -0.000338
 **** Fit      -0.001077
 **** Fit      -0.000993
 **** Fit      -0.000860
 **** Fit      -0.000694
 **** Fit      -0.000513
 **** Fit      -0.000330
 **** Fit      -0.000147
 **** Fit       0.000045
 **** Fit       0.000251
 **** Fit       0.000461
 **** Fit       0.000643
 **** Fit       0.000753
 **** Fit       0.000753
 **** Fit       0.000642
 **** Fit       0.000450
 **** Fit       0.000223
 **** Fit       0.000004
 **** Fit      -0.000707
 **** Fit      -0.000543
 **** Fit      -0.000358
 **** Fit      -0.000172
 **** Fit       0.000003
 **** Fit       0.000164
 **** Fit       0.000320
 **** Fit       0.000474
 **** Fit       0.000620
 **** Fit       0.000737
 **** Fit       0.000793
 **** Fit       0.000769
 **** Fit       0.000660
 **** Fit       0.000490
 **** Fit       0.000289
 **** Fit      -0.000468
 **** Fit      -0.000293
 **** Fit      -0.000108
 **** Fit       0.000069
 **** Fit       0.000226
 **** Fit       0.000360
 **** Fit       0.000675
 **** Fit       0.000738
 **** Fit       0.000755
 **** Fit       0.000713
 **** Fit       0.000611
 **** Fit       0.000715
 **** Fit       0.000561
 **** Fit       0.000365
 **** Fit       0.000148
 **** Fit       0.000850
 **** Fit       0.000791
 **** Fit       0.000676
 **** Fit       0.000499
 **** Fit       0.000267
 **** Fit       0.000009
 **** Fit      -0.000241
 **** Fit       0.000782
 **** Fit       0.000756
 **** Fit       0.000689
 **** Fit       0.000561
 **** Fit       0.000358
 **** Fit       0.000092
 **** Fit      -0.000204
 **** Fit      -0.000482
 **** Fit      -0.000704
 **** Fit       0.000608
 **** Fit       0.000564
 **** Fit       0.000481
 **** Fit       0.000333
 **** Fit       0.000105
 **** Fit      -0.000190
 **** Fit      -0.000510
 **** Fit      -0.000801
 **** Fit      -0.001017
 **** Fit      -0.001142
 **** Fit       0.000396
 **** Fit       0.000337
 **** Fit       0.000260
 **** Fit       0.000145
 **** Fit      -0.000033
 **** Fit      -0.000285
 **** Fit      -0.000594
 **** Fit      -0.000915
 **** Fit      -0.001189
 **** Fit      -0.001373
 **** Fit      -0.001455
 **** Fit       0.000085
 **** Fit      -0.000022
 **** Fit      -0.000147
 **** Fit      -0.000308
 **** Fit      -0.000520
 **** Fit      -0.000790
 **** Fit      -0.001095
 **** Fit      -0.001386
 **** Fit      -0.001609
 **** Fit      -0.001732
 **** Fit      -0.001753
 **** Fit      -0.000280
 **** Fit      -0.000434
 **** Fit      -0.000610
 **** Fit      -0.000816
 **** Fit      -0.001061
 **** Fit      -0.001336
 **** Fit      -0.001612
 **** Fit      -0.001843
 **** Fit      -0.001990
 **** Fit      -0.002035
 **** Fit      -0.001986
 **** Fit      -0.000118
 **** Fit      -0.000213
 **** Fit      -0.000338
 **** Fit      -0.000657
 **** Fit      -0.000844
 **** Fit      -0.001052
 **** Fit      -0.001287
 **** Fit      -0.001543
 **** Fit      -0.001800
 **** Fit      -0.002024
 **** Fit      -0.002178
 **** Fit      -0.002240
 **** Fit      -0.002209
 **** Fit      -0.002103
 **** Fit      -0.000405
 **** Fit      -0.000521
 **** Fit      -0.000663
 **** Fit      -0.000823
 **** Fit      -0.001188
 **** Fit      -0.001397
 **** Fit      -0.001624
 **** Fit      -0.001855
 **** Fit      -0.002064
 **** Fit      -0.002217
 **** Fit      -0.002290
 **** Fit      -0.002278
 **** Fit      -0.002194
 **** Fit      -0.002060
 **** Fit      -0.001895
 **** Fit      -0.000687
 **** Fit      -0.000813
 **** Fit      -0.000954
 **** Fit      -0.001103
 **** Fit      -0.001587
 **** Fit      -0.001765
 **** Fit      -0.001933
 **** Fit      -0.002065
 **** Fit      -0.002134
 **** Fit      -0.002133
 **** Fit      -0.002072
 **** Fit      -0.001971
 **** Fit      -0.001846
 **** Fit      -0.001709
 **** Fit      -0.001565
 **** Fit      -0.001049
 **** Fit      -0.001171
 **** Fit      -0.001602
 **** Fit      -0.001702
 **** Fit      -0.001780
 **** Fit      -0.001818
 **** Fit      -0.001802
 **** Fit      -0.001742
 **** Fit      -0.001659
 **** Fit      -0.001572
 **** Fit      -0.001491
 **** Fit      -0.001411
 **** Fit      -0.001326
 **** Fit      -0.001461
 **** Fit      -0.001471
 **** Fit      -0.001456
 **** Fit      -0.001403
 **** Fit      -0.001315
 **** Fit      -0.001216
 **** Fit      -0.001132
 **** Fit      -0.001081
 **** Fit      -0.001059
 **** Fit      -0.001051
 **** Fit      -0.001037
 **** Fit      -0.001138
 **** Fit      -0.001046
 **** Fit      -0.000926
 **** Fit      -0.000793
 **** Fit      -0.000676
 **** Fit      -0.000606
 **** Fit      -0.000596
 **** Fit      -0.000632
 **** Fit      -0.000689
 **** Fit      -0.000742
 **** Fit      -0.000769
 **** Fit      -0.000632
 **** Fit      -0.000479
 **** Fit      -0.000331
 **** Fit      -0.000219
 **** Fit      -0.000171
 **** Fit      -0.000195
 **** Fit      -0.000274
 **** Fit      -0.000378
 **** Fit      -0.000478
 **** Fit      -0.000420
 **** Fit      -0.000271
 **** Fit      -0.000118
 **** Fit       0.000018
 **** Fit       0.000110
 **** Fit       0.000135
 **** Fit       0.000088
 **** Fit      -0.000014
 **** Fit      -0.000143
 **** Fit       0.000009
 **** Fit       0.000140
 **** Fit       0.000249
 **** Fit       0.000313
 **** Fit       0.000316
 **** Fit       0.000256
 **** Fit       0.000146
 **** Fit       0.000378
 **** Fit       0.000414
 **** Fit       0.000399
 **** Fit       0.000281
 **** Fit       0.000124
 **** Fit      -0.000065
 **** Fit      -0.000265
 **** Fit       0.000212
 **** Fit       0.000079
 **** Fit      -0.000095
 **** Fit      -0.000298
 **** Fit      -0.000507
 **** Fit      -0.000694
 **** Fit       0.000068
 **** Fit      -0.000048
 **** Fit      -0.000199
 **** Fit      -0.000385
 **** Fit      -0.000593
 **** Fit      -0.000798
 **** Fit      -0.000971
 **** Fit      -0.001092
 **** Fit      -0.000225
 **** Fit      -0.000365
 **** Fit      -0.000533
 **** Fit      -0.000726
 **** Fit      -0.000927
 **** Fit      -0.001112
 **** Fit      -0.001255
 **** Fit      -0.001339
 **** Fit      -0.000543
 **** Fit      -0.000702
 **** Fit      -0.000880
 **** Fit      -0.001069
 **** Fit      -0.001250
 **** Fit      -0.001401
 **** Fit      -0.001501
 **** Fit      -0.001541
 **** Fit      -0.000839
 **** Fit      -0.001005
 **** Fit      -0.001180
 **** Fit      -0.001350
 **** Fit      -0.001499
 **** Fit      -0.001605
 **** Fit      -0.001658
 **** Fit      -0.001222
 **** Fit      -0.001374
 **** Fit      -0.001511
 **** Fit      -0.001615
 **** Fit      -0.001675
 **** Fit      -0.001686
 **** Fit      -0.001651
 **** Fit      -0.001517
 **** Fit      -0.001573
 **** Fit      -0.001589
 **** Fit      -0.001568
 **** Fit      -0.001518
 **** Fit      -0.001448
 **** Fit      -0.001342
 **** Fit      -0.001376
 **** Fit      -0.001382
 **** Fit      -0.001362
 **** Fit      -0.001323
 **** Fit      -0.001275
 **** Fit      -0.001223
 **** Fit      -0.001145
 **** Fit      -0.001126
 **** Fit      -0.001090
 **** Fit      -0.001044
 **** Fit      -0.001001
 **** Fit      -0.000967
 **** Fit      -0.000944
 **** Fit      -0.000883
 **** Fit      -0.000823
 **** Fit      -0.000758
 **** Fit      -0.000699
 **** Fit      -0.000660
 **** Fit      -0.000647
 **** Fit      -0.000655
 **** Fit      -0.000521
 **** Fit      -0.000443
 **** Fit      -0.000383
 **** Fit      -0.000354
 **** Fit      -0.000361
 **** Fit      -0.000396
 **** Fit      -0.000181
 **** Fit      -0.000130
 **** Fit      -0.000114
 -----------------------------------------------------------------
 Leave Link  602 at Wed May 17 12:16:11 2017, MaxMem=    33554432 cpu:        37.8
 (Enter /home/michal/g09/l9999.exe)

 Test job not archived.
 1\1\GINC-LINUX\SP\RHF\6-31G(d)\C27H46O2\MICHAL\17-May-2017\0\\#P HF/6-
 31G* SCF(Conver=6) NoSymm Test Pop=chelpg IOp(6/33=2) GFInput GFPrint\
 \MEP - Input generated by R.E.D.-III.x MOLECULE\\0,1\O,0,5.54925184,4.
 5352949,0.\H,0,5.21892655,4.59785122,-0.9073567\O,0,0.,0.,0.\H,0,-0.15
 590108,-0.1006892,-0.94959268\C,0,8.72464132,1.27547618,-0.13406408\C,
 0,7.69723259,2.2959487,0.42296005\H,0,7.57908801,2.03103105,1.48776481
 \C,0,6.28644076,2.17929259,-0.17827411\H,0,6.32170012,2.40604721,-1.25
 395412\C,0,5.75371307,0.73092801,0.03054808\H,0,5.62127701,0.62152265,
 1.11959584\C,0,9.98273488,1.69254608,0.69016469\H,0,9.74292118,1.37986
 836,1.71696786\C,0,8.19405185,-0.13377101,0.17690619\H,0,8.16750593,-0
 .26848302,1.26793042\H,0,8.86419332,-0.90909197,-0.21812702\C,0,4.3301
 5195,0.50381164,-0.58972019\C,0,8.45154738,3.64042391,0.3935501\H,0,8.
 05266483,4.35321383,1.11911079\H,0,8.35267822,4.11921975,-0.5862866\C,
 0,6.78055169,-0.34694748,-0.39902497\H,0,6.84703022,-0.38167943,-1.491
 31993\H,0,6.42243209,-1.33447071,-0.0881076\C,0,9.93485067,3.25219684,
 0.68062513\H,0,10.59201588,3.66834184,-0.08813264\H,0,10.28194862,3.65
 99746,1.63590174\C,0,5.31791886,3.19058846,0.46415953\H,0,5.53352,3.25
 448388,1.5402769\C,0,11.34495992,1.01328308,0.36315551\H,0,11.11346708
 ,0.,0.\C,0,8.9533243,1.4351712,-1.65345746\H,0,8.03702201,1.27452941,-
 2.22743756\H,0,9.32294861,2.43087244,-1.91318489\H,0,9.68723279,0.7038
 8156,-2.00912525\C,0,3.40898206,1.67301596,-0.22306917\C,0,3.72387412,
 -0.80140604,0.01476078\H,0,3.87097457,-0.77624467,1.10336241\H,0,4.282
 77977,-1.66780279,-0.35412478\C,0,3.87158071,2.83111107,0.27024127\H,0
 ,3.16853885,3.61722902,0.54558091\C,0,4.38887127,0.38045758,-2.1360508
 4\H,0,4.88715274,-0.54380067,-2.44427558\H,0,3.38848579,0.36867918,-2.
 57642611\H,0,4.92650783,1.223401,-2.58087749\C,0,1.91933761,1.47249781
 ,-0.42946164\H,0,1.36383916,2.33034068,-0.03802228\H,0,1.69699515,1.41
 702122,-1.50746658\C,0,2.22773051,-1.01277084,-0.26465015\H,0,2.054031
 64,-1.15662562,-1.34146764\H,0,1.87960924,-1.92486356,0.23327136\C,0,1
 2.19314648,1.70722021,-0.72973794\H,0,11.54819436,2.07890394,-1.533037
 83\H,0,12.67370368,2.59313556,-0.2943756\C,0,1.40195907,0.17936456,0.2
 177302\H,0,1.4953221,0.26453833,1.30726018\C,0,12.16958338,0.84899148,
 1.65647915\H,0,12.38329896,1.8256723,2.10848669\H,0,13.12775392,0.3530
 7174,1.47113885\H,0,11.62778492,0.25105035,2.39771502\C,0,13.25913521,
 0.79672436,-1.36344865\H,0,13.96652781,0.45004654,-0.60054111\H,0,12.7
 6342499,-0.10850191,-1.74194246\C,0,14.03009752,1.43824103,-2.53180167
 \H,0,13.30883296,1.72086823,-3.31240111\H,0,14.68131078,0.67516622,-2.
 983615\C,0,14.89626213,2.67243401,-2.200549\H,0,14.24521899,3.44383023
 ,-1.76495957\C,0,15.50197014,3.25530694,-3.48750802\H,0,16.16969733,2.
 52931359,-3.96917181\H,0,16.08806338,4.1575888,-3.27876622\H,0,14.7228
 2351,3.52137967,-4.21112032\C,0,16.00129869,2.35693612,-1.17998251\H,0
 ,16.66776582,1.57083229,-1.55846095\H,0,16.61400964,3.24340136,-0.9803
 4282\H,0,15.59457525,2.01630431,-0.22234185\\Version=EM64L-G09RevD.01\
 HF=-1198.9250456\RMSD=4.890e-07\Dipole=0.1902534,-0.6303199,-0.8402692
 \Quadrupole=-3.2606627,-3.403938,6.6646007,-8.6080771,-2.0422849,-2.77
 59917\PG=C01 [X(C27H46O2)]\\@


 ... SUBJECTS WHICH DISCLOSE THEIR FULL POWER, MEANING AND BEAUTY AS SOON
 AS THEY ARE PRESENTED TO THE MIND HAVE VERY LITTLE OF THOSE QUALITIES
 TO DISCLOSE.
                           -- CHARLES DUTTON (1882)
 Job cpu time:       0 days  0 hours 11 minutes 23.7 seconds.
 File lengths (MBytes):  RWF=    150 Int=      0 D2E=      0 Chk=     11 Scr=      1
 Normal termination of Gaussian 09 at Wed May 17 12:16:11 2017.
