 Entering Gaussian System, Link 0=/home/michal/g09/g09
 Input=JOB2-gau_m1-2-4.com
 Output=JOB2-gau_m1-2-4.log
 Initial command:
 /home/michal/g09/l1.exe "/home/michal/gauss_scratch/Gau-30029.inp" -scrdir="/home/michal/gauss_scratch/"
 Entering Link 1 = /home/michal/g09/l1.exe PID=     30030.
  
 Copyright (c) 1988,1990,1992,1993,1995,1998,2003,2009,2013,
            Gaussian, Inc.  All Rights Reserved.
  
 This is part of the Gaussian(R) 09 program.  It is based on
 the Gaussian(R) 03 system (copyright 2003, Gaussian, Inc.),
 the Gaussian(R) 98 system (copyright 1998, Gaussian, Inc.),
 the Gaussian(R) 94 system (copyright 1995, Gaussian, Inc.),
 the Gaussian 92(TM) system (copyright 1992, Gaussian, Inc.),
 the Gaussian 90(TM) system (copyright 1990, Gaussian, Inc.),
 the Gaussian 88(TM) system (copyright 1988, Gaussian, Inc.),
 the Gaussian 86(TM) system (copyright 1986, Carnegie Mellon
 University), and the Gaussian 82(TM) system (copyright 1983,
 Carnegie Mellon University). Gaussian is a federally registered
 trademark of Gaussian, Inc.
  
 This software contains proprietary and confidential information,
 including trade secrets, belonging to Gaussian, Inc.
  
 This software is provided under written license and may be
 used, copied, transmitted, or stored only in accord with that
 written license.
  
 The following legend is applicable only to US Government
 contracts under FAR:
  
                    RESTRICTED RIGHTS LEGEND
  
 Use, reproduction and disclosure by the US Government is
 subject to restrictions as set forth in subparagraphs (a)
 and (c) of the Commercial Computer Software - Restricted
 Rights clause in FAR 52.227-19.
  
 Gaussian, Inc.
 340 Quinnipiac St., Bldg. 40, Wallingford CT 06492
  
  
 ---------------------------------------------------------------
 Warning -- This program may not be used in any manner that
 competes with the business of Gaussian, Inc. or will provide
 assistance to any competitor of Gaussian, Inc.  The licensee
 of this program is prohibited from giving any competitor of
 Gaussian, Inc. access to this program.  By using this program,
 the user acknowledges that Gaussian, Inc. is engaged in the
 business of creating and licensing software in the field of
 computational chemistry and represents and warrants to the
 licensee that it is not a competitor of Gaussian, Inc. and that
 it will not use this program in any manner prohibited above.
 ---------------------------------------------------------------
  

 Cite this work as:
 Gaussian 09, Revision D.01,
 M. J. Frisch, G. W. Trucks, H. B. Schlegel, G. E. Scuseria, 
 M. A. Robb, J. R. Cheeseman, G. Scalmani, V. Barone, B. Mennucci, 
 G. A. Petersson, H. Nakatsuji, M. Caricato, X. Li, H. P. Hratchian, 
 A. F. Izmaylov, J. Bloino, G. Zheng, J. L. Sonnenberg, M. Hada, 
 M. Ehara, K. Toyota, R. Fukuda, J. Hasegawa, M. Ishida, T. Nakajima, 
 Y. Honda, O. Kitao, H. Nakai, T. Vreven, J. A. Montgomery, Jr., 
 J. E. Peralta, F. Ogliaro, M. Bearpark, J. J. Heyd, E. Brothers, 
 K. N. Kudin, V. N. Staroverov, T. Keith, R. Kobayashi, J. Normand, 
 K. Raghavachari, A. Rendell, J. C. Burant, S. S. Iyengar, J. Tomasi, 
 M. Cossi, N. Rega, J. M. Millam, M. Klene, J. E. Knox, J. B. Cross, 
 V. Bakken, C. Adamo, J. Jaramillo, R. Gomperts, R. E. Stratmann, 
 O. Yazyev, A. J. Austin, R. Cammi, C. Pomelli, J. W. Ochterski, 
 R. L. Martin, K. Morokuma, V. G. Zakrzewski, G. A. Voth, 
 P. Salvador, J. J. Dannenberg, S. Dapprich, A. D. Daniels, 
 O. Farkas, J. B. Foresman, J. V. Ortiz, J. Cioslowski, 
 and D. J. Fox, Gaussian, Inc., Wallingford CT, 2013.
 
 ******************************************
 Gaussian 09:  EM64L-G09RevD.01 24-Apr-2013
                17-May-2017 
 ******************************************
 %Mem=256MB
 %NProc=12
 Will use up to   12 processors via shared memory.
 ----------------------------------------------------------------------
 #P HF/6-31G* SCF(Conver=6) NoSymm Test Pop=chelpg IOp(6/33=2) GFInput 
 GFPrint
 ----------------------------------------------------------------------
 1/38=1/1;
 2/12=2,15=1,17=6,18=5,40=1/2;
 3/5=1,6=6,7=1,11=9,16=1,24=110,25=1,30=1/1,2,3;
 4//1;
 5/5=2,6=6,38=5/2;
 6/7=2,8=2,9=2,10=2,15=8,20=3,28=1,33=2/1,2;
 99/5=1,9=1/99;
 Leave Link    1 at Wed May 17 11:37:00 2017, MaxMem=    33554432 cpu:         0.6
 (Enter /home/michal/g09/l101.exe)
 ----------------------------------------------
 MEP - Input generated by R.E.D.-III.x MOLECULE
 ----------------------------------------------
 Symbolic Z-matrix:
 Charge =  0 Multiplicity = 1
 O                     0.        0.        0. 
 H                    -0.22953   0.13752   0.9299 
 O                    -3.05176   6.48179   0. 
 H                    -3.05126   6.68291   0.94642 
 C                     4.27208   1.55117  -0.41728 
 C                     2.84224   1.066    -0.79589 
 H                     2.73625   1.30407  -1.86874 
 C                     1.68845   1.80931  -0.09888 
 H                     1.74097   1.63665   0.98619 
 C                     1.80246   3.33266  -0.38498 
 H                     1.62542   3.44552  -1.46729 
 C                     5.13499   0.57798  -1.29504 
 H                     5.04429   0.94322  -2.33063 
 C                     4.34547   3.04563  -0.78886 
 H                     4.25622   3.14106  -1.88074 
 H                     5.30987   3.48568  -0.51687 
 C                     0.68374   4.18092   0.31439 
 C                     2.92753  -0.46499  -0.69873 
 H                     2.15632  -0.96498  -1.2891 
 H                     2.77964  -0.79516   0.33493 
 C                     3.22874   3.8616   -0.11059 
 H                     3.41518   3.88071   0.96866 
 H                     3.30612   4.90116  -0.448 
 C                     4.3641   -0.78226  -1.19317 
 H                     4.87526  -1.46048  -0.49919 
 H                     4.34312  -1.29192  -2.16128 
 C                     0.31882   1.28435  -0.57193 
 H                     0.37106   1.07476  -1.64981 
 C                     6.65205   0.42833  -1.00814 
 H                     6.76135   0.        0. 
 C                     4.58464   1.34212   1.08248 
 H                     3.86143   1.84213   1.73206 
 H                     4.58431   0.28282   1.35567 
 H                     5.57262   1.74252   1.33228 
 C                    -0.67976   3.50999   0.11577 
 C                     0.63434   5.59026  -0.35475 
 H                     0.64293   5.45307  -1.44487 
 H                     1.54491   6.14485  -0.10465 
 C                    -0.80741   2.24437  -0.309 
 H                    -1.80242   1.82755  -0.46481 
 C                     0.94719   4.33812   1.83603 
 H                     1.82039   4.9696    2.02674 
 H                     0.09797   4.80097   2.3454 
 H                     1.11744   3.36721   2.31131 
 C                    -1.91204   4.34436   0.41099 
 H                    -2.81711   3.79472   0.1345 
 H                    -1.97859   4.53894   1.49377 
 C                    -0.59064   6.44138   0.01405 
 H                    -0.57498   6.69515   1.08444 
 H                    -0.56511   7.39055  -0.53319 
 C                     7.29267  -0.5743   -2.00255 
 H                     6.62805  -1.4347   -2.12482 
 H                     7.35608  -0.09609  -2.99258 
 C                    -1.89099   5.70369  -0.30373 
 H                    -1.95518   5.53785  -1.38605 
 C                     7.41192   1.76668  -1.04326 
 H                     7.23538   2.29077  -1.99091 
 H                     8.49103   1.6133   -0.94743 
 H                     7.11364   2.43483  -0.23213 
 C                     8.68343  -1.09002  -1.59752 
 H                     9.36276  -0.24492  -1.4333 
 H                     8.60736  -1.60317  -0.62919 
 C                     9.34378  -2.01859  -2.63411 
 H                     10.36524  -2.24918  -2.29655 
 H                     9.45562  -1.46353  -3.57684 
 C                     8.62767  -3.35233  -2.9368 
 H                     7.61275  -3.12691  -3.29405 
 C                     8.50235  -4.24641  -1.69304 
 H                     9.49269  -4.48261  -1.28219 
 H                     8.01118  -5.19437  -1.94045 
 H                     7.91748  -3.77078  -0.89913 
 C                     9.35592  -4.09917  -4.0659 
 H                     10.37974  -4.35835  -3.76665 
 H                     8.83993  -5.03081  -4.32478 
 H                     9.41963  -3.48763  -4.97333 
 
 NAtoms=     75 NQM=       75 NQMF=       0 NMMI=      0 NMMIF=      0
                NMic=       0 NMicF=      0.
                    Isotopes and Nuclear Properties:
 (Nuclear quadrupole moments (NQMom) in fm**2, nuclear magnetic moments (NMagM)
  in nuclear magnetons)

  Atom         1           2           3           4           5           6           7           8           9          10
 IAtWgt=          16           1          16           1          12          12           1          12           1          12
 AtmWgt=  15.9949146   1.0078250  15.9949146   1.0078250  12.0000000  12.0000000   1.0078250  12.0000000   1.0078250  12.0000000
 NucSpn=           0           1           0           1           0           0           1           0           1           0
 AtZEff=   0.0000000   0.0000000   0.0000000   0.0000000   0.0000000   0.0000000   0.0000000   0.0000000   0.0000000   0.0000000
 NQMom=    0.0000000   0.0000000   0.0000000   0.0000000   0.0000000   0.0000000   0.0000000   0.0000000   0.0000000   0.0000000
 NMagM=    0.0000000   2.7928460   0.0000000   2.7928460   0.0000000   0.0000000   2.7928460   0.0000000   2.7928460   0.0000000
 AtZNuc=   8.0000000   1.0000000   8.0000000   1.0000000   6.0000000   6.0000000   1.0000000   6.0000000   1.0000000   6.0000000

  Atom        11          12          13          14          15          16          17          18          19          20
 IAtWgt=           1          12           1          12           1           1          12          12           1           1
 AtmWgt=   1.0078250  12.0000000   1.0078250  12.0000000   1.0078250   1.0078250  12.0000000  12.0000000   1.0078250   1.0078250
 NucSpn=           1           0           1           0           1           1           0           0           1           1
 AtZEff=   0.0000000   0.0000000   0.0000000   0.0000000   0.0000000   0.0000000   0.0000000   0.0000000   0.0000000   0.0000000
 NQMom=    0.0000000   0.0000000   0.0000000   0.0000000   0.0000000   0.0000000   0.0000000   0.0000000   0.0000000   0.0000000
 NMagM=    2.7928460   0.0000000   2.7928460   0.0000000   2.7928460   2.7928460   0.0000000   0.0000000   2.7928460   2.7928460
 AtZNuc=   1.0000000   6.0000000   1.0000000   6.0000000   1.0000000   1.0000000   6.0000000   6.0000000   1.0000000   1.0000000

  Atom        21          22          23          24          25          26          27          28          29          30
 IAtWgt=          12           1           1          12           1           1          12           1          12           1
 AtmWgt=  12.0000000   1.0078250   1.0078250  12.0000000   1.0078250   1.0078250  12.0000000   1.0078250  12.0000000   1.0078250
 NucSpn=           0           1           1           0           1           1           0           1           0           1
 AtZEff=   0.0000000   0.0000000   0.0000000   0.0000000   0.0000000   0.0000000   0.0000000   0.0000000   0.0000000   0.0000000
 NQMom=    0.0000000   0.0000000   0.0000000   0.0000000   0.0000000   0.0000000   0.0000000   0.0000000   0.0000000   0.0000000
 NMagM=    0.0000000   2.7928460   2.7928460   0.0000000   2.7928460   2.7928460   0.0000000   2.7928460   0.0000000   2.7928460
 AtZNuc=   6.0000000   1.0000000   1.0000000   6.0000000   1.0000000   1.0000000   6.0000000   1.0000000   6.0000000   1.0000000

  Atom        31          32          33          34          35          36          37          38          39          40
 IAtWgt=          12           1           1           1          12          12           1           1          12           1
 AtmWgt=  12.0000000   1.0078250   1.0078250   1.0078250  12.0000000  12.0000000   1.0078250   1.0078250  12.0000000   1.0078250
 NucSpn=           0           1           1           1           0           0           1           1           0           1
 AtZEff=   0.0000000   0.0000000   0.0000000   0.0000000   0.0000000   0.0000000   0.0000000   0.0000000   0.0000000   0.0000000
 NQMom=    0.0000000   0.0000000   0.0000000   0.0000000   0.0000000   0.0000000   0.0000000   0.0000000   0.0000000   0.0000000
 NMagM=    0.0000000   2.7928460   2.7928460   2.7928460   0.0000000   0.0000000   2.7928460   2.7928460   0.0000000   2.7928460
 AtZNuc=   6.0000000   1.0000000   1.0000000   1.0000000   6.0000000   6.0000000   1.0000000   1.0000000   6.0000000   1.0000000

  Atom        41          42          43          44          45          46          47          48          49          50
 IAtWgt=          12           1           1           1          12           1           1          12           1           1
 AtmWgt=  12.0000000   1.0078250   1.0078250   1.0078250  12.0000000   1.0078250   1.0078250  12.0000000   1.0078250   1.0078250
 NucSpn=           0           1           1           1           0           1           1           0           1           1
 AtZEff=   0.0000000   0.0000000   0.0000000   0.0000000   0.0000000   0.0000000   0.0000000   0.0000000   0.0000000   0.0000000
 NQMom=    0.0000000   0.0000000   0.0000000   0.0000000   0.0000000   0.0000000   0.0000000   0.0000000   0.0000000   0.0000000
 NMagM=    0.0000000   2.7928460   2.7928460   2.7928460   0.0000000   2.7928460   2.7928460   0.0000000   2.7928460   2.7928460
 AtZNuc=   6.0000000   1.0000000   1.0000000   1.0000000   6.0000000   1.0000000   1.0000000   6.0000000   1.0000000   1.0000000

  Atom        51          52          53          54          55          56          57          58          59          60
 IAtWgt=          12           1           1          12           1          12           1           1           1          12
 AtmWgt=  12.0000000   1.0078250   1.0078250  12.0000000   1.0078250  12.0000000   1.0078250   1.0078250   1.0078250  12.0000000
 NucSpn=           0           1           1           0           1           0           1           1           1           0
 AtZEff=   0.0000000   0.0000000   0.0000000   0.0000000   0.0000000   0.0000000   0.0000000   0.0000000   0.0000000   0.0000000
 NQMom=    0.0000000   0.0000000   0.0000000   0.0000000   0.0000000   0.0000000   0.0000000   0.0000000   0.0000000   0.0000000
 NMagM=    0.0000000   2.7928460   2.7928460   0.0000000   2.7928460   0.0000000   2.7928460   2.7928460   2.7928460   0.0000000
 AtZNuc=   6.0000000   1.0000000   1.0000000   6.0000000   1.0000000   6.0000000   1.0000000   1.0000000   1.0000000   6.0000000

  Atom        61          62          63          64          65          66          67          68          69          70
 IAtWgt=           1           1          12           1           1          12           1          12           1           1
 AtmWgt=   1.0078250   1.0078250  12.0000000   1.0078250   1.0078250  12.0000000   1.0078250  12.0000000   1.0078250   1.0078250
 NucSpn=           1           1           0           1           1           0           1           0           1           1
 AtZEff=   0.0000000   0.0000000   0.0000000   0.0000000   0.0000000   0.0000000   0.0000000   0.0000000   0.0000000   0.0000000
 NQMom=    0.0000000   0.0000000   0.0000000   0.0000000   0.0000000   0.0000000   0.0000000   0.0000000   0.0000000   0.0000000
 NMagM=    2.7928460   2.7928460   0.0000000   2.7928460   2.7928460   0.0000000   2.7928460   0.0000000   2.7928460   2.7928460
 AtZNuc=   1.0000000   1.0000000   6.0000000   1.0000000   1.0000000   6.0000000   1.0000000   6.0000000   1.0000000   1.0000000

  Atom        71          72          73          74          75
 IAtWgt=           1          12           1           1           1
 AtmWgt=   1.0078250  12.0000000   1.0078250   1.0078250   1.0078250
 NucSpn=           1           0           1           1           1
 AtZEff=   0.0000000   0.0000000   0.0000000   0.0000000   0.0000000
 NQMom=    0.0000000   0.0000000   0.0000000   0.0000000   0.0000000
 NMagM=    2.7928460   0.0000000   2.7928460   2.7928460   2.7928460
 AtZNuc=   1.0000000   6.0000000   1.0000000   1.0000000   1.0000000
 Leave Link  101 at Wed May 17 11:37:00 2017, MaxMem=    33554432 cpu:         1.0
 (Enter /home/michal/g09/l202.exe)
 Symmetry turned off by external request.
 Stoichiometry    C27H46O2
 Framework group  C1[X(C27H46O2)]
 Deg. of freedom   219
 Full point group                 C1      NOp   1
                          Input orientation:                          
 ---------------------------------------------------------------------
 Center     Atomic      Atomic             Coordinates (Angstroms)
 Number     Number       Type             X           Y           Z
 ---------------------------------------------------------------------
      1          8           0        0.000000    0.000000    0.000000
      2          1           0       -0.229533    0.137517    0.929902
      3          8           0       -3.051763    6.481793    0.000000
      4          1           0       -3.051257    6.682912    0.946420
      5          6           0        4.272081    1.551174   -0.417275
      6          6           0        2.842236    1.066001   -0.795889
      7          1           0        2.736252    1.304069   -1.868737
      8          6           0        1.688450    1.809310   -0.098878
      9          1           0        1.740974    1.636646    0.986191
     10          6           0        1.802463    3.332662   -0.384975
     11          1           0        1.625416    3.445518   -1.467295
     12          6           0        5.134991    0.577982   -1.295037
     13          1           0        5.044289    0.943218   -2.330632
     14          6           0        4.345473    3.045634   -0.788855
     15          1           0        4.256216    3.141061   -1.880737
     16          1           0        5.309870    3.485677   -0.516872
     17          6           0        0.683736    4.180921    0.314391
     18          6           0        2.927531   -0.464994   -0.698730
     19          1           0        2.156325   -0.964978   -1.289098
     20          1           0        2.779644   -0.795159    0.334935
     21          6           0        3.228743    3.861599   -0.110594
     22          1           0        3.415177    3.880711    0.968661
     23          1           0        3.306115    4.901157   -0.448005
     24          6           0        4.364096   -0.782258   -1.193174
     25          1           0        4.875257   -1.460481   -0.499186
     26          1           0        4.343118   -1.291920   -2.161281
     27          6           0        0.318825    1.284348   -0.571934
     28          1           0        0.371056    1.074758   -1.649806
     29          6           0        6.652049    0.428327   -1.008135
     30          1           0        6.761351    0.000000    0.000000
     31          6           0        4.584644    1.342117    1.082482
     32          1           0        3.861429    1.842127    1.732059
     33          1           0        4.584310    0.282816    1.355672
     34          1           0        5.572617    1.742519    1.332277
     35          6           0       -0.679757    3.509989    0.115770
     36          6           0        0.634342    5.590259   -0.354746
     37          1           0        0.642932    5.453065   -1.444871
     38          1           0        1.544913    6.144852   -0.104648
     39          6           0       -0.807408    2.244374   -0.309004
     40          1           0       -1.802421    1.827551   -0.464814
     41          6           0        0.947192    4.338122    1.836029
     42          1           0        1.820386    4.969599    2.026744
     43          1           0        0.097968    4.800971    2.345397
     44          1           0        1.117439    3.367210    2.311305
     45          6           0       -1.912035    4.344360    0.410994
     46          1           0       -2.817107    3.794718    0.134501
     47          1           0       -1.978590    4.538935    1.493775
     48          6           0       -0.590640    6.441378    0.014045
     49          1           0       -0.574983    6.695152    1.084442
     50          1           0       -0.565106    7.390547   -0.533186
     51          6           0        7.292667   -0.574296   -2.002552
     52          1           0        6.628055   -1.434703   -2.124819
     53          1           0        7.356077   -0.096089   -2.992581
     54          6           0       -1.890989    5.703695   -0.303725
     55          1           0       -1.955185    5.537851   -1.386055
     56          6           0        7.411923    1.766677   -1.043264
     57          1           0        7.235379    2.290775   -1.990913
     58          1           0        8.491034    1.613299   -0.947426
     59          1           0        7.113639    2.434829   -0.232131
     60          6           0        8.683434   -1.090025   -1.597524
     61          1           0        9.362759   -0.244923   -1.433299
     62          1           0        8.607356   -1.603173   -0.629190
     63          6           0        9.343779   -2.018594   -2.634110
     64          1           0       10.365239   -2.249176   -2.296551
     65          1           0        9.455616   -1.463525   -3.576837
     66          6           0        8.627665   -3.352333   -2.936805
     67          1           0        7.612749   -3.126906   -3.294046
     68          6           0        8.502348   -4.246406   -1.693041
     69          1           0        9.492694   -4.482610   -1.282190
     70          1           0        8.011181   -5.194365   -1.940453
     71          1           0        7.917481   -3.770775   -0.899125
     72          6           0        9.355918   -4.099169   -4.065904
     73          1           0       10.379742   -4.358347   -3.766647
     74          1           0        8.839929   -5.030812   -4.324776
     75          1           0        9.419631   -3.487626   -4.973328
 ---------------------------------------------------------------------
 Rotational constants (GHZ):      0.4629183      0.0555146      0.0522304
 Leave Link  202 at Wed May 17 11:37:00 2017, MaxMem=    33554432 cpu:         0.0
 (Enter /home/michal/g09/l301.exe)
 Standard basis: 6-31G(d) (6D, 7F)
 Ernie: Thresh=  0.10000D-02 Tol=  0.10000D-05 Strict=F.
 AO basis set in the form of general basis input (Overlap normalization):
      1 0
 S   6 1.00       0.000000000000
      0.5484671660D+04  0.1831074430D-02
      0.8252349460D+03  0.1395017220D-01
      0.1880469580D+03  0.6844507810D-01
      0.5296450000D+02  0.2327143360D+00
      0.1689757040D+02  0.4701928980D+00
      0.5799635340D+01  0.3585208530D+00
 SP   3 1.00       0.000000000000
      0.1553961625D+02 -0.1107775495D+00  0.7087426823D-01
      0.3599933586D+01 -0.1480262627D+00  0.3397528391D+00
      0.1013761750D+01  0.1130767015D+01  0.7271585773D+00
 SP   1 1.00       0.000000000000
      0.2700058226D+00  0.1000000000D+01  0.1000000000D+01
 D   1 1.00       0.000000000000
      0.8000000000D+00  0.1000000000D+01
 ****
      2 0
 S   3 1.00       0.000000000000
      0.1873113696D+02  0.3349460434D-01
      0.2825394365D+01  0.2347269535D+00
      0.6401216923D+00  0.8137573261D+00
 S   1 1.00       0.000000000000
      0.1612777588D+00  0.1000000000D+01
 ****
      3 0
 S   6 1.00       0.000000000000
      0.5484671660D+04  0.1831074430D-02
      0.8252349460D+03  0.1395017220D-01
      0.1880469580D+03  0.6844507810D-01
      0.5296450000D+02  0.2327143360D+00
      0.1689757040D+02  0.4701928980D+00
      0.5799635340D+01  0.3585208530D+00
 SP   3 1.00       0.000000000000
      0.1553961625D+02 -0.1107775495D+00  0.7087426823D-01
      0.3599933586D+01 -0.1480262627D+00  0.3397528391D+00
      0.1013761750D+01  0.1130767015D+01  0.7271585773D+00
 SP   1 1.00       0.000000000000
      0.2700058226D+00  0.1000000000D+01  0.1000000000D+01
 D   1 1.00       0.000000000000
      0.8000000000D+00  0.1000000000D+01
 ****
      4 0
 S   3 1.00       0.000000000000
      0.1873113696D+02  0.3349460434D-01
      0.2825394365D+01  0.2347269535D+00
      0.6401216923D+00  0.8137573261D+00
 S   1 1.00       0.000000000000
      0.1612777588D+00  0.1000000000D+01
 ****
      5 0
 S   6 1.00       0.000000000000
      0.3047524880D+04  0.1834737132D-02
      0.4573695180D+03  0.1403732281D-01
      0.1039486850D+03  0.6884262226D-01
      0.2921015530D+02  0.2321844432D+00
      0.9286662960D+01  0.4679413484D+00
      0.3163926960D+01  0.3623119853D+00
 SP   3 1.00       0.000000000000
      0.7868272350D+01 -0.1193324198D+00  0.6899906659D-01
      0.1881288540D+01 -0.1608541517D+00  0.3164239610D+00
      0.5442492580D+00  0.1143456438D+01  0.7443082909D+00
 SP   1 1.00       0.000000000000
      0.1687144782D+00  0.1000000000D+01  0.1000000000D+01
 D   1 1.00       0.000000000000
      0.8000000000D+00  0.1000000000D+01
 ****
      6 0
 S   6 1.00       0.000000000000
      0.3047524880D+04  0.1834737132D-02
      0.4573695180D+03  0.1403732281D-01
      0.1039486850D+03  0.6884262226D-01
      0.2921015530D+02  0.2321844432D+00
      0.9286662960D+01  0.4679413484D+00
      0.3163926960D+01  0.3623119853D+00
 SP   3 1.00       0.000000000000
      0.7868272350D+01 -0.1193324198D+00  0.6899906659D-01
      0.1881288540D+01 -0.1608541517D+00  0.3164239610D+00
      0.5442492580D+00  0.1143456438D+01  0.7443082909D+00
 SP   1 1.00       0.000000000000
      0.1687144782D+00  0.1000000000D+01  0.1000000000D+01
 D   1 1.00       0.000000000000
      0.8000000000D+00  0.1000000000D+01
 ****
      7 0
 S   3 1.00       0.000000000000
      0.1873113696D+02  0.3349460434D-01
      0.2825394365D+01  0.2347269535D+00
      0.6401216923D+00  0.8137573261D+00
 S   1 1.00       0.000000000000
      0.1612777588D+00  0.1000000000D+01
 ****
      8 0
 S   6 1.00       0.000000000000
      0.3047524880D+04  0.1834737132D-02
      0.4573695180D+03  0.1403732281D-01
      0.1039486850D+03  0.6884262226D-01
      0.2921015530D+02  0.2321844432D+00
      0.9286662960D+01  0.4679413484D+00
      0.3163926960D+01  0.3623119853D+00
 SP   3 1.00       0.000000000000
      0.7868272350D+01 -0.1193324198D+00  0.6899906659D-01
      0.1881288540D+01 -0.1608541517D+00  0.3164239610D+00
      0.5442492580D+00  0.1143456438D+01  0.7443082909D+00
 SP   1 1.00       0.000000000000
      0.1687144782D+00  0.1000000000D+01  0.1000000000D+01
 D   1 1.00       0.000000000000
      0.8000000000D+00  0.1000000000D+01
 ****
      9 0
 S   3 1.00       0.000000000000
      0.1873113696D+02  0.3349460434D-01
      0.2825394365D+01  0.2347269535D+00
      0.6401216923D+00  0.8137573261D+00
 S   1 1.00       0.000000000000
      0.1612777588D+00  0.1000000000D+01
 ****
     10 0
 S   6 1.00       0.000000000000
      0.3047524880D+04  0.1834737132D-02
      0.4573695180D+03  0.1403732281D-01
      0.1039486850D+03  0.6884262226D-01
      0.2921015530D+02  0.2321844432D+00
      0.9286662960D+01  0.4679413484D+00
      0.3163926960D+01  0.3623119853D+00
 SP   3 1.00       0.000000000000
      0.7868272350D+01 -0.1193324198D+00  0.6899906659D-01
      0.1881288540D+01 -0.1608541517D+00  0.3164239610D+00
      0.5442492580D+00  0.1143456438D+01  0.7443082909D+00
 SP   1 1.00       0.000000000000
      0.1687144782D+00  0.1000000000D+01  0.1000000000D+01
 D   1 1.00       0.000000000000
      0.8000000000D+00  0.1000000000D+01
 ****
     11 0
 S   3 1.00       0.000000000000
      0.1873113696D+02  0.3349460434D-01
      0.2825394365D+01  0.2347269535D+00
      0.6401216923D+00  0.8137573261D+00
 S   1 1.00       0.000000000000
      0.1612777588D+00  0.1000000000D+01
 ****
     12 0
 S   6 1.00       0.000000000000
      0.3047524880D+04  0.1834737132D-02
      0.4573695180D+03  0.1403732281D-01
      0.1039486850D+03  0.6884262226D-01
      0.2921015530D+02  0.2321844432D+00
      0.9286662960D+01  0.4679413484D+00
      0.3163926960D+01  0.3623119853D+00
 SP   3 1.00       0.000000000000
      0.7868272350D+01 -0.1193324198D+00  0.6899906659D-01
      0.1881288540D+01 -0.1608541517D+00  0.3164239610D+00
      0.5442492580D+00  0.1143456438D+01  0.7443082909D+00
 SP   1 1.00       0.000000000000
      0.1687144782D+00  0.1000000000D+01  0.1000000000D+01
 D   1 1.00       0.000000000000
      0.8000000000D+00  0.1000000000D+01
 ****
     13 0
 S   3 1.00       0.000000000000
      0.1873113696D+02  0.3349460434D-01
      0.2825394365D+01  0.2347269535D+00
      0.6401216923D+00  0.8137573261D+00
 S   1 1.00       0.000000000000
      0.1612777588D+00  0.1000000000D+01
 ****
     14 0
 S   6 1.00       0.000000000000
      0.3047524880D+04  0.1834737132D-02
      0.4573695180D+03  0.1403732281D-01
      0.1039486850D+03  0.6884262226D-01
      0.2921015530D+02  0.2321844432D+00
      0.9286662960D+01  0.4679413484D+00
      0.3163926960D+01  0.3623119853D+00
 SP   3 1.00       0.000000000000
      0.7868272350D+01 -0.1193324198D+00  0.6899906659D-01
      0.1881288540D+01 -0.1608541517D+00  0.3164239610D+00
      0.5442492580D+00  0.1143456438D+01  0.7443082909D+00
 SP   1 1.00       0.000000000000
      0.1687144782D+00  0.1000000000D+01  0.1000000000D+01
 D   1 1.00       0.000000000000
      0.8000000000D+00  0.1000000000D+01
 ****
     15 0
 S   3 1.00       0.000000000000
      0.1873113696D+02  0.3349460434D-01
      0.2825394365D+01  0.2347269535D+00
      0.6401216923D+00  0.8137573261D+00
 S   1 1.00       0.000000000000
      0.1612777588D+00  0.1000000000D+01
 ****
     16 0
 S   3 1.00       0.000000000000
      0.1873113696D+02  0.3349460434D-01
      0.2825394365D+01  0.2347269535D+00
      0.6401216923D+00  0.8137573261D+00
 S   1 1.00       0.000000000000
      0.1612777588D+00  0.1000000000D+01
 ****
     17 0
 S   6 1.00       0.000000000000
      0.3047524880D+04  0.1834737132D-02
      0.4573695180D+03  0.1403732281D-01
      0.1039486850D+03  0.6884262226D-01
      0.2921015530D+02  0.2321844432D+00
      0.9286662960D+01  0.4679413484D+00
      0.3163926960D+01  0.3623119853D+00
 SP   3 1.00       0.000000000000
      0.7868272350D+01 -0.1193324198D+00  0.6899906659D-01
      0.1881288540D+01 -0.1608541517D+00  0.3164239610D+00
      0.5442492580D+00  0.1143456438D+01  0.7443082909D+00
 SP   1 1.00       0.000000000000
      0.1687144782D+00  0.1000000000D+01  0.1000000000D+01
 D   1 1.00       0.000000000000
      0.8000000000D+00  0.1000000000D+01
 ****
     18 0
 S   6 1.00       0.000000000000
      0.3047524880D+04  0.1834737132D-02
      0.4573695180D+03  0.1403732281D-01
      0.1039486850D+03  0.6884262226D-01
      0.2921015530D+02  0.2321844432D+00
      0.9286662960D+01  0.4679413484D+00
      0.3163926960D+01  0.3623119853D+00
 SP   3 1.00       0.000000000000
      0.7868272350D+01 -0.1193324198D+00  0.6899906659D-01
      0.1881288540D+01 -0.1608541517D+00  0.3164239610D+00
      0.5442492580D+00  0.1143456438D+01  0.7443082909D+00
 SP   1 1.00       0.000000000000
      0.1687144782D+00  0.1000000000D+01  0.1000000000D+01
 D   1 1.00       0.000000000000
      0.8000000000D+00  0.1000000000D+01
 ****
     19 0
 S   3 1.00       0.000000000000
      0.1873113696D+02  0.3349460434D-01
      0.2825394365D+01  0.2347269535D+00
      0.6401216923D+00  0.8137573261D+00
 S   1 1.00       0.000000000000
      0.1612777588D+00  0.1000000000D+01
 ****
     20 0
 S   3 1.00       0.000000000000
      0.1873113696D+02  0.3349460434D-01
      0.2825394365D+01  0.2347269535D+00
      0.6401216923D+00  0.8137573261D+00
 S   1 1.00       0.000000000000
      0.1612777588D+00  0.1000000000D+01
 ****
     21 0
 S   6 1.00       0.000000000000
      0.3047524880D+04  0.1834737132D-02
      0.4573695180D+03  0.1403732281D-01
      0.1039486850D+03  0.6884262226D-01
      0.2921015530D+02  0.2321844432D+00
      0.9286662960D+01  0.4679413484D+00
      0.3163926960D+01  0.3623119853D+00
 SP   3 1.00       0.000000000000
      0.7868272350D+01 -0.1193324198D+00  0.6899906659D-01
      0.1881288540D+01 -0.1608541517D+00  0.3164239610D+00
      0.5442492580D+00  0.1143456438D+01  0.7443082909D+00
 SP   1 1.00       0.000000000000
      0.1687144782D+00  0.1000000000D+01  0.1000000000D+01
 D   1 1.00       0.000000000000
      0.8000000000D+00  0.1000000000D+01
 ****
     22 0
 S   3 1.00       0.000000000000
      0.1873113696D+02  0.3349460434D-01
      0.2825394365D+01  0.2347269535D+00
      0.6401216923D+00  0.8137573261D+00
 S   1 1.00       0.000000000000
      0.1612777588D+00  0.1000000000D+01
 ****
     23 0
 S   3 1.00       0.000000000000
      0.1873113696D+02  0.3349460434D-01
      0.2825394365D+01  0.2347269535D+00
      0.6401216923D+00  0.8137573261D+00
 S   1 1.00       0.000000000000
      0.1612777588D+00  0.1000000000D+01
 ****
     24 0
 S   6 1.00       0.000000000000
      0.3047524880D+04  0.1834737132D-02
      0.4573695180D+03  0.1403732281D-01
      0.1039486850D+03  0.6884262226D-01
      0.2921015530D+02  0.2321844432D+00
      0.9286662960D+01  0.4679413484D+00
      0.3163926960D+01  0.3623119853D+00
 SP   3 1.00       0.000000000000
      0.7868272350D+01 -0.1193324198D+00  0.6899906659D-01
      0.1881288540D+01 -0.1608541517D+00  0.3164239610D+00
      0.5442492580D+00  0.1143456438D+01  0.7443082909D+00
 SP   1 1.00       0.000000000000
      0.1687144782D+00  0.1000000000D+01  0.1000000000D+01
 D   1 1.00       0.000000000000
      0.8000000000D+00  0.1000000000D+01
 ****
     25 0
 S   3 1.00       0.000000000000
      0.1873113696D+02  0.3349460434D-01
      0.2825394365D+01  0.2347269535D+00
      0.6401216923D+00  0.8137573261D+00
 S   1 1.00       0.000000000000
      0.1612777588D+00  0.1000000000D+01
 ****
     26 0
 S   3 1.00       0.000000000000
      0.1873113696D+02  0.3349460434D-01
      0.2825394365D+01  0.2347269535D+00
      0.6401216923D+00  0.8137573261D+00
 S   1 1.00       0.000000000000
      0.1612777588D+00  0.1000000000D+01
 ****
     27 0
 S   6 1.00       0.000000000000
      0.3047524880D+04  0.1834737132D-02
      0.4573695180D+03  0.1403732281D-01
      0.1039486850D+03  0.6884262226D-01
      0.2921015530D+02  0.2321844432D+00
      0.9286662960D+01  0.4679413484D+00
      0.3163926960D+01  0.3623119853D+00
 SP   3 1.00       0.000000000000
      0.7868272350D+01 -0.1193324198D+00  0.6899906659D-01
      0.1881288540D+01 -0.1608541517D+00  0.3164239610D+00
      0.5442492580D+00  0.1143456438D+01  0.7443082909D+00
 SP   1 1.00       0.000000000000
      0.1687144782D+00  0.1000000000D+01  0.1000000000D+01
 D   1 1.00       0.000000000000
      0.8000000000D+00  0.1000000000D+01
 ****
     28 0
 S   3 1.00       0.000000000000
      0.1873113696D+02  0.3349460434D-01
      0.2825394365D+01  0.2347269535D+00
      0.6401216923D+00  0.8137573261D+00
 S   1 1.00       0.000000000000
      0.1612777588D+00  0.1000000000D+01
 ****
     29 0
 S   6 1.00       0.000000000000
      0.3047524880D+04  0.1834737132D-02
      0.4573695180D+03  0.1403732281D-01
      0.1039486850D+03  0.6884262226D-01
      0.2921015530D+02  0.2321844432D+00
      0.9286662960D+01  0.4679413484D+00
      0.3163926960D+01  0.3623119853D+00
 SP   3 1.00       0.000000000000
      0.7868272350D+01 -0.1193324198D+00  0.6899906659D-01
      0.1881288540D+01 -0.1608541517D+00  0.3164239610D+00
      0.5442492580D+00  0.1143456438D+01  0.7443082909D+00
 SP   1 1.00       0.000000000000
      0.1687144782D+00  0.1000000000D+01  0.1000000000D+01
 D   1 1.00       0.000000000000
      0.8000000000D+00  0.1000000000D+01
 ****
     30 0
 S   3 1.00       0.000000000000
      0.1873113696D+02  0.3349460434D-01
      0.2825394365D+01  0.2347269535D+00
      0.6401216923D+00  0.8137573261D+00
 S   1 1.00       0.000000000000
      0.1612777588D+00  0.1000000000D+01
 ****
     31 0
 S   6 1.00       0.000000000000
      0.3047524880D+04  0.1834737132D-02
      0.4573695180D+03  0.1403732281D-01
      0.1039486850D+03  0.6884262226D-01
      0.2921015530D+02  0.2321844432D+00
      0.9286662960D+01  0.4679413484D+00
      0.3163926960D+01  0.3623119853D+00
 SP   3 1.00       0.000000000000
      0.7868272350D+01 -0.1193324198D+00  0.6899906659D-01
      0.1881288540D+01 -0.1608541517D+00  0.3164239610D+00
      0.5442492580D+00  0.1143456438D+01  0.7443082909D+00
 SP   1 1.00       0.000000000000
      0.1687144782D+00  0.1000000000D+01  0.1000000000D+01
 D   1 1.00       0.000000000000
      0.8000000000D+00  0.1000000000D+01
 ****
     32 0
 S   3 1.00       0.000000000000
      0.1873113696D+02  0.3349460434D-01
      0.2825394365D+01  0.2347269535D+00
      0.6401216923D+00  0.8137573261D+00
 S   1 1.00       0.000000000000
      0.1612777588D+00  0.1000000000D+01
 ****
     33 0
 S   3 1.00       0.000000000000
      0.1873113696D+02  0.3349460434D-01
      0.2825394365D+01  0.2347269535D+00
      0.6401216923D+00  0.8137573261D+00
 S   1 1.00       0.000000000000
      0.1612777588D+00  0.1000000000D+01
 ****
     34 0
 S   3 1.00       0.000000000000
      0.1873113696D+02  0.3349460434D-01
      0.2825394365D+01  0.2347269535D+00
      0.6401216923D+00  0.8137573261D+00
 S   1 1.00       0.000000000000
      0.1612777588D+00  0.1000000000D+01
 ****
     35 0
 S   6 1.00       0.000000000000
      0.3047524880D+04  0.1834737132D-02
      0.4573695180D+03  0.1403732281D-01
      0.1039486850D+03  0.6884262226D-01
      0.2921015530D+02  0.2321844432D+00
      0.9286662960D+01  0.4679413484D+00
      0.3163926960D+01  0.3623119853D+00
 SP   3 1.00       0.000000000000
      0.7868272350D+01 -0.1193324198D+00  0.6899906659D-01
      0.1881288540D+01 -0.1608541517D+00  0.3164239610D+00
      0.5442492580D+00  0.1143456438D+01  0.7443082909D+00
 SP   1 1.00       0.000000000000
      0.1687144782D+00  0.1000000000D+01  0.1000000000D+01
 D   1 1.00       0.000000000000
      0.8000000000D+00  0.1000000000D+01
 ****
     36 0
 S   6 1.00       0.000000000000
      0.3047524880D+04  0.1834737132D-02
      0.4573695180D+03  0.1403732281D-01
      0.1039486850D+03  0.6884262226D-01
      0.2921015530D+02  0.2321844432D+00
      0.9286662960D+01  0.4679413484D+00
      0.3163926960D+01  0.3623119853D+00
 SP   3 1.00       0.000000000000
      0.7868272350D+01 -0.1193324198D+00  0.6899906659D-01
      0.1881288540D+01 -0.1608541517D+00  0.3164239610D+00
      0.5442492580D+00  0.1143456438D+01  0.7443082909D+00
 SP   1 1.00       0.000000000000
      0.1687144782D+00  0.1000000000D+01  0.1000000000D+01
 D   1 1.00       0.000000000000
      0.8000000000D+00  0.1000000000D+01
 ****
     37 0
 S   3 1.00       0.000000000000
      0.1873113696D+02  0.3349460434D-01
      0.2825394365D+01  0.2347269535D+00
      0.6401216923D+00  0.8137573261D+00
 S   1 1.00       0.000000000000
      0.1612777588D+00  0.1000000000D+01
 ****
     38 0
 S   3 1.00       0.000000000000
      0.1873113696D+02  0.3349460434D-01
      0.2825394365D+01  0.2347269535D+00
      0.6401216923D+00  0.8137573261D+00
 S   1 1.00       0.000000000000
      0.1612777588D+00  0.1000000000D+01
 ****
     39 0
 S   6 1.00       0.000000000000
      0.3047524880D+04  0.1834737132D-02
      0.4573695180D+03  0.1403732281D-01
      0.1039486850D+03  0.6884262226D-01
      0.2921015530D+02  0.2321844432D+00
      0.9286662960D+01  0.4679413484D+00
      0.3163926960D+01  0.3623119853D+00
 SP   3 1.00       0.000000000000
      0.7868272350D+01 -0.1193324198D+00  0.6899906659D-01
      0.1881288540D+01 -0.1608541517D+00  0.3164239610D+00
      0.5442492580D+00  0.1143456438D+01  0.7443082909D+00
 SP   1 1.00       0.000000000000
      0.1687144782D+00  0.1000000000D+01  0.1000000000D+01
 D   1 1.00       0.000000000000
      0.8000000000D+00  0.1000000000D+01
 ****
     40 0
 S   3 1.00       0.000000000000
      0.1873113696D+02  0.3349460434D-01
      0.2825394365D+01  0.2347269535D+00
      0.6401216923D+00  0.8137573261D+00
 S   1 1.00       0.000000000000
      0.1612777588D+00  0.1000000000D+01
 ****
     41 0
 S   6 1.00       0.000000000000
      0.3047524880D+04  0.1834737132D-02
      0.4573695180D+03  0.1403732281D-01
      0.1039486850D+03  0.6884262226D-01
      0.2921015530D+02  0.2321844432D+00
      0.9286662960D+01  0.4679413484D+00
      0.3163926960D+01  0.3623119853D+00
 SP   3 1.00       0.000000000000
      0.7868272350D+01 -0.1193324198D+00  0.6899906659D-01
      0.1881288540D+01 -0.1608541517D+00  0.3164239610D+00
      0.5442492580D+00  0.1143456438D+01  0.7443082909D+00
 SP   1 1.00       0.000000000000
      0.1687144782D+00  0.1000000000D+01  0.1000000000D+01
 D   1 1.00       0.000000000000
      0.8000000000D+00  0.1000000000D+01
 ****
     42 0
 S   3 1.00       0.000000000000
      0.1873113696D+02  0.3349460434D-01
      0.2825394365D+01  0.2347269535D+00
      0.6401216923D+00  0.8137573261D+00
 S   1 1.00       0.000000000000
      0.1612777588D+00  0.1000000000D+01
 ****
     43 0
 S   3 1.00       0.000000000000
      0.1873113696D+02  0.3349460434D-01
      0.2825394365D+01  0.2347269535D+00
      0.6401216923D+00  0.8137573261D+00
 S   1 1.00       0.000000000000
      0.1612777588D+00  0.1000000000D+01
 ****
     44 0
 S   3 1.00       0.000000000000
      0.1873113696D+02  0.3349460434D-01
      0.2825394365D+01  0.2347269535D+00
      0.6401216923D+00  0.8137573261D+00
 S   1 1.00       0.000000000000
      0.1612777588D+00  0.1000000000D+01
 ****
     45 0
 S   6 1.00       0.000000000000
      0.3047524880D+04  0.1834737132D-02
      0.4573695180D+03  0.1403732281D-01
      0.1039486850D+03  0.6884262226D-01
      0.2921015530D+02  0.2321844432D+00
      0.9286662960D+01  0.4679413484D+00
      0.3163926960D+01  0.3623119853D+00
 SP   3 1.00       0.000000000000
      0.7868272350D+01 -0.1193324198D+00  0.6899906659D-01
      0.1881288540D+01 -0.1608541517D+00  0.3164239610D+00
      0.5442492580D+00  0.1143456438D+01  0.7443082909D+00
 SP   1 1.00       0.000000000000
      0.1687144782D+00  0.1000000000D+01  0.1000000000D+01
 D   1 1.00       0.000000000000
      0.8000000000D+00  0.1000000000D+01
 ****
     46 0
 S   3 1.00       0.000000000000
      0.1873113696D+02  0.3349460434D-01
      0.2825394365D+01  0.2347269535D+00
      0.6401216923D+00  0.8137573261D+00
 S   1 1.00       0.000000000000
      0.1612777588D+00  0.1000000000D+01
 ****
     47 0
 S   3 1.00       0.000000000000
      0.1873113696D+02  0.3349460434D-01
      0.2825394365D+01  0.2347269535D+00
      0.6401216923D+00  0.8137573261D+00
 S   1 1.00       0.000000000000
      0.1612777588D+00  0.1000000000D+01
 ****
     48 0
 S   6 1.00       0.000000000000
      0.3047524880D+04  0.1834737132D-02
      0.4573695180D+03  0.1403732281D-01
      0.1039486850D+03  0.6884262226D-01
      0.2921015530D+02  0.2321844432D+00
      0.9286662960D+01  0.4679413484D+00
      0.3163926960D+01  0.3623119853D+00
 SP   3 1.00       0.000000000000
      0.7868272350D+01 -0.1193324198D+00  0.6899906659D-01
      0.1881288540D+01 -0.1608541517D+00  0.3164239610D+00
      0.5442492580D+00  0.1143456438D+01  0.7443082909D+00
 SP   1 1.00       0.000000000000
      0.1687144782D+00  0.1000000000D+01  0.1000000000D+01
 D   1 1.00       0.000000000000
      0.8000000000D+00  0.1000000000D+01
 ****
     49 0
 S   3 1.00       0.000000000000
      0.1873113696D+02  0.3349460434D-01
      0.2825394365D+01  0.2347269535D+00
      0.6401216923D+00  0.8137573261D+00
 S   1 1.00       0.000000000000
      0.1612777588D+00  0.1000000000D+01
 ****
     50 0
 S   3 1.00       0.000000000000
      0.1873113696D+02  0.3349460434D-01
      0.2825394365D+01  0.2347269535D+00
      0.6401216923D+00  0.8137573261D+00
 S   1 1.00       0.000000000000
      0.1612777588D+00  0.1000000000D+01
 ****
     51 0
 S   6 1.00       0.000000000000
      0.3047524880D+04  0.1834737132D-02
      0.4573695180D+03  0.1403732281D-01
      0.1039486850D+03  0.6884262226D-01
      0.2921015530D+02  0.2321844432D+00
      0.9286662960D+01  0.4679413484D+00
      0.3163926960D+01  0.3623119853D+00
 SP   3 1.00       0.000000000000
      0.7868272350D+01 -0.1193324198D+00  0.6899906659D-01
      0.1881288540D+01 -0.1608541517D+00  0.3164239610D+00
      0.5442492580D+00  0.1143456438D+01  0.7443082909D+00
 SP   1 1.00       0.000000000000
      0.1687144782D+00  0.1000000000D+01  0.1000000000D+01
 D   1 1.00       0.000000000000
      0.8000000000D+00  0.1000000000D+01
 ****
     52 0
 S   3 1.00       0.000000000000
      0.1873113696D+02  0.3349460434D-01
      0.2825394365D+01  0.2347269535D+00
      0.6401216923D+00  0.8137573261D+00
 S   1 1.00       0.000000000000
      0.1612777588D+00  0.1000000000D+01
 ****
     53 0
 S   3 1.00       0.000000000000
      0.1873113696D+02  0.3349460434D-01
      0.2825394365D+01  0.2347269535D+00
      0.6401216923D+00  0.8137573261D+00
 S   1 1.00       0.000000000000
      0.1612777588D+00  0.1000000000D+01
 ****
     54 0
 S   6 1.00       0.000000000000
      0.3047524880D+04  0.1834737132D-02
      0.4573695180D+03  0.1403732281D-01
      0.1039486850D+03  0.6884262226D-01
      0.2921015530D+02  0.2321844432D+00
      0.9286662960D+01  0.4679413484D+00
      0.3163926960D+01  0.3623119853D+00
 SP   3 1.00       0.000000000000
      0.7868272350D+01 -0.1193324198D+00  0.6899906659D-01
      0.1881288540D+01 -0.1608541517D+00  0.3164239610D+00
      0.5442492580D+00  0.1143456438D+01  0.7443082909D+00
 SP   1 1.00       0.000000000000
      0.1687144782D+00  0.1000000000D+01  0.1000000000D+01
 D   1 1.00       0.000000000000
      0.8000000000D+00  0.1000000000D+01
 ****
     55 0
 S   3 1.00       0.000000000000
      0.1873113696D+02  0.3349460434D-01
      0.2825394365D+01  0.2347269535D+00
      0.6401216923D+00  0.8137573261D+00
 S   1 1.00       0.000000000000
      0.1612777588D+00  0.1000000000D+01
 ****
     56 0
 S   6 1.00       0.000000000000
      0.3047524880D+04  0.1834737132D-02
      0.4573695180D+03  0.1403732281D-01
      0.1039486850D+03  0.6884262226D-01
      0.2921015530D+02  0.2321844432D+00
      0.9286662960D+01  0.4679413484D+00
      0.3163926960D+01  0.3623119853D+00
 SP   3 1.00       0.000000000000
      0.7868272350D+01 -0.1193324198D+00  0.6899906659D-01
      0.1881288540D+01 -0.1608541517D+00  0.3164239610D+00
      0.5442492580D+00  0.1143456438D+01  0.7443082909D+00
 SP   1 1.00       0.000000000000
      0.1687144782D+00  0.1000000000D+01  0.1000000000D+01
 D   1 1.00       0.000000000000
      0.8000000000D+00  0.1000000000D+01
 ****
     57 0
 S   3 1.00       0.000000000000
      0.1873113696D+02  0.3349460434D-01
      0.2825394365D+01  0.2347269535D+00
      0.6401216923D+00  0.8137573261D+00
 S   1 1.00       0.000000000000
      0.1612777588D+00  0.1000000000D+01
 ****
     58 0
 S   3 1.00       0.000000000000
      0.1873113696D+02  0.3349460434D-01
      0.2825394365D+01  0.2347269535D+00
      0.6401216923D+00  0.8137573261D+00
 S   1 1.00       0.000000000000
      0.1612777588D+00  0.1000000000D+01
 ****
     59 0
 S   3 1.00       0.000000000000
      0.1873113696D+02  0.3349460434D-01
      0.2825394365D+01  0.2347269535D+00
      0.6401216923D+00  0.8137573261D+00
 S   1 1.00       0.000000000000
      0.1612777588D+00  0.1000000000D+01
 ****
     60 0
 S   6 1.00       0.000000000000
      0.3047524880D+04  0.1834737132D-02
      0.4573695180D+03  0.1403732281D-01
      0.1039486850D+03  0.6884262226D-01
      0.2921015530D+02  0.2321844432D+00
      0.9286662960D+01  0.4679413484D+00
      0.3163926960D+01  0.3623119853D+00
 SP   3 1.00       0.000000000000
      0.7868272350D+01 -0.1193324198D+00  0.6899906659D-01
      0.1881288540D+01 -0.1608541517D+00  0.3164239610D+00
      0.5442492580D+00  0.1143456438D+01  0.7443082909D+00
 SP   1 1.00       0.000000000000
      0.1687144782D+00  0.1000000000D+01  0.1000000000D+01
 D   1 1.00       0.000000000000
      0.8000000000D+00  0.1000000000D+01
 ****
     61 0
 S   3 1.00       0.000000000000
      0.1873113696D+02  0.3349460434D-01
      0.2825394365D+01  0.2347269535D+00
      0.6401216923D+00  0.8137573261D+00
 S   1 1.00       0.000000000000
      0.1612777588D+00  0.1000000000D+01
 ****
     62 0
 S   3 1.00       0.000000000000
      0.1873113696D+02  0.3349460434D-01
      0.2825394365D+01  0.2347269535D+00
      0.6401216923D+00  0.8137573261D+00
 S   1 1.00       0.000000000000
      0.1612777588D+00  0.1000000000D+01
 ****
     63 0
 S   6 1.00       0.000000000000
      0.3047524880D+04  0.1834737132D-02
      0.4573695180D+03  0.1403732281D-01
      0.1039486850D+03  0.6884262226D-01
      0.2921015530D+02  0.2321844432D+00
      0.9286662960D+01  0.4679413484D+00
      0.3163926960D+01  0.3623119853D+00
 SP   3 1.00       0.000000000000
      0.7868272350D+01 -0.1193324198D+00  0.6899906659D-01
      0.1881288540D+01 -0.1608541517D+00  0.3164239610D+00
      0.5442492580D+00  0.1143456438D+01  0.7443082909D+00
 SP   1 1.00       0.000000000000
      0.1687144782D+00  0.1000000000D+01  0.1000000000D+01
 D   1 1.00       0.000000000000
      0.8000000000D+00  0.1000000000D+01
 ****
     64 0
 S   3 1.00       0.000000000000
      0.1873113696D+02  0.3349460434D-01
      0.2825394365D+01  0.2347269535D+00
      0.6401216923D+00  0.8137573261D+00
 S   1 1.00       0.000000000000
      0.1612777588D+00  0.1000000000D+01
 ****
     65 0
 S   3 1.00       0.000000000000
      0.1873113696D+02  0.3349460434D-01
      0.2825394365D+01  0.2347269535D+00
      0.6401216923D+00  0.8137573261D+00
 S   1 1.00       0.000000000000
      0.1612777588D+00  0.1000000000D+01
 ****
     66 0
 S   6 1.00       0.000000000000
      0.3047524880D+04  0.1834737132D-02
      0.4573695180D+03  0.1403732281D-01
      0.1039486850D+03  0.6884262226D-01
      0.2921015530D+02  0.2321844432D+00
      0.9286662960D+01  0.4679413484D+00
      0.3163926960D+01  0.3623119853D+00
 SP   3 1.00       0.000000000000
      0.7868272350D+01 -0.1193324198D+00  0.6899906659D-01
      0.1881288540D+01 -0.1608541517D+00  0.3164239610D+00
      0.5442492580D+00  0.1143456438D+01  0.7443082909D+00
 SP   1 1.00       0.000000000000
      0.1687144782D+00  0.1000000000D+01  0.1000000000D+01
 D   1 1.00       0.000000000000
      0.8000000000D+00  0.1000000000D+01
 ****
     67 0
 S   3 1.00       0.000000000000
      0.1873113696D+02  0.3349460434D-01
      0.2825394365D+01  0.2347269535D+00
      0.6401216923D+00  0.8137573261D+00
 S   1 1.00       0.000000000000
      0.1612777588D+00  0.1000000000D+01
 ****
     68 0
 S   6 1.00       0.000000000000
      0.3047524880D+04  0.1834737132D-02
      0.4573695180D+03  0.1403732281D-01
      0.1039486850D+03  0.6884262226D-01
      0.2921015530D+02  0.2321844432D+00
      0.9286662960D+01  0.4679413484D+00
      0.3163926960D+01  0.3623119853D+00
 SP   3 1.00       0.000000000000
      0.7868272350D+01 -0.1193324198D+00  0.6899906659D-01
      0.1881288540D+01 -0.1608541517D+00  0.3164239610D+00
      0.5442492580D+00  0.1143456438D+01  0.7443082909D+00
 SP   1 1.00       0.000000000000
      0.1687144782D+00  0.1000000000D+01  0.1000000000D+01
 D   1 1.00       0.000000000000
      0.8000000000D+00  0.1000000000D+01
 ****
     69 0
 S   3 1.00       0.000000000000
      0.1873113696D+02  0.3349460434D-01
      0.2825394365D+01  0.2347269535D+00
      0.6401216923D+00  0.8137573261D+00
 S   1 1.00       0.000000000000
      0.1612777588D+00  0.1000000000D+01
 ****
     70 0
 S   3 1.00       0.000000000000
      0.1873113696D+02  0.3349460434D-01
      0.2825394365D+01  0.2347269535D+00
      0.6401216923D+00  0.8137573261D+00
 S   1 1.00       0.000000000000
      0.1612777588D+00  0.1000000000D+01
 ****
     71 0
 S   3 1.00       0.000000000000
      0.1873113696D+02  0.3349460434D-01
      0.2825394365D+01  0.2347269535D+00
      0.6401216923D+00  0.8137573261D+00
 S   1 1.00       0.000000000000
      0.1612777588D+00  0.1000000000D+01
 ****
     72 0
 S   6 1.00       0.000000000000
      0.3047524880D+04  0.1834737132D-02
      0.4573695180D+03  0.1403732281D-01
      0.1039486850D+03  0.6884262226D-01
      0.2921015530D+02  0.2321844432D+00
      0.9286662960D+01  0.4679413484D+00
      0.3163926960D+01  0.3623119853D+00
 SP   3 1.00       0.000000000000
      0.7868272350D+01 -0.1193324198D+00  0.6899906659D-01
      0.1881288540D+01 -0.1608541517D+00  0.3164239610D+00
      0.5442492580D+00  0.1143456438D+01  0.7443082909D+00
 SP   1 1.00       0.000000000000
      0.1687144782D+00  0.1000000000D+01  0.1000000000D+01
 D   1 1.00       0.000000000000
      0.8000000000D+00  0.1000000000D+01
 ****
     73 0
 S   3 1.00       0.000000000000
      0.1873113696D+02  0.3349460434D-01
      0.2825394365D+01  0.2347269535D+00
      0.6401216923D+00  0.8137573261D+00
 S   1 1.00       0.000000000000
      0.1612777588D+00  0.1000000000D+01
 ****
     74 0
 S   3 1.00       0.000000000000
      0.1873113696D+02  0.3349460434D-01
      0.2825394365D+01  0.2347269535D+00
      0.6401216923D+00  0.8137573261D+00
 S   1 1.00       0.000000000000
      0.1612777588D+00  0.1000000000D+01
 ****
     75 0
 S   3 1.00       0.000000000000
      0.1873113696D+02  0.3349460434D-01
      0.2825394365D+01  0.2347269535D+00
      0.6401216923D+00  0.8137573261D+00
 S   1 1.00       0.000000000000
      0.1612777588D+00  0.1000000000D+01
 ****

 AO basis set (Overlap normalization):
 Atom O1       Shell     1 S   6     bf    1 -     1          0.000000000000          0.000000000000          0.000000000000
      0.5484671660D+04  0.1831074430D-02
      0.8252349460D+03  0.1395017220D-01
      0.1880469580D+03  0.6844507810D-01
      0.5296450000D+02  0.2327143360D+00
      0.1689757040D+02  0.4701928980D+00
      0.5799635340D+01  0.3585208530D+00
 Atom O1       Shell     2 SP   3    bf    2 -     5          0.000000000000          0.000000000000          0.000000000000
      0.1553961625D+02 -0.1107775495D+00  0.7087426823D-01
      0.3599933586D+01 -0.1480262627D+00  0.3397528391D+00
      0.1013761750D+01  0.1130767015D+01  0.7271585773D+00
 Atom O1       Shell     3 SP   1    bf    6 -     9          0.000000000000          0.000000000000          0.000000000000
      0.2700058226D+00  0.1000000000D+01  0.1000000000D+01
 Atom O1       Shell     4 D   1     bf   10 -    15          0.000000000000          0.000000000000          0.000000000000
      0.8000000000D+00  0.1000000000D+01
 Atom H2       Shell     5 S   3     bf   16 -    16         -0.433753752569          0.259868561547          1.757259921450
      0.1873113696D+02  0.3349460434D-01
      0.2825394365D+01  0.2347269535D+00
      0.6401216923D+00  0.8137573261D+00
 Atom H2       Shell     6 S   1     bf   17 -    17         -0.433753752569          0.259868561547          1.757259921450
      0.1612777588D+00  0.1000000000D+01
 Atom O3       Shell     7 S   6     bf   18 -    18         -5.766995876734         12.248814508227          0.000000000000
      0.5484671660D+04  0.1831074430D-02
      0.8252349460D+03  0.1395017220D-01
      0.1880469580D+03  0.6844507810D-01
      0.5296450000D+02  0.2327143360D+00
      0.1689757040D+02  0.4701928980D+00
      0.5799635340D+01  0.3585208530D+00
 Atom O3       Shell     8 SP   3    bf   19 -    22         -5.766995876734         12.248814508227          0.000000000000
      0.1553961625D+02 -0.1107775495D+00  0.7087426823D-01
      0.3599933586D+01 -0.1480262627D+00  0.3397528391D+00
      0.1013761750D+01  0.1130767015D+01  0.7271585773D+00
 Atom O3       Shell     9 SP   1    bf   23 -    26         -5.766995876734         12.248814508227          0.000000000000
      0.2700058226D+00  0.1000000000D+01  0.1000000000D+01
 Atom O3       Shell    10 D   1     bf   27 -    32         -5.766995876734         12.248814508227          0.000000000000
      0.8000000000D+00  0.1000000000D+01
 Atom H4       Shell    11 S   3     bf   33 -    33         -5.766039429646         12.628873525764          1.788475286987
      0.1873113696D+02  0.3349460434D-01
      0.2825394365D+01  0.2347269535D+00
      0.6401216923D+00  0.8137573261D+00
 Atom H4       Shell    12 S   1     bf   34 -    34         -5.766039429646         12.628873525764          1.788475286987
      0.1612777588D+00  0.1000000000D+01
 Atom C5       Shell    13 S   6     bf   35 -    35          8.073063995676          2.931293912172         -0.788535812251
      0.3047524880D+04  0.1834737132D-02
      0.4573695180D+03  0.1403732281D-01
      0.1039486850D+03  0.6884262226D-01
      0.2921015530D+02  0.2321844432D+00
      0.9286662960D+01  0.4679413484D+00
      0.3163926960D+01  0.3623119853D+00
 Atom C5       Shell    14 SP   3    bf   36 -    39          8.073063995676          2.931293912172         -0.788535812251
      0.7868272350D+01 -0.1193324198D+00  0.6899906659D-01
      0.1881288540D+01 -0.1608541517D+00  0.3164239610D+00
      0.5442492580D+00  0.1143456438D+01  0.7443082909D+00
 Atom C5       Shell    15 SP   1    bf   40 -    43          8.073063995676          2.931293912172         -0.788535812251
      0.1687144782D+00  0.1000000000D+01  0.1000000000D+01
 Atom C5       Shell    16 D   1     bf   44 -    49          8.073063995676          2.931293912172         -0.788535812251
      0.8000000000D+00  0.1000000000D+01
 Atom C6       Shell    17 S   6     bf   50 -    50          5.371047493850          2.014449928485         -1.504011297313
      0.3047524880D+04  0.1834737132D-02
      0.4573695180D+03  0.1403732281D-01
      0.1039486850D+03  0.6884262226D-01
      0.2921015530D+02  0.2321844432D+00
      0.9286662960D+01  0.4679413484D+00
      0.3163926960D+01  0.3623119853D+00
 Atom C6       Shell    18 SP   3    bf   51 -    54          5.371047493850          2.014449928485         -1.504011297313
      0.7868272350D+01 -0.1193324198D+00  0.6899906659D-01
      0.1881288540D+01 -0.1608541517D+00  0.3164239610D+00
      0.5442492580D+00  0.1143456438D+01  0.7443082909D+00
 Atom C6       Shell    19 SP   1    bf   55 -    58          5.371047493850          2.014449928485         -1.504011297313
      0.1687144782D+00  0.1000000000D+01  0.1000000000D+01
 Atom C6       Shell    20 D   1     bf   59 -    64          5.371047493850          2.014449928485         -1.504011297313
      0.8000000000D+00  0.1000000000D+01
 Atom H7       Shell    21 S   3     bf   65 -    65          5.170767458581          2.464333400667         -3.531401541233
      0.1873113696D+02  0.3349460434D-01
      0.2825394365D+01  0.2347269535D+00
      0.6401216923D+00  0.8137573261D+00
 Atom H7       Shell    22 S   1     bf   66 -    66          5.170767458581          2.464333400667         -3.531401541233
      0.1612777588D+00  0.1000000000D+01
 Atom C8       Shell    23 S   6     bf   67 -    67          3.190708769372          3.419099784779         -0.186852888588
      0.3047524880D+04  0.1834737132D-02
      0.4573695180D+03  0.1403732281D-01
      0.1039486850D+03  0.6884262226D-01
      0.2921015530D+02  0.2321844432D+00
      0.9286662960D+01  0.4679413484D+00
      0.3163926960D+01  0.3623119853D+00
 Atom C8       Shell    24 SP   3    bf   68 -    71          3.190708769372          3.419099784779         -0.186852888588
      0.7868272350D+01 -0.1193324198D+00  0.6899906659D-01
      0.1881288540D+01 -0.1608541517D+00  0.3164239610D+00
      0.5442492580D+00  0.1143456438D+01  0.7443082909D+00
 Atom C8       Shell    25 SP   1    bf   72 -    75          3.190708769372          3.419099784779         -0.186852888588
      0.1687144782D+00  0.1000000000D+01  0.1000000000D+01
 Atom C8       Shell    26 D   1     bf   76 -    81          3.190708769372          3.419099784779         -0.186852888588
      0.8000000000D+00  0.1000000000D+01
 Atom H9       Shell    27 S   3     bf   82 -    82          3.289964990440          3.092812943250          1.863631433840
      0.1873113696D+02  0.3349460434D-01
      0.2825394365D+01  0.2347269535D+00
      0.6401216923D+00  0.8137573261D+00
 Atom H9       Shell    28 S   1     bf   83 -    83          3.289964990440          3.092812943250          1.863631433840
      0.1612777588D+00  0.1000000000D+01
 Atom C10      Shell    29 S   6     bf   84 -    84          3.406160962228          6.297818284502         -0.727498149487
      0.3047524880D+04  0.1834737132D-02
      0.4573695180D+03  0.1403732281D-01
      0.1039486850D+03  0.6884262226D-01
      0.2921015530D+02  0.2321844432D+00
      0.9286662960D+01  0.4679413484D+00
      0.3163926960D+01  0.3623119853D+00
 Atom C10      Shell    30 SP   3    bf   85 -    88          3.406160962228          6.297818284502         -0.727498149487
      0.7868272350D+01 -0.1193324198D+00  0.6899906659D-01
      0.1881288540D+01 -0.1608541517D+00  0.3164239610D+00
      0.5442492580D+00  0.1143456438D+01  0.7443082909D+00
 Atom C10      Shell    31 SP   1    bf   89 -    92          3.406160962228          6.297818284502         -0.727498149487
      0.1687144782D+00  0.1000000000D+01  0.1000000000D+01
 Atom C10      Shell    32 D   1     bf   93 -    98          3.406160962228          6.297818284502         -0.727498149487
      0.8000000000D+00  0.1000000000D+01
 Atom H11      Shell    33 S   3     bf   99 -    99          3.071590147147          6.511084650037         -2.772785498283
      0.1873113696D+02  0.3349460434D-01
      0.2825394365D+01  0.2347269535D+00
      0.6401216923D+00  0.8137573261D+00
 Atom H11      Shell    34 S   1     bf  100 -   100          3.071590147147          6.511084650037         -2.772785498283
      0.1612777588D+00  0.1000000000D+01
 Atom C12      Shell    35 S   6     bf  101 -   101          9.703726420271          1.092227141717         -2.447265072981
      0.3047524880D+04  0.1834737132D-02
      0.4573695180D+03  0.1403732281D-01
      0.1039486850D+03  0.6884262226D-01
      0.2921015530D+02  0.2321844432D+00
      0.9286662960D+01  0.4679413484D+00
      0.3163926960D+01  0.3623119853D+00
 Atom C12      Shell    36 SP   3    bf  102 -   105          9.703726420271          1.092227141717         -2.447265072981
      0.7868272350D+01 -0.1193324198D+00  0.6899906659D-01
      0.1881288540D+01 -0.1608541517D+00  0.3164239610D+00
      0.5442492580D+00  0.1143456438D+01  0.7443082909D+00
 Atom C12      Shell    37 SP   1    bf  106 -   109          9.703726420271          1.092227141717         -2.447265072981
      0.1687144782D+00  0.1000000000D+01  0.1000000000D+01
 Atom C12      Shell    38 D   1     bf  110 -   115          9.703726420271          1.092227141717         -2.447265072981
      0.8000000000D+00  0.1000000000D+01
 Atom H13      Shell    39 S   3     bf  116 -   116          9.532324442771          1.782423401252         -4.404256291026
      0.1873113696D+02  0.3349460434D-01
      0.2825394365D+01  0.2347269535D+00
      0.6401216923D+00  0.8137573261D+00
 Atom H13      Shell    40 S   1     bf  117 -   117          9.532324442771          1.782423401252         -4.404256291026
      0.1612777588D+00  0.1000000000D+01
 Atom C14      Shell    41 S   6     bf  118 -   118          8.211752961883          5.755414312183         -1.490720607756
      0.3047524880D+04  0.1834737132D-02
      0.4573695180D+03  0.1403732281D-01
      0.1039486850D+03  0.6884262226D-01
      0.2921015530D+02  0.2321844432D+00
      0.9286662960D+01  0.4679413484D+00
      0.3163926960D+01  0.3623119853D+00
 Atom C14      Shell    42 SP   3    bf  119 -   122          8.211752961883          5.755414312183         -1.490720607756
      0.7868272350D+01 -0.1193324198D+00  0.6899906659D-01
      0.1881288540D+01 -0.1608541517D+00  0.3164239610D+00
      0.5442492580D+00  0.1143456438D+01  0.7443082909D+00
 Atom C14      Shell    43 SP   1    bf  123 -   126          8.211752961883          5.755414312183         -1.490720607756
      0.1687144782D+00  0.1000000000D+01  0.1000000000D+01
 Atom C14      Shell    44 D   1     bf  127 -   132          8.211752961883          5.755414312183         -1.490720607756
      0.8000000000D+00  0.1000000000D+01
 Atom H15      Shell    45 S   3     bf  133 -   133          8.043083301605          5.935745302352         -3.554077895779
      0.1873113696D+02  0.3349460434D-01
      0.2825394365D+01  0.2347269535D+00
      0.6401216923D+00  0.8137573261D+00
 Atom H15      Shell    46 S   1     bf  134 -   134          8.043083301605          5.935745302352         -3.554077895779
      0.1612777588D+00  0.1000000000D+01
 Atom H16      Shell    47 S   3     bf  135 -   135         10.034200687041          6.586974955493         -0.976745939942
      0.1873113696D+02  0.3349460434D-01
      0.2825394365D+01  0.2347269535D+00
      0.6401216923D+00  0.8137573261D+00
 Atom H16      Shell    48 S   1     bf  136 -   136         10.034200687041          6.586974955493         -0.976745939942
      0.1612777588D+00  0.1000000000D+01
 Atom C17      Shell    49 S   6     bf  137 -   137          1.292073711606          7.900795843306          0.594111943781
      0.3047524880D+04  0.1834737132D-02
      0.4573695180D+03  0.1403732281D-01
      0.1039486850D+03  0.6884262226D-01
      0.2921015530D+02  0.2321844432D+00
      0.9286662960D+01  0.4679413484D+00
      0.3163926960D+01  0.3623119853D+00
 Atom C17      Shell    50 SP   3    bf  138 -   141          1.292073711606          7.900795843306          0.594111943781
      0.7868272350D+01 -0.1193324198D+00  0.6899906659D-01
      0.1881288540D+01 -0.1608541517D+00  0.3164239610D+00
      0.5442492580D+00  0.1143456438D+01  0.7443082909D+00
 Atom C17      Shell    51 SP   1    bf  142 -   145          1.292073711606          7.900795843306          0.594111943781
      0.1687144782D+00  0.1000000000D+01  0.1000000000D+01
 Atom C17      Shell    52 D   1     bf  146 -   151          1.292073711606          7.900795843306          0.594111943781
      0.8000000000D+00  0.1000000000D+01
 Atom C18      Shell    53 S   6     bf  152 -   152          5.532231948916         -0.878710481956         -1.320407962886
      0.3047524880D+04  0.1834737132D-02
      0.4573695180D+03  0.1403732281D-01
      0.1039486850D+03  0.6884262226D-01
      0.2921015530D+02  0.2321844432D+00
      0.9286662960D+01  0.4679413484D+00
      0.3163926960D+01  0.3623119853D+00
 Atom C18      Shell    54 SP   3    bf  153 -   156          5.532231948916         -0.878710481956         -1.320407962886
      0.7868272350D+01 -0.1193324198D+00  0.6899906659D-01
      0.1881288540D+01 -0.1608541517D+00  0.3164239610D+00
      0.5442492580D+00  0.1143456438D+01  0.7443082909D+00
 Atom C18      Shell    55 SP   1    bf  157 -   160          5.532231948916         -0.878710481956         -1.320407962886
      0.1687144782D+00  0.1000000000D+01  0.1000000000D+01
 Atom C18      Shell    56 D   1     bf  161 -   166          5.532231948916         -0.878710481956         -1.320407962886
      0.8000000000D+00  0.1000000000D+01
 Atom H19      Shell    57 S   3     bf  167 -   167          4.074863438933         -1.823545032431         -2.436041403663
      0.1873113696D+02  0.3349460434D-01
      0.2825394365D+01  0.2347269535D+00
      0.6401216923D+00  0.8137573261D+00
 Atom H19      Shell    58 S   1     bf  168 -   168          4.074863438933         -1.823545032431         -2.436041403663
      0.1612777588D+00  0.1000000000D+01
 Atom H20      Shell    59 S   3     bf  169 -   169          5.252765056542         -1.502633422401          0.632935006578
      0.1873113696D+02  0.3349460434D-01
      0.2825394365D+01  0.2347269535D+00
      0.6401216923D+00  0.8137573261D+00
 Atom H20      Shell    60 S   1     bf  170 -   170          5.252765056542         -1.502633422401          0.632935006578
      0.1612777588D+00  0.1000000000D+01
 Atom C21      Shell    61 S   6     bf  171 -   171          6.101439626629          7.297365130840         -0.208991540461
      0.3047524880D+04  0.1834737132D-02
      0.4573695180D+03  0.1403732281D-01
      0.1039486850D+03  0.6884262226D-01
      0.2921015530D+02  0.2321844432D+00
      0.9286662960D+01  0.4679413484D+00
      0.3163926960D+01  0.3623119853D+00
 Atom C21      Shell    62 SP   3    bf  172 -   175          6.101439626629          7.297365130840         -0.208991540461
      0.7868272350D+01 -0.1193324198D+00  0.6899906659D-01
      0.1881288540D+01 -0.1608541517D+00  0.3164239610D+00
      0.5442492580D+00  0.1143456438D+01  0.7443082909D+00
 Atom C21      Shell    63 SP   1    bf  176 -   179          6.101439626629          7.297365130840         -0.208991540461
      0.1687144782D+00  0.1000000000D+01  0.1000000000D+01
 Atom C21      Shell    64 D   1     bf  180 -   185          6.101439626629          7.297365130840         -0.208991540461
      0.8000000000D+00  0.1000000000D+01
 Atom H22      Shell    65 S   3     bf  186 -   186          6.453749641070          7.333480820801          1.830503854429
      0.1873113696D+02  0.3349460434D-01
      0.2825394365D+01  0.2347269535D+00
      0.6401216923D+00  0.8137573261D+00
 Atom H22      Shell    66 S   1     bf  187 -   187          6.453749641070          7.333480820801          1.830503854429
      0.1612777588D+00  0.1000000000D+01
 Atom H23      Shell    67 S   3     bf  188 -   188          6.247652688613          9.261844672145         -0.846605830198
      0.1873113696D+02  0.3349460434D-01
      0.2825394365D+01  0.2347269535D+00
      0.6401216923D+00  0.8137573261D+00
 Atom H23      Shell    68 S   1     bf  189 -   189          6.247652688613          9.261844672145         -0.846605830198
      0.1612777588D+00  0.1000000000D+01
 Atom C24      Shell    69 S   6     bf  190 -   190          8.246946427697         -1.478253498642         -2.254771654243
      0.3047524880D+04  0.1834737132D-02
      0.4573695180D+03  0.1403732281D-01
      0.1039486850D+03  0.6884262226D-01
      0.2921015530D+02  0.2321844432D+00
      0.9286662960D+01  0.4679413484D+00
      0.3163926960D+01  0.3623119853D+00
 Atom C24      Shell    70 SP   3    bf  191 -   194          8.246946427697         -1.478253498642         -2.254771654243
      0.7868272350D+01 -0.1193324198D+00  0.6899906659D-01
      0.1881288540D+01 -0.1608541517D+00  0.3164239610D+00
      0.5442492580D+00  0.1143456438D+01  0.7443082909D+00
 Atom C24      Shell    71 SP   1    bf  195 -   198          8.246946427697         -1.478253498642         -2.254771654243
      0.1687144782D+00  0.1000000000D+01  0.1000000000D+01
 Atom C24      Shell    72 D   1     bf  199 -   204          8.246946427697         -1.478253498642         -2.254771654243
      0.8000000000D+00  0.1000000000D+01
 Atom H25      Shell    73 S   3     bf  205 -   205          9.212900198386         -2.759908828824         -0.943323922302
      0.1873113696D+02  0.3349460434D-01
      0.2825394365D+01  0.2347269535D+00
      0.6401216923D+00  0.8137573261D+00
 Atom H25      Shell    74 S   1     bf  206 -   206          9.212900198386         -2.759908828824         -0.943323922302
      0.1612777588D+00  0.1000000000D+01
 Atom H26      Shell    75 S   3     bf  207 -   207          8.207303752881         -2.441375193467         -4.084229053928
      0.1873113696D+02  0.3349460434D-01
      0.2825394365D+01  0.2347269535D+00
      0.6401216923D+00  0.8137573261D+00
 Atom H26      Shell    76 S   1     bf  208 -   208          8.207303752881         -2.441375193467         -4.084229053928
      0.1612777588D+00  0.1000000000D+01
 Atom C27      Shell    77 S   6     bf  209 -   209          0.602491329605          2.427065166737         -1.080799079620
      0.3047524880D+04  0.1834737132D-02
      0.4573695180D+03  0.1403732281D-01
      0.1039486850D+03  0.6884262226D-01
      0.2921015530D+02  0.2321844432D+00
      0.9286662960D+01  0.4679413484D+00
      0.3163926960D+01  0.3623119853D+00
 Atom C27      Shell    78 SP   3    bf  210 -   213          0.602491329605          2.427065166737         -1.080799079620
      0.7868272350D+01 -0.1193324198D+00  0.6899906659D-01
      0.1881288540D+01 -0.1608541517D+00  0.3164239610D+00
      0.5442492580D+00  0.1143456438D+01  0.7443082909D+00
 Atom C27      Shell    79 SP   1    bf  214 -   217          0.602491329605          2.427065166737         -1.080799079620
      0.1687144782D+00  0.1000000000D+01  0.1000000000D+01
 Atom C27      Shell    80 D   1     bf  218 -   223          0.602491329605          2.427065166737         -1.080799079620
      0.8000000000D+00  0.1000000000D+01
 Atom H28      Shell    81 S   3     bf  224 -   224          0.701194843574          2.030997882285         -3.117682136001
      0.1873113696D+02  0.3349460434D-01
      0.2825394365D+01  0.2347269535D+00
      0.6401216923D+00  0.8137573261D+00
 Atom H28      Shell    82 S   1     bf  225 -   225          0.701194843574          2.030997882285         -3.117682136001
      0.1612777588D+00  0.1000000000D+01
 Atom C29      Shell    83 S   6     bf  226 -   226         12.570550152234          0.809421273341         -1.905099527408
      0.3047524880D+04  0.1834737132D-02
      0.4573695180D+03  0.1403732281D-01
      0.1039486850D+03  0.6884262226D-01
      0.2921015530D+02  0.2321844432D+00
      0.9286662960D+01  0.4679413484D+00
      0.3163926960D+01  0.3623119853D+00
 Atom C29      Shell    84 SP   3    bf  227 -   230         12.570550152234          0.809421273341         -1.905099527408
      0.7868272350D+01 -0.1193324198D+00  0.6899906659D-01
      0.1881288540D+01 -0.1608541517D+00  0.3164239610D+00
      0.5442492580D+00  0.1143456438D+01  0.7443082909D+00
 Atom C29      Shell    85 SP   1    bf  231 -   234         12.570550152234          0.809421273341         -1.905099527408
      0.1687144782D+00  0.1000000000D+01  0.1000000000D+01
 Atom C29      Shell    86 D   1     bf  235 -   240         12.570550152234          0.809421273341         -1.905099527408
      0.8000000000D+00  0.1000000000D+01
 Atom H30      Shell    87 S   3     bf  241 -   241         12.777102528689          0.000000000000          0.000000000000
      0.1873113696D+02  0.3349460434D-01
      0.2825394365D+01  0.2347269535D+00
      0.6401216923D+00  0.8137573261D+00
 Atom H30      Shell    88 S   1     bf  242 -   242         12.777102528689          0.000000000000          0.000000000000
      0.1612777588D+00  0.1000000000D+01
 Atom C31      Shell    89 S   6     bf  243 -   243          8.663721406702          2.536234418667          2.045595430847
      0.3047524880D+04  0.1834737132D-02
      0.4573695180D+03  0.1403732281D-01
      0.1039486850D+03  0.6884262226D-01
      0.2921015530D+02  0.2321844432D+00
      0.9286662960D+01  0.4679413484D+00
      0.3163926960D+01  0.3623119853D+00
 Atom C31      Shell    90 SP   3    bf  244 -   247          8.663721406702          2.536234418667          2.045595430847
      0.7868272350D+01 -0.1193324198D+00  0.6899906659D-01
      0.1881288540D+01 -0.1608541517D+00  0.3164239610D+00
      0.5442492580D+00  0.1143456438D+01  0.7443082909D+00
 Atom C31      Shell    91 SP   1    bf  248 -   251          8.663721406702          2.536234418667          2.045595430847
      0.1687144782D+00  0.1000000000D+01  0.1000000000D+01
 Atom C31      Shell    92 D   1     bf  252 -   257          8.663721406702          2.536234418667          2.045595430847
      0.8000000000D+00  0.1000000000D+01
 Atom H32      Shell    93 S   3     bf  258 -   258          7.297042989226          3.481114776104          3.273116664671
      0.1873113696D+02  0.3349460434D-01
      0.2825394365D+01  0.2347269535D+00
      0.6401216923D+00  0.8137573261D+00
 Atom H32      Shell    94 S   1     bf  259 -   259          7.297042989226          3.481114776104          3.273116664671
      0.1612777588D+00  0.1000000000D+01
 Atom H33      Shell    95 S   3     bf  260 -   260          8.663089501180          0.534443954519          2.561848768227
      0.1873113696D+02  0.3349460434D-01
      0.2825394365D+01  0.2347269535D+00
      0.6401216923D+00  0.8137573261D+00
 Atom H33      Shell    96 S   1     bf  261 -   261          8.663089501180          0.534443954519          2.561848768227
      0.1612777588D+00  0.1000000000D+01
 Atom H34      Shell    97 S   3     bf  262 -   262         10.530719312059          3.292884182679          2.517638549759
      0.1873113696D+02  0.3349460434D-01
      0.2825394365D+01  0.2347269535D+00
      0.6401216923D+00  0.8137573261D+00
 Atom H34      Shell    98 S   1     bf  263 -   263         10.530719312059          3.292884182679          2.517638549759
      0.1612777588D+00  0.1000000000D+01
 Atom C35      Shell    99 S   6     bf  264 -   264         -1.284555455083          6.632918374078          0.218774350295
      0.3047524880D+04  0.1834737132D-02
      0.4573695180D+03  0.1403732281D-01
      0.1039486850D+03  0.6884262226D-01
      0.2921015530D+02  0.2321844432D+00
      0.9286662960D+01  0.4679413484D+00
      0.3163926960D+01  0.3623119853D+00
 Atom C35      Shell   100 SP   3    bf  265 -   268         -1.284555455083          6.632918374078          0.218774350295
      0.7868272350D+01 -0.1193324198D+00  0.6899906659D-01
      0.1881288540D+01 -0.1608541517D+00  0.3164239610D+00
      0.5442492580D+00  0.1143456438D+01  0.7443082909D+00
 Atom C35      Shell   101 SP   1    bf  269 -   272         -1.284555455083          6.632918374078          0.218774350295
      0.1687144782D+00  0.1000000000D+01  0.1000000000D+01
 Atom C35      Shell   102 D   1     bf  273 -   278         -1.284555455083          6.632918374078          0.218774350295
      0.8000000000D+00  0.1000000000D+01
 Atom C36      Shell   103 S   6     bf  279 -   279          1.198733334888         10.564058673077         -0.670373410346
      0.3047524880D+04  0.1834737132D-02
      0.4573695180D+03  0.1403732281D-01
      0.1039486850D+03  0.6884262226D-01
      0.2921015530D+02  0.2321844432D+00
      0.9286662960D+01  0.4679413484D+00
      0.3163926960D+01  0.3623119853D+00
 Atom C36      Shell   104 SP   3    bf  280 -   283          1.198733334888         10.564058673077         -0.670373410346
      0.7868272350D+01 -0.1193324198D+00  0.6899906659D-01
      0.1881288540D+01 -0.1608541517D+00  0.3164239610D+00
      0.5442492580D+00  0.1143456438D+01  0.7443082909D+00
 Atom C36      Shell   105 SP   1    bf  284 -   287          1.198733334888         10.564058673077         -0.670373410346
      0.1687144782D+00  0.1000000000D+01  0.1000000000D+01
 Atom C36      Shell   106 D   1     bf  288 -   293          1.198733334888         10.564058673077         -0.670373410346
      0.8000000000D+00  0.1000000000D+01
 Atom H37      Shell   107 S   3     bf  294 -   294          1.214965402068         10.304799699386         -2.730410619629
      0.1873113696D+02  0.3349460434D-01
      0.2825394365D+01  0.2347269535D+00
      0.6401216923D+00  0.8137573261D+00
 Atom H37      Shell   108 S   1     bf  295 -   295          1.214965402068         10.304799699386         -2.730410619629
      0.1612777588D+00  0.1000000000D+01
 Atom H38      Shell   109 S   3     bf  296 -   296          2.919462998258         11.612087010272         -0.197755380053
      0.1873113696D+02  0.3349460434D-01
      0.2825394365D+01  0.2347269535D+00
      0.6401216923D+00  0.8137573261D+00
 Atom H38      Shell   110 S   1     bf  297 -   297          2.919462998258         11.612087010272         -0.197755380053
      0.1612777588D+00  0.1000000000D+01
 Atom C39      Shell   111 S   6     bf  298 -   298         -1.525779487275          4.241252388742         -0.583932102487
      0.3047524880D+04  0.1834737132D-02
[...]
 **** Fit      -0.000550
 **** Fit       0.000114
 **** Fit       0.000770
 **** Fit       0.001403
 **** Fit       0.001947
 **** Fit       0.002293
 **** Fit       0.002373
 **** Fit       0.002222
 **** Fit       0.001935
 **** Fit       0.001607
 **** Fit       0.001295
 **** Fit       0.001023
 **** Fit      -0.001847
 **** Fit      -0.002081
 **** Fit      -0.002227
 **** Fit      -0.002228
 **** Fit      -0.002051
 **** Fit      -0.001694
 **** Fit      -0.001178
 **** Fit      -0.000511
 **** Fit       0.000301
 **** Fit       0.001202
 **** Fit       0.002025
 **** Fit       0.002552
 **** Fit       0.002664
 **** Fit       0.002432
 **** Fit       0.002028
 **** Fit       0.001604
 **** Fit       0.001234
 **** Fit       0.000938
 **** Fit      -0.001881
 **** Fit      -0.002084
 **** Fit      -0.002193
 **** Fit      -0.002169
 **** Fit      -0.001981
 **** Fit      -0.001597
 **** Fit      -0.000971
 **** Fit      -0.000072
 **** Fit       0.001029
 **** Fit       0.002084
 **** Fit       0.002762
 **** Fit       0.002889
 **** Fit       0.002572
 **** Fit       0.002061
 **** Fit       0.001557
 **** Fit       0.001145
 **** Fit       0.000837
 **** Fit       0.000618
 **** Fit      -0.002087
 **** Fit      -0.002181
 **** Fit      -0.002137
 **** Fit      -0.001890
 **** Fit      -0.001354
 **** Fit      -0.000464
 **** Fit       0.000711
 **** Fit       0.001884
 **** Fit       0.002656
 **** Fit       0.002813
 **** Fit       0.002477
 **** Fit       0.001937
 **** Fit       0.001418
 **** Fit       0.001008
 **** Fit       0.000714
 **** Fit       0.000515
 **** Fit      -0.002119
 **** Fit      -0.002196
 **** Fit      -0.002087
 **** Fit      -0.001688
 **** Fit      -0.000919
 **** Fit       0.000165
 **** Fit       0.001295
 **** Fit       0.002080
 **** Fit       0.002302
 **** Fit       0.002059
 **** Fit       0.001614
 **** Fit       0.001172
 **** Fit       0.000822
 **** Fit       0.000572
 **** Fit       0.000408
 **** Fit      -0.001991
 **** Fit      -0.002156
 **** Fit      -0.002169
 **** Fit      -0.001928
 **** Fit      -0.001356
 **** Fit      -0.000489
 **** Fit       0.000462
 **** Fit       0.001185
 **** Fit       0.001489
 **** Fit       0.001419
 **** Fit       0.001157
 **** Fit       0.000862
 **** Fit       0.000612
 **** Fit       0.000430
 **** Fit      -0.001797
 **** Fit      -0.002013
 **** Fit      -0.002112
 **** Fit      -0.002008
 **** Fit      -0.001638
 **** Fit      -0.001019
 **** Fit      -0.000295
 **** Fit       0.000322
 **** Fit       0.000682
 **** Fit       0.000779
 **** Fit       0.000706
 **** Fit       0.000567
 **** Fit       0.000427
 **** Fit       0.000316
 **** Fit      -0.001550
 **** Fit      -0.001777
 **** Fit      -0.001918
 **** Fit      -0.001905
 **** Fit      -0.001688
 **** Fit      -0.001273
 **** Fit      -0.000746
 **** Fit      -0.000243
 **** Fit       0.000125
 **** Fit       0.000324
 **** Fit       0.000385
 **** Fit       0.000365
 **** Fit       0.000312
 **** Fit       0.000257
 **** Fit      -0.001271
 **** Fit      -0.001480
 **** Fit      -0.001624
 **** Fit      -0.001652
 **** Fit      -0.001526
 **** Fit      -0.001246
 **** Fit      -0.000862
 **** Fit      -0.000460
 **** Fit      -0.000120
 **** Fit       0.000116
 **** Fit       0.000245
 **** Fit       0.000292
 **** Fit       0.000291
 **** Fit      -0.001158
 **** Fit      -0.001281
 **** Fit      -0.001315
 **** Fit      -0.001232
 **** Fit      -0.001029
 **** Fit      -0.000737
 **** Fit      -0.000413
 **** Fit      -0.000114
 **** Fit       0.000118
 **** Fit       0.000268
 **** Fit       0.000343
 **** Fit      -0.000886
 **** Fit      -0.000723
 **** Fit      -0.000487
 **** Fit      -0.000217
 **** Fit       0.000043
 **** Fit       0.000257
 **** Fit       0.000404
 **** Fit       0.000483
 **** Fit       0.000507
 **** Fit       0.000264
 **** Fit       0.000457
 **** Fit       0.000594
 **** Fit       0.000667
 **** Fit       0.000662
 **** Fit       0.000787
 **** Fit       0.000852
 **** Fit      -0.000835
 **** Fit      -0.000647
 **** Fit      -0.000467
 **** Fit      -0.000312
 **** Fit      -0.001164
 **** Fit      -0.000964
 **** Fit      -0.000719
 **** Fit      -0.000461
 **** Fit      -0.000226
 **** Fit      -0.000039
 **** Fit       0.000090
 **** Fit       0.000171
 **** Fit      -0.001345
 **** Fit      -0.001156
 **** Fit      -0.000881
 **** Fit      -0.000544
 **** Fit      -0.000195
 **** Fit       0.000110
 **** Fit       0.000329
 **** Fit       0.000456
 **** Fit       0.000513
 **** Fit       0.000530
 **** Fit      -0.001383
 **** Fit      -0.001138
 **** Fit      -0.000773
 **** Fit      -0.000324
 **** Fit       0.000136
 **** Fit       0.000520
 **** Fit       0.000770
 **** Fit       0.000883
 **** Fit       0.000899
 **** Fit       0.000871
 **** Fit       0.000836
 **** Fit      -0.001572
 **** Fit      -0.001425
 **** Fit      -0.001128
 **** Fit      -0.000674
 **** Fit      -0.000108
 **** Fit       0.000470
 **** Fit       0.000938
 **** Fit       0.001216
 **** Fit       0.001308
 **** Fit       0.001278
 **** Fit       0.001201
 **** Fit       0.001126
 **** Fit      -0.001632
 **** Fit      -0.001481
 **** Fit      -0.001154
 **** Fit      -0.000636
 **** Fit       0.000023
 **** Fit       0.000702
 **** Fit       0.001245
 **** Fit       0.001552
 **** Fit       0.001634
 **** Fit       0.001574
 **** Fit       0.001466
 **** Fit       0.001366
 **** Fit       0.001291
 **** Fit      -0.001685
 **** Fit      -0.001554
 **** Fit      -0.001235
 **** Fit      -0.000704
 **** Fit      -0.000008
 **** Fit       0.000720
 **** Fit       0.001312
 **** Fit       0.001656
 **** Fit       0.001761
 **** Fit       0.001716
 **** Fit       0.001620
 **** Fit       0.001528
 **** Fit       0.001452
 **** Fit      -0.001723
 **** Fit      -0.001635
 **** Fit      -0.001365
 **** Fit      -0.000884
 **** Fit      -0.000228
 **** Fit       0.000481
 **** Fit       0.001085
 **** Fit       0.001474
 **** Fit       0.001646
 **** Fit       0.001678
 **** Fit       0.001649
 **** Fit       0.001604
 **** Fit       0.001552
 **** Fit      -0.001730
 **** Fit      -0.001701
 **** Fit      -0.001511
 **** Fit      -0.001130
 **** Fit      -0.000578
 **** Fit       0.000051
 **** Fit       0.000629
 **** Fit       0.001063
 **** Fit       0.001338
 **** Fit       0.001494
 **** Fit       0.001581
 **** Fit       0.001618
 **** Fit       0.001610
 **** Fit       0.001553
 **** Fit       0.001452
 **** Fit      -0.001697
 **** Fit      -0.001728
 **** Fit      -0.001629
 **** Fit      -0.001368
 **** Fit      -0.000951
 **** Fit      -0.000435
 **** Fit       0.000092
 **** Fit       0.000560
 **** Fit       0.000942
 **** Fit       0.001244
 **** Fit       0.001470
 **** Fit       0.001611
 **** Fit       0.001655
 **** Fit       0.001608
 **** Fit       0.001489
 **** Fit       0.001326
 **** Fit      -0.001703
 **** Fit      -0.001687
 **** Fit      -0.001540
 **** Fit      -0.001256
 **** Fit      -0.000861
 **** Fit      -0.000400
 **** Fit       0.000082
 **** Fit       0.000556
 **** Fit       0.000996
 **** Fit       0.001364
 **** Fit       0.001610
 **** Fit       0.001706
 **** Fit       0.001662
 **** Fit       0.001517
 **** Fit       0.001323
 **** Fit       0.001116
 **** Fit      -0.001678
 **** Fit      -0.001628
 **** Fit      -0.001460
 **** Fit      -0.001176
 **** Fit      -0.000790
 **** Fit      -0.000317
 **** Fit       0.000220
 **** Fit       0.000774
 **** Fit       0.001268
 **** Fit       0.001611
 **** Fit       0.001749
 **** Fit       0.001699
 **** Fit       0.001525
 **** Fit       0.001298
 **** Fit       0.001068
 **** Fit      -0.001640
 **** Fit      -0.001570
 **** Fit      -0.001387
 **** Fit      -0.001080
 **** Fit      -0.000641
 **** Fit      -0.000080
 **** Fit       0.000549
 **** Fit       0.001137
 **** Fit       0.001555
 **** Fit       0.001728
 **** Fit       0.001676
 **** Fit       0.001482
 **** Fit       0.001235
 **** Fit       0.000995
 **** Fit       0.000789
 **** Fit      -0.001514
 **** Fit      -0.001291
 **** Fit      -0.000911
 **** Fit      -0.000372
 **** Fit       0.000274
 **** Fit       0.000904
 **** Fit       0.001367
 **** Fit       0.001573
 **** Fit       0.001538
 **** Fit       0.001354
 **** Fit       0.001117
 **** Fit       0.000888
 **** Fit       0.000697
 **** Fit      -0.001568
 **** Fit      -0.001431
 **** Fit      -0.001133
 **** Fit      -0.000661
 **** Fit      -0.000061
 **** Fit       0.000548
 **** Fit       0.001020
 **** Fit       0.001258
 **** Fit       0.001270
 **** Fit       0.001135
 **** Fit       0.000943
 **** Fit       0.000752
 **** Fit       0.000593
 **** Fit      -0.001552
 **** Fit      -0.001493
 **** Fit      -0.001285
 **** Fit      -0.000911
 **** Fit      -0.000406
 **** Fit       0.000133
 **** Fit       0.000578
 **** Fit       0.000843
 **** Fit       0.000918
 **** Fit       0.000860
 **** Fit       0.000739
 **** Fit       0.000606
 **** Fit       0.000489
 **** Fit      -0.001465
 **** Fit      -0.001466
 **** Fit      -0.001340
 **** Fit      -0.001068
 **** Fit      -0.000675
 **** Fit      -0.000231
 **** Fit       0.000166
 **** Fit       0.000441
 **** Fit       0.000575
 **** Fit       0.000595
 **** Fit       0.000549
 **** Fit       0.000477
 **** Fit      -0.001352
 **** Fit      -0.001286
 **** Fit      -0.001100
 **** Fit      -0.000807
 **** Fit      -0.000455
 **** Fit      -0.000116
 **** Fit       0.000152
 **** Fit       0.000321
 **** Fit       0.000400
 **** Fit       0.000414
 **** Fit       0.000392
 **** Fit      -0.001138
 **** Fit      -0.001010
 **** Fit      -0.000793
 **** Fit      -0.000517
 **** Fit      -0.000232
 **** Fit       0.000014
 **** Fit       0.000195
 **** Fit       0.000305
 **** Fit       0.000357
 **** Fit      -0.000833
 **** Fit      -0.000666
 **** Fit      -0.000445
 **** Fit      -0.000207
 **** Fit       0.000013
 **** Fit       0.000189
 **** Fit      -0.000399
 **** Fit      -0.000213
 **** Fit      -0.000728
 **** Fit      -0.000480
 **** Fit      -0.000225
 **** Fit       0.000005
 **** Fit       0.000185
 **** Fit       0.000308
 **** Fit       0.000382
 **** Fit      -0.000920
 **** Fit      -0.000659
 **** Fit      -0.000349
 **** Fit      -0.000032
 **** Fit       0.000246
 **** Fit       0.000453
 **** Fit       0.000580
 **** Fit       0.000643
 **** Fit       0.000664
 **** Fit      -0.001132
 **** Fit      -0.000912
 **** Fit      -0.000603
 **** Fit      -0.000233
 **** Fit       0.000144
 **** Fit       0.000469
 **** Fit       0.000702
 **** Fit       0.000834
 **** Fit       0.000886
 **** Fit       0.000891
 **** Fit      -0.001163
 **** Fit      -0.000928
 **** Fit      -0.000587
 **** Fit      -0.000174
 **** Fit       0.000251
 **** Fit       0.000618
 **** Fit       0.000877
 **** Fit       0.001019
 **** Fit       0.001071
 **** Fit       0.001071
 **** Fit       0.001048
 **** Fit      -0.001207
 **** Fit      -0.000976
 **** Fit      -0.000631
 **** Fit      -0.000203
 **** Fit       0.000247
 **** Fit       0.000641
 **** Fit       0.000926
 **** Fit       0.001092
 **** Fit       0.001164
 **** Fit       0.001179
 **** Fit       0.001166
 **** Fit      -0.001256
 **** Fit      -0.001054
 **** Fit      -0.000735
 **** Fit      -0.000326
 **** Fit       0.000117
 **** Fit       0.000520
 **** Fit       0.000832
 **** Fit       0.001037
 **** Fit       0.001152
 **** Fit       0.001208
 **** Fit       0.001225
 **** Fit      -0.001300
 **** Fit      -0.001144
 **** Fit      -0.000877
 **** Fit      -0.000517
 **** Fit      -0.000110
 **** Fit       0.000285
 **** Fit       0.000619
 **** Fit       0.000873
 **** Fit       0.001052
 **** Fit       0.001169
 **** Fit      -0.001222
 **** Fit      -0.001021
 **** Fit      -0.000729
 **** Fit      -0.000376
 **** Fit      -0.000005
 **** Fit       0.000344
 **** Fit       0.000648
 **** Fit       0.000898
 **** Fit       0.001088
 **** Fit       0.001212
 **** Fit       0.001267
 **** Fit       0.001255
 **** Fit      -0.001270
 **** Fit      -0.001137
 **** Fit      -0.000918
 **** Fit      -0.000627
 **** Fit      -0.000292
 **** Fit       0.000061
 **** Fit       0.000407
 **** Fit       0.000724
 **** Fit       0.000986
 **** Fit       0.001170
 **** Fit       0.001261
 **** Fit       0.001262
 **** Fit       0.001192
 **** Fit      -0.001059
 **** Fit      -0.000833
 **** Fit      -0.000540
 **** Fit      -0.000197
 **** Fit       0.000175
 **** Fit       0.000544
 **** Fit       0.000869
 **** Fit       0.001106
 **** Fit       0.001230
 **** Fit       0.001243
 **** Fit       0.001171
 **** Fit       0.001049
 **** Fit      -0.000739
 **** Fit      -0.000420
 **** Fit      -0.000043
 **** Fit       0.000357
 **** Fit       0.000724
 **** Fit       0.001002
 **** Fit       0.001154
 **** Fit       0.001180
 **** Fit       0.001112
 **** Fit       0.000990
 **** Fit      -0.000888
 **** Fit      -0.000608
 **** Fit      -0.000249
 **** Fit       0.000153
 **** Fit       0.000537
 **** Fit       0.000839
 **** Fit       0.001014
 **** Fit       0.001059
 **** Fit       0.001006
 **** Fit       0.000897
 **** Fit       0.000771
 **** Fit      -0.000988
 **** Fit      -0.000758
 **** Fit      -0.000440
 **** Fit      -0.000064
 **** Fit       0.000311
 **** Fit       0.000617
 **** Fit       0.000809
 **** Fit       0.000880
 **** Fit       0.000855
 **** Fit       0.000775
 **** Fit       0.000674
 **** Fit      -0.001034
 **** Fit      -0.000859
 **** Fit      -0.000595
 **** Fit      -0.000267
 **** Fit       0.000074
 **** Fit       0.000368
 **** Fit       0.000570
 **** Fit       0.000669
 **** Fit       0.000681
 **** Fit       0.000639
 **** Fit      -0.000898
 **** Fit      -0.000691
 **** Fit      -0.000421
 **** Fit      -0.000126
 **** Fit       0.000143
 **** Fit       0.000347
 **** Fit       0.000469
 **** Fit       0.000518
 **** Fit       0.000514
 **** Fit      -0.000869
 **** Fit      -0.000713
 **** Fit      -0.000498
 **** Fit      -0.000252
 **** Fit      -0.000013
 **** Fit       0.000183
 **** Fit       0.000319
 **** Fit       0.000395
 **** Fit      -0.000491
 **** Fit      -0.000288
 **** Fit      -0.000081
 **** Fit       0.000101
 **** Fit       0.000240
 **** Fit      -0.000124
 **** Fit       0.000083
 **** Fit       0.000251
 **** Fit      -0.000283
 **** Fit      -0.000022
 **** Fit       0.000214
 **** Fit       0.000402
 **** Fit       0.000532
 **** Fit      -0.000529
 **** Fit      -0.000251
 **** Fit       0.000037
 **** Fit       0.000298
 **** Fit       0.000505
 **** Fit       0.000648
 **** Fit       0.000734
 **** Fit      -0.000555
 **** Fit      -0.000268
 **** Fit       0.000033
 **** Fit       0.000310
 **** Fit       0.000536
 **** Fit       0.000697
 **** Fit       0.000800
 **** Fit      -0.000615
 **** Fit      -0.000339
 **** Fit      -0.000040
 **** Fit       0.000245
 **** Fit       0.000487
 **** Fit       0.000672
 **** Fit       0.000800
 **** Fit      -0.000698
 **** Fit      -0.000448
 **** Fit      -0.000166
 **** Fit       0.000116
 **** Fit       0.000370
 **** Fit       0.000581
 **** Fit      -0.000573
 **** Fit      -0.000319
 **** Fit      -0.000050
 **** Fit       0.000211
 **** Fit       0.000448
 **** Fit       0.000724
 **** Fit       0.000866
 **** Fit       0.000397
 **** Fit       0.000624
 **** Fit       0.000797
 **** Fit       0.000901
 **** Fit       0.000936
 **** Fit      -0.000015
 **** Fit       0.000258
 **** Fit       0.000507
 **** Fit       0.000702
 **** Fit       0.000826
 **** Fit       0.000874
 **** Fit      -0.000157
 **** Fit       0.000113
 **** Fit       0.000370
 **** Fit       0.000579
 **** Fit       0.000717
 **** Fit       0.000780
 **** Fit       0.000778
 **** Fit      -0.000284
 **** Fit      -0.000029
 **** Fit       0.000221
 **** Fit       0.000432
 **** Fit       0.000580
 **** Fit       0.000658
 **** Fit       0.000675
 **** Fit      -0.000384
 **** Fit      -0.000156
 **** Fit       0.000076
 **** Fit       0.000280
 **** Fit       0.000434
 **** Fit       0.000526
 **** Fit      -0.000250
 **** Fit      -0.000043
 **** Fit       0.000148
 **** Fit       0.000300
 -----------------------------------------------------------------
 Leave Link  602 at Wed May 17 11:37:58 2017, MaxMem=    33554432 cpu:        37.6
 (Enter /home/michal/g09/l9999.exe)

 Test job not archived.
 1\1\GINC-LINUX\SP\RHF\6-31G(d)\C27H46O2\MICHAL\17-May-2017\0\\#P HF/6-
 31G* SCF(Conver=6) NoSymm Test Pop=chelpg IOp(6/33=2) GFInput GFPrint\
 \MEP - Input generated by R.E.D.-III.x MOLECULE\\0,1\O,0,0.,0.,0.\H,0,
 -0.2295326,0.13751652,0.9299019\O,0,-3.05176278,6.48179347,0.\H,0,-3.0
 5125665,6.68291204,0.94642036\C,0,4.27208147,1.55117393,-0.41727518\C,
 0,2.84223592,1.06600099,-0.7958885\H,0,2.73625229,1.30406907,-1.868737
 21\C,0,1.68845036,1.80930968,-0.09887829\H,0,1.74097449,1.63664612,0.9
 8619128\C,0,1.80246275,3.3326619,-0.38497544\H,0,1.6254155,3.4455176,-
 1.46729489\C,0,5.13499086,0.57798171,-1.2950369\H,0,5.04428884,0.94321
 784,-2.33063205\C,0,4.34547251,3.04563408,-0.78885537\H,0,4.25621637,3
 .14106113,-1.88073702\H,0,5.30987031,3.48567702,-0.51687169\C,0,0.6837
 3596,4.18092109,0.3143905\C,0,2.92753106,-0.46499356,-0.6987298\H,0,2.
 15632486,-0.96497847,-1.28909759\H,0,2.77964355,-0.79515936,0.33493478
 \C,0,3.22874279,3.86159931,-0.11059356\H,0,3.41517722,3.88071091,0.968
 66092\H,0,3.30611541,4.90115711,-0.44800451\C,0,4.36409609,-0.78225806
 ,-1.19317377\H,0,4.87525681,-1.46048085,-0.49918552\H,0,4.34311809,-1.
 29192011,-2.16128093\C,0,0.31882468,1.28434757,-0.57193424\H,0,0.37105
 633,1.07475779,-1.64980633\C,0,6.65204864,0.42832729,-1.00813525\H,0,6
 .76135145,0.,0.\C,0,4.58464391,1.34211745,1.08248248\H,0,3.86142884,1.
 8421266,1.73205874\H,0,4.58430952,0.28281556,1.35567198\H,0,5.57261665
 ,1.74251926,1.33227694\C,0,-0.67975747,3.50998923,0.1157704\C,0,0.6343
 4236,5.59025908,-0.35474633\H,0,0.642932,5.45306514,-1.44487107\H,0,1.
 54491328,6.14485179,-0.10464764\C,0,-0.80740773,2.2443741,-0.30900356\
 H,0,-1.80242127,1.82755089,-0.46481362\C,0,0.94719218,4.33812205,1.836
 0286\H,0,1.82038599,4.96959888,2.0267442\H,0,0.09796778,4.8009707,2.34
 53969\H,0,1.11743867,3.36720971,2.31130522\C,0,-1.91203521,4.34435985,
 0.41099397\H,0,-2.81710667,3.79471798,0.1345012\H,0,-1.97859038,4.5389
 354,1.49377484\C,0,-0.59063952,6.44137783,0.01404547\H,0,-0.57498285,6
 .69515162,1.08444171\H,0,-0.5651063,7.39054704,-0.53318606\C,0,7.29266
 702,-0.57429648,-2.00255171\H,0,6.62805462,-1.43470294,-2.12481923\H,0
 ,7.35607728,-0.09608879,-2.99258149\C,0,-1.89098856,5.70369487,-0.3037
 2518\H,0,-1.9551846,5.5378514,-1.38605491\C,0,7.41192298,1.76667689,-1
 .04326445\H,0,7.23537937,2.29077477,-1.9909128\H,0,8.49103445,1.613298
 79,-0.94742568\H,0,7.11363912,2.43482924,-0.23213072\C,0,8.68343414,-1
 .09002453,-1.59752425\H,0,9.36275875,-0.24492255,-1.43329941\H,0,8.607
 35624,-1.60317344,-0.62919009\C,0,9.34377941,-2.01859386,-2.63410983\H
 ,0,10.3652387,-2.2491759,-2.29655065\H,0,9.45561579,-1.46352512,-3.576
 83689\C,0,8.6276651,-3.35233303,-2.93680493\H,0,7.61274898,-3.12690629
 ,-3.29404555\C,0,8.50234764,-4.24640611,-1.69304138\H,0,9.49269351,-4.
 48261029,-1.28218962\H,0,8.01118077,-5.19436535,-1.94045316\H,0,7.9174
 814,-3.77077534,-0.89912509\C,0,9.35591786,-4.09916942,-4.06590446\H,0
 ,10.37974219,-4.35834697,-3.76664707\H,0,8.83992926,-5.03081221,-4.324
 77632\H,0,9.41963073,-3.48762575,-4.97332776\\Version=EM64L-G09RevD.01
 \HF=-1198.9271628\RMSD=4.849e-07\Dipole=0.5412052,0.5074164,0.7666841\
 Quadrupole=-4.3722851,-0.616187,4.9884721,8.3931144,-3.0009604,5.84640
 9\PG=C01 [X(C27H46O2)]\\@


 IF I HAVE SEEN FARTHER, IT IS BY STANDING ON THE
 SHOULDERS OF GIANTS. -- SIR ISAAC NEWTON
 Job cpu time:       0 days  0 hours 11 minutes 26.3 seconds.
 File lengths (MBytes):  RWF=    150 Int=      0 D2E=      0 Chk=     11 Scr=      1
 Normal termination of Gaussian 09 at Wed May 17 11:37:58 2017.
