 Entering Gaussian System, Link 0=/home/michal/g09/g09
 Input=JOB2-gau_m1-23-1.com
 Output=JOB2-gau_m1-23-1.log
 Initial command:
 /home/michal/g09/l1.exe "/home/michal/gauss_scratch/Gau-8431.inp" -scrdir="/home/michal/gauss_scratch/"
 Entering Link 1 = /home/michal/g09/l1.exe PID=      8432.
  
 Copyright (c) 1988,1990,1992,1993,1995,1998,2003,2009,2013,
            Gaussian, Inc.  All Rights Reserved.
  
 This is part of the Gaussian(R) 09 program.  It is based on
 the Gaussian(R) 03 system (copyright 2003, Gaussian, Inc.),
 the Gaussian(R) 98 system (copyright 1998, Gaussian, Inc.),
 the Gaussian(R) 94 system (copyright 1995, Gaussian, Inc.),
 the Gaussian 92(TM) system (copyright 1992, Gaussian, Inc.),
 the Gaussian 90(TM) system (copyright 1990, Gaussian, Inc.),
 the Gaussian 88(TM) system (copyright 1988, Gaussian, Inc.),
 the Gaussian 86(TM) system (copyright 1986, Carnegie Mellon
 University), and the Gaussian 82(TM) system (copyright 1983,
 Carnegie Mellon University). Gaussian is a federally registered
 trademark of Gaussian, Inc.
  
 This software contains proprietary and confidential information,
 including trade secrets, belonging to Gaussian, Inc.
  
 This software is provided under written license and may be
 used, copied, transmitted, or stored only in accord with that
 written license.
  
 The following legend is applicable only to US Government
 contracts under FAR:
  
                    RESTRICTED RIGHTS LEGEND
  
 Use, reproduction and disclosure by the US Government is
 subject to restrictions as set forth in subparagraphs (a)
 and (c) of the Commercial Computer Software - Restricted
 Rights clause in FAR 52.227-19.
  
 Gaussian, Inc.
 340 Quinnipiac St., Bldg. 40, Wallingford CT 06492
  
  
 ---------------------------------------------------------------
 Warning -- This program may not be used in any manner that
 competes with the business of Gaussian, Inc. or will provide
 assistance to any competitor of Gaussian, Inc.  The licensee
 of this program is prohibited from giving any competitor of
 Gaussian, Inc. access to this program.  By using this program,
 the user acknowledges that Gaussian, Inc. is engaged in the
 business of creating and licensing software in the field of
 computational chemistry and represents and warrants to the
 licensee that it is not a competitor of Gaussian, Inc. and that
 it will not use this program in any manner prohibited above.
 ---------------------------------------------------------------
  

 Cite this work as:
 Gaussian 09, Revision D.01,
 M. J. Frisch, G. W. Trucks, H. B. Schlegel, G. E. Scuseria, 
 M. A. Robb, J. R. Cheeseman, G. Scalmani, V. Barone, B. Mennucci, 
 G. A. Petersson, H. Nakatsuji, M. Caricato, X. Li, H. P. Hratchian, 
 A. F. Izmaylov, J. Bloino, G. Zheng, J. L. Sonnenberg, M. Hada, 
 M. Ehara, K. Toyota, R. Fukuda, J. Hasegawa, M. Ishida, T. Nakajima, 
 Y. Honda, O. Kitao, H. Nakai, T. Vreven, J. A. Montgomery, Jr., 
 J. E. Peralta, F. Ogliaro, M. Bearpark, J. J. Heyd, E. Brothers, 
 K. N. Kudin, V. N. Staroverov, T. Keith, R. Kobayashi, J. Normand, 
 K. Raghavachari, A. Rendell, J. C. Burant, S. S. Iyengar, J. Tomasi, 
 M. Cossi, N. Rega, J. M. Millam, M. Klene, J. E. Knox, J. B. Cross, 
 V. Bakken, C. Adamo, J. Jaramillo, R. Gomperts, R. E. Stratmann, 
 O. Yazyev, A. J. Austin, R. Cammi, C. Pomelli, J. W. Ochterski, 
 R. L. Martin, K. Morokuma, V. G. Zakrzewski, G. A. Voth, 
 P. Salvador, J. J. Dannenberg, S. Dapprich, A. D. Daniels, 
 O. Farkas, J. B. Foresman, J. V. Ortiz, J. Cioslowski, 
 and D. J. Fox, Gaussian, Inc., Wallingford CT, 2013.
 
 ******************************************
 Gaussian 09:  EM64L-G09RevD.01 24-Apr-2013
                17-May-2017 
 ******************************************
 %Mem=256MB
 %NProc=12
 Will use up to   12 processors via shared memory.
 ----------------------------------------------------------------------
 #P HF/6-31G* SCF(Conver=6) NoSymm Test Pop=chelpg IOp(6/33=2) GFInput 
 GFPrint
 ----------------------------------------------------------------------
 1/38=1/1;
 2/12=2,15=1,17=6,18=5,40=1/2;
 3/5=1,6=6,7=1,11=9,16=1,24=110,25=1,30=1/1,2,3;
 4//1;
 5/5=2,6=6,38=5/2;
 6/7=2,8=2,9=2,10=2,15=8,20=3,28=1,33=2/1,2;
 99/5=1,9=1/99;
 Leave Link    1 at Wed May 17 12:57:50 2017, MaxMem=    33554432 cpu:         0.6
 (Enter /home/michal/g09/l101.exe)
 ----------------------------------------------
 MEP - Input generated by R.E.D.-III.x MOLECULE
 ----------------------------------------------
 Symbolic Z-matrix:
 Charge =  0 Multiplicity = 1
 O                     0.        0.        0. 
 H                     0.96763   0.        0. 
 O                     1.64515  -2.7397    6.41205 
 H                     2.58313  -2.51014   6.47254 
 C                    -1.19398   4.10605   1.59553 
 C                    -1.2876    2.61133   1.17097 
 H                    -2.25963   2.26487   1.56344 
 C                    -0.23842   1.67984   1.80431 
 H                     0.76733   1.97951   1.47475 
 C                    -0.3239    1.77633   3.35312 
 H                    -1.30597   1.35427   3.62311 
 C                    -2.38053   4.70457   0.76123 
 H                    -3.30231   4.38611   1.27405 
 C                    -1.35607   4.14202   3.12827 
 H                    -2.37064   3.80239   3.38242 
 H                    -1.26092   5.15799   3.52379 
 C                     0.73414   0.8831    4.08994 
 C                    -1.43206   2.66385  -0.35776 
 H                    -1.88752   1.75877  -0.76599 
 H                    -0.45055   2.7513   -0.83561 
 C                    -0.32338   3.24465   3.83622 
 H                     0.67228   3.67969   3.69723 
 H                    -0.51823   3.27671   4.91396 
 C                    -2.29309   3.93237  -0.59928 
 H                    -1.84382   4.56826  -1.37173 
 H                    -3.29091   3.66712  -0.96182 
 C                    -0.44273   0.22008   1.3542 
 H                    -1.52075   0.01061   1.30455 
 C                    -2.48596   6.24046   0.57121 
 H                    -1.60395   6.56835   0. 
 C                     0.14343   4.75438   1.1693 
 H                     1.01031   4.2216    1.56889 
 H                     0.25549   4.7814    0.08143 
 H                     0.20603   5.78667   1.52884 
 C                     0.77135  -0.51137   3.45528 
 C                     0.30313   0.72701   5.58201 
 H                    -0.76603   0.47478   5.60578 
 H                     0.40629   1.68952   6.09404 
 C                     0.21354  -0.77899   2.26543 
 H                     0.2406   -1.79663   1.87589 
 C                     2.15629   1.50156   4.02282 
 H                     2.22218   2.41651   4.61959 
 H                     2.91302   0.81217   4.40617 
 H                     2.43465   1.74478   2.99282 
 C                     1.46596  -1.61024   4.23749 
 H                     1.33683  -2.57344   3.73421 
 H                     2.54996  -1.41405   4.27155 
 C                     1.06909  -0.34693   6.37001 
 H                     2.1301   -0.07173   6.46445 
 H                     0.67205  -0.41759   7.38903 
 C                    -3.73606   6.59463  -0.27514 
 H                    -3.81819   5.89044  -1.1084 
 H                    -4.63456   6.4405    0.34276 
 C                     0.96733  -1.71034   5.68676 
 H                    -0.08114  -2.03244   5.68106 
 C                    -2.50977   7.01684   1.9003 
 H                    -3.30409   6.64114   2.5574 
 H                    -2.69546   8.08232   1.73455 
 H                    -1.56454   6.94061   2.44259 
 C                    -3.75005   8.02285  -0.84458 
 H                    -3.63327   8.75065  -0.0326 
 H                    -2.87436   8.15837  -1.49388 
 C                    -5.03483   8.38886  -1.6115 
 H                    -4.98552   9.45238  -1.88899 
 H                    -5.88844   8.29555  -0.92448 
 C                    -5.34541   7.57586  -2.8866 
 H                    -5.41593   6.51391  -2.61133 
 C                    -4.24749   7.71494  -3.95301 
 H                    -4.12114   8.76524  -4.24679 
 H                    -4.50347   7.14684  -4.85458 
 H                    -3.27819   7.34957  -3.59865 
 C                    -6.70937   7.99245  -3.46022 
 H                    -6.70148   9.04828  -3.76041 
 H                    -6.96816   7.3981   -4.34396 
 H                    -7.50961   7.86265  -2.7225 
 
 NAtoms=     75 NQM=       75 NQMF=       0 NMMI=      0 NMMIF=      0
                NMic=       0 NMicF=      0.
                    Isotopes and Nuclear Properties:
 (Nuclear quadrupole moments (NQMom) in fm**2, nuclear magnetic moments (NMagM)
  in nuclear magnetons)

  Atom         1           2           3           4           5           6           7           8           9          10
 IAtWgt=          16           1          16           1          12          12           1          12           1          12
 AtmWgt=  15.9949146   1.0078250  15.9949146   1.0078250  12.0000000  12.0000000   1.0078250  12.0000000   1.0078250  12.0000000
 NucSpn=           0           1           0           1           0           0           1           0           1           0
 AtZEff=   0.0000000   0.0000000   0.0000000   0.0000000   0.0000000   0.0000000   0.0000000   0.0000000   0.0000000   0.0000000
 NQMom=    0.0000000   0.0000000   0.0000000   0.0000000   0.0000000   0.0000000   0.0000000   0.0000000   0.0000000   0.0000000
 NMagM=    0.0000000   2.7928460   0.0000000   2.7928460   0.0000000   0.0000000   2.7928460   0.0000000   2.7928460   0.0000000
 AtZNuc=   8.0000000   1.0000000   8.0000000   1.0000000   6.0000000   6.0000000   1.0000000   6.0000000   1.0000000   6.0000000

  Atom        11          12          13          14          15          16          17          18          19          20
 IAtWgt=           1          12           1          12           1           1          12          12           1           1
 AtmWgt=   1.0078250  12.0000000   1.0078250  12.0000000   1.0078250   1.0078250  12.0000000  12.0000000   1.0078250   1.0078250
 NucSpn=           1           0           1           0           1           1           0           0           1           1
 AtZEff=   0.0000000   0.0000000   0.0000000   0.0000000   0.0000000   0.0000000   0.0000000   0.0000000   0.0000000   0.0000000
 NQMom=    0.0000000   0.0000000   0.0000000   0.0000000   0.0000000   0.0000000   0.0000000   0.0000000   0.0000000   0.0000000
 NMagM=    2.7928460   0.0000000   2.7928460   0.0000000   2.7928460   2.7928460   0.0000000   0.0000000   2.7928460   2.7928460
 AtZNuc=   1.0000000   6.0000000   1.0000000   6.0000000   1.0000000   1.0000000   6.0000000   6.0000000   1.0000000   1.0000000

  Atom        21          22          23          24          25          26          27          28          29          30
 IAtWgt=          12           1           1          12           1           1          12           1          12           1
 AtmWgt=  12.0000000   1.0078250   1.0078250  12.0000000   1.0078250   1.0078250  12.0000000   1.0078250  12.0000000   1.0078250
 NucSpn=           0           1           1           0           1           1           0           1           0           1
 AtZEff=   0.0000000   0.0000000   0.0000000   0.0000000   0.0000000   0.0000000   0.0000000   0.0000000   0.0000000   0.0000000
 NQMom=    0.0000000   0.0000000   0.0000000   0.0000000   0.0000000   0.0000000   0.0000000   0.0000000   0.0000000   0.0000000
 NMagM=    0.0000000   2.7928460   2.7928460   0.0000000   2.7928460   2.7928460   0.0000000   2.7928460   0.0000000   2.7928460
 AtZNuc=   6.0000000   1.0000000   1.0000000   6.0000000   1.0000000   1.0000000   6.0000000   1.0000000   6.0000000   1.0000000

  Atom        31          32          33          34          35          36          37          38          39          40
 IAtWgt=          12           1           1           1          12          12           1           1          12           1
 AtmWgt=  12.0000000   1.0078250   1.0078250   1.0078250  12.0000000  12.0000000   1.0078250   1.0078250  12.0000000   1.0078250
 NucSpn=           0           1           1           1           0           0           1           1           0           1
 AtZEff=   0.0000000   0.0000000   0.0000000   0.0000000   0.0000000   0.0000000   0.0000000   0.0000000   0.0000000   0.0000000
 NQMom=    0.0000000   0.0000000   0.0000000   0.0000000   0.0000000   0.0000000   0.0000000   0.0000000   0.0000000   0.0000000
 NMagM=    0.0000000   2.7928460   2.7928460   2.7928460   0.0000000   0.0000000   2.7928460   2.7928460   0.0000000   2.7928460
 AtZNuc=   6.0000000   1.0000000   1.0000000   1.0000000   6.0000000   6.0000000   1.0000000   1.0000000   6.0000000   1.0000000

  Atom        41          42          43          44          45          46          47          48          49          50
 IAtWgt=          12           1           1           1          12           1           1          12           1           1
 AtmWgt=  12.0000000   1.0078250   1.0078250   1.0078250  12.0000000   1.0078250   1.0078250  12.0000000   1.0078250   1.0078250
 NucSpn=           0           1           1           1           0           1           1           0           1           1
 AtZEff=   0.0000000   0.0000000   0.0000000   0.0000000   0.0000000   0.0000000   0.0000000   0.0000000   0.0000000   0.0000000
 NQMom=    0.0000000   0.0000000   0.0000000   0.0000000   0.0000000   0.0000000   0.0000000   0.0000000   0.0000000   0.0000000
 NMagM=    0.0000000   2.7928460   2.7928460   2.7928460   0.0000000   2.7928460   2.7928460   0.0000000   2.7928460   2.7928460
 AtZNuc=   6.0000000   1.0000000   1.0000000   1.0000000   6.0000000   1.0000000   1.0000000   6.0000000   1.0000000   1.0000000

  Atom        51          52          53          54          55          56          57          58          59          60
 IAtWgt=          12           1           1          12           1          12           1           1           1          12
 AtmWgt=  12.0000000   1.0078250   1.0078250  12.0000000   1.0078250  12.0000000   1.0078250   1.0078250   1.0078250  12.0000000
 NucSpn=           0           1           1           0           1           0           1           1           1           0
 AtZEff=   0.0000000   0.0000000   0.0000000   0.0000000   0.0000000   0.0000000   0.0000000   0.0000000   0.0000000   0.0000000
 NQMom=    0.0000000   0.0000000   0.0000000   0.0000000   0.0000000   0.0000000   0.0000000   0.0000000   0.0000000   0.0000000
 NMagM=    0.0000000   2.7928460   2.7928460   0.0000000   2.7928460   0.0000000   2.7928460   2.7928460   2.7928460   0.0000000
 AtZNuc=   6.0000000   1.0000000   1.0000000   6.0000000   1.0000000   6.0000000   1.0000000   1.0000000   1.0000000   6.0000000

  Atom        61          62          63          64          65          66          67          68          69          70
 IAtWgt=           1           1          12           1           1          12           1          12           1           1
 AtmWgt=   1.0078250   1.0078250  12.0000000   1.0078250   1.0078250  12.0000000   1.0078250  12.0000000   1.0078250   1.0078250
 NucSpn=           1           1           0           1           1           0           1           0           1           1
 AtZEff=   0.0000000   0.0000000   0.0000000   0.0000000   0.0000000   0.0000000   0.0000000   0.0000000   0.0000000   0.0000000
 NQMom=    0.0000000   0.0000000   0.0000000   0.0000000   0.0000000   0.0000000   0.0000000   0.0000000   0.0000000   0.0000000
 NMagM=    2.7928460   2.7928460   0.0000000   2.7928460   2.7928460   0.0000000   2.7928460   0.0000000   2.7928460   2.7928460
 AtZNuc=   1.0000000   1.0000000   6.0000000   1.0000000   1.0000000   6.0000000   1.0000000   6.0000000   1.0000000   1.0000000

  Atom        71          72          73          74          75
 IAtWgt=           1          12           1           1           1
 AtmWgt=   1.0078250  12.0000000   1.0078250   1.0078250   1.0078250
 NucSpn=           1           0           1           1           1
 AtZEff=   0.0000000   0.0000000   0.0000000   0.0000000   0.0000000
 NQMom=    0.0000000   0.0000000   0.0000000   0.0000000   0.0000000
 NMagM=    2.7928460   0.0000000   2.7928460   2.7928460   2.7928460
 AtZNuc=   1.0000000   6.0000000   1.0000000   1.0000000   1.0000000
 Leave Link  101 at Wed May 17 12:57:50 2017, MaxMem=    33554432 cpu:         1.0
 (Enter /home/michal/g09/l202.exe)
 Symmetry turned off by external request.
 Stoichiometry    C27H46O2
 Framework group  C1[X(C27H46O2)]
 Deg. of freedom   219
 Full point group                 C1      NOp   1
                          Input orientation:                          
 ---------------------------------------------------------------------
 Center     Atomic      Atomic             Coordinates (Angstroms)
 Number     Number       Type             X           Y           Z
 ---------------------------------------------------------------------
      1          8           0        0.000000    0.000000    0.000000
      2          1           0        0.967634    0.000000    0.000000
      3          8           0        1.645153   -2.739698    6.412051
      4          1           0        2.583132   -2.510138    6.472537
      5          6           0       -1.193979    4.106050    1.595530
      6          6           0       -1.287596    2.611331    1.170971
      7          1           0       -2.259629    2.264873    1.563441
      8          6           0       -0.238421    1.679843    1.804307
      9          1           0        0.767334    1.979508    1.474752
     10          6           0       -0.323897    1.776332    3.353123
     11          1           0       -1.305970    1.354272    3.623114
     12          6           0       -2.380528    4.704568    0.761228
     13          1           0       -3.302311    4.386110    1.274047
     14          6           0       -1.356070    4.142017    3.128272
     15          1           0       -2.370636    3.802394    3.382422
     16          1           0       -1.260923    5.157985    3.523786
     17          6           0        0.734141    0.883095    4.089936
     18          6           0       -1.432057    2.663855   -0.357764
     19          1           0       -1.887520    1.758770   -0.765995
     20          1           0       -0.450547    2.751296   -0.835607
     21          6           0       -0.323377    3.244648    3.836225
     22          1           0        0.672281    3.679687    3.697230
     23          1           0       -0.518233    3.276715    4.913961
     24          6           0       -2.293092    3.932373   -0.599277
     25          1           0       -1.843816    4.568262   -1.371734
     26          1           0       -3.290907    3.667124   -0.961819
     27          6           0       -0.442734    0.220081    1.354200
     28          1           0       -1.520751    0.010606    1.304552
     29          6           0       -2.485962    6.240456    0.571209
     30          1           0       -1.603945    6.568352    0.000000
     31          6           0        0.143434    4.754381    1.169298
     32          1           0        1.010305    4.221600    1.568894
     33          1           0        0.255491    4.781397    0.081427
     34          1           0        0.206025    5.786668    1.528844
     35          6           0        0.771350   -0.511374    3.455285
     36          6           0        0.303126    0.727005    5.582007
     37          1           0       -0.766026    0.474775    5.605783
     38          1           0        0.406292    1.689524    6.094039
     39          6           0        0.213545   -0.778986    2.265433
     40          1           0        0.240601   -1.796628    1.875892
     41          6           0        2.156286    1.501562    4.022818
     42          1           0        2.222179    2.416507    4.619593
     43          1           0        2.913024    0.812174    4.406167
     44          1           0        2.434649    1.744778    2.992816
     45          6           0        1.465964   -1.610242    4.237486
     46          1           0        1.336832   -2.573439    3.734213
     47          1           0        2.549964   -1.414054    4.271551
     48          6           0        1.069091   -0.346928    6.370013
     49          1           0        2.130101   -0.071729    6.464448
     50          1           0        0.672050   -0.417595    7.389033
     51          6           0       -3.736064    6.594632   -0.275142
     52          1           0       -3.818186    5.890438   -1.108404
     53          1           0       -4.634563    6.440498    0.342760
     54          6           0        0.967327   -1.710335    5.686763
     55          1           0       -0.081140   -2.032435    5.681055
     56          6           0       -2.509768    7.016842    1.900299
     57          1           0       -3.304088    6.641136    2.557402
     58          1           0       -2.695461    8.082317    1.734554
     59          1           0       -1.564544    6.940614    2.442588
     60          6           0       -3.750049    8.022849   -0.844579
     61          1           0       -3.633267    8.750652   -0.032597
     62          1           0       -2.874362    8.158371   -1.493877
     63          6           0       -5.034833    8.388863   -1.611501
     64          1           0       -4.985518    9.452375   -1.888994
     65          1           0       -5.888435    8.295548   -0.924482
     66          6           0       -5.345409    7.575862   -2.886600
     67          1           0       -5.415931    6.513909   -2.611326
     68          6           0       -4.247486    7.714944   -3.953015
     69          1           0       -4.121137    8.765235   -4.246786
     70          1           0       -4.503471    7.146842   -4.854579
     71          1           0       -3.278195    7.349569   -3.598651
     72          6           0       -6.709371    7.992452   -3.460220
     73          1           0       -6.701477    9.048280   -3.760407
     74          1           0       -6.968160    7.398099   -4.343956
     75          1           0       -7.509609    7.862651   -2.722498
 ---------------------------------------------------------------------
 Rotational constants (GHZ):      0.4629181      0.0555147      0.0522304
 Leave Link  202 at Wed May 17 12:57:50 2017, MaxMem=    33554432 cpu:         0.0
 (Enter /home/michal/g09/l301.exe)
 Standard basis: 6-31G(d) (6D, 7F)
 Ernie: Thresh=  0.10000D-02 Tol=  0.10000D-05 Strict=F.
 AO basis set in the form of general basis input (Overlap normalization):
      1 0
 S   6 1.00       0.000000000000
      0.5484671660D+04  0.1831074430D-02
      0.8252349460D+03  0.1395017220D-01
      0.1880469580D+03  0.6844507810D-01
      0.5296450000D+02  0.2327143360D+00
      0.1689757040D+02  0.4701928980D+00
      0.5799635340D+01  0.3585208530D+00
 SP   3 1.00       0.000000000000
      0.1553961625D+02 -0.1107775495D+00  0.7087426823D-01
      0.3599933586D+01 -0.1480262627D+00  0.3397528391D+00
      0.1013761750D+01  0.1130767015D+01  0.7271585773D+00
 SP   1 1.00       0.000000000000
      0.2700058226D+00  0.1000000000D+01  0.1000000000D+01
 D   1 1.00       0.000000000000
      0.8000000000D+00  0.1000000000D+01
 ****
      2 0
 S   3 1.00       0.000000000000
      0.1873113696D+02  0.3349460434D-01
      0.2825394365D+01  0.2347269535D+00
      0.6401216923D+00  0.8137573261D+00
 S   1 1.00       0.000000000000
      0.1612777588D+00  0.1000000000D+01
 ****
      3 0
 S   6 1.00       0.000000000000
      0.5484671660D+04  0.1831074430D-02
      0.8252349460D+03  0.1395017220D-01
      0.1880469580D+03  0.6844507810D-01
      0.5296450000D+02  0.2327143360D+00
      0.1689757040D+02  0.4701928980D+00
      0.5799635340D+01  0.3585208530D+00
 SP   3 1.00       0.000000000000
      0.1553961625D+02 -0.1107775495D+00  0.7087426823D-01
      0.3599933586D+01 -0.1480262627D+00  0.3397528391D+00
      0.1013761750D+01  0.1130767015D+01  0.7271585773D+00
 SP   1 1.00       0.000000000000
      0.2700058226D+00  0.1000000000D+01  0.1000000000D+01
 D   1 1.00       0.000000000000
      0.8000000000D+00  0.1000000000D+01
 ****
      4 0
 S   3 1.00       0.000000000000
      0.1873113696D+02  0.3349460434D-01
      0.2825394365D+01  0.2347269535D+00
      0.6401216923D+00  0.8137573261D+00
 S   1 1.00       0.000000000000
      0.1612777588D+00  0.1000000000D+01
 ****
      5 0
 S   6 1.00       0.000000000000
      0.3047524880D+04  0.1834737132D-02
      0.4573695180D+03  0.1403732281D-01
      0.1039486850D+03  0.6884262226D-01
      0.2921015530D+02  0.2321844432D+00
      0.9286662960D+01  0.4679413484D+00
      0.3163926960D+01  0.3623119853D+00
 SP   3 1.00       0.000000000000
      0.7868272350D+01 -0.1193324198D+00  0.6899906659D-01
      0.1881288540D+01 -0.1608541517D+00  0.3164239610D+00
      0.5442492580D+00  0.1143456438D+01  0.7443082909D+00
 SP   1 1.00       0.000000000000
      0.1687144782D+00  0.1000000000D+01  0.1000000000D+01
 D   1 1.00       0.000000000000
      0.8000000000D+00  0.1000000000D+01
 ****
      6 0
 S   6 1.00       0.000000000000
      0.3047524880D+04  0.1834737132D-02
      0.4573695180D+03  0.1403732281D-01
      0.1039486850D+03  0.6884262226D-01
      0.2921015530D+02  0.2321844432D+00
      0.9286662960D+01  0.4679413484D+00
      0.3163926960D+01  0.3623119853D+00
 SP   3 1.00       0.000000000000
      0.7868272350D+01 -0.1193324198D+00  0.6899906659D-01
      0.1881288540D+01 -0.1608541517D+00  0.3164239610D+00
      0.5442492580D+00  0.1143456438D+01  0.7443082909D+00
 SP   1 1.00       0.000000000000
      0.1687144782D+00  0.1000000000D+01  0.1000000000D+01
 D   1 1.00       0.000000000000
      0.8000000000D+00  0.1000000000D+01
 ****
      7 0
 S   3 1.00       0.000000000000
      0.1873113696D+02  0.3349460434D-01
      0.2825394365D+01  0.2347269535D+00
      0.6401216923D+00  0.8137573261D+00
 S   1 1.00       0.000000000000
      0.1612777588D+00  0.1000000000D+01
 ****
      8 0
 S   6 1.00       0.000000000000
      0.3047524880D+04  0.1834737132D-02
      0.4573695180D+03  0.1403732281D-01
      0.1039486850D+03  0.6884262226D-01
      0.2921015530D+02  0.2321844432D+00
      0.9286662960D+01  0.4679413484D+00
      0.3163926960D+01  0.3623119853D+00
 SP   3 1.00       0.000000000000
      0.7868272350D+01 -0.1193324198D+00  0.6899906659D-01
      0.1881288540D+01 -0.1608541517D+00  0.3164239610D+00
      0.5442492580D+00  0.1143456438D+01  0.7443082909D+00
 SP   1 1.00       0.000000000000
      0.1687144782D+00  0.1000000000D+01  0.1000000000D+01
 D   1 1.00       0.000000000000
      0.8000000000D+00  0.1000000000D+01
 ****
      9 0
 S   3 1.00       0.000000000000
      0.1873113696D+02  0.3349460434D-01
      0.2825394365D+01  0.2347269535D+00
      0.6401216923D+00  0.8137573261D+00
 S   1 1.00       0.000000000000
      0.1612777588D+00  0.1000000000D+01
 ****
     10 0
 S   6 1.00       0.000000000000
      0.3047524880D+04  0.1834737132D-02
      0.4573695180D+03  0.1403732281D-01
      0.1039486850D+03  0.6884262226D-01
      0.2921015530D+02  0.2321844432D+00
      0.9286662960D+01  0.4679413484D+00
      0.3163926960D+01  0.3623119853D+00
 SP   3 1.00       0.000000000000
      0.7868272350D+01 -0.1193324198D+00  0.6899906659D-01
      0.1881288540D+01 -0.1608541517D+00  0.3164239610D+00
      0.5442492580D+00  0.1143456438D+01  0.7443082909D+00
 SP   1 1.00       0.000000000000
      0.1687144782D+00  0.1000000000D+01  0.1000000000D+01
 D   1 1.00       0.000000000000
      0.8000000000D+00  0.1000000000D+01
 ****
     11 0
 S   3 1.00       0.000000000000
      0.1873113696D+02  0.3349460434D-01
      0.2825394365D+01  0.2347269535D+00
      0.6401216923D+00  0.8137573261D+00
 S   1 1.00       0.000000000000
      0.1612777588D+00  0.1000000000D+01
 ****
     12 0
 S   6 1.00       0.000000000000
      0.3047524880D+04  0.1834737132D-02
      0.4573695180D+03  0.1403732281D-01
      0.1039486850D+03  0.6884262226D-01
      0.2921015530D+02  0.2321844432D+00
      0.9286662960D+01  0.4679413484D+00
      0.3163926960D+01  0.3623119853D+00
 SP   3 1.00       0.000000000000
      0.7868272350D+01 -0.1193324198D+00  0.6899906659D-01
      0.1881288540D+01 -0.1608541517D+00  0.3164239610D+00
      0.5442492580D+00  0.1143456438D+01  0.7443082909D+00
 SP   1 1.00       0.000000000000
      0.1687144782D+00  0.1000000000D+01  0.1000000000D+01
 D   1 1.00       0.000000000000
      0.8000000000D+00  0.1000000000D+01
 ****
     13 0
 S   3 1.00       0.000000000000
      0.1873113696D+02  0.3349460434D-01
      0.2825394365D+01  0.2347269535D+00
      0.6401216923D+00  0.8137573261D+00
 S   1 1.00       0.000000000000
      0.1612777588D+00  0.1000000000D+01
 ****
     14 0
 S   6 1.00       0.000000000000
      0.3047524880D+04  0.1834737132D-02
      0.4573695180D+03  0.1403732281D-01
      0.1039486850D+03  0.6884262226D-01
      0.2921015530D+02  0.2321844432D+00
      0.9286662960D+01  0.4679413484D+00
      0.3163926960D+01  0.3623119853D+00
 SP   3 1.00       0.000000000000
      0.7868272350D+01 -0.1193324198D+00  0.6899906659D-01
      0.1881288540D+01 -0.1608541517D+00  0.3164239610D+00
      0.5442492580D+00  0.1143456438D+01  0.7443082909D+00
 SP   1 1.00       0.000000000000
      0.1687144782D+00  0.1000000000D+01  0.1000000000D+01
 D   1 1.00       0.000000000000
      0.8000000000D+00  0.1000000000D+01
 ****
     15 0
 S   3 1.00       0.000000000000
      0.1873113696D+02  0.3349460434D-01
      0.2825394365D+01  0.2347269535D+00
      0.6401216923D+00  0.8137573261D+00
 S   1 1.00       0.000000000000
      0.1612777588D+00  0.1000000000D+01
 ****
     16 0
 S   3 1.00       0.000000000000
      0.1873113696D+02  0.3349460434D-01
      0.2825394365D+01  0.2347269535D+00
      0.6401216923D+00  0.8137573261D+00
 S   1 1.00       0.000000000000
      0.1612777588D+00  0.1000000000D+01
 ****
     17 0
 S   6 1.00       0.000000000000
      0.3047524880D+04  0.1834737132D-02
      0.4573695180D+03  0.1403732281D-01
      0.1039486850D+03  0.6884262226D-01
      0.2921015530D+02  0.2321844432D+00
      0.9286662960D+01  0.4679413484D+00
      0.3163926960D+01  0.3623119853D+00
 SP   3 1.00       0.000000000000
      0.7868272350D+01 -0.1193324198D+00  0.6899906659D-01
      0.1881288540D+01 -0.1608541517D+00  0.3164239610D+00
      0.5442492580D+00  0.1143456438D+01  0.7443082909D+00
 SP   1 1.00       0.000000000000
      0.1687144782D+00  0.1000000000D+01  0.1000000000D+01
 D   1 1.00       0.000000000000
      0.8000000000D+00  0.1000000000D+01
 ****
     18 0
 S   6 1.00       0.000000000000
      0.3047524880D+04  0.1834737132D-02
      0.4573695180D+03  0.1403732281D-01
      0.1039486850D+03  0.6884262226D-01
      0.2921015530D+02  0.2321844432D+00
      0.9286662960D+01  0.4679413484D+00
      0.3163926960D+01  0.3623119853D+00
 SP   3 1.00       0.000000000000
      0.7868272350D+01 -0.1193324198D+00  0.6899906659D-01
      0.1881288540D+01 -0.1608541517D+00  0.3164239610D+00
      0.5442492580D+00  0.1143456438D+01  0.7443082909D+00
 SP   1 1.00       0.000000000000
      0.1687144782D+00  0.1000000000D+01  0.1000000000D+01
 D   1 1.00       0.000000000000
      0.8000000000D+00  0.1000000000D+01
 ****
     19 0
 S   3 1.00       0.000000000000
      0.1873113696D+02  0.3349460434D-01
      0.2825394365D+01  0.2347269535D+00
      0.6401216923D+00  0.8137573261D+00
 S   1 1.00       0.000000000000
      0.1612777588D+00  0.1000000000D+01
 ****
     20 0
 S   3 1.00       0.000000000000
      0.1873113696D+02  0.3349460434D-01
      0.2825394365D+01  0.2347269535D+00
      0.6401216923D+00  0.8137573261D+00
 S   1 1.00       0.000000000000
      0.1612777588D+00  0.1000000000D+01
 ****
     21 0
 S   6 1.00       0.000000000000
      0.3047524880D+04  0.1834737132D-02
      0.4573695180D+03  0.1403732281D-01
      0.1039486850D+03  0.6884262226D-01
      0.2921015530D+02  0.2321844432D+00
      0.9286662960D+01  0.4679413484D+00
      0.3163926960D+01  0.3623119853D+00
 SP   3 1.00       0.000000000000
      0.7868272350D+01 -0.1193324198D+00  0.6899906659D-01
      0.1881288540D+01 -0.1608541517D+00  0.3164239610D+00
      0.5442492580D+00  0.1143456438D+01  0.7443082909D+00
 SP   1 1.00       0.000000000000
      0.1687144782D+00  0.1000000000D+01  0.1000000000D+01
 D   1 1.00       0.000000000000
      0.8000000000D+00  0.1000000000D+01
 ****
     22 0
 S   3 1.00       0.000000000000
      0.1873113696D+02  0.3349460434D-01
      0.2825394365D+01  0.2347269535D+00
      0.6401216923D+00  0.8137573261D+00
 S   1 1.00       0.000000000000
      0.1612777588D+00  0.1000000000D+01
 ****
     23 0
 S   3 1.00       0.000000000000
      0.1873113696D+02  0.3349460434D-01
      0.2825394365D+01  0.2347269535D+00
      0.6401216923D+00  0.8137573261D+00
 S   1 1.00       0.000000000000
      0.1612777588D+00  0.1000000000D+01
 ****
     24 0
 S   6 1.00       0.000000000000
      0.3047524880D+04  0.1834737132D-02
      0.4573695180D+03  0.1403732281D-01
      0.1039486850D+03  0.6884262226D-01
      0.2921015530D+02  0.2321844432D+00
      0.9286662960D+01  0.4679413484D+00
      0.3163926960D+01  0.3623119853D+00
 SP   3 1.00       0.000000000000
      0.7868272350D+01 -0.1193324198D+00  0.6899906659D-01
      0.1881288540D+01 -0.1608541517D+00  0.3164239610D+00
      0.5442492580D+00  0.1143456438D+01  0.7443082909D+00
 SP   1 1.00       0.000000000000
      0.1687144782D+00  0.1000000000D+01  0.1000000000D+01
 D   1 1.00       0.000000000000
      0.8000000000D+00  0.1000000000D+01
 ****
     25 0
 S   3 1.00       0.000000000000
      0.1873113696D+02  0.3349460434D-01
      0.2825394365D+01  0.2347269535D+00
      0.6401216923D+00  0.8137573261D+00
 S   1 1.00       0.000000000000
      0.1612777588D+00  0.1000000000D+01
 ****
     26 0
 S   3 1.00       0.000000000000
      0.1873113696D+02  0.3349460434D-01
      0.2825394365D+01  0.2347269535D+00
      0.6401216923D+00  0.8137573261D+00
 S   1 1.00       0.000000000000
      0.1612777588D+00  0.1000000000D+01
 ****
     27 0
 S   6 1.00       0.000000000000
      0.3047524880D+04  0.1834737132D-02
      0.4573695180D+03  0.1403732281D-01
      0.1039486850D+03  0.6884262226D-01
      0.2921015530D+02  0.2321844432D+00
      0.9286662960D+01  0.4679413484D+00
      0.3163926960D+01  0.3623119853D+00
 SP   3 1.00       0.000000000000
      0.7868272350D+01 -0.1193324198D+00  0.6899906659D-01
      0.1881288540D+01 -0.1608541517D+00  0.3164239610D+00
      0.5442492580D+00  0.1143456438D+01  0.7443082909D+00
 SP   1 1.00       0.000000000000
      0.1687144782D+00  0.1000000000D+01  0.1000000000D+01
 D   1 1.00       0.000000000000
      0.8000000000D+00  0.1000000000D+01
 ****
     28 0
 S   3 1.00       0.000000000000
      0.1873113696D+02  0.3349460434D-01
      0.2825394365D+01  0.2347269535D+00
      0.6401216923D+00  0.8137573261D+00
 S   1 1.00       0.000000000000
      0.1612777588D+00  0.1000000000D+01
 ****
     29 0
 S   6 1.00       0.000000000000
      0.3047524880D+04  0.1834737132D-02
      0.4573695180D+03  0.1403732281D-01
      0.1039486850D+03  0.6884262226D-01
      0.2921015530D+02  0.2321844432D+00
      0.9286662960D+01  0.4679413484D+00
      0.3163926960D+01  0.3623119853D+00
 SP   3 1.00       0.000000000000
      0.7868272350D+01 -0.1193324198D+00  0.6899906659D-01
      0.1881288540D+01 -0.1608541517D+00  0.3164239610D+00
      0.5442492580D+00  0.1143456438D+01  0.7443082909D+00
 SP   1 1.00       0.000000000000
      0.1687144782D+00  0.1000000000D+01  0.1000000000D+01
 D   1 1.00       0.000000000000
      0.8000000000D+00  0.1000000000D+01
 ****
     30 0
 S   3 1.00       0.000000000000
      0.1873113696D+02  0.3349460434D-01
      0.2825394365D+01  0.2347269535D+00
      0.6401216923D+00  0.8137573261D+00
 S   1 1.00       0.000000000000
      0.1612777588D+00  0.1000000000D+01
 ****
     31 0
 S   6 1.00       0.000000000000
      0.3047524880D+04  0.1834737132D-02
      0.4573695180D+03  0.1403732281D-01
      0.1039486850D+03  0.6884262226D-01
      0.2921015530D+02  0.2321844432D+00
      0.9286662960D+01  0.4679413484D+00
      0.3163926960D+01  0.3623119853D+00
 SP   3 1.00       0.000000000000
      0.7868272350D+01 -0.1193324198D+00  0.6899906659D-01
      0.1881288540D+01 -0.1608541517D+00  0.3164239610D+00
      0.5442492580D+00  0.1143456438D+01  0.7443082909D+00
 SP   1 1.00       0.000000000000
      0.1687144782D+00  0.1000000000D+01  0.1000000000D+01
 D   1 1.00       0.000000000000
      0.8000000000D+00  0.1000000000D+01
 ****
     32 0
 S   3 1.00       0.000000000000
      0.1873113696D+02  0.3349460434D-01
      0.2825394365D+01  0.2347269535D+00
      0.6401216923D+00  0.8137573261D+00
 S   1 1.00       0.000000000000
      0.1612777588D+00  0.1000000000D+01
 ****
     33 0
 S   3 1.00       0.000000000000
      0.1873113696D+02  0.3349460434D-01
      0.2825394365D+01  0.2347269535D+00
      0.6401216923D+00  0.8137573261D+00
 S   1 1.00       0.000000000000
      0.1612777588D+00  0.1000000000D+01
 ****
     34 0
 S   3 1.00       0.000000000000
      0.1873113696D+02  0.3349460434D-01
      0.2825394365D+01  0.2347269535D+00
      0.6401216923D+00  0.8137573261D+00
 S   1 1.00       0.000000000000
      0.1612777588D+00  0.1000000000D+01
 ****
     35 0
 S   6 1.00       0.000000000000
      0.3047524880D+04  0.1834737132D-02
      0.4573695180D+03  0.1403732281D-01
      0.1039486850D+03  0.6884262226D-01
      0.2921015530D+02  0.2321844432D+00
      0.9286662960D+01  0.4679413484D+00
      0.3163926960D+01  0.3623119853D+00
 SP   3 1.00       0.000000000000
      0.7868272350D+01 -0.1193324198D+00  0.6899906659D-01
      0.1881288540D+01 -0.1608541517D+00  0.3164239610D+00
      0.5442492580D+00  0.1143456438D+01  0.7443082909D+00
 SP   1 1.00       0.000000000000
      0.1687144782D+00  0.1000000000D+01  0.1000000000D+01
 D   1 1.00       0.000000000000
      0.8000000000D+00  0.1000000000D+01
 ****
     36 0
 S   6 1.00       0.000000000000
      0.3047524880D+04  0.1834737132D-02
      0.4573695180D+03  0.1403732281D-01
      0.1039486850D+03  0.6884262226D-01
      0.2921015530D+02  0.2321844432D+00
      0.9286662960D+01  0.4679413484D+00
      0.3163926960D+01  0.3623119853D+00
 SP   3 1.00       0.000000000000
      0.7868272350D+01 -0.1193324198D+00  0.6899906659D-01
      0.1881288540D+01 -0.1608541517D+00  0.3164239610D+00
      0.5442492580D+00  0.1143456438D+01  0.7443082909D+00
 SP   1 1.00       0.000000000000
      0.1687144782D+00  0.1000000000D+01  0.1000000000D+01
 D   1 1.00       0.000000000000
      0.8000000000D+00  0.1000000000D+01
 ****
     37 0
 S   3 1.00       0.000000000000
      0.1873113696D+02  0.3349460434D-01
      0.2825394365D+01  0.2347269535D+00
      0.6401216923D+00  0.8137573261D+00
 S   1 1.00       0.000000000000
      0.1612777588D+00  0.1000000000D+01
 ****
     38 0
 S   3 1.00       0.000000000000
      0.1873113696D+02  0.3349460434D-01
      0.2825394365D+01  0.2347269535D+00
      0.6401216923D+00  0.8137573261D+00
 S   1 1.00       0.000000000000
      0.1612777588D+00  0.1000000000D+01
 ****
     39 0
 S   6 1.00       0.000000000000
      0.3047524880D+04  0.1834737132D-02
      0.4573695180D+03  0.1403732281D-01
      0.1039486850D+03  0.6884262226D-01
      0.2921015530D+02  0.2321844432D+00
      0.9286662960D+01  0.4679413484D+00
      0.3163926960D+01  0.3623119853D+00
 SP   3 1.00       0.000000000000
      0.7868272350D+01 -0.1193324198D+00  0.6899906659D-01
      0.1881288540D+01 -0.1608541517D+00  0.3164239610D+00
      0.5442492580D+00  0.1143456438D+01  0.7443082909D+00
 SP   1 1.00       0.000000000000
      0.1687144782D+00  0.1000000000D+01  0.1000000000D+01
 D   1 1.00       0.000000000000
      0.8000000000D+00  0.1000000000D+01
 ****
     40 0
 S   3 1.00       0.000000000000
      0.1873113696D+02  0.3349460434D-01
      0.2825394365D+01  0.2347269535D+00
      0.6401216923D+00  0.8137573261D+00
 S   1 1.00       0.000000000000
      0.1612777588D+00  0.1000000000D+01
 ****
     41 0
 S   6 1.00       0.000000000000
      0.3047524880D+04  0.1834737132D-02
      0.4573695180D+03  0.1403732281D-01
      0.1039486850D+03  0.6884262226D-01
      0.2921015530D+02  0.2321844432D+00
      0.9286662960D+01  0.4679413484D+00
      0.3163926960D+01  0.3623119853D+00
 SP   3 1.00       0.000000000000
      0.7868272350D+01 -0.1193324198D+00  0.6899906659D-01
      0.1881288540D+01 -0.1608541517D+00  0.3164239610D+00
      0.5442492580D+00  0.1143456438D+01  0.7443082909D+00
 SP   1 1.00       0.000000000000
      0.1687144782D+00  0.1000000000D+01  0.1000000000D+01
 D   1 1.00       0.000000000000
      0.8000000000D+00  0.1000000000D+01
 ****
     42 0
 S   3 1.00       0.000000000000
      0.1873113696D+02  0.3349460434D-01
      0.2825394365D+01  0.2347269535D+00
      0.6401216923D+00  0.8137573261D+00
 S   1 1.00       0.000000000000
      0.1612777588D+00  0.1000000000D+01
 ****
     43 0
 S   3 1.00       0.000000000000
      0.1873113696D+02  0.3349460434D-01
      0.2825394365D+01  0.2347269535D+00
      0.6401216923D+00  0.8137573261D+00
 S   1 1.00       0.000000000000
      0.1612777588D+00  0.1000000000D+01
 ****
     44 0
 S   3 1.00       0.000000000000
      0.1873113696D+02  0.3349460434D-01
      0.2825394365D+01  0.2347269535D+00
      0.6401216923D+00  0.8137573261D+00
 S   1 1.00       0.000000000000
      0.1612777588D+00  0.1000000000D+01
 ****
     45 0
 S   6 1.00       0.000000000000
      0.3047524880D+04  0.1834737132D-02
      0.4573695180D+03  0.1403732281D-01
      0.1039486850D+03  0.6884262226D-01
      0.2921015530D+02  0.2321844432D+00
      0.9286662960D+01  0.4679413484D+00
      0.3163926960D+01  0.3623119853D+00
 SP   3 1.00       0.000000000000
      0.7868272350D+01 -0.1193324198D+00  0.6899906659D-01
      0.1881288540D+01 -0.1608541517D+00  0.3164239610D+00
      0.5442492580D+00  0.1143456438D+01  0.7443082909D+00
 SP   1 1.00       0.000000000000
      0.1687144782D+00  0.1000000000D+01  0.1000000000D+01
 D   1 1.00       0.000000000000
      0.8000000000D+00  0.1000000000D+01
 ****
     46 0
 S   3 1.00       0.000000000000
      0.1873113696D+02  0.3349460434D-01
      0.2825394365D+01  0.2347269535D+00
      0.6401216923D+00  0.8137573261D+00
 S   1 1.00       0.000000000000
      0.1612777588D+00  0.1000000000D+01
 ****
     47 0
 S   3 1.00       0.000000000000
      0.1873113696D+02  0.3349460434D-01
      0.2825394365D+01  0.2347269535D+00
      0.6401216923D+00  0.8137573261D+00
 S   1 1.00       0.000000000000
      0.1612777588D+00  0.1000000000D+01
 ****
     48 0
 S   6 1.00       0.000000000000
      0.3047524880D+04  0.1834737132D-02
      0.4573695180D+03  0.1403732281D-01
      0.1039486850D+03  0.6884262226D-01
      0.2921015530D+02  0.2321844432D+00
      0.9286662960D+01  0.4679413484D+00
      0.3163926960D+01  0.3623119853D+00
 SP   3 1.00       0.000000000000
      0.7868272350D+01 -0.1193324198D+00  0.6899906659D-01
      0.1881288540D+01 -0.1608541517D+00  0.3164239610D+00
      0.5442492580D+00  0.1143456438D+01  0.7443082909D+00
 SP   1 1.00       0.000000000000
      0.1687144782D+00  0.1000000000D+01  0.1000000000D+01
 D   1 1.00       0.000000000000
      0.8000000000D+00  0.1000000000D+01
 ****
     49 0
 S   3 1.00       0.000000000000
      0.1873113696D+02  0.3349460434D-01
      0.2825394365D+01  0.2347269535D+00
      0.6401216923D+00  0.8137573261D+00
 S   1 1.00       0.000000000000
      0.1612777588D+00  0.1000000000D+01
 ****
     50 0
 S   3 1.00       0.000000000000
      0.1873113696D+02  0.3349460434D-01
      0.2825394365D+01  0.2347269535D+00
      0.6401216923D+00  0.8137573261D+00
 S   1 1.00       0.000000000000
      0.1612777588D+00  0.1000000000D+01
 ****
     51 0
 S   6 1.00       0.000000000000
      0.3047524880D+04  0.1834737132D-02
      0.4573695180D+03  0.1403732281D-01
      0.1039486850D+03  0.6884262226D-01
      0.2921015530D+02  0.2321844432D+00
      0.9286662960D+01  0.4679413484D+00
      0.3163926960D+01  0.3623119853D+00
 SP   3 1.00       0.000000000000
      0.7868272350D+01 -0.1193324198D+00  0.6899906659D-01
      0.1881288540D+01 -0.1608541517D+00  0.3164239610D+00
      0.5442492580D+00  0.1143456438D+01  0.7443082909D+00
 SP   1 1.00       0.000000000000
      0.1687144782D+00  0.1000000000D+01  0.1000000000D+01
 D   1 1.00       0.000000000000
      0.8000000000D+00  0.1000000000D+01
 ****
     52 0
 S   3 1.00       0.000000000000
      0.1873113696D+02  0.3349460434D-01
      0.2825394365D+01  0.2347269535D+00
      0.6401216923D+00  0.8137573261D+00
 S   1 1.00       0.000000000000
      0.1612777588D+00  0.1000000000D+01
 ****
     53 0
 S   3 1.00       0.000000000000
      0.1873113696D+02  0.3349460434D-01
      0.2825394365D+01  0.2347269535D+00
      0.6401216923D+00  0.8137573261D+00
 S   1 1.00       0.000000000000
      0.1612777588D+00  0.1000000000D+01
 ****
     54 0
 S   6 1.00       0.000000000000
      0.3047524880D+04  0.1834737132D-02
      0.4573695180D+03  0.1403732281D-01
      0.1039486850D+03  0.6884262226D-01
      0.2921015530D+02  0.2321844432D+00
      0.9286662960D+01  0.4679413484D+00
      0.3163926960D+01  0.3623119853D+00
 SP   3 1.00       0.000000000000
      0.7868272350D+01 -0.1193324198D+00  0.6899906659D-01
      0.1881288540D+01 -0.1608541517D+00  0.3164239610D+00
      0.5442492580D+00  0.1143456438D+01  0.7443082909D+00
 SP   1 1.00       0.000000000000
      0.1687144782D+00  0.1000000000D+01  0.1000000000D+01
 D   1 1.00       0.000000000000
      0.8000000000D+00  0.1000000000D+01
 ****
     55 0
 S   3 1.00       0.000000000000
      0.1873113696D+02  0.3349460434D-01
      0.2825394365D+01  0.2347269535D+00
      0.6401216923D+00  0.8137573261D+00
 S   1 1.00       0.000000000000
      0.1612777588D+00  0.1000000000D+01
 ****
     56 0
 S   6 1.00       0.000000000000
      0.3047524880D+04  0.1834737132D-02
      0.4573695180D+03  0.1403732281D-01
      0.1039486850D+03  0.6884262226D-01
      0.2921015530D+02  0.2321844432D+00
      0.9286662960D+01  0.4679413484D+00
      0.3163926960D+01  0.3623119853D+00
 SP   3 1.00       0.000000000000
      0.7868272350D+01 -0.1193324198D+00  0.6899906659D-01
      0.1881288540D+01 -0.1608541517D+00  0.3164239610D+00
      0.5442492580D+00  0.1143456438D+01  0.7443082909D+00
 SP   1 1.00       0.000000000000
      0.1687144782D+00  0.1000000000D+01  0.1000000000D+01
 D   1 1.00       0.000000000000
      0.8000000000D+00  0.1000000000D+01
 ****
     57 0
 S   3 1.00       0.000000000000
      0.1873113696D+02  0.3349460434D-01
      0.2825394365D+01  0.2347269535D+00
      0.6401216923D+00  0.8137573261D+00
 S   1 1.00       0.000000000000
      0.1612777588D+00  0.1000000000D+01
 ****
     58 0
 S   3 1.00       0.000000000000
      0.1873113696D+02  0.3349460434D-01
      0.2825394365D+01  0.2347269535D+00
      0.6401216923D+00  0.8137573261D+00
 S   1 1.00       0.000000000000
      0.1612777588D+00  0.1000000000D+01
 ****
     59 0
 S   3 1.00       0.000000000000
      0.1873113696D+02  0.3349460434D-01
      0.2825394365D+01  0.2347269535D+00
      0.6401216923D+00  0.8137573261D+00
 S   1 1.00       0.000000000000
      0.1612777588D+00  0.1000000000D+01
 ****
     60 0
 S   6 1.00       0.000000000000
      0.3047524880D+04  0.1834737132D-02
      0.4573695180D+03  0.1403732281D-01
      0.1039486850D+03  0.6884262226D-01
      0.2921015530D+02  0.2321844432D+00
      0.9286662960D+01  0.4679413484D+00
      0.3163926960D+01  0.3623119853D+00
 SP   3 1.00       0.000000000000
      0.7868272350D+01 -0.1193324198D+00  0.6899906659D-01
      0.1881288540D+01 -0.1608541517D+00  0.3164239610D+00
      0.5442492580D+00  0.1143456438D+01  0.7443082909D+00
 SP   1 1.00       0.000000000000
      0.1687144782D+00  0.1000000000D+01  0.1000000000D+01
 D   1 1.00       0.000000000000
      0.8000000000D+00  0.1000000000D+01
 ****
     61 0
 S   3 1.00       0.000000000000
      0.1873113696D+02  0.3349460434D-01
      0.2825394365D+01  0.2347269535D+00
      0.6401216923D+00  0.8137573261D+00
 S   1 1.00       0.000000000000
      0.1612777588D+00  0.1000000000D+01
 ****
     62 0
 S   3 1.00       0.000000000000
      0.1873113696D+02  0.3349460434D-01
      0.2825394365D+01  0.2347269535D+00
      0.6401216923D+00  0.8137573261D+00
 S   1 1.00       0.000000000000
      0.1612777588D+00  0.1000000000D+01
 ****
     63 0
 S   6 1.00       0.000000000000
      0.3047524880D+04  0.1834737132D-02
      0.4573695180D+03  0.1403732281D-01
      0.1039486850D+03  0.6884262226D-01
      0.2921015530D+02  0.2321844432D+00
      0.9286662960D+01  0.4679413484D+00
      0.3163926960D+01  0.3623119853D+00
 SP   3 1.00       0.000000000000
      0.7868272350D+01 -0.1193324198D+00  0.6899906659D-01
      0.1881288540D+01 -0.1608541517D+00  0.3164239610D+00
      0.5442492580D+00  0.1143456438D+01  0.7443082909D+00
 SP   1 1.00       0.000000000000
      0.1687144782D+00  0.1000000000D+01  0.1000000000D+01
 D   1 1.00       0.000000000000
      0.8000000000D+00  0.1000000000D+01
 ****
     64 0
 S   3 1.00       0.000000000000
      0.1873113696D+02  0.3349460434D-01
      0.2825394365D+01  0.2347269535D+00
      0.6401216923D+00  0.8137573261D+00
 S   1 1.00       0.000000000000
      0.1612777588D+00  0.1000000000D+01
 ****
     65 0
 S   3 1.00       0.000000000000
      0.1873113696D+02  0.3349460434D-01
      0.2825394365D+01  0.2347269535D+00
      0.6401216923D+00  0.8137573261D+00
 S   1 1.00       0.000000000000
      0.1612777588D+00  0.1000000000D+01
 ****
     66 0
 S   6 1.00       0.000000000000
      0.3047524880D+04  0.1834737132D-02
      0.4573695180D+03  0.1403732281D-01
      0.1039486850D+03  0.6884262226D-01
      0.2921015530D+02  0.2321844432D+00
      0.9286662960D+01  0.4679413484D+00
      0.3163926960D+01  0.3623119853D+00
 SP   3 1.00       0.000000000000
      0.7868272350D+01 -0.1193324198D+00  0.6899906659D-01
      0.1881288540D+01 -0.1608541517D+00  0.3164239610D+00
      0.5442492580D+00  0.1143456438D+01  0.7443082909D+00
 SP   1 1.00       0.000000000000
      0.1687144782D+00  0.1000000000D+01  0.1000000000D+01
 D   1 1.00       0.000000000000
      0.8000000000D+00  0.1000000000D+01
 ****
     67 0
 S   3 1.00       0.000000000000
      0.1873113696D+02  0.3349460434D-01
      0.2825394365D+01  0.2347269535D+00
      0.6401216923D+00  0.8137573261D+00
 S   1 1.00       0.000000000000
      0.1612777588D+00  0.1000000000D+01
 ****
     68 0
 S   6 1.00       0.000000000000
      0.3047524880D+04  0.1834737132D-02
      0.4573695180D+03  0.1403732281D-01
      0.1039486850D+03  0.6884262226D-01
      0.2921015530D+02  0.2321844432D+00
      0.9286662960D+01  0.4679413484D+00
      0.3163926960D+01  0.3623119853D+00
 SP   3 1.00       0.000000000000
      0.7868272350D+01 -0.1193324198D+00  0.6899906659D-01
      0.1881288540D+01 -0.1608541517D+00  0.3164239610D+00
      0.5442492580D+00  0.1143456438D+01  0.7443082909D+00
 SP   1 1.00       0.000000000000
      0.1687144782D+00  0.1000000000D+01  0.1000000000D+01
 D   1 1.00       0.000000000000
      0.8000000000D+00  0.1000000000D+01
 ****
     69 0
 S   3 1.00       0.000000000000
      0.1873113696D+02  0.3349460434D-01
      0.2825394365D+01  0.2347269535D+00
      0.6401216923D+00  0.8137573261D+00
 S   1 1.00       0.000000000000
      0.1612777588D+00  0.1000000000D+01
 ****
     70 0
 S   3 1.00       0.000000000000
      0.1873113696D+02  0.3349460434D-01
      0.2825394365D+01  0.2347269535D+00
      0.6401216923D+00  0.8137573261D+00
 S   1 1.00       0.000000000000
      0.1612777588D+00  0.1000000000D+01
 ****
     71 0
 S   3 1.00       0.000000000000
      0.1873113696D+02  0.3349460434D-01
      0.2825394365D+01  0.2347269535D+00
      0.6401216923D+00  0.8137573261D+00
 S   1 1.00       0.000000000000
      0.1612777588D+00  0.1000000000D+01
 ****
     72 0
 S   6 1.00       0.000000000000
      0.3047524880D+04  0.1834737132D-02
      0.4573695180D+03  0.1403732281D-01
      0.1039486850D+03  0.6884262226D-01
      0.2921015530D+02  0.2321844432D+00
      0.9286662960D+01  0.4679413484D+00
      0.3163926960D+01  0.3623119853D+00
 SP   3 1.00       0.000000000000
      0.7868272350D+01 -0.1193324198D+00  0.6899906659D-01
      0.1881288540D+01 -0.1608541517D+00  0.3164239610D+00
      0.5442492580D+00  0.1143456438D+01  0.7443082909D+00
 SP   1 1.00       0.000000000000
      0.1687144782D+00  0.1000000000D+01  0.1000000000D+01
 D   1 1.00       0.000000000000
      0.8000000000D+00  0.1000000000D+01
 ****
     73 0
 S   3 1.00       0.000000000000
      0.1873113696D+02  0.3349460434D-01
      0.2825394365D+01  0.2347269535D+00
      0.6401216923D+00  0.8137573261D+00
 S   1 1.00       0.000000000000
      0.1612777588D+00  0.1000000000D+01
 ****
     74 0
 S   3 1.00       0.000000000000
      0.1873113696D+02  0.3349460434D-01
      0.2825394365D+01  0.2347269535D+00
      0.6401216923D+00  0.8137573261D+00
 S   1 1.00       0.000000000000
      0.1612777588D+00  0.1000000000D+01
 ****
     75 0
 S   3 1.00       0.000000000000
      0.1873113696D+02  0.3349460434D-01
      0.2825394365D+01  0.2347269535D+00
      0.6401216923D+00  0.8137573261D+00
 S   1 1.00       0.000000000000
      0.1612777588D+00  0.1000000000D+01
 ****

 AO basis set (Overlap normalization):
 Atom O1       Shell     1 S   6     bf    1 -     1          0.000000000000          0.000000000000          0.000000000000
      0.5484671660D+04  0.1831074430D-02
      0.8252349460D+03  0.1395017220D-01
      0.1880469580D+03  0.6844507810D-01
      0.5296450000D+02  0.2327143360D+00
      0.1689757040D+02  0.4701928980D+00
      0.5799635340D+01  0.3585208530D+00
 Atom O1       Shell     2 SP   3    bf    2 -     5          0.000000000000          0.000000000000          0.000000000000
      0.1553961625D+02 -0.1107775495D+00  0.7087426823D-01
      0.3599933586D+01 -0.1480262627D+00  0.3397528391D+00
      0.1013761750D+01  0.1130767015D+01  0.7271585773D+00
 Atom O1       Shell     3 SP   1    bf    6 -     9          0.000000000000          0.000000000000          0.000000000000
      0.2700058226D+00  0.1000000000D+01  0.1000000000D+01
 Atom O1       Shell     4 D   1     bf   10 -    15          0.000000000000          0.000000000000          0.000000000000
      0.8000000000D+00  0.1000000000D+01
 Atom H2       Shell     5 S   3     bf   16 -    16          1.828562897821          0.000000000000          0.000000000000
      0.1873113696D+02  0.3349460434D-01
      0.2825394365D+01  0.2347269535D+00
      0.6401216923D+00  0.8137573261D+00
 Atom H2       Shell     6 S   1     bf   17 -    17          1.828562897821          0.000000000000          0.000000000000
      0.1612777588D+00  0.1000000000D+01
 Atom O3       Shell     7 S   6     bf   18 -    18          3.108888068675         -5.177278150924         12.117020358993
      0.5484671660D+04  0.1831074430D-02
      0.8252349460D+03  0.1395017220D-01
      0.1880469580D+03  0.6844507810D-01
      0.5296450000D+02  0.2327143360D+00
      0.1689757040D+02  0.4701928980D+00
      0.5799635340D+01  0.3585208530D+00
 Atom O3       Shell     8 SP   3    bf   19 -    22          3.108888068675         -5.177278150924         12.117020358993
      0.1553961625D+02 -0.1107775495D+00  0.7087426823D-01
      0.3599933586D+01 -0.1480262627D+00  0.3397528391D+00
      0.1013761750D+01  0.1130767015D+01  0.7271585773D+00
 Atom O3       Shell     9 SP   1    bf   23 -    26          3.108888068675         -5.177278150924         12.117020358993
      0.2700058226D+00  0.1000000000D+01  0.1000000000D+01
 Atom O3       Shell    10 D   1     bf   27 -    32          3.108888068675         -5.177278150924         12.117020358993
      0.8000000000D+00  0.1000000000D+01
 Atom H4       Shell    11 S   3     bf   33 -    33          4.881412800984         -4.743472657653         12.231321974819
      0.1873113696D+02  0.3349460434D-01
      0.2825394365D+01  0.2347269535D+00
      0.6401216923D+00  0.8137573261D+00
 Atom H4       Shell    12 S   1     bf   34 -    34          4.881412800984         -4.743472657653         12.231321974819
      0.1612777588D+00  0.1000000000D+01
 Atom C5       Shell    13 S   6     bf   35 -    35         -2.256292430245          7.759309213147          3.015114339961
      0.3047524880D+04  0.1834737132D-02
      0.4573695180D+03  0.1403732281D-01
      0.1039486850D+03  0.6884262226D-01
      0.2921015530D+02  0.2321844432D+00
      0.9286662960D+01  0.4679413484D+00
      0.3163926960D+01  0.3623119853D+00
 Atom C5       Shell    14 SP   3    bf   36 -    39         -2.256292430245          7.759309213147          3.015114339961
      0.7868272350D+01 -0.1193324198D+00  0.6899906659D-01
      0.1881288540D+01 -0.1608541517D+00  0.3164239610D+00
      0.5442492580D+00  0.1143456438D+01  0.7443082909D+00
 Atom C5       Shell    15 SP   1    bf   40 -    43         -2.256292430245          7.759309213147          3.015114339961
      0.1687144782D+00  0.1000000000D+01  0.1000000000D+01
 Atom C5       Shell    16 D   1     bf   44 -    49         -2.256292430245          7.759309213147          3.015114339961
      0.8000000000D+00  0.1000000000D+01
 Atom C6       Shell    17 S   6     bf   50 -    50         -2.433203790902          4.934701150410          2.212814688524
      0.3047524880D+04  0.1834737132D-02
      0.4573695180D+03  0.1403732281D-01
      0.1039486850D+03  0.6884262226D-01
      0.2921015530D+02  0.2321844432D+00
      0.9286662960D+01  0.4679413484D+00
      0.3163926960D+01  0.3623119853D+00
 Atom C6       Shell    18 SP   3    bf   51 -    54         -2.433203790902          4.934701150410          2.212814688524
      0.7868272350D+01 -0.1193324198D+00  0.6899906659D-01
      0.1881288540D+01 -0.1608541517D+00  0.3164239610D+00
      0.5442492580D+00  0.1143456438D+01  0.7443082909D+00
 Atom C6       Shell    19 SP   1    bf   55 -    58         -2.433203790902          4.934701150410          2.212814688524
      0.1687144782D+00  0.1000000000D+01  0.1000000000D+01
 Atom C6       Shell    20 D   1     bf   59 -    64         -2.433203790902          4.934701150410          2.212814688524
      0.8000000000D+00  0.1000000000D+01
 Atom H7       Shell    21 S   3     bf   65 -    65         -4.270079669570          4.279990300479          2.954475012569
      0.1873113696D+02  0.3349460434D-01
      0.2825394365D+01  0.2347269535D+00
      0.6401216923D+00  0.8137573261D+00
 Atom H7       Shell    22 S   1     bf   66 -    66         -4.270079669570          4.279990300479          2.954475012569
      0.1612777588D+00  0.1000000000D+01
 Atom C8       Shell    23 S   6     bf   67 -    67         -0.450550091973          3.174443556396          3.409646089648
      0.3047524880D+04  0.1834737132D-02
      0.4573695180D+03  0.1403732281D-01
      0.1039486850D+03  0.6884262226D-01
      0.2921015530D+02  0.2321844432D+00
      0.9286662960D+01  0.4679413484D+00
      0.3163926960D+01  0.3623119853D+00
 Atom C8       Shell    24 SP   3    bf   68 -    71         -0.450550091973          3.174443556396          3.409646089648
      0.7868272350D+01 -0.1193324198D+00  0.6899906659D-01
      0.1881288540D+01 -0.1608541517D+00  0.3164239610D+00
      0.5442492580D+00  0.1143456438D+01  0.7443082909D+00
 Atom C8       Shell    25 SP   1    bf   72 -    75         -0.450550091973          3.174443556396          3.409646089648
      0.1687144782D+00  0.1000000000D+01  0.1000000000D+01
 Atom C8       Shell    26 D   1     bf   76 -    81         -0.450550091973          3.174443556396          3.409646089648
      0.8000000000D+00  0.1000000000D+01
 Atom H9       Shell    27 S   3     bf   82 -    82          1.450051528191          3.740728867130          2.786876486857
      0.1873113696D+02  0.3349460434D-01
      0.2825394365D+01  0.2347269535D+00
      0.6401216923D+00  0.8137573261D+00
 Atom H9       Shell    28 S   1     bf   83 -    83          1.450051528191          3.740728867130          2.786876486857
      0.1612777588D+00  0.1000000000D+01
 Atom C10      Shell    29 S   6     bf   84 -    84         -0.612076001654          3.356781473513          6.336483838626
      0.3047524880D+04  0.1834737132D-02
      0.4573695180D+03  0.1403732281D-01
      0.1039486850D+03  0.6884262226D-01
      0.2921015530D+02  0.2321844432D+00
      0.9286662960D+01  0.4679413484D+00
      0.3163926960D+01  0.3623119853D+00
 Atom C10      Shell    30 SP   3    bf   85 -    88         -0.612076001654          3.356781473513          6.336483838626
      0.7868272350D+01 -0.1193324198D+00  0.6899906659D-01
      0.1881288540D+01 -0.1608541517D+00  0.3164239610D+00
      0.5442492580D+00  0.1143456438D+01  0.7443082909D+00
 Atom C10      Shell    31 SP   1    bf   89 -    92         -0.612076001654          3.356781473513          6.336483838626
      0.1687144782D+00  0.1000000000D+01  0.1000000000D+01
 Atom C10      Shell    32 D   1     bf   93 -    98         -0.612076001654          3.356781473513          6.336483838626
      0.8000000000D+00  0.1000000000D+01
 Atom H11      Shell    33 S   3     bf   99 -    99         -2.467926469244          2.559202924874          6.846692546820
      0.1873113696D+02  0.3349460434D-01
      0.2825394365D+01  0.2347269535D+00
      0.6401216923D+00  0.8137573261D+00
 Atom H11      Shell    34 S   1     bf  100 -   100         -2.467926469244          2.559202924874          6.846692546820
      0.1612777588D+00  0.1000000000D+01
 Atom C12      Shell    35 S   6     bf  101 -   101         -4.498545858282          8.890345830531          1.438512539171
      0.3047524880D+04  0.1834737132D-02
      0.4573695180D+03  0.1403732281D-01
      0.1039486850D+03  0.6884262226D-01
      0.2921015530D+02  0.2321844432D+00
      0.9286662960D+01  0.4679413484D+00
      0.3163926960D+01  0.3623119853D+00
 Atom C12      Shell    36 SP   3    bf  102 -   105         -4.498545858282          8.890345830531          1.438512539171
      0.7868272350D+01 -0.1193324198D+00  0.6899906659D-01
      0.1881288540D+01 -0.1608541517D+00  0.3164239610D+00
      0.5442492580D+00  0.1143456438D+01  0.7443082909D+00
 Atom C12      Shell    37 SP   1    bf  106 -   109         -4.498545858282          8.890345830531          1.438512539171
      0.1687144782D+00  0.1000000000D+01  0.1000000000D+01
 Atom C12      Shell    38 D   1     bf  110 -   115         -4.498545858282          8.890345830531          1.438512539171
      0.8000000000D+00  0.1000000000D+01
 Atom H13      Shell    39 S   3     bf  116 -   116         -6.240462979876          8.288547066656          2.407599910425
      0.1873113696D+02  0.3349460434D-01
      0.2825394365D+01  0.2347269535D+00
      0.6401216923D+00  0.8137573261D+00
 Atom H13      Shell    40 S   1     bf  117 -   117         -6.240462979876          8.288547066656          2.407599910425
      0.1612777588D+00  0.1000000000D+01
 Atom C14      Shell    41 S   6     bf  118 -   118         -2.562600539077          7.827276898483          5.911578067270
      0.3047524880D+04  0.1834737132D-02
      0.4573695180D+03  0.1403732281D-01
      0.1039486850D+03  0.6884262226D-01
      0.2921015530D+02  0.2321844432D+00
      0.9286662960D+01  0.4679413484D+00
      0.3163926960D+01  0.3623119853D+00
 Atom C14      Shell    42 SP   3    bf  119 -   122         -2.562600539077          7.827276898483          5.911578067270
      0.7868272350D+01 -0.1193324198D+00  0.6899906659D-01
      0.1881288540D+01 -0.1608541517D+00  0.3164239610D+00
      0.5442492580D+00  0.1143456438D+01  0.7443082909D+00
 Atom C14      Shell    43 SP   1    bf  123 -   126         -2.562600539077          7.827276898483          5.911578067270
      0.1687144782D+00  0.1000000000D+01  0.1000000000D+01
 Atom C14      Shell    44 D   1     bf  127 -   132         -2.562600539077          7.827276898483          5.911578067270
      0.8000000000D+00  0.1000000000D+01
 Atom H15      Shell    45 S   3     bf  133 -   133         -4.479853197602          7.185484178602          6.391851208053
      0.1873113696D+02  0.3349460434D-01
      0.2825394365D+01  0.2347269535D+00
      0.6401216923D+00  0.8137573261D+00
 Atom H15      Shell    46 S   1     bf  134 -   134         -4.479853197602          7.185484178602          6.391851208053
      0.1612777588D+00  0.1000000000D+01
 Atom H16      Shell    47 S   3     bf  135 -   135         -2.382798634431          9.747179652245          6.658990320821
      0.1873113696D+02  0.3349460434D-01
      0.2825394365D+01  0.2347269535D+00
      0.6401216923D+00  0.8137573261D+00
 Atom H16      Shell    48 S   1     bf  136 -   136         -2.382798634431          9.747179652245          6.658990320821
      0.1612777588D+00  0.1000000000D+01
 Atom C17      Shell    49 S   6     bf  137 -   137          1.387324620341          1.668808417417          7.728858430804
      0.3047524880D+04  0.1834737132D-02
      0.4573695180D+03  0.1403732281D-01
      0.1039486850D+03  0.6884262226D-01
      0.2921015530D+02  0.2321844432D+00
      0.9286662960D+01  0.4679413484D+00
      0.3163926960D+01  0.3623119853D+00
 Atom C17      Shell    50 SP   3    bf  138 -   141          1.387324620341          1.668808417417          7.728858430804
      0.7868272350D+01 -0.1193324198D+00  0.6899906659D-01
      0.1881288540D+01 -0.1608541517D+00  0.3164239610D+00
      0.5442492580D+00  0.1143456438D+01  0.7443082909D+00
 Atom C17      Shell    51 SP   1    bf  142 -   145          1.387324620341          1.668808417417          7.728858430804
      0.1687144782D+00  0.1000000000D+01  0.1000000000D+01
 Atom C17      Shell    52 D   1     bf  146 -   151          1.387324620341          1.668808417417          7.728858430804
      0.8000000000D+00  0.1000000000D+01
 Atom C18      Shell    53 S   6     bf  152 -   152         -2.706195782346          5.033955878595         -0.676076339254
      0.3047524880D+04  0.1834737132D-02
      0.4573695180D+03  0.1403732281D-01
      0.1039486850D+03  0.6884262226D-01
      0.2921015530D+02  0.2321844432D+00
      0.9286662960D+01  0.4679413484D+00
      0.3163926960D+01  0.3623119853D+00
 Atom C18      Shell    54 SP   3    bf  153 -   156         -2.706195782346          5.033955878595         -0.676076339254
      0.7868272350D+01 -0.1193324198D+00  0.6899906659D-01
      0.1881288540D+01 -0.1608541517D+00  0.3164239610D+00
      0.5442492580D+00  0.1143456438D+01  0.7443082909D+00
 Atom C18      Shell    55 SP   1    bf  157 -   160         -2.706195782346          5.033955878595         -0.676076339254
      0.1687144782D+00  0.1000000000D+01  0.1000000000D+01
 Atom C18      Shell    56 D   1     bf  161 -   166         -2.706195782346          5.033955878595         -0.676076339254
      0.8000000000D+00  0.1000000000D+01
 Atom H19      Shell    57 S   3     bf  167 -   167         -3.566896172700          3.323593082715         -1.447519975475
      0.1873113696D+02  0.3349460434D-01
      0.2825394365D+01  0.2347269535D+00
      0.6401216923D+00  0.8137573261D+00
 Atom H19      Shell    58 S   1     bf  168 -   168         -3.566896172700          3.323593082715         -1.447519975475
      0.1612777588D+00  0.1000000000D+01
 Atom H20      Shell    59 S   3     bf  169 -   169         -0.851409967562          5.199195005641         -1.579068214647
      0.1873113696D+02  0.3349460434D-01
      0.2825394365D+01  0.2347269535D+00
      0.6401216923D+00  0.8137573261D+00
 Atom H20      Shell    60 S   1     bf  170 -   170         -0.851409967562          5.199195005641         -1.579068214647
      0.1612777588D+00  0.1000000000D+01
 Atom C21      Shell    61 S   6     bf  171 -   171         -0.611094572387          6.131496401074          7.249414520746
      0.3047524880D+04  0.1834737132D-02
      0.4573695180D+03  0.1403732281D-01
      0.1039486850D+03  0.6884262226D-01
      0.2921015530D+02  0.2321844432D+00
      0.9286662960D+01  0.4679413484D+00
      0.3163926960D+01  0.3623119853D+00
 Atom C21      Shell    62 SP   3    bf  172 -   175         -0.611094572387          6.131496401074          7.249414520746
      0.7868272350D+01 -0.1193324198D+00  0.6899906659D-01
      0.1881288540D+01 -0.1608541517D+00  0.3164239610D+00
      0.5442492580D+00  0.1143456438D+01  0.7443082909D+00
 Atom C21      Shell    63 SP   1    bf  176 -   179         -0.611094572387          6.131496401074          7.249414520746
      0.1687144782D+00  0.1000000000D+01  0.1000000000D+01
 Atom C21      Shell    64 D   1     bf  180 -   185         -0.611094572387          6.131496401074          7.249414520746
      0.8000000000D+00  0.1000000000D+01
 Atom H22      Shell    65 S   3     bf  186 -   186          1.270426275144          6.953601308349          6.986751469987
      0.1873113696D+02  0.3349460434D-01
      0.2825394365D+01  0.2347269535D+00
      0.6401216923D+00  0.8137573261D+00
 Atom H22      Shell    66 S   1     bf  187 -   187          1.270426275144          6.953601308349          6.986751469987
      0.1612777588D+00  0.1000000000D+01
 Atom H23      Shell    67 S   3     bf  188 -   188         -0.979317630441          6.192093417498          9.286040952318
      0.1873113696D+02  0.3349460434D-01
      0.2825394365D+01  0.2347269535D+00
      0.6401216923D+00  0.8137573261D+00
 Atom H23      Shell    68 S   1     bf  189 -   189         -0.979317630441          6.192093417498          9.286040952318
      0.1612777588D+00  0.1000000000D+01
 Atom C24      Shell    69 S   6     bf  190 -   190         -4.333315008237          7.431108702655         -1.132468840819
      0.3047524880D+04  0.1834737132D-02
      0.4573695180D+03  0.1403732281D-01
      0.1039486850D+03  0.6884262226D-01
      0.2921015530D+02  0.2321844432D+00
      0.9286662960D+01  0.4679413484D+00
      0.3163926960D+01  0.3623119853D+00
 Atom C24      Shell    70 SP   3    bf  191 -   194         -4.333315008237          7.431108702655         -1.132468840819
      0.7868272350D+01 -0.1193324198D+00  0.6899906659D-01
      0.1881288540D+01 -0.1608541517D+00  0.3164239610D+00
      0.5442492580D+00  0.1143456438D+01  0.7443082909D+00
 Atom C24      Shell    71 SP   1    bf  195 -   198         -4.333315008237          7.431108702655         -1.132468840819
      0.1687144782D+00  0.1000000000D+01  0.1000000000D+01
 Atom C24      Shell    72 D   1     bf  199 -   204         -4.333315008237          7.431108702655         -1.132468840819
      0.8000000000D+00  0.1000000000D+01
 Atom H25      Shell    73 S   3     bf  205 -   205         -3.484306863693          8.632763232892         -2.592202191880
      0.1873113696D+02  0.3349460434D-01
      0.2825394365D+01  0.2347269535D+00
      0.6401216923D+00  0.8137573261D+00
 Atom H25      Shell    74 S   1     bf  206 -   206         -3.484306863693          8.632763232892         -2.592202191880
      0.1612777588D+00  0.1000000000D+01
 Atom H26      Shell    75 S   3     bf  207 -   207         -6.218912127317          6.929860716736         -1.817574858454
      0.1873113696D+02  0.3349460434D-01
      0.2825394365D+01  0.2347269535D+00
      0.6401216923D+00  0.8137573261D+00
 Atom H26      Shell    76 S   1     bf  208 -   208         -6.218912127317          6.929860716736         -1.817574858454
      0.1612777588D+00  0.1000000000D+01
 Atom C27      Shell    77 S   6     bf  209 -   209         -0.836646274279          0.415893572942          2.559066618928
      0.3047524880D+04  0.1834737132D-02
      0.4573695180D+03  0.1403732281D-01
      0.1039486850D+03  0.6884262226D-01
      0.2921015530D+02  0.2321844432D+00
      0.9286662960D+01  0.4679413484D+00
      0.3163926960D+01  0.3623119853D+00
 Atom C27      Shell    78 SP   3    bf  210 -   213         -0.836646274279          0.415893572942          2.559066618928
      0.7868272350D+01 -0.1193324198D+00  0.6899906659D-01
      0.1881288540D+01 -0.1608541517D+00  0.3164239610D+00
      0.5442492580D+00  0.1143456438D+01  0.7443082909D+00
 Atom C27      Shell    79 SP   1    bf  214 -   217         -0.836646274279          0.415893572942          2.559066618928
      0.1687144782D+00  0.1000000000D+01  0.1000000000D+01
 Atom C27      Shell    80 D   1     bf  218 -   223         -0.836646274279          0.415893572942          2.559066618928
      0.8000000000D+00  0.1000000000D+01
 Atom H28      Shell    81 S   3     bf  224 -   224         -2.873802585059          0.020043096770          2.465246195081
      0.1873113696D+02  0.3349460434D-01
      0.2825394365D+01  0.2347269535D+00
      0.6401216923D+00  0.8137573261D+00
 Atom H28      Shell    82 S   1     bf  225 -   225         -2.873802585059          0.020043096770          2.465246195081
      0.1612777588D+00  0.1000000000D+01
 Atom C29      Shell    83 S   6     bf  226 -   226         -4.697787337863         11.792753275652          1.079429330530
      0.3047524880D+04  0.1834737132D-02
      0.4573695180D+03  0.1403732281D-01
      0.1039486850D+03  0.6884262226D-01
      0.2921015530D+02  0.2321844432D+00
      0.9286662960D+01  0.4679413484D+00
      0.3163926960D+01  0.3623119853D+00
 Atom C29      Shell    84 SP   3    bf  227 -   230         -4.697787337863         11.792753275652          1.079429330530
      0.7868272350D+01 -0.1193324198D+00  0.6899906659D-01
      0.1881288540D+01 -0.1608541517D+00  0.3164239610D+00
      0.5442492580D+00  0.1143456438D+01  0.7443082909D+00
 Atom C29      Shell    85 SP   1    bf  231 -   234         -4.697787337863         11.792753275652          1.079429330530
      0.1687144782D+00  0.1000000000D+01  0.1000000000D+01
 Atom C29      Shell    86 D   1     bf  235 -   240         -4.697787337863         11.792753275652          1.079429330530
      0.8000000000D+00  0.1000000000D+01
 Atom H30      Shell    87 S   3     bf  241 -   241         -3.031017065670         12.412385536220          0.000000000000
      0.1873113696D+02  0.3349460434D-01
      0.2825394365D+01  0.2347269535D+00
      0.6401216923D+00  0.8137573261D+00
 Atom H30      Shell    88 S   1     bf  242 -   242         -3.031017065670         12.412385536220          0.000000000000
      0.1612777588D+00  0.1000000000D+01
 Atom C31      Shell    89 S   6     bf  243 -   243          0.271050751377          8.984477530066          2.209653857005
      0.3047524880D+04  0.1834737132D-02
      0.4573695180D+03  0.1403732281D-01
      0.1039486850D+03  0.6884262226D-01
      0.2921015530D+02  0.2321844432D+00
      0.9286662960D+01  0.4679413484D+00
      0.3163926960D+01  0.3623119853D+00
 Atom C31      Shell    90 SP   3    bf  244 -   247          0.271050751377          8.984477530066          2.209653857005
      0.7868272350D+01 -0.1193324198D+00  0.6899906659D-01
      0.1881288540D+01 -0.1608541517D+00  0.3164239610D+00
      0.5442492580D+00  0.1143456438D+01  0.7443082909D+00
 Atom C31      Shell    91 SP   1    bf  248 -   251          0.271050751377          8.984477530066          2.209653857005
      0.1687144782D+00  0.1000000000D+01  0.1000000000D+01
 Atom C31      Shell    92 D   1     bf  252 -   257          0.271050751377          8.984477530066          2.209653857005
      0.8000000000D+00  0.1000000000D+01
 Atom H32      Shell    93 S   3     bf  258 -   258          1.909199779582          7.977667880385          2.964779859247
      0.1873113696D+02  0.3349460434D-01
      0.2825394365D+01  0.2347269535D+00
      0.6401216923D+00  0.8137573261D+00
 Atom H32      Shell    94 S   1     bf  259 -   259          1.909199779582          7.977667880385          2.964779859247
      0.1612777588D+00  0.1000000000D+01
 Atom H33      Shell    95 S   3     bf  260 -   260          0.482808756410          9.035530390169          0.153874351877
      0.1873113696D+02  0.3349460434D-01
      0.2825394365D+01  0.2347269535D+00
      0.6401216923D+00  0.8137573261D+00
 Atom H33      Shell    96 S   1     bf  261 -   261          0.482808756410          9.035530390169          0.153874351877
      0.1612777588D+00  0.1000000000D+01
 Atom H34      Shell    97 S   3     bf  262 -   262          0.389331166678         10.935218327748          2.889096932337
      0.1873113696D+02  0.3349460434D-01
      0.2825394365D+01  0.2347269535D+00
      0.6401216923D+00  0.8137573261D+00
 Atom H34      Shell    98 S   1     bf  263 -   263          0.389331166678         10.935218327748          2.889096932337
      0.1612777588D+00  0.1000000000D+01
 Atom C35      Shell    99 S   6     bf  264 -   264          1.457640309293         -0.966357567369          6.529542020917
      0.3047524880D+04  0.1834737132D-02
      0.4573695180D+03  0.1403732281D-01
      0.1039486850D+03  0.6884262226D-01
      0.2921015530D+02  0.2321844432D+00
      0.9286662960D+01  0.4679413484D+00
      0.3163926960D+01  0.3623119853D+00
 Atom C35      Shell   100 SP   3    bf  265 -   268          1.457640309293         -0.966357567369          6.529542020917
      0.7868272350D+01 -0.1193324198D+00  0.6899906659D-01
      0.1881288540D+01 -0.1608541517D+00  0.3164239610D+00
      0.5442492580D+00  0.1143456438D+01  0.7443082909D+00
 Atom C35      Shell   101 SP   1    bf  269 -   272          1.457640309293         -0.966357567369          6.529542020917
      0.1687144782D+00  0.1000000000D+01  0.1000000000D+01
 Atom C35      Shell   102 D   1     bf  273 -   278          1.457640309293         -0.966357567369          6.529542020917
      0.8000000000D+00  0.1000000000D+01
 Atom C36      Shell   103 S   6     bf  279 -   279          0.572824348969          1.373841122026         10.548464558542
      0.3047524880D+04  0.1834737132D-02
      0.4573695180D+03  0.1403732281D-01
      0.1039486850D+03  0.6884262226D-01
      0.2921015530D+02  0.2321844432D+00
      0.9286662960D+01  0.4679413484D+00
      0.3163926960D+01  0.3623119853D+00
 Atom C36      Shell   104 SP   3    bf  280 -   283          0.572824348969          1.373841122026         10.548464558542
      0.7868272350D+01 -0.1193324198D+00  0.6899906659D-01
      0.1881288540D+01 -0.1608541517D+00  0.3164239610D+00
      0.5442492580D+00  0.1143456438D+01  0.7443082909D+00
 Atom C36      Shell   105 SP   1    bf  284 -   287          0.572824348969          1.373841122026         10.548464558542
      0.1687144782D+00  0.1000000000D+01  0.1000000000D+01
 Atom C36      Shell   106 D   1     bf  288 -   293          0.572824348969          1.373841122026         10.548464558542
      0.8000000000D+00  0.1000000000D+01
 Atom H37      Shell   107 S   3     bf  294 -   294         -1.447579086108          0.897195310556         10.593393968982
      0.1873113696D+02  0.3349460434D-01
      0.2825394365D+01  0.2347269535D+00
      0.6401216923D+00  0.8137573261D+00
 Atom H37      Shell   108 S   1     bf  295 -   295         -1.447579086108          0.897195310556         10.593393968982
      0.1612777588D+00  0.1000000000D+01
 Atom H38      Shell   109 S   3     bf  296 -   296          0.767781082414          3.192738316342         11.516064696433
      0.1873113696D+02  0.3349460434D-01
      0.2825394365D+01  0.2347269535D+00
      0.6401216923D+00  0.8137573261D+00
 Atom H38      Shell   110 S   1     bf  297 -   297          0.767781082414          3.192738316342         11.516064696433
      0.1612777588D+00  0.1000000000D+01
 Atom C39      Shell   111 S   6     bf  298 -   298          0.403541151307         -1.472070824962          4.281047583354
      0.3047524880D+04  0.1834737132D-02
[...]
 **** Fit       0.008764
 **** Fit       0.008551
 **** Fit       0.008288
 **** Fit       0.008019
 **** Fit       0.007833
 **** Fit       0.007872
 **** Fit       0.008303
 **** Fit       0.009218
 **** Fit       0.010516
 **** Fit       0.011861
 **** Fit       0.012852
 **** Fit       0.013315
 **** Fit       0.013370
 **** Fit       0.013233
 **** Fit       0.013027
 **** Fit       0.012765
 **** Fit       0.012414
 **** Fit       0.011943
 **** Fit       0.011347
 **** Fit       0.010645
 **** Fit       0.008765
 **** Fit       0.008561
 **** Fit       0.008264
 **** Fit       0.007900
 **** Fit       0.007549
 **** Fit       0.007351
 **** Fit       0.007471
 **** Fit       0.008013
 **** Fit       0.008913
 **** Fit       0.009923
 **** Fit       0.010743
 **** Fit       0.011226
 **** Fit       0.011432
 **** Fit       0.011488
 **** Fit       0.011462
 **** Fit       0.011355
 **** Fit       0.011141
 **** Fit       0.008748
 **** Fit       0.008690
 **** Fit       0.008516
 **** Fit       0.008217
 **** Fit       0.007808
 **** Fit       0.007353
 **** Fit       0.006981
 **** Fit       0.006848
 **** Fit       0.007055
 **** Fit       0.007572
 **** Fit       0.008241
 **** Fit       0.008874
 **** Fit       0.009363
 **** Fit       0.009709
 **** Fit       0.009946
 **** Fit       0.010090
 **** Fit       0.010124
 **** Fit       0.010033
 **** Fit       0.008537
 **** Fit       0.008527
 **** Fit       0.008392
 **** Fit       0.008116
 **** Fit       0.007703
 **** Fit       0.007208
 **** Fit       0.006744
 **** Fit       0.006451
 **** Fit       0.006426
 **** Fit       0.006661
 **** Fit       0.007070
 **** Fit       0.007541
 **** Fit       0.008001
 **** Fit       0.008415
 **** Fit       0.008758
 **** Fit       0.009004
 **** Fit       0.009130
 **** Fit       0.009121
 **** Fit       0.008271
 **** Fit       0.008176
 **** Fit       0.007936
 **** Fit       0.007552
 **** Fit       0.007070
 **** Fit       0.006588
 **** Fit       0.006229
 **** Fit       0.006081
 **** Fit       0.006156
 **** Fit       0.006406
 **** Fit       0.006764
 **** Fit       0.007175
 **** Fit       0.007586
 **** Fit       0.007950
 **** Fit       0.008223
 **** Fit       0.008379
 **** Fit       0.007932
 **** Fit       0.007874
 **** Fit       0.007677
 **** Fit       0.007344
 **** Fit       0.006914
 **** Fit       0.006470
 **** Fit       0.006117
 **** Fit       0.005933
 **** Fit       0.005940
 **** Fit       0.006112
 **** Fit       0.006403
 **** Fit       0.006759
 **** Fit       0.007127
 **** Fit       0.007453
 **** Fit       0.007697
 **** Fit       0.007834
 **** Fit       0.007531
 **** Fit       0.007507
 **** Fit       0.007359
 **** Fit       0.007091
 **** Fit       0.006738
 **** Fit       0.006369
 **** Fit       0.006069
 **** Fit       0.005904
 **** Fit       0.005899
 **** Fit       0.006039
 **** Fit       0.006287
 **** Fit       0.006590
 **** Fit       0.006895
 **** Fit       0.007157
 **** Fit       0.007343
 **** Fit       0.007104
 **** Fit       0.007008
 **** Fit       0.006812
 **** Fit       0.006548
 **** Fit       0.006270
 **** Fit       0.006045
 **** Fit       0.005926
 **** Fit       0.005935
 **** Fit       0.006064
 **** Fit       0.006276
 **** Fit       0.006526
 **** Fit       0.006765
 **** Fit       0.006957
 **** Fit       0.007079
 **** Fit       0.006519
 **** Fit       0.006344
 **** Fit       0.006158
 **** Fit       0.006012
 **** Fit       0.005946
 **** Fit       0.005976
 **** Fit       0.006096
 **** Fit       0.006274
 **** Fit       0.006472
 **** Fit       0.006650
 **** Fit       0.006779
 **** Fit       0.005972
 **** Fit       0.006081
 **** Fit       0.006227
 **** Fit       0.006377
 **** Fit       0.006502
 **** Fit       0.009210
 **** Fit       0.009654
 **** Fit       0.009792
 **** Fit       0.009566
 **** Fit       0.008979
 **** Fit       0.008099
 **** Fit       0.010907
 **** Fit       0.011809
 **** Fit       0.012437
 **** Fit       0.012654
 **** Fit       0.012379
 **** Fit       0.011620
 **** Fit       0.010477
 **** Fit       0.009100
 **** Fit       0.012011
 **** Fit       0.013316
 **** Fit       0.014469
 **** Fit       0.015281
 **** Fit       0.015571
 **** Fit       0.015236
 **** Fit       0.014291
 **** Fit       0.012869
 **** Fit       0.011168
 **** Fit       0.014053
 **** Fit       0.015593
 **** Fit       0.016955
 **** Fit       0.017913
 **** Fit       0.018254
 **** Fit       0.017851
 **** Fit       0.016728
 **** Fit       0.015049
 **** Fit       0.013056
 **** Fit       0.010987
 **** Fit       0.008713
 **** Fit       0.009827
 **** Fit       0.011107
 **** Fit       0.012552
 **** Fit       0.014149
 **** Fit       0.015847
 **** Fit       0.017532
 **** Fit       0.019014
 **** Fit       0.020047
 **** Fit       0.020394
 **** Fit       0.019921
 **** Fit       0.018656
 **** Fit       0.016786
 **** Fit       0.014580
 **** Fit       0.012300
 **** Fit       0.008590
 **** Fit       0.009671
 **** Fit       0.010913
 **** Fit       0.012308
 **** Fit       0.013848
 **** Fit       0.015516
 **** Fit       0.017260
 **** Fit       0.018969
 **** Fit       0.020451
 **** Fit       0.021461
 **** Fit       0.021762
 **** Fit       0.021221
 **** Fit       0.019872
 **** Fit       0.017908
 **** Fit       0.015602
 **** Fit       0.013223
 **** Fit       0.008334
 **** Fit       0.009350
 **** Fit       0.010535
 **** Fit       0.011871
 **** Fit       0.013331
 **** Fit       0.014895
 **** Fit       0.016540
 **** Fit       0.018218
 **** Fit       0.019825
 **** Fit       0.021188
 **** Fit       0.022078
 **** Fit       0.022282
 **** Fit       0.021683
 **** Fit       0.020315
 **** Fit       0.018361
 **** Fit       0.016077
 **** Fit       0.013716
 **** Fit       0.008907
 **** Fit       0.009998
 **** Fit       0.011258
 **** Fit       0.012647
 **** Fit       0.014122
 **** Fit       0.015646
 **** Fit       0.017189
 **** Fit       0.018710
 **** Fit       0.020120
 **** Fit       0.021271
 **** Fit       0.021973
 **** Fit       0.022047
 **** Fit       0.021401
 **** Fit       0.020070
 **** Fit       0.018211
 **** Fit       0.016048
 **** Fit       0.008424
 **** Fit       0.009361
 **** Fit       0.010495
 **** Fit       0.011792
 **** Fit       0.013196
 **** Fit       0.014643
 **** Fit       0.016081
 **** Fit       0.017474
 **** Fit       0.018785
 **** Fit       0.019945
 **** Fit       0.020840
 **** Fit       0.021323
 **** Fit       0.021259
 **** Fit       0.020580
 **** Fit       0.019320
 **** Fit       0.017608
 **** Fit       0.015629
 **** Fit       0.009672
 **** Fit       0.010812
 **** Fit       0.012110
 **** Fit       0.013494
 **** Fit       0.014885
 **** Fit       0.016214
 **** Fit       0.017438
 **** Fit       0.018525
 **** Fit       0.019427
 **** Fit       0.020063
 **** Fit       0.020332
 **** Fit       0.020140
 **** Fit       0.019442
 **** Fit       0.018269
 **** Fit       0.009825
 **** Fit       0.010938
 **** Fit       0.012207
 **** Fit       0.013550
 **** Fit       0.014871
 **** Fit       0.016088
 **** Fit       0.017148
 **** Fit       0.018022
 **** Fit       0.018685
 **** Fit       0.009818
 **** Fit       0.010877
 **** Fit       0.012098
 **** Fit       0.013391
 **** Fit       0.014645
 **** Fit       0.015759
 **** Fit       0.016669
 **** Fit       0.017354
 **** Fit       0.017808
 **** Fit       0.018016
 **** Fit       0.008900
 **** Fit       0.009659
 **** Fit       0.010639
 **** Fit       0.011797
 **** Fit       0.013040
 **** Fit       0.014236
 **** Fit       0.015261
 **** Fit       0.016041
 **** Fit       0.016562
 **** Fit       0.016840
 **** Fit       0.016893
 **** Fit       0.016716
 **** Fit       0.016295
 **** Fit       0.015624
 **** Fit       0.008721
 **** Fit       0.009360
 **** Fit       0.010235
 **** Fit       0.011313
 **** Fit       0.012498
 **** Fit       0.013641
 **** Fit       0.014590
 **** Fit       0.015259
 **** Fit       0.015644
 **** Fit       0.015787
 **** Fit       0.015729
 **** Fit       0.015485
 **** Fit       0.015049
 **** Fit       0.014419
 **** Fit       0.008455
 **** Fit       0.008948
 **** Fit       0.009684
 **** Fit       0.010649
 **** Fit       0.011752
 **** Fit       0.012827
 **** Fit       0.013703
 **** Fit       0.014284
 **** Fit       0.014573
 **** Fit       0.014631
 **** Fit       0.014515
 **** Fit       0.014249
 **** Fit       0.008000
 **** Fit       0.008139
 **** Fit       0.008463
 **** Fit       0.009025
 **** Fit       0.009832
 **** Fit       0.010803
 **** Fit       0.011776
 **** Fit       0.012571
 **** Fit       0.013088
 **** Fit       0.013332
 **** Fit       0.013367
 **** Fit       0.013253
 **** Fit       0.013013
 **** Fit       0.012651
 **** Fit       0.007896
 **** Fit       0.007817
 **** Fit       0.007815
 **** Fit       0.007963
 **** Fit       0.008329
 **** Fit       0.008935
 **** Fit       0.009720
 **** Fit       0.010543
 **** Fit       0.011242
 **** Fit       0.011718
 **** Fit       0.011966
 **** Fit       0.012037
 **** Fit       0.011977
 **** Fit       0.011804
 **** Fit       0.011521
 **** Fit       0.007936
 **** Fit       0.007797
 **** Fit       0.007639
 **** Fit       0.007518
 **** Fit       0.007507
 **** Fit       0.007679
 **** Fit       0.008068
 **** Fit       0.008638
 **** Fit       0.009281
 **** Fit       0.009868
 **** Fit       0.010311
 **** Fit       0.010591
 **** Fit       0.010731
 **** Fit       0.010754
 **** Fit       0.010668
 **** Fit       0.007834
 **** Fit       0.007676
 **** Fit       0.007470
 **** Fit       0.007265
 **** Fit       0.007131
 **** Fit       0.007142
 **** Fit       0.007338
 **** Fit       0.007704
 **** Fit       0.008168
 **** Fit       0.008638
 **** Fit       0.009044
 **** Fit       0.009352
 **** Fit       0.009558
 **** Fit       0.009659
 **** Fit       0.009655
 **** Fit       0.007681
 **** Fit       0.007524
 **** Fit       0.007300
 **** Fit       0.007050
 **** Fit       0.006840
 **** Fit       0.006740
 **** Fit       0.006793
 **** Fit       0.007000
 **** Fit       0.007317
 **** Fit       0.007683
 **** Fit       0.008042
 **** Fit       0.008355
 **** Fit       0.008597
 **** Fit       0.008749
 **** Fit       0.008801
 **** Fit       0.007472
 **** Fit       0.007332
 **** Fit       0.007115
 **** Fit       0.006857
 **** Fit       0.006617
 **** Fit       0.006459
 **** Fit       0.006426
 **** Fit       0.006529
 **** Fit       0.006743
 **** Fit       0.007026
 **** Fit       0.007335
 **** Fit       0.007628
 **** Fit       0.007872
 **** Fit       0.008039
 **** Fit       0.007098
 **** Fit       0.006906
 **** Fit       0.006669
 **** Fit       0.006437
 **** Fit       0.006265
 **** Fit       0.006196
 **** Fit       0.006244
 **** Fit       0.006395
 **** Fit       0.006619
 **** Fit       0.006878
 **** Fit       0.007135
 **** Fit       0.007354
 **** Fit       0.006828
 **** Fit       0.006675
 **** Fit       0.006478
 **** Fit       0.006280
 **** Fit       0.006126
 **** Fit       0.006055
 **** Fit       0.006082
 **** Fit       0.006198
 **** Fit       0.006380
 **** Fit       0.006595
 **** Fit       0.006808
 **** Fit       0.006129
 **** Fit       0.006083
 **** Fit       0.006234
 **** Fit       0.006408
 **** Fit       0.012867
 **** Fit       0.012994
 **** Fit       0.012706
 **** Fit       0.012014
 **** Fit       0.014228
 **** Fit       0.014792
 **** Fit       0.014937
 **** Fit       0.014601
 **** Fit       0.013800
 **** Fit       0.012624
 **** Fit       0.015783
 **** Fit       0.016381
 **** Fit       0.016521
 **** Fit       0.016136
 **** Fit       0.015245
 **** Fit       0.013950
 **** Fit       0.016925
 **** Fit       0.017507
 **** Fit       0.017613
 **** Fit       0.017181
 **** Fit       0.016231
 **** Fit       0.014868
 **** Fit       0.009770
 **** Fit       0.010840
 **** Fit       0.011992
 **** Fit       0.013202
 **** Fit       0.014435
 **** Fit       0.017600
 **** Fit       0.018115
 **** Fit       0.018163
 **** Fit       0.017688
 **** Fit       0.016713
 **** Fit       0.015338
 **** Fit       0.010348
 **** Fit       0.011449
 **** Fit       0.012610
 **** Fit       0.013798
 **** Fit       0.014974
 **** Fit       0.018233
 **** Fit       0.018205
 **** Fit       0.017695
 **** Fit       0.016726
 **** Fit       0.010775
 **** Fit       0.011879
 **** Fit       0.013017
 **** Fit       0.014148
 **** Fit       0.015232
 **** Fit       0.016222
 **** Fit       0.011034
 **** Fit       0.012116
 **** Fit       0.013210
 **** Fit       0.014264
 **** Fit       0.015236
 **** Fit       0.011121
 **** Fit       0.012164
 **** Fit       0.013199
 **** Fit       0.014168
 **** Fit       0.015025
 **** Fit       0.011042
 **** Fit       0.012034
 **** Fit       0.013005
 **** Fit       0.013890
 **** Fit       0.014638
 **** Fit       0.015217
 **** Fit       0.009923
 **** Fit       0.010806
 **** Fit       0.011739
 **** Fit       0.012646
 **** Fit       0.013451
 **** Fit       0.014101
 **** Fit       0.014568
 **** Fit       0.014844
 **** Fit       0.008930
 **** Fit       0.009617
 **** Fit       0.010423
 **** Fit       0.011287
 **** Fit       0.012127
 **** Fit       0.012859
 **** Fit       0.013425
 **** Fit       0.013801
 **** Fit       0.013990
 **** Fit       0.014001
 **** Fit       0.008618
 **** Fit       0.009200
 **** Fit       0.009909
 **** Fit       0.010689
 **** Fit       0.011453
 **** Fit       0.012114
 **** Fit       0.012610
 **** Fit       0.012921
 **** Fit       0.013055
 **** Fit       0.013028
 **** Fit       0.008245
 **** Fit       0.008704
 **** Fit       0.009294
 **** Fit       0.009968
 **** Fit       0.010643
 **** Fit       0.011231
 **** Fit       0.011671
 **** Fit       0.011942
 **** Fit       0.012053
 **** Fit       0.012023
 **** Fit       0.007846
 **** Fit       0.008173
 **** Fit       0.008629
 **** Fit       0.009177
 **** Fit       0.009747
 **** Fit       0.010258
 **** Fit       0.010652
 **** Fit       0.010906
 **** Fit       0.011022
 **** Fit       0.011014
 **** Fit       0.007459
 **** Fit       0.007659
 **** Fit       0.007977
 **** Fit       0.008392
 **** Fit       0.008848
 **** Fit       0.009279
 **** Fit       0.009632
 **** Fit       0.009879
 **** Fit       0.010016
 **** Fit       0.010046
 **** Fit       0.007111
 **** Fit       0.007112
 **** Fit       0.007201
 **** Fit       0.007397
 **** Fit       0.007688
 **** Fit       0.008035
 **** Fit       0.008386
 **** Fit       0.008698
 **** Fit       0.008940
 **** Fit       0.009097
 **** Fit       0.009164
 **** Fit       0.006874
 **** Fit       0.006813
 **** Fit       0.006822
 **** Fit       0.006923
 **** Fit       0.007112
 **** Fit       0.007365
 **** Fit       0.007645
 **** Fit       0.007914
 **** Fit       0.008143
 **** Fit       0.008310
 **** Fit       0.006561
 **** Fit       0.006557
 **** Fit       0.006674
 **** Fit       0.006855
 **** Fit       0.007076
 **** Fit       0.007304
 **** Fit       0.007511
 **** Fit       0.011338
 **** Fit       0.009622
 **** Fit       0.010279
 **** Fit       0.010918
 **** Fit       0.011489
 **** Fit       0.011950
 **** Fit       0.009228
 **** Fit       0.009813
 **** Fit       0.010385
 **** Fit       0.010894
 **** Fit       0.011299
 **** Fit       0.011577
 **** Fit       0.008301
 **** Fit       0.008760
 **** Fit       0.009263
 **** Fit       0.009764
 **** Fit       0.010212
 **** Fit       0.010568
 **** Fit       0.010809
 **** Fit       0.007888
 **** Fit       0.008254
 **** Fit       0.008668
 **** Fit       0.009091
 **** Fit       0.009478
 **** Fit       0.009792
 **** Fit       0.010009
 **** Fit       0.007747
 **** Fit       0.008072
 **** Fit       0.008417
 **** Fit       0.008744
 **** Fit       0.009019
 **** Fit       0.009219
 **** Fit       0.007277
 **** Fit       0.007519
 **** Fit       0.007790
 **** Fit       0.008060
 **** Fit       0.008298
 **** Fit       0.008482
 **** Fit       0.007245
 **** Fit       0.007463
 -----------------------------------------------------------------
 Leave Link  602 at Wed May 17 12:58:50 2017, MaxMem=    33554432 cpu:        37.7
 (Enter /home/michal/g09/l9999.exe)

 Test job not archived.
 1\1\GINC-LINUX\SP\RHF\6-31G(d)\C27H46O2\MICHAL\17-May-2017\0\\#P HF/6-
 31G* SCF(Conver=6) NoSymm Test Pop=chelpg IOp(6/33=2) GFInput GFPrint\
 \MEP - Input generated by R.E.D.-III.x MOLECULE\\0,1\O,0,0.,0.,0.\H,0,
 0.96763381,0.,0.\O,0,1.64515271,-2.7396976,6.41205101\H,0,2.5831324,-2
 .51013762,6.47253682\C,0,-1.19397853,4.10604959,1.59552979\C,0,-1.2875
 9599,2.61133138,1.1709711\H,0,-2.25962884,2.26487332,1.56344084\C,0,-0
 .23842084,1.67984318,1.804307\H,0,0.76733422,1.97950846,1.47475152\C,0
 ,-0.32389667,1.77633225,3.35312283\H,0,-1.30597044,1.35427186,3.623113
 65\C,0,-2.38052794,4.70456839,0.76122805\H,0,-3.30231078,4.3861102,1.2
 74047\C,0,-1.3560698,4.14201654,3.12827238\H,0,-2.37063621,3.80239446,
 3.38242198\H,0,-1.26092273,5.15798532,3.52378591\C,0,0.73414057,0.8830
 9538,4.08993573\C,0,-1.43205713,2.66385472,-0.35776419\H,0,-1.88752016
 ,1.75876971,-0.76599458\H,0,-0.45054675,2.7512955,-0.83560691\C,0,-0.3
 2337732,3.24464815,3.83622494\H,0,0.67228063,3.67968733,3.69722964\H,0
 ,-0.51823257,3.27671471,4.91396123\C,0,-2.29309154,3.93237336,-0.59927
 67\H,0,-1.84381578,4.56826155,-1.37173432\H,0,-3.29090656,3.66712435,-
 0.96181919\C,0,-0.44273414,0.2200814,1.35419973\H,0,-1.52075083,0.0106
 0635,1.3045521\C,0,-2.48596199,6.24045626,0.5712094\H,0,-1.60394515,6.
 56835153,0.\C,0,0.14343388,4.75438074,1.16929846\H,0,1.01030501,4.2216
 0002,1.56889393\H,0,0.25549139,4.78139675,0.0814268\H,0,0.20602518,5.7
 8666831,1.52884425\C,0,0.77135003,-0.5113744,3.45528482\C,0,0.30312559
 ,0.72700541,5.58200703\H,0,-0.76602586,0.47477531,5.60578265\H,0,0.406
 29225,1.68952435,6.09403897\C,0,0.21354478,-0.77898633,2.26543281\H,0,
 0.24060101,-1.79662813,1.87589223\C,0,2.15628564,1.5015622,4.02281814\
 H,0,2.22217923,2.41650674,4.61959251\H,0,2.91302445,0.81217357,4.40616
 747\H,0,2.43464916,1.74477782,2.99281642\C,0,1.46596442,-1.61024202,4.
 23748554\H,0,1.33683248,-2.57343883,3.73421256\H,0,2.54996411,-1.41405
 446,4.27155096\C,0,1.06909067,-0.34692789,6.37001256\H,0,2.13010071,-0
 .07172912,6.46444771\H,0,0.67204951,-0.41759471,7.38903266\C,0,-3.7360
 6395,6.59463194,-0.27514249\H,0,-3.81818632,5.89043773,-1.10840378\H,0
 ,-4.63456326,6.44049846,0.3427601\C,0,0.96732683,-1.71033527,5.6867626
 4\H,0,-0.08113966,-2.03243548,5.68105539\C,0,-2.50976818,7.01684199,1.
 90029851\H,0,-3.30408812,6.64113602,2.55740204\H,0,-2.69546135,8.08231
 703,1.73455393\H,0,-1.56454359,6.94061365,2.44258803\C,0,-3.75004916,8
 .02284929,-0.84457912\H,0,-3.63326736,8.750652,-0.0325974\H,0,-2.87436
 241,8.15837122,-1.49387666\C,0,-5.0348329,8.38886346,-1.61150145\H,0,-
 4.98551818,9.45237547,-1.88899353\H,0,-5.88843544,8.29554804,-0.924481
 58\C,0,-5.34540887,7.57586163,-2.88660004\H,0,-5.41593078,6.51390914,-
 2.61132588\C,0,-4.24748553,7.71494395,-3.95301459\H,0,-4.12113703,8.76
 523536,-4.24678582\H,0,-4.50347109,7.14684179,-4.85457885\H,0,-3.27819
 485,7.3495689,-3.59865103\C,0,-6.70937073,7.99245243,-3.46022027\H,0,-
 6.70147685,9.04827956,-3.76040743\H,0,-6.96816047,7.39809937,-4.343956
 02\H,0,-7.50960864,7.86265057,-2.72249797\\Version=EM64L-G09RevD.01\HF
 =-1198.9271626\RMSD=4.861e-07\Dipole=0.6805182,0.7232713,0.3897908\Qua
 drupole=6.7478576,-4.5592853,-2.1885723,0.9746201,2.5746961,9.6273671\
 PG=C01 [X(C27H46O2)]\\@


       THE DEATH-KNELL OF THE ATOM

 SO THE ATOMS IN TURN, WE NOW CLEARLY DISCERN,
 FLY TO BITS WITH THE UTMOST FACILITY;
 THEY WEND ON THEIR WAY, AND, IN SPLITTING, DISPLAY
 AN ABSOLUTE LACK OF STABILITY.

          SIR WM. RAMSAY, 1905
 Job cpu time:       0 days  0 hours 11 minutes 46.8 seconds.
 File lengths (MBytes):  RWF=    150 Int=      0 D2E=      0 Chk=     11 Scr=      1
 Normal termination of Gaussian 09 at Wed May 17 12:58:50 2017.
