 Entering Gaussian System, Link 0=/home/michal/g09/g09
 Input=JOB2-gau_m1-18-1.com
 Output=JOB2-gau_m1-18-1.log
 Initial command:
 /home/michal/g09/l1.exe "/home/michal/gauss_scratch/Gau-5782.inp" -scrdir="/home/michal/gauss_scratch/"
 Entering Link 1 = /home/michal/g09/l1.exe PID=      5783.
  
 Copyright (c) 1988,1990,1992,1993,1995,1998,2003,2009,2013,
            Gaussian, Inc.  All Rights Reserved.
  
 This is part of the Gaussian(R) 09 program.  It is based on
 the Gaussian(R) 03 system (copyright 2003, Gaussian, Inc.),
 the Gaussian(R) 98 system (copyright 1998, Gaussian, Inc.),
 the Gaussian(R) 94 system (copyright 1995, Gaussian, Inc.),
 the Gaussian 92(TM) system (copyright 1992, Gaussian, Inc.),
 the Gaussian 90(TM) system (copyright 1990, Gaussian, Inc.),
 the Gaussian 88(TM) system (copyright 1988, Gaussian, Inc.),
 the Gaussian 86(TM) system (copyright 1986, Carnegie Mellon
 University), and the Gaussian 82(TM) system (copyright 1983,
 Carnegie Mellon University). Gaussian is a federally registered
 trademark of Gaussian, Inc.
  
 This software contains proprietary and confidential information,
 including trade secrets, belonging to Gaussian, Inc.
  
 This software is provided under written license and may be
 used, copied, transmitted, or stored only in accord with that
 written license.
  
 The following legend is applicable only to US Government
 contracts under FAR:
  
                    RESTRICTED RIGHTS LEGEND
  
 Use, reproduction and disclosure by the US Government is
 subject to restrictions as set forth in subparagraphs (a)
 and (c) of the Commercial Computer Software - Restricted
 Rights clause in FAR 52.227-19.
  
 Gaussian, Inc.
 340 Quinnipiac St., Bldg. 40, Wallingford CT 06492
  
  
 ---------------------------------------------------------------
 Warning -- This program may not be used in any manner that
 competes with the business of Gaussian, Inc. or will provide
 assistance to any competitor of Gaussian, Inc.  The licensee
 of this program is prohibited from giving any competitor of
 Gaussian, Inc. access to this program.  By using this program,
 the user acknowledges that Gaussian, Inc. is engaged in the
 business of creating and licensing software in the field of
 computational chemistry and represents and warrants to the
 licensee that it is not a competitor of Gaussian, Inc. and that
 it will not use this program in any manner prohibited above.
 ---------------------------------------------------------------
  

 Cite this work as:
 Gaussian 09, Revision D.01,
 M. J. Frisch, G. W. Trucks, H. B. Schlegel, G. E. Scuseria, 
 M. A. Robb, J. R. Cheeseman, G. Scalmani, V. Barone, B. Mennucci, 
 G. A. Petersson, H. Nakatsuji, M. Caricato, X. Li, H. P. Hratchian, 
 A. F. Izmaylov, J. Bloino, G. Zheng, J. L. Sonnenberg, M. Hada, 
 M. Ehara, K. Toyota, R. Fukuda, J. Hasegawa, M. Ishida, T. Nakajima, 
 Y. Honda, O. Kitao, H. Nakai, T. Vreven, J. A. Montgomery, Jr., 
 J. E. Peralta, F. Ogliaro, M. Bearpark, J. J. Heyd, E. Brothers, 
 K. N. Kudin, V. N. Staroverov, T. Keith, R. Kobayashi, J. Normand, 
 K. Raghavachari, A. Rendell, J. C. Burant, S. S. Iyengar, J. Tomasi, 
 M. Cossi, N. Rega, J. M. Millam, M. Klene, J. E. Knox, J. B. Cross, 
 V. Bakken, C. Adamo, J. Jaramillo, R. Gomperts, R. E. Stratmann, 
 O. Yazyev, A. J. Austin, R. Cammi, C. Pomelli, J. W. Ochterski, 
 R. L. Martin, K. Morokuma, V. G. Zakrzewski, G. A. Voth, 
 P. Salvador, J. J. Dannenberg, S. Dapprich, A. D. Daniels, 
 O. Farkas, J. B. Foresman, J. V. Ortiz, J. Cioslowski, 
 and D. J. Fox, Gaussian, Inc., Wallingford CT, 2013.
 
 ******************************************
 Gaussian 09:  EM64L-G09RevD.01 24-Apr-2013
                17-May-2017 
 ******************************************
 %Mem=256MB
 %NProc=12
 Will use up to   12 processors via shared memory.
 ----------------------------------------------------------------------
 #P HF/6-31G* SCF(Conver=6) NoSymm Test Pop=chelpg IOp(6/33=2) GFInput 
 GFPrint
 ----------------------------------------------------------------------
 1/38=1/1;
 2/12=2,15=1,17=6,18=5,40=1/2;
 3/5=1,6=6,7=1,11=9,16=1,24=110,25=1,30=1/1,2,3;
 4//1;
 5/5=2,6=6,38=5/2;
 6/7=2,8=2,9=2,10=2,15=8,20=3,28=1,33=2/1,2;
 99/5=1,9=1/99;
 Leave Link    1 at Wed May 17 12:38:02 2017, MaxMem=    33554432 cpu:         0.6
 (Enter /home/michal/g09/l101.exe)
 ----------------------------------------------
 MEP - Input generated by R.E.D.-III.x MOLECULE
 ----------------------------------------------
 Symbolic Z-matrix:
 Charge =  0 Multiplicity = 1
 O                     0.        0.        0. 
 H                     0.96763   0.        0. 
 O                     1.63604  -2.66694   6.4458 
 H                     2.57415  -2.43763   6.5052 
 C                    -1.19189   4.12367   1.54914 
 C                    -1.2857    2.62515   1.13944 
 H                    -2.25768   2.28357   1.53604 
 C                    -0.23795   1.70058   1.78473 
 H                     0.76868   1.99571   1.45357 
 C                    -0.32649   1.81428   3.33252 
 H                    -1.30859   1.39378   3.60491 
 C                    -2.37631   4.70952   0.70489 
 H                    -3.29358   4.37424   1.21139 
 C                    -1.35957   4.17729   3.08017 
 H                    -2.37501   3.84117   3.33538 
 H                    -1.26487   5.19849   3.46303 
 C                     0.73111   0.92952   4.08042 
 C                    -1.43109   2.65953  -0.39096 
 H                    -1.90459   1.75693  -0.78414 
 H                    -0.44892   2.71983  -0.87155 
 C                    -0.32916   3.28746   3.80144 
 H                     0.66667   3.72202   3.66273 
 H                    -0.5289    3.32949   4.87792 
 C                    -2.26594   3.94258  -0.65328 
 H                    -1.77984   4.57247  -1.40783 
 H                    -3.25867   3.70357  -1.04827 
 C                    -0.44284   0.23587   1.35141 
 H                    -1.52102   0.02666   1.30391 
 C                    -2.49124   6.24246   0.51321 
 H                    -1.57773   6.57695   0. 
 C                     0.14623   4.76977   1.12351 
 H                     1.01183   4.2461    1.53766 
 H                     0.26696   4.78192   0.03627 
 H                     0.20147   5.80728   1.46999 
 C                     0.76796  -0.47245   3.46225 
 C                     0.29996   0.79189   5.57423 
 H                    -0.76972   0.54219   5.60113 
 H                     0.40533   1.76013   6.07482 
 C                     0.21196  -0.7532    2.27458 
 H                     0.23877  -1.77525   1.89672 
 C                     2.15364   1.54631   4.00615 
 H                     2.21876   2.4701    4.58919 
 H                     2.90937   0.86234   4.40106 
 H                     2.43364   1.77378   2.97301 
 C                     1.46065  -1.56271   4.25805 
 H                     1.33096  -2.53163   3.76603 
 H                     2.54479  -1.36733   4.29092 
 C                     1.06376  -0.27397   6.37513 
 H                     2.12517   0.00067   6.4671 
 H                     0.66596  -0.33206   7.39465 
 C                    -3.66076   6.6286   -0.43185 
 H                    -3.61131   7.71523  -0.59241 
 H                    -3.49687   6.1753   -1.41738 
 C                     0.96043  -1.64512   5.70786 
 H                    -0.08852  -1.96565   5.70492 
 C                    -2.58772   7.0311    1.83294 
 H                    -3.37658   6.64152   2.48611 
 H                    -2.81387   8.08523   1.63284 
 H                    -1.65167   7.00274   2.39651 
 C                    -5.07915   6.2717    0.04382 
 H                    -5.16117   5.18619   0.17791 
 H                    -5.26234   6.72041   1.0276 
 C                    -6.1527    6.74947  -0.94798 
 H                    -5.94341   6.30639  -1.93249 
 H                    -6.05038   7.83662  -1.07861 
 C                    -7.62306   6.44151  -0.58042 
 H                    -8.23102   6.85729  -1.39763 
 C                    -8.06969   7.14071   0.71435 
 H                    -7.55308   6.7352    1.59196 
 H                    -9.14513   7.00731   0.87844 
 H                    -7.86887   8.2179    0.67608 
 C                    -7.91686   4.93318  -0.5229 
 H                    -7.39416   4.45062   0.31105 
 H                    -8.98869   4.74972  -0.38575 
 H                    -7.60777   4.43073  -1.44706 
 
 NAtoms=     75 NQM=       75 NQMF=       0 NMMI=      0 NMMIF=      0
                NMic=       0 NMicF=      0.
                    Isotopes and Nuclear Properties:
 (Nuclear quadrupole moments (NQMom) in fm**2, nuclear magnetic moments (NMagM)
  in nuclear magnetons)

  Atom         1           2           3           4           5           6           7           8           9          10
 IAtWgt=          16           1          16           1          12          12           1          12           1          12
 AtmWgt=  15.9949146   1.0078250  15.9949146   1.0078250  12.0000000  12.0000000   1.0078250  12.0000000   1.0078250  12.0000000
 NucSpn=           0           1           0           1           0           0           1           0           1           0
 AtZEff=   0.0000000   0.0000000   0.0000000   0.0000000   0.0000000   0.0000000   0.0000000   0.0000000   0.0000000   0.0000000
 NQMom=    0.0000000   0.0000000   0.0000000   0.0000000   0.0000000   0.0000000   0.0000000   0.0000000   0.0000000   0.0000000
 NMagM=    0.0000000   2.7928460   0.0000000   2.7928460   0.0000000   0.0000000   2.7928460   0.0000000   2.7928460   0.0000000
 AtZNuc=   8.0000000   1.0000000   8.0000000   1.0000000   6.0000000   6.0000000   1.0000000   6.0000000   1.0000000   6.0000000

  Atom        11          12          13          14          15          16          17          18          19          20
 IAtWgt=           1          12           1          12           1           1          12          12           1           1
 AtmWgt=   1.0078250  12.0000000   1.0078250  12.0000000   1.0078250   1.0078250  12.0000000  12.0000000   1.0078250   1.0078250
 NucSpn=           1           0           1           0           1           1           0           0           1           1
 AtZEff=   0.0000000   0.0000000   0.0000000   0.0000000   0.0000000   0.0000000   0.0000000   0.0000000   0.0000000   0.0000000
 NQMom=    0.0000000   0.0000000   0.0000000   0.0000000   0.0000000   0.0000000   0.0000000   0.0000000   0.0000000   0.0000000
 NMagM=    2.7928460   0.0000000   2.7928460   0.0000000   2.7928460   2.7928460   0.0000000   0.0000000   2.7928460   2.7928460
 AtZNuc=   1.0000000   6.0000000   1.0000000   6.0000000   1.0000000   1.0000000   6.0000000   6.0000000   1.0000000   1.0000000

  Atom        21          22          23          24          25          26          27          28          29          30
 IAtWgt=          12           1           1          12           1           1          12           1          12           1
 AtmWgt=  12.0000000   1.0078250   1.0078250  12.0000000   1.0078250   1.0078250  12.0000000   1.0078250  12.0000000   1.0078250
 NucSpn=           0           1           1           0           1           1           0           1           0           1
 AtZEff=   0.0000000   0.0000000   0.0000000   0.0000000   0.0000000   0.0000000   0.0000000   0.0000000   0.0000000   0.0000000
 NQMom=    0.0000000   0.0000000   0.0000000   0.0000000   0.0000000   0.0000000   0.0000000   0.0000000   0.0000000   0.0000000
 NMagM=    0.0000000   2.7928460   2.7928460   0.0000000   2.7928460   2.7928460   0.0000000   2.7928460   0.0000000   2.7928460
 AtZNuc=   6.0000000   1.0000000   1.0000000   6.0000000   1.0000000   1.0000000   6.0000000   1.0000000   6.0000000   1.0000000

  Atom        31          32          33          34          35          36          37          38          39          40
 IAtWgt=          12           1           1           1          12          12           1           1          12           1
 AtmWgt=  12.0000000   1.0078250   1.0078250   1.0078250  12.0000000  12.0000000   1.0078250   1.0078250  12.0000000   1.0078250
 NucSpn=           0           1           1           1           0           0           1           1           0           1
 AtZEff=   0.0000000   0.0000000   0.0000000   0.0000000   0.0000000   0.0000000   0.0000000   0.0000000   0.0000000   0.0000000
 NQMom=    0.0000000   0.0000000   0.0000000   0.0000000   0.0000000   0.0000000   0.0000000   0.0000000   0.0000000   0.0000000
 NMagM=    0.0000000   2.7928460   2.7928460   2.7928460   0.0000000   0.0000000   2.7928460   2.7928460   0.0000000   2.7928460
 AtZNuc=   6.0000000   1.0000000   1.0000000   1.0000000   6.0000000   6.0000000   1.0000000   1.0000000   6.0000000   1.0000000

  Atom        41          42          43          44          45          46          47          48          49          50
 IAtWgt=          12           1           1           1          12           1           1          12           1           1
 AtmWgt=  12.0000000   1.0078250   1.0078250   1.0078250  12.0000000   1.0078250   1.0078250  12.0000000   1.0078250   1.0078250
 NucSpn=           0           1           1           1           0           1           1           0           1           1
 AtZEff=   0.0000000   0.0000000   0.0000000   0.0000000   0.0000000   0.0000000   0.0000000   0.0000000   0.0000000   0.0000000
 NQMom=    0.0000000   0.0000000   0.0000000   0.0000000   0.0000000   0.0000000   0.0000000   0.0000000   0.0000000   0.0000000
 NMagM=    0.0000000   2.7928460   2.7928460   2.7928460   0.0000000   2.7928460   2.7928460   0.0000000   2.7928460   2.7928460
 AtZNuc=   6.0000000   1.0000000   1.0000000   1.0000000   6.0000000   1.0000000   1.0000000   6.0000000   1.0000000   1.0000000

  Atom        51          52          53          54          55          56          57          58          59          60
 IAtWgt=          12           1           1          12           1          12           1           1           1          12
 AtmWgt=  12.0000000   1.0078250   1.0078250  12.0000000   1.0078250  12.0000000   1.0078250   1.0078250   1.0078250  12.0000000
 NucSpn=           0           1           1           0           1           0           1           1           1           0
 AtZEff=   0.0000000   0.0000000   0.0000000   0.0000000   0.0000000   0.0000000   0.0000000   0.0000000   0.0000000   0.0000000
 NQMom=    0.0000000   0.0000000   0.0000000   0.0000000   0.0000000   0.0000000   0.0000000   0.0000000   0.0000000   0.0000000
 NMagM=    0.0000000   2.7928460   2.7928460   0.0000000   2.7928460   0.0000000   2.7928460   2.7928460   2.7928460   0.0000000
 AtZNuc=   6.0000000   1.0000000   1.0000000   6.0000000   1.0000000   6.0000000   1.0000000   1.0000000   1.0000000   6.0000000

  Atom        61          62          63          64          65          66          67          68          69          70
 IAtWgt=           1           1          12           1           1          12           1          12           1           1
 AtmWgt=   1.0078250   1.0078250  12.0000000   1.0078250   1.0078250  12.0000000   1.0078250  12.0000000   1.0078250   1.0078250
 NucSpn=           1           1           0           1           1           0           1           0           1           1
 AtZEff=   0.0000000   0.0000000   0.0000000   0.0000000   0.0000000   0.0000000   0.0000000   0.0000000   0.0000000   0.0000000
 NQMom=    0.0000000   0.0000000   0.0000000   0.0000000   0.0000000   0.0000000   0.0000000   0.0000000   0.0000000   0.0000000
 NMagM=    2.7928460   2.7928460   0.0000000   2.7928460   2.7928460   0.0000000   2.7928460   0.0000000   2.7928460   2.7928460
 AtZNuc=   1.0000000   1.0000000   6.0000000   1.0000000   1.0000000   6.0000000   1.0000000   6.0000000   1.0000000   1.0000000

  Atom        71          72          73          74          75
 IAtWgt=           1          12           1           1           1
 AtmWgt=   1.0078250  12.0000000   1.0078250   1.0078250   1.0078250
 NucSpn=           1           0           1           1           1
 AtZEff=   0.0000000   0.0000000   0.0000000   0.0000000   0.0000000
 NQMom=    0.0000000   0.0000000   0.0000000   0.0000000   0.0000000
 NMagM=    2.7928460   0.0000000   2.7928460   2.7928460   2.7928460
 AtZNuc=   1.0000000   6.0000000   1.0000000   1.0000000   1.0000000
 Leave Link  101 at Wed May 17 12:38:02 2017, MaxMem=    33554432 cpu:         1.0
 (Enter /home/michal/g09/l202.exe)
 Symmetry turned off by external request.
 Stoichiometry    C27H46O2
 Framework group  C1[X(C27H46O2)]
 Deg. of freedom   219
 Full point group                 C1      NOp   1
                          Input orientation:                          
 ---------------------------------------------------------------------
 Center     Atomic      Atomic             Coordinates (Angstroms)
 Number     Number       Type             X           Y           Z
 ---------------------------------------------------------------------
      1          8           0        0.000000    0.000000    0.000000
      2          1           0        0.967632    0.000000    0.000000
      3          8           0        1.636041   -2.666944    6.445803
      4          1           0        2.574151   -2.437631    6.505197
      5          6           0       -1.191886    4.123671    1.549138
      6          6           0       -1.285697    2.625146    1.139438
      7          1           0       -2.257679    2.283574    1.536045
      8          6           0       -0.237946    1.700583    1.784735
      9          1           0        0.768681    1.995710    1.453568
     10          6           0       -0.326490    1.814281    3.332520
     11          1           0       -1.308593    1.393782    3.604913
     12          6           0       -2.376315    4.709518    0.704886
     13          1           0       -3.293578    4.374244    1.211388
     14          6           0       -1.359567    4.177295    3.080170
     15          1           0       -2.375008    3.841165    3.335382
     16          1           0       -1.264866    5.198492    3.463035
     17          6           0        0.731114    0.929519    4.080418
     18          6           0       -1.431086    2.659525   -0.390963
     19          1           0       -1.904590    1.756927   -0.784136
     20          1           0       -0.448920    2.719827   -0.871554
     21          6           0       -0.329159    3.287461    3.801441
     22          1           0        0.666673    3.722024    3.662731
     23          1           0       -0.528900    3.329493    4.877916
     24          6           0       -2.265937    3.942583   -0.653278
     25          1           0       -1.779845    4.572466   -1.407832
     26          1           0       -3.258671    3.703569   -1.048271
     27          6           0       -0.442835    0.235866    1.351407
     28          1           0       -1.521023    0.026663    1.303913
     29          6           0       -2.491235    6.242460    0.513210
     30          1           0       -1.577733    6.576952    0.000000
     31          6           0        0.146229    4.769768    1.123506
     32          1           0        1.011833    4.246098    1.537658
     33          1           0        0.266964    4.781920    0.036270
     34          1           0        0.201471    5.807282    1.469991
     35          6           0        0.767964   -0.472450    3.462252
     36          6           0        0.299960    0.791895    5.574226
     37          1           0       -0.769719    0.542187    5.601135
     38          1           0        0.405332    1.760131    6.074821
     39          6           0        0.211960   -0.753196    2.274577
     40          1           0        0.238771   -1.775247    1.896725
     41          6           0        2.153636    1.546309    4.006147
     42          1           0        2.218762    2.470097    4.589193
     43          1           0        2.909372    0.862343    4.401059
     44          1           0        2.433644    1.773783    2.973012
     45          6           0        1.460646   -1.562710    4.258051
     46          1           0        1.330959   -2.531634    3.766032
     47          1           0        2.544792   -1.367335    4.290920
     48          6           0        1.063760   -0.273971    6.375130
     49          1           0        2.125171    0.000668    6.467096
     50          1           0        0.665963   -0.332063    7.394654
     51          6           0       -3.660760    6.628597   -0.431851
     52          1           0       -3.611315    7.715232   -0.592410
     53          1           0       -3.496870    6.175303   -1.417379
     54          6           0        0.960432   -1.645121    5.707856
     55          1           0       -0.088520   -1.965654    5.704919
     56          6           0       -2.587719    7.031103    1.832943
     57          1           0       -3.376584    6.641520    2.486108
     58          1           0       -2.813866    8.085233    1.632837
     59          1           0       -1.651671    7.002735    2.396511
     60          6           0       -5.079148    6.271701    0.043820
     61          1           0       -5.161171    5.186185    0.177912
     62          1           0       -5.262345    6.720410    1.027600
     63          6           0       -6.152699    6.749471   -0.947979
     64          1           0       -5.943407    6.306394   -1.932494
     65          1           0       -6.050381    7.836616   -1.078611
     66          6           0       -7.623058    6.441511   -0.580418
     67          1           0       -8.231016    6.857286   -1.397629
     68          6           0       -8.069689    7.140707    0.714347
     69          1           0       -7.553075    6.735200    1.591957
     70          1           0       -9.145126    7.007309    0.878440
     71          1           0       -7.868871    8.217903    0.676079
     72          6           0       -7.916856    4.933177   -0.522899
     73          1           0       -7.394165    4.450619    0.311051
     74          1           0       -8.988686    4.749722   -0.385752
     75          1           0       -7.607768    4.430729   -1.447058
 ---------------------------------------------------------------------
 Rotational constants (GHZ):      0.3312087      0.0606341      0.0603459
 Leave Link  202 at Wed May 17 12:38:02 2017, MaxMem=    33554432 cpu:         0.3
 (Enter /home/michal/g09/l301.exe)
 Standard basis: 6-31G(d) (6D, 7F)
 Ernie: Thresh=  0.10000D-02 Tol=  0.10000D-05 Strict=F.
 AO basis set in the form of general basis input (Overlap normalization):
      1 0
 S   6 1.00       0.000000000000
      0.5484671660D+04  0.1831074430D-02
      0.8252349460D+03  0.1395017220D-01
      0.1880469580D+03  0.6844507810D-01
      0.5296450000D+02  0.2327143360D+00
      0.1689757040D+02  0.4701928980D+00
      0.5799635340D+01  0.3585208530D+00
 SP   3 1.00       0.000000000000
      0.1553961625D+02 -0.1107775495D+00  0.7087426823D-01
      0.3599933586D+01 -0.1480262627D+00  0.3397528391D+00
      0.1013761750D+01  0.1130767015D+01  0.7271585773D+00
 SP   1 1.00       0.000000000000
      0.2700058226D+00  0.1000000000D+01  0.1000000000D+01
 D   1 1.00       0.000000000000
      0.8000000000D+00  0.1000000000D+01
 ****
      2 0
 S   3 1.00       0.000000000000
      0.1873113696D+02  0.3349460434D-01
      0.2825394365D+01  0.2347269535D+00
      0.6401216923D+00  0.8137573261D+00
 S   1 1.00       0.000000000000
      0.1612777588D+00  0.1000000000D+01
 ****
      3 0
 S   6 1.00       0.000000000000
      0.5484671660D+04  0.1831074430D-02
      0.8252349460D+03  0.1395017220D-01
      0.1880469580D+03  0.6844507810D-01
      0.5296450000D+02  0.2327143360D+00
      0.1689757040D+02  0.4701928980D+00
      0.5799635340D+01  0.3585208530D+00
 SP   3 1.00       0.000000000000
      0.1553961625D+02 -0.1107775495D+00  0.7087426823D-01
      0.3599933586D+01 -0.1480262627D+00  0.3397528391D+00
      0.1013761750D+01  0.1130767015D+01  0.7271585773D+00
 SP   1 1.00       0.000000000000
      0.2700058226D+00  0.1000000000D+01  0.1000000000D+01
 D   1 1.00       0.000000000000
      0.8000000000D+00  0.1000000000D+01
 ****
      4 0
 S   3 1.00       0.000000000000
      0.1873113696D+02  0.3349460434D-01
      0.2825394365D+01  0.2347269535D+00
      0.6401216923D+00  0.8137573261D+00
 S   1 1.00       0.000000000000
      0.1612777588D+00  0.1000000000D+01
 ****
      5 0
 S   6 1.00       0.000000000000
      0.3047524880D+04  0.1834737132D-02
      0.4573695180D+03  0.1403732281D-01
      0.1039486850D+03  0.6884262226D-01
      0.2921015530D+02  0.2321844432D+00
      0.9286662960D+01  0.4679413484D+00
      0.3163926960D+01  0.3623119853D+00
 SP   3 1.00       0.000000000000
      0.7868272350D+01 -0.1193324198D+00  0.6899906659D-01
      0.1881288540D+01 -0.1608541517D+00  0.3164239610D+00
      0.5442492580D+00  0.1143456438D+01  0.7443082909D+00
 SP   1 1.00       0.000000000000
      0.1687144782D+00  0.1000000000D+01  0.1000000000D+01
 D   1 1.00       0.000000000000
      0.8000000000D+00  0.1000000000D+01
 ****
      6 0
 S   6 1.00       0.000000000000
      0.3047524880D+04  0.1834737132D-02
      0.4573695180D+03  0.1403732281D-01
      0.1039486850D+03  0.6884262226D-01
      0.2921015530D+02  0.2321844432D+00
      0.9286662960D+01  0.4679413484D+00
      0.3163926960D+01  0.3623119853D+00
 SP   3 1.00       0.000000000000
      0.7868272350D+01 -0.1193324198D+00  0.6899906659D-01
      0.1881288540D+01 -0.1608541517D+00  0.3164239610D+00
      0.5442492580D+00  0.1143456438D+01  0.7443082909D+00
 SP   1 1.00       0.000000000000
      0.1687144782D+00  0.1000000000D+01  0.1000000000D+01
 D   1 1.00       0.000000000000
      0.8000000000D+00  0.1000000000D+01
 ****
      7 0
 S   3 1.00       0.000000000000
      0.1873113696D+02  0.3349460434D-01
      0.2825394365D+01  0.2347269535D+00
      0.6401216923D+00  0.8137573261D+00
 S   1 1.00       0.000000000000
      0.1612777588D+00  0.1000000000D+01
 ****
      8 0
 S   6 1.00       0.000000000000
      0.3047524880D+04  0.1834737132D-02
      0.4573695180D+03  0.1403732281D-01
      0.1039486850D+03  0.6884262226D-01
      0.2921015530D+02  0.2321844432D+00
      0.9286662960D+01  0.4679413484D+00
      0.3163926960D+01  0.3623119853D+00
 SP   3 1.00       0.000000000000
      0.7868272350D+01 -0.1193324198D+00  0.6899906659D-01
      0.1881288540D+01 -0.1608541517D+00  0.3164239610D+00
      0.5442492580D+00  0.1143456438D+01  0.7443082909D+00
 SP   1 1.00       0.000000000000
      0.1687144782D+00  0.1000000000D+01  0.1000000000D+01
 D   1 1.00       0.000000000000
      0.8000000000D+00  0.1000000000D+01
 ****
      9 0
 S   3 1.00       0.000000000000
      0.1873113696D+02  0.3349460434D-01
      0.2825394365D+01  0.2347269535D+00
      0.6401216923D+00  0.8137573261D+00
 S   1 1.00       0.000000000000
      0.1612777588D+00  0.1000000000D+01
 ****
     10 0
 S   6 1.00       0.000000000000
      0.3047524880D+04  0.1834737132D-02
      0.4573695180D+03  0.1403732281D-01
      0.1039486850D+03  0.6884262226D-01
      0.2921015530D+02  0.2321844432D+00
      0.9286662960D+01  0.4679413484D+00
      0.3163926960D+01  0.3623119853D+00
 SP   3 1.00       0.000000000000
      0.7868272350D+01 -0.1193324198D+00  0.6899906659D-01
      0.1881288540D+01 -0.1608541517D+00  0.3164239610D+00
      0.5442492580D+00  0.1143456438D+01  0.7443082909D+00
 SP   1 1.00       0.000000000000
      0.1687144782D+00  0.1000000000D+01  0.1000000000D+01
 D   1 1.00       0.000000000000
      0.8000000000D+00  0.1000000000D+01
 ****
     11 0
 S   3 1.00       0.000000000000
      0.1873113696D+02  0.3349460434D-01
      0.2825394365D+01  0.2347269535D+00
      0.6401216923D+00  0.8137573261D+00
 S   1 1.00       0.000000000000
      0.1612777588D+00  0.1000000000D+01
 ****
     12 0
 S   6 1.00       0.000000000000
      0.3047524880D+04  0.1834737132D-02
      0.4573695180D+03  0.1403732281D-01
      0.1039486850D+03  0.6884262226D-01
      0.2921015530D+02  0.2321844432D+00
      0.9286662960D+01  0.4679413484D+00
      0.3163926960D+01  0.3623119853D+00
 SP   3 1.00       0.000000000000
      0.7868272350D+01 -0.1193324198D+00  0.6899906659D-01
      0.1881288540D+01 -0.1608541517D+00  0.3164239610D+00
      0.5442492580D+00  0.1143456438D+01  0.7443082909D+00
 SP   1 1.00       0.000000000000
      0.1687144782D+00  0.1000000000D+01  0.1000000000D+01
 D   1 1.00       0.000000000000
      0.8000000000D+00  0.1000000000D+01
 ****
     13 0
 S   3 1.00       0.000000000000
      0.1873113696D+02  0.3349460434D-01
      0.2825394365D+01  0.2347269535D+00
      0.6401216923D+00  0.8137573261D+00
 S   1 1.00       0.000000000000
      0.1612777588D+00  0.1000000000D+01
 ****
     14 0
 S   6 1.00       0.000000000000
      0.3047524880D+04  0.1834737132D-02
      0.4573695180D+03  0.1403732281D-01
      0.1039486850D+03  0.6884262226D-01
      0.2921015530D+02  0.2321844432D+00
      0.9286662960D+01  0.4679413484D+00
      0.3163926960D+01  0.3623119853D+00
 SP   3 1.00       0.000000000000
      0.7868272350D+01 -0.1193324198D+00  0.6899906659D-01
      0.1881288540D+01 -0.1608541517D+00  0.3164239610D+00
      0.5442492580D+00  0.1143456438D+01  0.7443082909D+00
 SP   1 1.00       0.000000000000
      0.1687144782D+00  0.1000000000D+01  0.1000000000D+01
 D   1 1.00       0.000000000000
      0.8000000000D+00  0.1000000000D+01
 ****
     15 0
 S   3 1.00       0.000000000000
      0.1873113696D+02  0.3349460434D-01
      0.2825394365D+01  0.2347269535D+00
      0.6401216923D+00  0.8137573261D+00
 S   1 1.00       0.000000000000
      0.1612777588D+00  0.1000000000D+01
 ****
     16 0
 S   3 1.00       0.000000000000
      0.1873113696D+02  0.3349460434D-01
      0.2825394365D+01  0.2347269535D+00
      0.6401216923D+00  0.8137573261D+00
 S   1 1.00       0.000000000000
      0.1612777588D+00  0.1000000000D+01
 ****
     17 0
 S   6 1.00       0.000000000000
      0.3047524880D+04  0.1834737132D-02
      0.4573695180D+03  0.1403732281D-01
      0.1039486850D+03  0.6884262226D-01
      0.2921015530D+02  0.2321844432D+00
      0.9286662960D+01  0.4679413484D+00
      0.3163926960D+01  0.3623119853D+00
 SP   3 1.00       0.000000000000
      0.7868272350D+01 -0.1193324198D+00  0.6899906659D-01
      0.1881288540D+01 -0.1608541517D+00  0.3164239610D+00
      0.5442492580D+00  0.1143456438D+01  0.7443082909D+00
 SP   1 1.00       0.000000000000
      0.1687144782D+00  0.1000000000D+01  0.1000000000D+01
 D   1 1.00       0.000000000000
      0.8000000000D+00  0.1000000000D+01
 ****
     18 0
 S   6 1.00       0.000000000000
      0.3047524880D+04  0.1834737132D-02
      0.4573695180D+03  0.1403732281D-01
      0.1039486850D+03  0.6884262226D-01
      0.2921015530D+02  0.2321844432D+00
      0.9286662960D+01  0.4679413484D+00
      0.3163926960D+01  0.3623119853D+00
 SP   3 1.00       0.000000000000
      0.7868272350D+01 -0.1193324198D+00  0.6899906659D-01
      0.1881288540D+01 -0.1608541517D+00  0.3164239610D+00
      0.5442492580D+00  0.1143456438D+01  0.7443082909D+00
 SP   1 1.00       0.000000000000
      0.1687144782D+00  0.1000000000D+01  0.1000000000D+01
 D   1 1.00       0.000000000000
      0.8000000000D+00  0.1000000000D+01
 ****
     19 0
 S   3 1.00       0.000000000000
      0.1873113696D+02  0.3349460434D-01
      0.2825394365D+01  0.2347269535D+00
      0.6401216923D+00  0.8137573261D+00
 S   1 1.00       0.000000000000
      0.1612777588D+00  0.1000000000D+01
 ****
     20 0
 S   3 1.00       0.000000000000
      0.1873113696D+02  0.3349460434D-01
      0.2825394365D+01  0.2347269535D+00
      0.6401216923D+00  0.8137573261D+00
 S   1 1.00       0.000000000000
      0.1612777588D+00  0.1000000000D+01
 ****
     21 0
 S   6 1.00       0.000000000000
      0.3047524880D+04  0.1834737132D-02
      0.4573695180D+03  0.1403732281D-01
      0.1039486850D+03  0.6884262226D-01
      0.2921015530D+02  0.2321844432D+00
      0.9286662960D+01  0.4679413484D+00
      0.3163926960D+01  0.3623119853D+00
 SP   3 1.00       0.000000000000
      0.7868272350D+01 -0.1193324198D+00  0.6899906659D-01
      0.1881288540D+01 -0.1608541517D+00  0.3164239610D+00
      0.5442492580D+00  0.1143456438D+01  0.7443082909D+00
 SP   1 1.00       0.000000000000
      0.1687144782D+00  0.1000000000D+01  0.1000000000D+01
 D   1 1.00       0.000000000000
      0.8000000000D+00  0.1000000000D+01
 ****
     22 0
 S   3 1.00       0.000000000000
      0.1873113696D+02  0.3349460434D-01
      0.2825394365D+01  0.2347269535D+00
      0.6401216923D+00  0.8137573261D+00
 S   1 1.00       0.000000000000
      0.1612777588D+00  0.1000000000D+01
 ****
     23 0
 S   3 1.00       0.000000000000
      0.1873113696D+02  0.3349460434D-01
      0.2825394365D+01  0.2347269535D+00
      0.6401216923D+00  0.8137573261D+00
 S   1 1.00       0.000000000000
      0.1612777588D+00  0.1000000000D+01
 ****
     24 0
 S   6 1.00       0.000000000000
      0.3047524880D+04  0.1834737132D-02
      0.4573695180D+03  0.1403732281D-01
      0.1039486850D+03  0.6884262226D-01
      0.2921015530D+02  0.2321844432D+00
      0.9286662960D+01  0.4679413484D+00
      0.3163926960D+01  0.3623119853D+00
 SP   3 1.00       0.000000000000
      0.7868272350D+01 -0.1193324198D+00  0.6899906659D-01
      0.1881288540D+01 -0.1608541517D+00  0.3164239610D+00
      0.5442492580D+00  0.1143456438D+01  0.7443082909D+00
 SP   1 1.00       0.000000000000
      0.1687144782D+00  0.1000000000D+01  0.1000000000D+01
 D   1 1.00       0.000000000000
      0.8000000000D+00  0.1000000000D+01
 ****
     25 0
 S   3 1.00       0.000000000000
      0.1873113696D+02  0.3349460434D-01
      0.2825394365D+01  0.2347269535D+00
      0.6401216923D+00  0.8137573261D+00
 S   1 1.00       0.000000000000
      0.1612777588D+00  0.1000000000D+01
 ****
     26 0
 S   3 1.00       0.000000000000
      0.1873113696D+02  0.3349460434D-01
      0.2825394365D+01  0.2347269535D+00
      0.6401216923D+00  0.8137573261D+00
 S   1 1.00       0.000000000000
      0.1612777588D+00  0.1000000000D+01
 ****
     27 0
 S   6 1.00       0.000000000000
      0.3047524880D+04  0.1834737132D-02
      0.4573695180D+03  0.1403732281D-01
      0.1039486850D+03  0.6884262226D-01
      0.2921015530D+02  0.2321844432D+00
      0.9286662960D+01  0.4679413484D+00
      0.3163926960D+01  0.3623119853D+00
 SP   3 1.00       0.000000000000
      0.7868272350D+01 -0.1193324198D+00  0.6899906659D-01
      0.1881288540D+01 -0.1608541517D+00  0.3164239610D+00
      0.5442492580D+00  0.1143456438D+01  0.7443082909D+00
 SP   1 1.00       0.000000000000
      0.1687144782D+00  0.1000000000D+01  0.1000000000D+01
 D   1 1.00       0.000000000000
      0.8000000000D+00  0.1000000000D+01
 ****
     28 0
 S   3 1.00       0.000000000000
      0.1873113696D+02  0.3349460434D-01
      0.2825394365D+01  0.2347269535D+00
      0.6401216923D+00  0.8137573261D+00
 S   1 1.00       0.000000000000
      0.1612777588D+00  0.1000000000D+01
 ****
     29 0
 S   6 1.00       0.000000000000
      0.3047524880D+04  0.1834737132D-02
      0.4573695180D+03  0.1403732281D-01
      0.1039486850D+03  0.6884262226D-01
      0.2921015530D+02  0.2321844432D+00
      0.9286662960D+01  0.4679413484D+00
      0.3163926960D+01  0.3623119853D+00
 SP   3 1.00       0.000000000000
      0.7868272350D+01 -0.1193324198D+00  0.6899906659D-01
      0.1881288540D+01 -0.1608541517D+00  0.3164239610D+00
      0.5442492580D+00  0.1143456438D+01  0.7443082909D+00
 SP   1 1.00       0.000000000000
      0.1687144782D+00  0.1000000000D+01  0.1000000000D+01
 D   1 1.00       0.000000000000
      0.8000000000D+00  0.1000000000D+01
 ****
     30 0
 S   3 1.00       0.000000000000
      0.1873113696D+02  0.3349460434D-01
      0.2825394365D+01  0.2347269535D+00
      0.6401216923D+00  0.8137573261D+00
 S   1 1.00       0.000000000000
      0.1612777588D+00  0.1000000000D+01
 ****
     31 0
 S   6 1.00       0.000000000000
      0.3047524880D+04  0.1834737132D-02
      0.4573695180D+03  0.1403732281D-01
      0.1039486850D+03  0.6884262226D-01
      0.2921015530D+02  0.2321844432D+00
      0.9286662960D+01  0.4679413484D+00
      0.3163926960D+01  0.3623119853D+00
 SP   3 1.00       0.000000000000
      0.7868272350D+01 -0.1193324198D+00  0.6899906659D-01
      0.1881288540D+01 -0.1608541517D+00  0.3164239610D+00
      0.5442492580D+00  0.1143456438D+01  0.7443082909D+00
 SP   1 1.00       0.000000000000
      0.1687144782D+00  0.1000000000D+01  0.1000000000D+01
 D   1 1.00       0.000000000000
      0.8000000000D+00  0.1000000000D+01
 ****
     32 0
 S   3 1.00       0.000000000000
      0.1873113696D+02  0.3349460434D-01
      0.2825394365D+01  0.2347269535D+00
      0.6401216923D+00  0.8137573261D+00
 S   1 1.00       0.000000000000
      0.1612777588D+00  0.1000000000D+01
 ****
     33 0
 S   3 1.00       0.000000000000
      0.1873113696D+02  0.3349460434D-01
      0.2825394365D+01  0.2347269535D+00
      0.6401216923D+00  0.8137573261D+00
 S   1 1.00       0.000000000000
      0.1612777588D+00  0.1000000000D+01
 ****
     34 0
 S   3 1.00       0.000000000000
      0.1873113696D+02  0.3349460434D-01
      0.2825394365D+01  0.2347269535D+00
      0.6401216923D+00  0.8137573261D+00
 S   1 1.00       0.000000000000
      0.1612777588D+00  0.1000000000D+01
 ****
     35 0
 S   6 1.00       0.000000000000
      0.3047524880D+04  0.1834737132D-02
      0.4573695180D+03  0.1403732281D-01
      0.1039486850D+03  0.6884262226D-01
      0.2921015530D+02  0.2321844432D+00
      0.9286662960D+01  0.4679413484D+00
      0.3163926960D+01  0.3623119853D+00
 SP   3 1.00       0.000000000000
      0.7868272350D+01 -0.1193324198D+00  0.6899906659D-01
      0.1881288540D+01 -0.1608541517D+00  0.3164239610D+00
      0.5442492580D+00  0.1143456438D+01  0.7443082909D+00
 SP   1 1.00       0.000000000000
      0.1687144782D+00  0.1000000000D+01  0.1000000000D+01
 D   1 1.00       0.000000000000
      0.8000000000D+00  0.1000000000D+01
 ****
     36 0
 S   6 1.00       0.000000000000
      0.3047524880D+04  0.1834737132D-02
      0.4573695180D+03  0.1403732281D-01
      0.1039486850D+03  0.6884262226D-01
      0.2921015530D+02  0.2321844432D+00
      0.9286662960D+01  0.4679413484D+00
      0.3163926960D+01  0.3623119853D+00
 SP   3 1.00       0.000000000000
      0.7868272350D+01 -0.1193324198D+00  0.6899906659D-01
      0.1881288540D+01 -0.1608541517D+00  0.3164239610D+00
      0.5442492580D+00  0.1143456438D+01  0.7443082909D+00
 SP   1 1.00       0.000000000000
      0.1687144782D+00  0.1000000000D+01  0.1000000000D+01
 D   1 1.00       0.000000000000
      0.8000000000D+00  0.1000000000D+01
 ****
     37 0
 S   3 1.00       0.000000000000
      0.1873113696D+02  0.3349460434D-01
      0.2825394365D+01  0.2347269535D+00
      0.6401216923D+00  0.8137573261D+00
 S   1 1.00       0.000000000000
      0.1612777588D+00  0.1000000000D+01
 ****
     38 0
 S   3 1.00       0.000000000000
      0.1873113696D+02  0.3349460434D-01
      0.2825394365D+01  0.2347269535D+00
      0.6401216923D+00  0.8137573261D+00
 S   1 1.00       0.000000000000
      0.1612777588D+00  0.1000000000D+01
 ****
     39 0
 S   6 1.00       0.000000000000
      0.3047524880D+04  0.1834737132D-02
      0.4573695180D+03  0.1403732281D-01
      0.1039486850D+03  0.6884262226D-01
      0.2921015530D+02  0.2321844432D+00
      0.9286662960D+01  0.4679413484D+00
      0.3163926960D+01  0.3623119853D+00
 SP   3 1.00       0.000000000000
      0.7868272350D+01 -0.1193324198D+00  0.6899906659D-01
      0.1881288540D+01 -0.1608541517D+00  0.3164239610D+00
      0.5442492580D+00  0.1143456438D+01  0.7443082909D+00
 SP   1 1.00       0.000000000000
      0.1687144782D+00  0.1000000000D+01  0.1000000000D+01
 D   1 1.00       0.000000000000
      0.8000000000D+00  0.1000000000D+01
 ****
     40 0
 S   3 1.00       0.000000000000
      0.1873113696D+02  0.3349460434D-01
      0.2825394365D+01  0.2347269535D+00
      0.6401216923D+00  0.8137573261D+00
 S   1 1.00       0.000000000000
      0.1612777588D+00  0.1000000000D+01
 ****
     41 0
 S   6 1.00       0.000000000000
      0.3047524880D+04  0.1834737132D-02
      0.4573695180D+03  0.1403732281D-01
      0.1039486850D+03  0.6884262226D-01
      0.2921015530D+02  0.2321844432D+00
      0.9286662960D+01  0.4679413484D+00
      0.3163926960D+01  0.3623119853D+00
 SP   3 1.00       0.000000000000
      0.7868272350D+01 -0.1193324198D+00  0.6899906659D-01
      0.1881288540D+01 -0.1608541517D+00  0.3164239610D+00
      0.5442492580D+00  0.1143456438D+01  0.7443082909D+00
 SP   1 1.00       0.000000000000
      0.1687144782D+00  0.1000000000D+01  0.1000000000D+01
 D   1 1.00       0.000000000000
      0.8000000000D+00  0.1000000000D+01
 ****
     42 0
 S   3 1.00       0.000000000000
      0.1873113696D+02  0.3349460434D-01
      0.2825394365D+01  0.2347269535D+00
      0.6401216923D+00  0.8137573261D+00
 S   1 1.00       0.000000000000
      0.1612777588D+00  0.1000000000D+01
 ****
     43 0
 S   3 1.00       0.000000000000
      0.1873113696D+02  0.3349460434D-01
      0.2825394365D+01  0.2347269535D+00
      0.6401216923D+00  0.8137573261D+00
 S   1 1.00       0.000000000000
      0.1612777588D+00  0.1000000000D+01
 ****
     44 0
 S   3 1.00       0.000000000000
      0.1873113696D+02  0.3349460434D-01
      0.2825394365D+01  0.2347269535D+00
      0.6401216923D+00  0.8137573261D+00
 S   1 1.00       0.000000000000
      0.1612777588D+00  0.1000000000D+01
 ****
     45 0
 S   6 1.00       0.000000000000
      0.3047524880D+04  0.1834737132D-02
      0.4573695180D+03  0.1403732281D-01
      0.1039486850D+03  0.6884262226D-01
      0.2921015530D+02  0.2321844432D+00
      0.9286662960D+01  0.4679413484D+00
      0.3163926960D+01  0.3623119853D+00
 SP   3 1.00       0.000000000000
      0.7868272350D+01 -0.1193324198D+00  0.6899906659D-01
      0.1881288540D+01 -0.1608541517D+00  0.3164239610D+00
      0.5442492580D+00  0.1143456438D+01  0.7443082909D+00
 SP   1 1.00       0.000000000000
      0.1687144782D+00  0.1000000000D+01  0.1000000000D+01
 D   1 1.00       0.000000000000
      0.8000000000D+00  0.1000000000D+01
 ****
     46 0
 S   3 1.00       0.000000000000
      0.1873113696D+02  0.3349460434D-01
      0.2825394365D+01  0.2347269535D+00
      0.6401216923D+00  0.8137573261D+00
 S   1 1.00       0.000000000000
      0.1612777588D+00  0.1000000000D+01
 ****
     47 0
 S   3 1.00       0.000000000000
      0.1873113696D+02  0.3349460434D-01
      0.2825394365D+01  0.2347269535D+00
      0.6401216923D+00  0.8137573261D+00
 S   1 1.00       0.000000000000
      0.1612777588D+00  0.1000000000D+01
 ****
     48 0
 S   6 1.00       0.000000000000
      0.3047524880D+04  0.1834737132D-02
      0.4573695180D+03  0.1403732281D-01
      0.1039486850D+03  0.6884262226D-01
      0.2921015530D+02  0.2321844432D+00
      0.9286662960D+01  0.4679413484D+00
      0.3163926960D+01  0.3623119853D+00
 SP   3 1.00       0.000000000000
      0.7868272350D+01 -0.1193324198D+00  0.6899906659D-01
      0.1881288540D+01 -0.1608541517D+00  0.3164239610D+00
      0.5442492580D+00  0.1143456438D+01  0.7443082909D+00
 SP   1 1.00       0.000000000000
      0.1687144782D+00  0.1000000000D+01  0.1000000000D+01
 D   1 1.00       0.000000000000
      0.8000000000D+00  0.1000000000D+01
 ****
     49 0
 S   3 1.00       0.000000000000
      0.1873113696D+02  0.3349460434D-01
      0.2825394365D+01  0.2347269535D+00
      0.6401216923D+00  0.8137573261D+00
 S   1 1.00       0.000000000000
      0.1612777588D+00  0.1000000000D+01
 ****
     50 0
 S   3 1.00       0.000000000000
      0.1873113696D+02  0.3349460434D-01
      0.2825394365D+01  0.2347269535D+00
      0.6401216923D+00  0.8137573261D+00
 S   1 1.00       0.000000000000
      0.1612777588D+00  0.1000000000D+01
 ****
     51 0
 S   6 1.00       0.000000000000
      0.3047524880D+04  0.1834737132D-02
      0.4573695180D+03  0.1403732281D-01
      0.1039486850D+03  0.6884262226D-01
      0.2921015530D+02  0.2321844432D+00
      0.9286662960D+01  0.4679413484D+00
      0.3163926960D+01  0.3623119853D+00
 SP   3 1.00       0.000000000000
      0.7868272350D+01 -0.1193324198D+00  0.6899906659D-01
      0.1881288540D+01 -0.1608541517D+00  0.3164239610D+00
      0.5442492580D+00  0.1143456438D+01  0.7443082909D+00
 SP   1 1.00       0.000000000000
      0.1687144782D+00  0.1000000000D+01  0.1000000000D+01
 D   1 1.00       0.000000000000
      0.8000000000D+00  0.1000000000D+01
 ****
     52 0
 S   3 1.00       0.000000000000
      0.1873113696D+02  0.3349460434D-01
      0.2825394365D+01  0.2347269535D+00
      0.6401216923D+00  0.8137573261D+00
 S   1 1.00       0.000000000000
      0.1612777588D+00  0.1000000000D+01
 ****
     53 0
 S   3 1.00       0.000000000000
      0.1873113696D+02  0.3349460434D-01
      0.2825394365D+01  0.2347269535D+00
      0.6401216923D+00  0.8137573261D+00
 S   1 1.00       0.000000000000
      0.1612777588D+00  0.1000000000D+01
 ****
     54 0
 S   6 1.00       0.000000000000
      0.3047524880D+04  0.1834737132D-02
      0.4573695180D+03  0.1403732281D-01
      0.1039486850D+03  0.6884262226D-01
      0.2921015530D+02  0.2321844432D+00
      0.9286662960D+01  0.4679413484D+00
      0.3163926960D+01  0.3623119853D+00
 SP   3 1.00       0.000000000000
      0.7868272350D+01 -0.1193324198D+00  0.6899906659D-01
      0.1881288540D+01 -0.1608541517D+00  0.3164239610D+00
      0.5442492580D+00  0.1143456438D+01  0.7443082909D+00
 SP   1 1.00       0.000000000000
      0.1687144782D+00  0.1000000000D+01  0.1000000000D+01
 D   1 1.00       0.000000000000
      0.8000000000D+00  0.1000000000D+01
 ****
     55 0
 S   3 1.00       0.000000000000
      0.1873113696D+02  0.3349460434D-01
      0.2825394365D+01  0.2347269535D+00
      0.6401216923D+00  0.8137573261D+00
 S   1 1.00       0.000000000000
      0.1612777588D+00  0.1000000000D+01
 ****
     56 0
 S   6 1.00       0.000000000000
      0.3047524880D+04  0.1834737132D-02
      0.4573695180D+03  0.1403732281D-01
      0.1039486850D+03  0.6884262226D-01
      0.2921015530D+02  0.2321844432D+00
      0.9286662960D+01  0.4679413484D+00
      0.3163926960D+01  0.3623119853D+00
 SP   3 1.00       0.000000000000
      0.7868272350D+01 -0.1193324198D+00  0.6899906659D-01
      0.1881288540D+01 -0.1608541517D+00  0.3164239610D+00
      0.5442492580D+00  0.1143456438D+01  0.7443082909D+00
 SP   1 1.00       0.000000000000
      0.1687144782D+00  0.1000000000D+01  0.1000000000D+01
 D   1 1.00       0.000000000000
      0.8000000000D+00  0.1000000000D+01
 ****
     57 0
 S   3 1.00       0.000000000000
      0.1873113696D+02  0.3349460434D-01
      0.2825394365D+01  0.2347269535D+00
      0.6401216923D+00  0.8137573261D+00
 S   1 1.00       0.000000000000
      0.1612777588D+00  0.1000000000D+01
 ****
     58 0
 S   3 1.00       0.000000000000
      0.1873113696D+02  0.3349460434D-01
      0.2825394365D+01  0.2347269535D+00
      0.6401216923D+00  0.8137573261D+00
 S   1 1.00       0.000000000000
      0.1612777588D+00  0.1000000000D+01
 ****
     59 0
 S   3 1.00       0.000000000000
      0.1873113696D+02  0.3349460434D-01
      0.2825394365D+01  0.2347269535D+00
      0.6401216923D+00  0.8137573261D+00
 S   1 1.00       0.000000000000
      0.1612777588D+00  0.1000000000D+01
 ****
     60 0
 S   6 1.00       0.000000000000
      0.3047524880D+04  0.1834737132D-02
      0.4573695180D+03  0.1403732281D-01
      0.1039486850D+03  0.6884262226D-01
      0.2921015530D+02  0.2321844432D+00
      0.9286662960D+01  0.4679413484D+00
      0.3163926960D+01  0.3623119853D+00
 SP   3 1.00       0.000000000000
      0.7868272350D+01 -0.1193324198D+00  0.6899906659D-01
      0.1881288540D+01 -0.1608541517D+00  0.3164239610D+00
      0.5442492580D+00  0.1143456438D+01  0.7443082909D+00
 SP   1 1.00       0.000000000000
      0.1687144782D+00  0.1000000000D+01  0.1000000000D+01
 D   1 1.00       0.000000000000
      0.8000000000D+00  0.1000000000D+01
 ****
     61 0
 S   3 1.00       0.000000000000
      0.1873113696D+02  0.3349460434D-01
      0.2825394365D+01  0.2347269535D+00
      0.6401216923D+00  0.8137573261D+00
 S   1 1.00       0.000000000000
      0.1612777588D+00  0.1000000000D+01
 ****
     62 0
 S   3 1.00       0.000000000000
      0.1873113696D+02  0.3349460434D-01
      0.2825394365D+01  0.2347269535D+00
      0.6401216923D+00  0.8137573261D+00
 S   1 1.00       0.000000000000
      0.1612777588D+00  0.1000000000D+01
 ****
     63 0
 S   6 1.00       0.000000000000
      0.3047524880D+04  0.1834737132D-02
      0.4573695180D+03  0.1403732281D-01
      0.1039486850D+03  0.6884262226D-01
      0.2921015530D+02  0.2321844432D+00
      0.9286662960D+01  0.4679413484D+00
      0.3163926960D+01  0.3623119853D+00
 SP   3 1.00       0.000000000000
      0.7868272350D+01 -0.1193324198D+00  0.6899906659D-01
      0.1881288540D+01 -0.1608541517D+00  0.3164239610D+00
      0.5442492580D+00  0.1143456438D+01  0.7443082909D+00
 SP   1 1.00       0.000000000000
      0.1687144782D+00  0.1000000000D+01  0.1000000000D+01
 D   1 1.00       0.000000000000
      0.8000000000D+00  0.1000000000D+01
 ****
     64 0
 S   3 1.00       0.000000000000
      0.1873113696D+02  0.3349460434D-01
      0.2825394365D+01  0.2347269535D+00
      0.6401216923D+00  0.8137573261D+00
 S   1 1.00       0.000000000000
      0.1612777588D+00  0.1000000000D+01
 ****
     65 0
 S   3 1.00       0.000000000000
      0.1873113696D+02  0.3349460434D-01
      0.2825394365D+01  0.2347269535D+00
      0.6401216923D+00  0.8137573261D+00
 S   1 1.00       0.000000000000
      0.1612777588D+00  0.1000000000D+01
 ****
     66 0
 S   6 1.00       0.000000000000
      0.3047524880D+04  0.1834737132D-02
      0.4573695180D+03  0.1403732281D-01
      0.1039486850D+03  0.6884262226D-01
      0.2921015530D+02  0.2321844432D+00
      0.9286662960D+01  0.4679413484D+00
      0.3163926960D+01  0.3623119853D+00
 SP   3 1.00       0.000000000000
      0.7868272350D+01 -0.1193324198D+00  0.6899906659D-01
      0.1881288540D+01 -0.1608541517D+00  0.3164239610D+00
      0.5442492580D+00  0.1143456438D+01  0.7443082909D+00
 SP   1 1.00       0.000000000000
      0.1687144782D+00  0.1000000000D+01  0.1000000000D+01
 D   1 1.00       0.000000000000
      0.8000000000D+00  0.1000000000D+01
 ****
     67 0
 S   3 1.00       0.000000000000
      0.1873113696D+02  0.3349460434D-01
      0.2825394365D+01  0.2347269535D+00
      0.6401216923D+00  0.8137573261D+00
 S   1 1.00       0.000000000000
      0.1612777588D+00  0.1000000000D+01
 ****
     68 0
 S   6 1.00       0.000000000000
      0.3047524880D+04  0.1834737132D-02
      0.4573695180D+03  0.1403732281D-01
      0.1039486850D+03  0.6884262226D-01
      0.2921015530D+02  0.2321844432D+00
      0.9286662960D+01  0.4679413484D+00
      0.3163926960D+01  0.3623119853D+00
 SP   3 1.00       0.000000000000
      0.7868272350D+01 -0.1193324198D+00  0.6899906659D-01
      0.1881288540D+01 -0.1608541517D+00  0.3164239610D+00
      0.5442492580D+00  0.1143456438D+01  0.7443082909D+00
 SP   1 1.00       0.000000000000
      0.1687144782D+00  0.1000000000D+01  0.1000000000D+01
 D   1 1.00       0.000000000000
      0.8000000000D+00  0.1000000000D+01
 ****
     69 0
 S   3 1.00       0.000000000000
      0.1873113696D+02  0.3349460434D-01
      0.2825394365D+01  0.2347269535D+00
      0.6401216923D+00  0.8137573261D+00
 S   1 1.00       0.000000000000
      0.1612777588D+00  0.1000000000D+01
 ****
     70 0
 S   3 1.00       0.000000000000
      0.1873113696D+02  0.3349460434D-01
      0.2825394365D+01  0.2347269535D+00
      0.6401216923D+00  0.8137573261D+00
 S   1 1.00       0.000000000000
      0.1612777588D+00  0.1000000000D+01
 ****
     71 0
 S   3 1.00       0.000000000000
      0.1873113696D+02  0.3349460434D-01
      0.2825394365D+01  0.2347269535D+00
      0.6401216923D+00  0.8137573261D+00
 S   1 1.00       0.000000000000
      0.1612777588D+00  0.1000000000D+01
 ****
     72 0
 S   6 1.00       0.000000000000
      0.3047524880D+04  0.1834737132D-02
      0.4573695180D+03  0.1403732281D-01
      0.1039486850D+03  0.6884262226D-01
      0.2921015530D+02  0.2321844432D+00
      0.9286662960D+01  0.4679413484D+00
      0.3163926960D+01  0.3623119853D+00
 SP   3 1.00       0.000000000000
      0.7868272350D+01 -0.1193324198D+00  0.6899906659D-01
      0.1881288540D+01 -0.1608541517D+00  0.3164239610D+00
      0.5442492580D+00  0.1143456438D+01  0.7443082909D+00
 SP   1 1.00       0.000000000000
      0.1687144782D+00  0.1000000000D+01  0.1000000000D+01
 D   1 1.00       0.000000000000
      0.8000000000D+00  0.1000000000D+01
 ****
     73 0
 S   3 1.00       0.000000000000
      0.1873113696D+02  0.3349460434D-01
      0.2825394365D+01  0.2347269535D+00
      0.6401216923D+00  0.8137573261D+00
 S   1 1.00       0.000000000000
      0.1612777588D+00  0.1000000000D+01
 ****
     74 0
 S   3 1.00       0.000000000000
      0.1873113696D+02  0.3349460434D-01
      0.2825394365D+01  0.2347269535D+00
      0.6401216923D+00  0.8137573261D+00
 S   1 1.00       0.000000000000
      0.1612777588D+00  0.1000000000D+01
 ****
     75 0
 S   3 1.00       0.000000000000
      0.1873113696D+02  0.3349460434D-01
      0.2825394365D+01  0.2347269535D+00
      0.6401216923D+00  0.8137573261D+00
 S   1 1.00       0.000000000000
      0.1612777588D+00  0.1000000000D+01
 ****

 AO basis set (Overlap normalization):
 Atom O1       Shell     1 S   6     bf    1 -     1          0.000000000000          0.000000000000          0.000000000000
      0.5484671660D+04  0.1831074430D-02
      0.8252349460D+03  0.1395017220D-01
      0.1880469580D+03  0.6844507810D-01
      0.5296450000D+02  0.2327143360D+00
      0.1689757040D+02  0.4701928980D+00
      0.5799635340D+01  0.3585208530D+00
 Atom O1       Shell     2 SP   3    bf    2 -     5          0.000000000000          0.000000000000          0.000000000000
      0.1553961625D+02 -0.1107775495D+00  0.7087426823D-01
      0.3599933586D+01 -0.1480262627D+00  0.3397528391D+00
      0.1013761750D+01  0.1130767015D+01  0.7271585773D+00
 Atom O1       Shell     3 SP   1    bf    6 -     9          0.000000000000          0.000000000000          0.000000000000
      0.2700058226D+00  0.1000000000D+01  0.1000000000D+01
 Atom O1       Shell     4 D   1     bf   10 -    15          0.000000000000          0.000000000000          0.000000000000
      0.8000000000D+00  0.1000000000D+01
 Atom H2       Shell     5 S   3     bf   16 -    16          1.828560271101          0.000000000000          0.000000000000
      0.1873113696D+02  0.3349460434D-01
      0.2825394365D+01  0.2347269535D+00
      0.6401216923D+00  0.8137573261D+00
 Atom H2       Shell     6 S   1     bf   17 -    17          1.828560271101          0.000000000000          0.000000000000
      0.1612777588D+00  0.1000000000D+01
 Atom O3       Shell     7 S   6     bf   18 -    18          3.091670244755         -5.039794206380         12.180803264704
      0.5484671660D+04  0.1831074430D-02
      0.8252349460D+03  0.1395017220D-01
      0.1880469580D+03  0.6844507810D-01
      0.5296450000D+02  0.2327143360D+00
      0.1689757040D+02  0.4701928980D+00
      0.5799635340D+01  0.3585208530D+00
 Atom O3       Shell     8 SP   3    bf   19 -    22          3.091670244755         -5.039794206380         12.180803264704
      0.1553961625D+02 -0.1107775495D+00  0.7087426823D-01
      0.3599933586D+01 -0.1480262627D+00  0.3397528391D+00
      0.1013761750D+01  0.1130767015D+01  0.7271585773D+00
 Atom O3       Shell     9 SP   1    bf   23 -    26          3.091670244755         -5.039794206380         12.180803264704
      0.2700058226D+00  0.1000000000D+01  0.1000000000D+01
 Atom O3       Shell    10 D   1     bf   27 -    32          3.091670244755         -5.039794206380         12.180803264704
      0.8000000000D+00  0.1000000000D+01
 Atom H4       Shell    11 S   3     bf   33 -    33          4.864440150132         -4.606455040827         12.293041658641
      0.1873113696D+02  0.3349460434D-01
      0.2825394365D+01  0.2347269535D+00
      0.6401216923D+00  0.8137573261D+00
 Atom H4       Shell    12 S   1     bf   34 -    34          4.864440150132         -4.606455040827         12.293041658641
      0.1612777588D+00  0.1000000000D+01
 Atom C5       Shell    13 S   6     bf   35 -    35         -2.252338008237          7.792609551321          2.927447034478
      0.3047524880D+04  0.1834737132D-02
      0.4573695180D+03  0.1403732281D-01
      0.1039486850D+03  0.6884262226D-01
      0.2921015530D+02  0.2321844432D+00
      0.9286662960D+01  0.4679413484D+00
      0.3163926960D+01  0.3623119853D+00
 Atom C5       Shell    14 SP   3    bf   36 -    39         -2.252338008237          7.792609551321          2.927447034478
      0.7868272350D+01 -0.1193324198D+00  0.6899906659D-01
      0.1881288540D+01 -0.1608541517D+00  0.3164239610D+00
      0.5442492580D+00  0.1143456438D+01  0.7443082909D+00
 Atom C5       Shell    15 SP   1    bf   40 -    43         -2.252338008237          7.792609551321          2.927447034478
      0.1687144782D+00  0.1000000000D+01  0.1000000000D+01
 Atom C5       Shell    16 D   1     bf   44 -    49         -2.252338008237          7.792609551321          2.927447034478
      0.8000000000D+00  0.1000000000D+01
 Atom C6       Shell    17 S   6     bf   50 -    50         -2.429615465537          4.960807414580          2.153225292971
      0.3047524880D+04  0.1834737132D-02
      0.4573695180D+03  0.1403732281D-01
      0.1039486850D+03  0.6884262226D-01
      0.2921015530D+02  0.2321844432D+00
      0.9286662960D+01  0.4679413484D+00
      0.3163926960D+01  0.3623119853D+00
 Atom C6       Shell    18 SP   3    bf   51 -    54         -2.429615465537          4.960807414580          2.153225292971
      0.7868272350D+01 -0.1193324198D+00  0.6899906659D-01
      0.1881288540D+01 -0.1608541517D+00  0.3164239610D+00
      0.5442492580D+00  0.1143456438D+01  0.7443082909D+00
 Atom C6       Shell    19 SP   1    bf   55 -    58         -2.429615465537          4.960807414580          2.153225292971
      0.1687144782D+00  0.1000000000D+01  0.1000000000D+01
 Atom C6       Shell    20 D   1     bf   59 -    64         -2.429615465537          4.960807414580          2.153225292971
      0.8000000000D+00  0.1000000000D+01
 Atom H7       Shell    21 S   3     bf   65 -    65         -4.266394136693          4.315330352349          2.902703432925
      0.1873113696D+02  0.3349460434D-01
      0.2825394365D+01  0.2347269535D+00
      0.6401216923D+00  0.8137573261D+00
 Atom H7       Shell    22 S   1     bf   66 -    66         -4.266394136693          4.315330352349          2.902703432925
      0.1612777588D+00  0.1000000000D+01
 Atom C8       Shell    23 S   6     bf   67 -    67         -0.449652150806          3.213636570878          3.372659746166
      0.3047524880D+04  0.1834737132D-02
      0.4573695180D+03  0.1403732281D-01
      0.1039486850D+03  0.6884262226D-01
      0.2921015530D+02  0.2321844432D+00
      0.9286662960D+01  0.4679413484D+00
      0.3163926960D+01  0.3623119853D+00
 Atom C8       Shell    24 SP   3    bf   68 -    71         -0.449652150806          3.213636570878          3.372659746166
      0.7868272350D+01 -0.1193324198D+00  0.6899906659D-01
      0.1881288540D+01 -0.1608541517D+00  0.3164239610D+00
      0.5442492580D+00  0.1143456438D+01  0.7443082909D+00
 Atom C8       Shell    25 SP   1    bf   72 -    75         -0.449652150806          3.213636570878          3.372659746166
      0.1687144782D+00  0.1000000000D+01  0.1000000000D+01
 Atom C8       Shell    26 D   1     bf   76 -    81         -0.449652150806          3.213636570878          3.372659746166
      0.8000000000D+00  0.1000000000D+01
 Atom H9       Shell    27 S   3     bf   82 -    82          1.452597499518          3.771345435148          2.746846248109
      0.1873113696D+02  0.3349460434D-01
      0.2825394365D+01  0.2347269535D+00
      0.6401216923D+00  0.8137573261D+00
 Atom H9       Shell    28 S   1     bf   83 -    83          1.452597499518          3.771345435148          2.746846248109
      0.1612777588D+00  0.1000000000D+01
 Atom C10      Shell    29 S   6     bf   84 -    84         -0.616975778057          3.428495030680          6.297549527652
      0.3047524880D+04  0.1834737132D-02
      0.4573695180D+03  0.1403732281D-01
      0.1039486850D+03  0.6884262226D-01
      0.2921015530D+02  0.2321844432D+00
      0.9286662960D+01  0.4679413484D+00
      0.3163926960D+01  0.3623119853D+00
 Atom C10      Shell    30 SP   3    bf   85 -    88         -0.616975778057          3.428495030680          6.297549527652
      0.7868272350D+01 -0.1193324198D+00  0.6899906659D-01
      0.1881288540D+01 -0.1608541517D+00  0.3164239610D+00
      0.5442492580D+00  0.1143456438D+01  0.7443082909D+00
 Atom C10      Shell    31 SP   1    bf   89 -    92         -0.616975778057          3.428495030680          6.297549527652
      0.1687144782D+00  0.1000000000D+01  0.1000000000D+01
 Atom C10      Shell    32 D   1     bf   93 -    98         -0.616975778057          3.428495030680          6.297549527652
      0.8000000000D+00  0.1000000000D+01
 Atom H11      Shell    33 S   3     bf   99 -    99         -2.472881557932          2.633865909898          6.812297584783
      0.1873113696D+02  0.3349460434D-01
      0.2825394365D+01  0.2347269535D+00
      0.6401216923D+00  0.8137573261D+00
 Atom H11      Shell    34 S   1     bf  100 -   100         -2.472881557932          2.633865909898          6.812297584783
      0.1612777588D+00  0.1000000000D+01
 Atom C12      Shell    35 S   6     bf  101 -   101         -4.490584517674          8.899699748121          1.332042005131
      0.3047524880D+04  0.1834737132D-02
      0.4573695180D+03  0.1403732281D-01
      0.1039486850D+03  0.6884262226D-01
      0.2921015530D+02  0.2321844432D+00
      0.9286662960D+01  0.4679413484D+00
      0.3163926960D+01  0.3623119853D+00
 Atom C12      Shell    36 SP   3    bf  102 -   105         -4.490584517674          8.899699748121          1.332042005131
      0.7868272350D+01 -0.1193324198D+00  0.6899906659D-01
      0.1881288540D+01 -0.1608541517D+00  0.3164239610D+00
      0.5442492580D+00  0.1143456438D+01  0.7443082909D+00
 Atom C12      Shell    37 SP   1    bf  106 -   109         -4.490584517674          8.899699748121          1.332042005131
      0.1687144782D+00  0.1000000000D+01  0.1000000000D+01
 Atom C12      Shell    38 D   1     bf  110 -   115         -4.490584517674          8.899699748121          1.332042005131
      0.8000000000D+00  0.1000000000D+01
 Atom H13      Shell    39 S   3     bf  116 -   116         -6.223960228325          8.266123028343          2.289191107130
      0.1873113696D+02  0.3349460434D-01
      0.2825394365D+01  0.2347269535D+00
      0.6401216923D+00  0.8137573261D+00
 Atom H13      Shell    40 S   1     bf  117 -   117         -6.223960228325          8.266123028343          2.289191107130
      0.1612777588D+00  0.1000000000D+01
 Atom C14      Shell    41 S   6     bf  118 -   118         -2.569209440487          7.893942600307          5.820678593107
      0.3047524880D+04  0.1834737132D-02
      0.4573695180D+03  0.1403732281D-01
      0.1039486850D+03  0.6884262226D-01
      0.2921015530D+02  0.2321844432D+00
      0.9286662960D+01  0.4679413484D+00
      0.3163926960D+01  0.3623119853D+00
 Atom C14      Shell    42 SP   3    bf  119 -   122         -2.569209440487          7.893942600307          5.820678593107
      0.7868272350D+01 -0.1193324198D+00  0.6899906659D-01
      0.1881288540D+01 -0.1608541517D+00  0.3164239610D+00
      0.5442492580D+00  0.1143456438D+01  0.7443082909D+00
 Atom C14      Shell    43 SP   1    bf  123 -   126         -2.569209440487          7.893942600307          5.820678593107
      0.1687144782D+00  0.1000000000D+01  0.1000000000D+01
 Atom C14      Shell    44 D   1     bf  127 -   132         -2.569209440487          7.893942600307          5.820678593107
      0.8000000000D+00  0.1000000000D+01
 Atom H15      Shell    45 S   3     bf  133 -   133         -4.488114173186          7.258750410349          6.302958131714
      0.1873113696D+02  0.3349460434D-01
      0.2825394365D+01  0.2347269535D+00
      0.6401216923D+00  0.8137573261D+00
 Atom H15      Shell    46 S   1     bf  134 -   134         -4.488114173186          7.258750410349          6.302958131714
      0.1612777588D+00  0.1000000000D+01
 Atom H16      Shell    47 S   3     bf  135 -   135         -2.390249824572          9.823725749360          6.544187530728
      0.1873113696D+02  0.3349460434D-01
      0.2825394365D+01  0.2347269535D+00
      0.6401216923D+00  0.8137573261D+00
 Atom H16      Shell    48 S   1     bf  136 -   136         -2.390249824572          9.823725749360          6.544187530728
      0.1612777588D+00  0.1000000000D+01
 Atom C17      Shell    49 S   6     bf  137 -   137          1.381604608309          1.756536231930          7.710873113512
      0.3047524880D+04  0.1834737132D-02
      0.4573695180D+03  0.1403732281D-01
      0.1039486850D+03  0.6884262226D-01
      0.2921015530D+02  0.2321844432D+00
      0.9286662960D+01  0.4679413484D+00
      0.3163926960D+01  0.3623119853D+00
 Atom C17      Shell    50 SP   3    bf  138 -   141          1.381604608309          1.756536231930          7.710873113512
      0.7868272350D+01 -0.1193324198D+00  0.6899906659D-01
      0.1881288540D+01 -0.1608541517D+00  0.3164239610D+00
      0.5442492580D+00  0.1143456438D+01  0.7443082909D+00
 Atom C17      Shell    51 SP   1    bf  142 -   145          1.381604608309          1.756536231930          7.710873113512
      0.1687144782D+00  0.1000000000D+01  0.1000000000D+01
 Atom C17      Shell    52 D   1     bf  146 -   151          1.381604608309          1.756536231930          7.710873113512
      0.8000000000D+00  0.1000000000D+01
 Atom C18      Shell    53 S   6     bf  152 -   152         -2.704359705538          5.025774384891         -0.738812998091
      0.3047524880D+04  0.1834737132D-02
      0.4573695180D+03  0.1403732281D-01
      0.1039486850D+03  0.6884262226D-01
      0.2921015530D+02  0.2321844432D+00
      0.9286662960D+01  0.4679413484D+00
      0.3163926960D+01  0.3623119853D+00
 Atom C18      Shell    54 SP   3    bf  153 -   156         -2.704359705538          5.025774384891         -0.738812998091
      0.7868272350D+01 -0.1193324198D+00  0.6899906659D-01
      0.1881288540D+01 -0.1608541517D+00  0.3164239610D+00
      0.5442492580D+00  0.1143456438D+01  0.7443082909D+00
 Atom C18      Shell    55 SP   1    bf  157 -   160         -2.704359705538          5.025774384891         -0.738812998091
      0.1687144782D+00  0.1000000000D+01  0.1000000000D+01
 Atom C18      Shell    56 D   1     bf  161 -   166         -2.704359705538          5.025774384891         -0.738812998091
      0.8000000000D+00  0.1000000000D+01
 Atom H19      Shell    57 S   3     bf  167 -   167         -3.599154081248          3.320110544219         -1.481802158656
      0.1873113696D+02  0.3349460434D-01
      0.2825394365D+01  0.2347269535D+00
      0.6401216923D+00  0.8137573261D+00
 Atom H19      Shell    58 S   1     bf  168 -   168         -3.599154081248          3.320110544219         -1.481802158656
      0.1612777588D+00  0.1000000000D+01
 Atom H20      Shell    59 S   3     bf  169 -   169         -0.848335817781          5.139728253314         -1.646997633028
      0.1873113696D+02  0.3349460434D-01
      0.2825394365D+01  0.2347269535D+00
      0.6401216923D+00  0.8137573261D+00
 Atom H20      Shell    60 S   1     bf  170 -   170         -0.848335817781          5.139728253314         -1.646997633028
      0.1612777588D+00  0.1000000000D+01
 Atom C21      Shell    61 S   6     bf  171 -   171         -0.622020345277          6.212401189310          7.183682664885
      0.3047524880D+04  0.1834737132D-02
      0.4573695180D+03  0.1403732281D-01
      0.1039486850D+03  0.6884262226D-01
      0.2921015530D+02  0.2321844432D+00
      0.9286662960D+01  0.4679413484D+00
      0.3163926960D+01  0.3623119853D+00
 Atom C21      Shell    62 SP   3    bf  172 -   175         -0.622020345277          6.212401189310          7.183682664885
      0.7868272350D+01 -0.1193324198D+00  0.6899906659D-01
      0.1881288540D+01 -0.1608541517D+00  0.3164239610D+00
      0.5442492580D+00  0.1143456438D+01  0.7443082909D+00
 Atom C21      Shell    63 SP   1    bf  176 -   179         -0.622020345277          6.212401189310          7.183682664885
      0.1687144782D+00  0.1000000000D+01  0.1000000000D+01
 Atom C21      Shell    64 D   1     bf  180 -   185         -0.622020345277          6.212401189310          7.183682664885
      0.8000000000D+00  0.1000000000D+01
 Atom H22      Shell    65 S   3     bf  186 -   186          1.259828879963          7.033606681432          6.921558790787
      0.1873113696D+02  0.3349460434D-01
      0.2825394365D+01  0.2347269535D+00
      0.6401216923D+00  0.8137573261D+00
 Atom H22      Shell    66 S   1     bf  187 -   187          1.259828879963          7.033606681432          6.921558790787
      0.1612777588D+00  0.1000000000D+01
 Atom H23      Shell    67 S   3     bf  188 -   188         -0.999476831985          6.291830592764          9.217925055762
      0.1873113696D+02  0.3349460434D-01
      0.2825394365D+01  0.2347269535D+00
      0.6401216923D+00  0.8137573261D+00
 Atom H23      Shell    68 S   1     bf  189 -   189         -0.999476831985          6.291830592764          9.217925055762
      0.1612777588D+00  0.1000000000D+01
 Atom C24      Shell    69 S   6     bf  190 -   190         -4.282000156503          7.450403014342         -1.234516244078
      0.3047524880D+04  0.1834737132D-02
      0.4573695180D+03  0.1403732281D-01
      0.1039486850D+03  0.6884262226D-01
      0.2921015530D+02  0.2321844432D+00
      0.9286662960D+01  0.4679413484D+00
      0.3163926960D+01  0.3623119853D+00
 Atom C24      Shell    70 SP   3    bf  191 -   194         -4.282000156503          7.450403014342         -1.234516244078
      0.7868272350D+01 -0.1193324198D+00  0.6899906659D-01
      0.1881288540D+01 -0.1608541517D+00  0.3164239610D+00
      0.5442492580D+00  0.1143456438D+01  0.7443082909D+00
 Atom C24      Shell    71 SP   1    bf  195 -   198         -4.282000156503          7.450403014342         -1.234516244078
      0.1687144782D+00  0.1000000000D+01  0.1000000000D+01
 Atom C24      Shell    72 D   1     bf  199 -   204         -4.282000156503          7.450403014342         -1.234516244078
      0.8000000000D+00  0.1000000000D+01
 Atom H25      Shell    73 S   3     bf  205 -   205         -3.363419382219          8.640708850979         -2.660416240811
      0.1873113696D+02  0.3349460434D-01
      0.2825394365D+01  0.2347269535D+00
      0.6401216923D+00  0.8137573261D+00
 Atom H25      Shell    74 S   1     bf  206 -   206         -3.363419382219          8.640708850979         -2.660416240811
      0.1612777588D+00  0.1000000000D+01
 Atom H26      Shell    75 S   3     bf  207 -   207         -6.157995180259          6.998732012416         -1.980945688861
      0.1873113696D+02  0.3349460434D-01
      0.2825394365D+01  0.2347269535D+00
      0.6401216923D+00  0.8137573261D+00
 Atom H26      Shell    76 S   1     bf  208 -   208         -6.157995180259          6.998732012416         -1.980945688861
      0.1612777588D+00  0.1000000000D+01
 Atom C27      Shell    77 S   6     bf  209 -   209         -0.836837741330          0.445721652730          2.553789294140
      0.3047524880D+04  0.1834737132D-02
      0.4573695180D+03  0.1403732281D-01
      0.1039486850D+03  0.6884262226D-01
      0.2921015530D+02  0.2321844432D+00
      0.9286662960D+01  0.4679413484D+00
      0.3163926960D+01  0.3623119853D+00
 Atom C27      Shell    78 SP   3    bf  210 -   213         -0.836837741330          0.445721652730          2.553789294140
      0.7868272350D+01 -0.1193324198D+00  0.6899906659D-01
      0.1881288540D+01 -0.1608541517D+00  0.3164239610D+00
      0.5442492580D+00  0.1143456438D+01  0.7443082909D+00
 Atom C27      Shell    79 SP   1    bf  214 -   217         -0.836837741330          0.445721652730          2.553789294140
      0.1687144782D+00  0.1000000000D+01  0.1000000000D+01
 Atom C27      Shell    80 D   1     bf  218 -   223         -0.836837741330          0.445721652730          2.553789294140
      0.8000000000D+00  0.1000000000D+01
 Atom H28      Shell    81 S   3     bf  224 -   224         -2.874317497635          0.050385843470          2.464038830157
      0.1873113696D+02  0.3349460434D-01
      0.2825394365D+01  0.2347269535D+00
      0.6401216923D+00  0.8137573261D+00
 Atom H28      Shell    82 S   1     bf  225 -   225         -2.874317497635          0.050385843470          2.464038830157
      0.1612777588D+00  0.1000000000D+01
 Atom C29      Shell    83 S   6     bf  226 -   226         -4.707752392885         11.796540626973          0.969827123446
      0.3047524880D+04  0.1834737132D-02
      0.4573695180D+03  0.1403732281D-01
      0.1039486850D+03  0.6884262226D-01
      0.2921015530D+02  0.2321844432D+00
      0.9286662960D+01  0.4679413484D+00
      0.3163926960D+01  0.3623119853D+00
 Atom C29      Shell    84 SP   3    bf  227 -   230         -4.707752392885         11.796540626973          0.969827123446
      0.7868272350D+01 -0.1193324198D+00  0.6899906659D-01
      0.1881288540D+01 -0.1608541517D+00  0.3164239610D+00
      0.5442492580D+00  0.1143456438D+01  0.7443082909D+00
 Atom C29      Shell    85 SP   1    bf  231 -   234         -4.707752392885         11.796540626973          0.969827123446
      0.1687144782D+00  0.1000000000D+01  0.1000000000D+01
 Atom C29      Shell    86 D   1     bf  235 -   240         -4.707752392885         11.796540626973          0.969827123446
      0.8000000000D+00  0.1000000000D+01
 Atom H30      Shell    87 S   3     bf  241 -   241         -2.981483885528         12.428638541566          0.000000000000
      0.1873113696D+02  0.3349460434D-01
      0.2825394365D+01  0.2347269535D+00
      0.6401216923D+00  0.8137573261D+00
 Atom H30      Shell    88 S   1     bf  242 -   242         -2.981483885528         12.428638541566          0.000000000000
      0.1612777588D+00  0.1000000000D+01
 Atom C31      Shell    89 S   6     bf  243 -   243          0.276333272912          9.013554935046          2.123117817174
      0.3047524880D+04  0.1834737132D-02
      0.4573695180D+03  0.1403732281D-01
      0.1039486850D+03  0.6884262226D-01
      0.2921015530D+02  0.2321844432D+00
      0.9286662960D+01  0.4679413484D+00
      0.3163926960D+01  0.3623119853D+00
 Atom C31      Shell    90 SP   3    bf  244 -   247          0.276333272912          9.013554935046          2.123117817174
      0.7868272350D+01 -0.1193324198D+00  0.6899906659D-01
      0.1881288540D+01 -0.1608541517D+00  0.3164239610D+00
      0.5442492580D+00  0.1143456438D+01  0.7443082909D+00
 Atom C31      Shell    91 SP   1    bf  248 -   251          0.276333272912          9.013554935046          2.123117817174
      0.1687144782D+00  0.1000000000D+01  0.1000000000D+01
 Atom C31      Shell    92 D   1     bf  252 -   257          0.276333272912          9.013554935046          2.123117817174
      0.8000000000D+00  0.1000000000D+01
 Atom H32      Shell    93 S   3     bf  258 -   258          1.912088074798          8.023963014798          2.905752298171
      0.1873113696D+02  0.3349460434D-01
      0.2825394365D+01  0.2347269535D+00
      0.6401216923D+00  0.8137573261D+00
 Atom H32      Shell    94 S   1     bf  259 -   259          1.912088074798          8.023963014798          2.905752298171
      0.1612777588D+00  0.1000000000D+01
 Atom H33      Shell    95 S   3     bf  260 -   260          0.504489111901          9.036519926362          0.068540612504
      0.1873113696D+02  0.3349460434D-01
      0.2825394365D+01  0.2347269535D+00
      0.6401216923D+00  0.8137573261D+00
 Atom H33      Shell    96 S   1     bf  261 -   261          0.504489111901          9.036519926362          0.068540612504
      0.1612777588D+00  0.1000000000D+01
 Atom H34      Shell    97 S   3     bf  262 -   262          0.380725183794         10.974171762751          2.777880351115
      0.1873113696D+02  0.3349460434D-01
      0.2825394365D+01  0.2347269535D+00
      0.6401216923D+00  0.8137573261D+00
 Atom H34      Shell    98 S   1     bf  263 -   263          0.380725183794         10.974171762751          2.777880351115
      0.1612777588D+00  0.1000000000D+01
 Atom C35      Shell    99 S   6     bf  264 -   264          1.451242263525         -0.892801602811          6.542708253111
      0.3047524880D+04  0.1834737132D-02
      0.4573695180D+03  0.1403732281D-01
      0.1039486850D+03  0.6884262226D-01
      0.2921015530D+02  0.2321844432D+00
      0.9286662960D+01  0.4679413484D+00
      0.3163926960D+01  0.3623119853D+00
 Atom C35      Shell   100 SP   3    bf  265 -   268          1.451242263525         -0.892801602811          6.542708253111
      0.7868272350D+01 -0.1193324198D+00  0.6899906659D-01
      0.1881288540D+01 -0.1608541517D+00  0.3164239610D+00
      0.5442492580D+00  0.1143456438D+01  0.7443082909D+00
 Atom C35      Shell   101 SP   1    bf  269 -   272          1.451242263525         -0.892801602811          6.542708253111
      0.1687144782D+00  0.1000000000D+01  0.1000000000D+01
 Atom C35      Shell   102 D   1     bf  273 -   278          1.451242263525         -0.892801602811          6.542708253111
      0.8000000000D+00  0.1000000000D+01
 Atom C36      Shell   103 S   6     bf  279 -   279          0.566842987814          1.496464203570         10.533759768023
      0.3047524880D+04  0.1834737132D-02
      0.4573695180D+03  0.1403732281D-01
      0.1039486850D+03  0.6884262226D-01
      0.2921015530D+02  0.2321844432D+00
      0.9286662960D+01  0.4679413484D+00
      0.3163926960D+01  0.3623119853D+00
 Atom C36      Shell   104 SP   3    bf  280 -   283          0.566842987814          1.496464203570         10.533759768023
      0.7868272350D+01 -0.1193324198D+00  0.6899906659D-01
      0.1881288540D+01 -0.1608541517D+00  0.3164239610D+00
      0.5442492580D+00  0.1143456438D+01  0.7443082909D+00
 Atom C36      Shell   105 SP   1    bf  284 -   287          0.566842987814          1.496464203570         10.533759768023
      0.1687144782D+00  0.1000000000D+01  0.1000000000D+01
 Atom C36      Shell   106 D   1     bf  288 -   293          0.566842987814          1.496464203570         10.533759768023
      0.8000000000D+00  0.1000000000D+01
 Atom H37      Shell   107 S   3     bf  294 -   294         -1.454557939203          1.024584111331         10.584610937656
      0.1873113696D+02  0.3349460434D-01
      0.2825394365D+01  0.2347269535D+00
      0.6401216923D+00  0.8137573261D+00
 Atom H37      Shell   108 S   1     bf  295 -   295         -1.454557939203          1.024584111331         10.584610937656
      0.1612777588D+00  0.1000000000D+01
 Atom H38      Shell   109 S   3     bf  296 -   296          0.765966000463          3.326164924393         11.479747996303
      0.1873113696D+02  0.3349460434D-01
      0.2825394365D+01  0.2347269535D+00
      0.6401216923D+00  0.8137573261D+00
 Atom H38      Shell   110 S   1     bf  297 -   297          0.765966000463          3.326164924393         11.479747996303
      0.1612777588D+00  0.1000000000D+01
 Atom C39      Shell   111 S   6     bf  298 -   298          0.400546010976         -1.423333729748          4.298326880065
      0.3047524880D+04  0.1834737132D-02
[...]
 **** Fit       0.007845
 **** Fit       0.007810
 **** Fit       0.007628
 **** Fit       0.007298
 **** Fit       0.006857
 **** Fit       0.006390
 **** Fit       0.006005
 **** Fit       0.005790
 **** Fit       0.005773
 **** Fit       0.005932
 **** Fit       0.006221
 **** Fit       0.006582
 **** Fit       0.006959
 **** Fit       0.007296
 **** Fit       0.007550
 **** Fit       0.007697
 **** Fit       0.007399
 **** Fit       0.007397
 **** Fit       0.007267
 **** Fit       0.007013
 **** Fit       0.006667
 **** Fit       0.006298
 **** Fit       0.005993
 **** Fit       0.005822
 **** Fit       0.005815
 **** Fit       0.005957
 **** Fit       0.006209
 **** Fit       0.006515
 **** Fit       0.006820
 **** Fit       0.007078
 **** Fit       0.007258
 **** Fit       0.007347
 **** Fit       0.006961
 **** Fit       0.006886
 **** Fit       0.006712
 **** Fit       0.006466
 **** Fit       0.006205
 **** Fit       0.005993
 **** Fit       0.005883
 **** Fit       0.005902
 **** Fit       0.006038
 **** Fit       0.006255
 **** Fit       0.006505
 **** Fit       0.006738
 **** Fit       0.006919
 **** Fit       0.007028
 **** Fit       0.006404
 **** Fit       0.006254
 **** Fit       0.006093
 **** Fit       0.005969
 **** Fit       0.005919
 **** Fit       0.005963
 **** Fit       0.006091
 **** Fit       0.006272
 **** Fit       0.006467
 **** Fit       0.006636
 **** Fit       0.006753
 **** Fit       0.006805
 **** Fit       0.005957
 **** Fit       0.006073
 **** Fit       0.006220
 **** Fit       0.006365
 **** Fit       0.006482
 **** Fit       0.007954
 **** Fit       0.008115
 **** Fit       0.007976
 **** Fit       0.007529
 **** Fit       0.009273
 **** Fit       0.010086
 **** Fit       0.010693
 **** Fit       0.010964
 **** Fit       0.010812
 **** Fit       0.010222
 **** Fit       0.009265
 **** Fit       0.008067
 **** Fit       0.011721
 **** Fit       0.012826
 **** Fit       0.013663
 **** Fit       0.014055
 **** Fit       0.013881
 **** Fit       0.013124
 **** Fit       0.011885
 **** Fit       0.010342
 **** Fit       0.008687
 **** Fit       0.012684
 **** Fit       0.014184
 **** Fit       0.015571
 **** Fit       0.016628
 **** Fit       0.017130
 **** Fit       0.016921
 **** Fit       0.015986
 **** Fit       0.014458
 **** Fit       0.012568
 **** Fit       0.010558
 **** Fit       0.007925
 **** Fit       0.008937
 **** Fit       0.010121
 **** Fit       0.011486
 **** Fit       0.013030
 **** Fit       0.014718
 **** Fit       0.016452
 **** Fit       0.018055
 **** Fit       0.019276
 **** Fit       0.019850
 **** Fit       0.019594
 **** Fit       0.018493
 **** Fit       0.016712
 **** Fit       0.014524
 **** Fit       0.012215
 **** Fit       0.007929
 **** Fit       0.008927
 **** Fit       0.010096
 **** Fit       0.011437
 **** Fit       0.012953
 **** Fit       0.014639
 **** Fit       0.016460
 **** Fit       0.018317
 **** Fit       0.020021
 **** Fit       0.021305
 **** Fit       0.021886
 **** Fit       0.021569
 **** Fit       0.020343
 **** Fit       0.018390
 **** Fit       0.016007
 **** Fit       0.013503
 **** Fit       0.011114
 **** Fit       0.007794
 **** Fit       0.008745
 **** Fit       0.009874
 **** Fit       0.011172
 **** Fit       0.012626
 **** Fit       0.014225
 **** Fit       0.015958
 **** Fit       0.017791
 **** Fit       0.019630
 **** Fit       0.021293
 **** Fit       0.022517
 **** Fit       0.023028
 **** Fit       0.022641
 **** Fit       0.021348
 **** Fit       0.019332
 **** Fit       0.016888
 **** Fit       0.014322
 **** Fit       0.011870
 **** Fit       0.008430
 **** Fit       0.009480
 **** Fit       0.010716
 **** Fit       0.012110
 **** Fit       0.013625
 **** Fit       0.015235
 **** Fit       0.016920
 **** Fit       0.018649
 **** Fit       0.020340
 **** Fit       0.021829
 **** Fit       0.022883
 **** Fit       0.023260
 **** Fit       0.022798
 **** Fit       0.021498
 **** Fit       0.019526
 **** Fit       0.017152
 **** Fit       0.014655
 **** Fit       0.008058
 **** Fit       0.008969
 **** Fit       0.010091
 **** Fit       0.011399
 **** Fit       0.012847
 **** Fit       0.014374
 **** Fit       0.015934
 **** Fit       0.017499
 **** Fit       0.019041
 **** Fit       0.020493
 **** Fit       0.021721
 **** Fit       0.022534
 **** Fit       0.022738
 **** Fit       0.022207
 **** Fit       0.020946
 **** Fit       0.019098
 **** Fit       0.016890
 **** Fit       0.014560
 **** Fit       0.008442
 **** Fit       0.009379
 **** Fit       0.010536
 **** Fit       0.011877
 **** Fit       0.013336
 **** Fit       0.014834
 **** Fit       0.016305
 **** Fit       0.017710
 **** Fit       0.019024
 **** Fit       0.020198
 **** Fit       0.021132
 **** Fit       0.021684
 **** Fit       0.021710
 **** Fit       0.021121
 **** Fit       0.019927
 **** Fit       0.018243
 **** Fit       0.016251
 **** Fit       0.008709
 **** Fit       0.009638
 **** Fit       0.010791
 **** Fit       0.012125
 **** Fit       0.013562
 **** Fit       0.015005
 **** Fit       0.016370
 **** Fit       0.017607
 **** Fit       0.018690
 **** Fit       0.019589
 **** Fit       0.020240
 **** Fit       0.020548
 **** Fit       0.020415
 **** Fit       0.019784
 **** Fit       0.018668
 **** Fit       0.017158
 **** Fit       0.009734
 **** Fit       0.010850
 **** Fit       0.012150
 **** Fit       0.013546
 **** Fit       0.014926
 **** Fit       0.016186
 **** Fit       0.017264
 **** Fit       0.018134
 **** Fit       0.018785
 **** Fit       0.019188
 **** Fit       0.019029
 **** Fit       0.018374
 **** Fit       0.009670
 **** Fit       0.010720
 **** Fit       0.011968
 **** Fit       0.013320
 **** Fit       0.014644
 **** Fit       0.015813
 **** Fit       0.016748
 **** Fit       0.017429
 **** Fit       0.017865
 **** Fit       0.018062
 **** Fit       0.018000
 **** Fit       0.017649
 **** Fit       0.016989
 **** Fit       0.016033
 **** Fit       0.008752
 **** Fit       0.009453
 **** Fit       0.010411
 **** Fit       0.011593
 **** Fit       0.012901
 **** Fit       0.014182
 **** Fit       0.015276
 **** Fit       0.016086
 **** Fit       0.016601
 **** Fit       0.016857
 **** Fit       0.016892
 **** Fit       0.016714
 **** Fit       0.016308
 **** Fit       0.015664
 **** Fit       0.014791
 **** Fit       0.008540
 **** Fit       0.009103
 **** Fit       0.009936
 **** Fit       0.011027
 **** Fit       0.012279
 **** Fit       0.013515
 **** Fit       0.014543
 **** Fit       0.015247
 **** Fit       0.015627
 **** Fit       0.015747
 **** Fit       0.015671
 **** Fit       0.015426
 **** Fit       0.015005
 **** Fit       0.014401
 **** Fit       0.013617
 **** Fit       0.008073
 **** Fit       0.008255
 **** Fit       0.008651
 **** Fit       0.009322
 **** Fit       0.010278
 **** Fit       0.011431
 **** Fit       0.012594
 **** Fit       0.013551
 **** Fit       0.014171
 **** Fit       0.014462
 **** Fit       0.014508
 **** Fit       0.014386
 **** Fit       0.014128
 **** Fit       0.013734
 **** Fit       0.013193
 **** Fit       0.012509
 **** Fit       0.007980
 **** Fit       0.007910
 **** Fit       0.007940
 **** Fit       0.008152
 **** Fit       0.008624
 **** Fit       0.009389
 **** Fit       0.010377
 **** Fit       0.011410
 **** Fit       0.012274
 **** Fit       0.012835
 **** Fit       0.013099
 **** Fit       0.013145
 **** Fit       0.013045
 **** Fit       0.012831
 **** Fit       0.012501
 **** Fit       0.008058
 **** Fit       0.007906
 **** Fit       0.007745
 **** Fit       0.007637
 **** Fit       0.007668
 **** Fit       0.007927
 **** Fit       0.008460
 **** Fit       0.009221
 **** Fit       0.010066
 **** Fit       0.010809
 **** Fit       0.011330
 **** Fit       0.011617
 **** Fit       0.011725
 **** Fit       0.011704
 **** Fit       0.011573
 **** Fit       0.011333
 **** Fit       0.007989
 **** Fit       0.007811
 **** Fit       0.007588
 **** Fit       0.007375
 **** Fit       0.007254
 **** Fit       0.007317
 **** Fit       0.007618
 **** Fit       0.008134
 **** Fit       0.008764
 **** Fit       0.009368
 **** Fit       0.009849
 **** Fit       0.010177
 **** Fit       0.010370
 **** Fit       0.010447
 **** Fit       0.010413
 **** Fit       0.010267
 **** Fit       0.007957
 **** Fit       0.007866
 **** Fit       0.007686
 **** Fit       0.007433
 **** Fit       0.007154
 **** Fit       0.006929
 **** Fit       0.006844
 **** Fit       0.006955
 **** Fit       0.007260
 **** Fit       0.007692
 **** Fit       0.008161
 **** Fit       0.008592
 **** Fit       0.008944
 **** Fit       0.009203
 **** Fit       0.009359
 **** Fit       0.009406
 **** Fit       0.007683
 **** Fit       0.007516
 **** Fit       0.007262
 **** Fit       0.006962
 **** Fit       0.006684
 **** Fit       0.006511
 **** Fit       0.006496
 **** Fit       0.006650
 **** Fit       0.006934
 **** Fit       0.007291
 **** Fit       0.007664
 **** Fit       0.008009
 **** Fit       0.008292
 **** Fit       0.008488
 **** Fit       0.008582
 **** Fit       0.007439
 **** Fit       0.007298
 **** Fit       0.007065
 **** Fit       0.006777
 **** Fit       0.006494
 **** Fit       0.006288
 **** Fit       0.006210
 **** Fit       0.006275
 **** Fit       0.006466
 **** Fit       0.006741
 **** Fit       0.007057
 **** Fit       0.007369
 **** Fit       0.007639
 **** Fit       0.007835
 **** Fit       0.007143
 **** Fit       0.007035
 **** Fit       0.006840
 **** Fit       0.006590
 **** Fit       0.006336
 **** Fit       0.006139
 **** Fit       0.006044
 **** Fit       0.006072
 **** Fit       0.006210
 **** Fit       0.006430
 **** Fit       0.006694
 **** Fit       0.006960
 **** Fit       0.007192
 **** Fit       0.006739
 **** Fit       0.006592
 **** Fit       0.006395
 **** Fit       0.006192
 **** Fit       0.006031
 **** Fit       0.005951
 **** Fit       0.005971
 **** Fit       0.006084
 **** Fit       0.006266
 **** Fit       0.006483
 **** Fit       0.006698
 **** Fit       0.006881
 **** Fit       0.005913
 **** Fit       0.006013
 **** Fit       0.006166
 **** Fit       0.006341
 **** Fit       0.006508
 **** Fit       0.011727
 **** Fit       0.011930
 **** Fit       0.011748
 **** Fit       0.011175
 **** Fit       0.013252
 **** Fit       0.013893
 **** Fit       0.014147
 **** Fit       0.013936
 **** Fit       0.013253
 **** Fit       0.012173
 **** Fit       0.014077
 **** Fit       0.015101
 **** Fit       0.015826
 **** Fit       0.016109
 **** Fit       0.015860
 **** Fit       0.015076
 **** Fit       0.013844
 **** Fit       0.012315
 **** Fit       0.015518
 **** Fit       0.016598
 **** Fit       0.017351
 **** Fit       0.017629
 **** Fit       0.017336
 **** Fit       0.016471
 **** Fit       0.015131
 **** Fit       0.013477
 **** Fit       0.009256
 **** Fit       0.010308
 **** Fit       0.011465
 **** Fit       0.012709
 **** Fit       0.014012
 **** Fit       0.016577
 **** Fit       0.017635
 **** Fit       0.018354
 **** Fit       0.018587
 **** Fit       0.018245
 **** Fit       0.017329
 **** Fit       0.015937
 **** Fit       0.014231
 **** Fit       0.009935
 **** Fit       0.011047
 **** Fit       0.012244
 **** Fit       0.013500
 **** Fit       0.014782
 **** Fit       0.016045
 **** Fit       0.018179
 **** Fit       0.018804
 **** Fit       0.018960
 **** Fit       0.018568
 **** Fit       0.017632
 **** Fit       0.016247
 **** Fit       0.009437
 **** Fit       0.010479
 **** Fit       0.011620
 **** Fit       0.012822
 **** Fit       0.014046
 **** Fit       0.015258
 **** Fit       0.016413
 **** Fit       0.018758
 **** Fit       0.018816
 **** Fit       0.018377
 **** Fit       0.017450
 **** Fit       0.016117
 **** Fit       0.009806
 **** Fit       0.010861
 **** Fit       0.012002
 **** Fit       0.013178
 **** Fit       0.014342
 **** Fit       0.015452
 **** Fit       0.016467
 **** Fit       0.010026
 **** Fit       0.011068
 **** Fit       0.012185
 **** Fit       0.013314
 **** Fit       0.014400
 **** Fit       0.015394
 **** Fit       0.016260
 **** Fit       0.011099
 **** Fit       0.012175
 **** Fit       0.013248
 **** Fit       0.014249
 **** Fit       0.015128
 **** Fit       0.015849
 **** Fit       0.010004
 **** Fit       0.010962
 **** Fit       0.011986
 **** Fit       0.012998
 **** Fit       0.013919
 **** Fit       0.014691
 **** Fit       0.015282
 **** Fit       0.015676
 **** Fit       0.009019
 **** Fit       0.009774
 **** Fit       0.010665
 **** Fit       0.011630
 **** Fit       0.012580
 **** Fit       0.013426
 **** Fit       0.014102
 **** Fit       0.014581
 **** Fit       0.014861
 **** Fit       0.014945
 **** Fit       0.008758
 **** Fit       0.009416
 **** Fit       0.010221
 **** Fit       0.011111
 **** Fit       0.011993
 **** Fit       0.012768
 **** Fit       0.013363
 **** Fit       0.013754
 **** Fit       0.013949
 **** Fit       0.013965
 **** Fit       0.008415
 **** Fit       0.008954
 **** Fit       0.009647
 **** Fit       0.010442
 **** Fit       0.011242
 **** Fit       0.011943
 **** Fit       0.012472
 **** Fit       0.012802
 **** Fit       0.012948
 **** Fit       0.012933
 **** Fit       0.012774
 **** Fit       0.007776
 **** Fit       0.008025
 **** Fit       0.008427
 **** Fit       0.008986
 **** Fit       0.009657
 **** Fit       0.010354
 **** Fit       0.010976
 **** Fit       0.011449
 **** Fit       0.011746
 **** Fit       0.011879
 **** Fit       0.011870
 **** Fit       0.011735
 **** Fit       0.007501
 **** Fit       0.007627
 **** Fit       0.007889
 **** Fit       0.008298
 **** Fit       0.008827
 **** Fit       0.009401
 **** Fit       0.009935
 **** Fit       0.010359
 **** Fit       0.010644
 **** Fit       0.010792
 **** Fit       0.010816
 **** Fit       0.010726
 **** Fit       0.007288
 **** Fit       0.007238
 **** Fit       0.007257
 **** Fit       0.007390
 **** Fit       0.007655
 **** Fit       0.008038
 **** Fit       0.008484
 **** Fit       0.008925
 **** Fit       0.009302
 **** Fit       0.009582
 **** Fit       0.009755
 **** Fit       0.009822
 **** Fit       0.007099
 **** Fit       0.006995
 **** Fit       0.006936
 **** Fit       0.006965
 **** Fit       0.007110
 **** Fit       0.007364
 **** Fit       0.007693
 **** Fit       0.008046
 **** Fit       0.008374
 **** Fit       0.008644
 **** Fit       0.008836
 **** Fit       0.008939
 **** Fit       0.006904
 **** Fit       0.006771
 **** Fit       0.006665
 **** Fit       0.006626
 **** Fit       0.006683
 **** Fit       0.006840
 **** Fit       0.007074
 **** Fit       0.007350
 **** Fit       0.007631
 **** Fit       0.007881
 **** Fit       0.008075
 **** Fit       0.006560
 **** Fit       0.006436
 **** Fit       0.006363
 **** Fit       0.006368
 **** Fit       0.006460
 **** Fit       0.006627
 **** Fit       0.006843
 **** Fit       0.007077
 **** Fit       0.007299
 **** Fit       0.009827
 **** Fit       0.010563
 **** Fit       0.011288
 **** Fit       0.011948
 **** Fit       0.012497
 **** Fit       0.012907
 **** Fit       0.009485
 **** Fit       0.010152
 **** Fit       0.010813
 **** Fit       0.011409
 **** Fit       0.011893
 **** Fit       0.012239
 **** Fit       0.012436
 **** Fit       0.008514
 **** Fit       0.009048
 **** Fit       0.009636
 **** Fit       0.010225
 **** Fit       0.010757
 **** Fit       0.011184
 **** Fit       0.011481
 **** Fit       0.011641
 **** Fit       0.008109
 **** Fit       0.008547
 **** Fit       0.009044
 **** Fit       0.009554
 **** Fit       0.010020
 **** Fit       0.010398
 **** Fit       0.010661
 **** Fit       0.010803
 **** Fit       0.007685
 **** Fit       0.008022
 **** Fit       0.008422
 **** Fit       0.008846
 **** Fit       0.009246
 **** Fit       0.009579
 **** Fit       0.009819
 **** Fit       0.009956
 **** Fit       0.007276
 **** Fit       0.007516
 **** Fit       0.007821
 **** Fit       0.008159
 **** Fit       0.008492
 **** Fit       0.008783
 **** Fit       0.009005
 **** Fit       0.009144
 **** Fit       0.007061
 **** Fit       0.007281
 **** Fit       0.007542
 **** Fit       0.007813
 **** Fit       0.008063
 **** Fit       0.008266
 **** Fit       0.007024
 **** Fit       0.007241
 -----------------------------------------------------------------
 Leave Link  602 at Wed May 17 12:39:05 2017, MaxMem=    33554432 cpu:        39.6
 (Enter /home/michal/g09/l9999.exe)

 Test job not archived.
 1\1\GINC-LINUX\SP\RHF\6-31G(d)\C27H46O2\MICHAL\17-May-2017\0\\#P HF/6-
 31G* SCF(Conver=6) NoSymm Test Pop=chelpg IOp(6/33=2) GFInput GFPrint\
 \MEP - Input generated by R.E.D.-III.x MOLECULE\\0,1\O,0,0.,0.,0.\H,0,
 0.96763242,0.,0.\O,0,1.63604143,-2.66694423,6.44580347\H,0,2.57415086,
 -2.43763102,6.50519747\C,0,-1.19188594,4.12367137,1.54913825\C,0,-1.28
 569713,2.62514622,1.13943775\H,0,-2.25767854,2.28357447,1.5360445\C,0,
 -0.23794567,1.70058323,1.78473467\H,0,0.76868149,1.99571005,1.45356843
 \C,0,-0.32648952,1.81428143,3.33251968\H,0,-1.30859256,1.39378181,3.60
 491262\C,0,-2.37631498,4.70951827,0.70488627\H,0,-3.2935779,4.37424391
 ,1.21138776\C,0,-1.35956708,4.17729451,3.08017045\H,0,-2.37500773,3.84
 116528,3.33538179\H,0,-1.26486573,5.19849177,3.46303489\C,0,0.73111367
 ,0.92951894,4.08041831\C,0,-1.43108552,2.65952526,-0.390963\H,0,-1.904
 59031,1.75692683,-0.78413593\H,0,-0.44891998,2.71982705,-0.87155361\C,
 0,-0.32915899,3.28746112,3.80144114\H,0,0.66667273,3.72202435,3.662731
 16\H,0,-0.52890036,3.32949335,4.87791585\C,0,-2.26593689,3.94258347,-0
 .65327786\H,0,-1.77984488,4.57246619,-1.40783164\H,0,-3.2586707,3.7035
 6947,-1.04827131\C,0,-0.44283546,0.23586574,1.35140709\H,0,-1.52102331
 ,0.02666304,1.30391319\C,0,-2.49123527,6.24246044,0.51321041\H,0,-1.57
 773332,6.57695225,0.\C,0,0.14622927,4.76976784,1.12350556\H,0,1.011833
 43,4.24609835,1.53765789\H,0,0.26696414,4.78192039,0.03627013\H,0,0.20
 147109,5.80728158,1.46999097\C,0,0.76796433,-0.47245026,3.46225209\C,0
 ,0.29996039,0.79189475,5.57422559\H,0,-0.76971891,0.54218656,5.6011348
 7\H,0,0.40533175,1.76013067,6.074821\C,0,0.21195982,-0.75319577,2.2745
 7662\H,0,0.23877143,-1.77524698,1.89672466\C,0,2.15363601,1.54630933,4
 .00614672\H,0,2.21876164,2.4700971,4.5891926\H,0,2.90937217,0.86234331
 ,4.40105909\H,0,2.43364423,1.77378302,2.9730122\C,0,1.46064649,-1.5627
 0991,4.2580513\H,0,1.33095938,-2.53163362,3.76603169\H,0,2.54479209,-1
 .36733457,4.29092004\C,0,1.06376041,-0.27397063,6.3751303\H,0,2.125171
 14,0.00066814,6.46709588\H,0,0.66596321,-0.33206335,7.39465364\C,0,-3.
 66075995,6.62859711,-0.43185052\H,0,-3.61131452,7.71523197,-0.59240979
 \H,0,-3.49686989,6.17530258,-1.41737904\C,0,0.96043162,-1.64512089,5.7
 0785578\H,0,-0.0885201,-1.96565429,5.70491868\C,0,-2.58771857,7.031102
 73,1.83294275\H,0,-3.37658368,6.64152021,2.48610811\H,0,-2.81386634,8.
 08523285,1.63283652\H,0,-1.65167117,7.00273519,2.39651071\C,0,-5.07914
 781,6.27170057,0.0438199\H,0,-5.16117058,5.1861853,0.1779124\H,0,-5.26
 23449,6.7204099,1.02760031\C,0,-6.15269859,6.74947083,-0.94797876\H,0,
 -5.94340707,6.30639429,-1.93249363\H,0,-6.05038111,7.83661599,-1.07861
 12\C,0,-7.62305765,6.44151066,-0.58041843\H,0,-8.23101552,6.85728601,-
 1.39762856\C,0,-8.06968889,7.14070709,0.71434674\H,0,-7.55307536,6.735
 19969,1.59195702\H,0,-9.14512557,7.00730938,0.87843968\H,0,-7.86887147
 ,8.21790302,0.67607913\C,0,-7.91685584,4.93317682,-0.52289907\H,0,-7.3
 9416499,4.45061854,0.31105072\H,0,-8.98868611,4.74972225,-0.38575209\H
 ,0,-7.60776789,4.43072874,-1.44705791\\Version=EM64L-G09RevD.01\HF=-11
 98.9270389\RMSD=4.875e-07\Dipole=0.6743433,0.7704529,0.3362383\Quadrup
 ole=6.5203541,-3.8970511,-2.6233029,0.2549025,3.4319606,8.756079\PG=C0
 1 [X(C27H46O2)]\\@


 SI MONUMENTUM REQUIRIS, CIRCUMSPICE
     -- FROM SIR CHRISTOPHER WREN'S TOMBSTONE
 Job cpu time:       0 days  0 hours 11 minutes 59.9 seconds.
 File lengths (MBytes):  RWF=    150 Int=      0 D2E=      0 Chk=     11 Scr=      1
 Normal termination of Gaussian 09 at Wed May 17 12:39:05 2017.
