 Entering Gaussian System, Link 0=/home/michal/g09/g09
 Input=JOB2-gau_m1-5-3.com
 Output=JOB2-gau_m1-5-3.log
 Initial command:
 /home/michal/g09/l1.exe "/home/michal/gauss_scratch/Gau-31421.inp" -scrdir="/home/michal/gauss_scratch/"
 Entering Link 1 = /home/michal/g09/l1.exe PID=     31422.
  
 Copyright (c) 1988,1990,1992,1993,1995,1998,2003,2009,2013,
            Gaussian, Inc.  All Rights Reserved.
  
 This is part of the Gaussian(R) 09 program.  It is based on
 the Gaussian(R) 03 system (copyright 2003, Gaussian, Inc.),
 the Gaussian(R) 98 system (copyright 1998, Gaussian, Inc.),
 the Gaussian(R) 94 system (copyright 1995, Gaussian, Inc.),
 the Gaussian 92(TM) system (copyright 1992, Gaussian, Inc.),
 the Gaussian 90(TM) system (copyright 1990, Gaussian, Inc.),
 the Gaussian 88(TM) system (copyright 1988, Gaussian, Inc.),
 the Gaussian 86(TM) system (copyright 1986, Carnegie Mellon
 University), and the Gaussian 82(TM) system (copyright 1983,
 Carnegie Mellon University). Gaussian is a federally registered
 trademark of Gaussian, Inc.
  
 This software contains proprietary and confidential information,
 including trade secrets, belonging to Gaussian, Inc.
  
 This software is provided under written license and may be
 used, copied, transmitted, or stored only in accord with that
 written license.
  
 The following legend is applicable only to US Government
 contracts under FAR:
  
                    RESTRICTED RIGHTS LEGEND
  
 Use, reproduction and disclosure by the US Government is
 subject to restrictions as set forth in subparagraphs (a)
 and (c) of the Commercial Computer Software - Restricted
 Rights clause in FAR 52.227-19.
  
 Gaussian, Inc.
 340 Quinnipiac St., Bldg. 40, Wallingford CT 06492
  
  
 ---------------------------------------------------------------
 Warning -- This program may not be used in any manner that
 competes with the business of Gaussian, Inc. or will provide
 assistance to any competitor of Gaussian, Inc.  The licensee
 of this program is prohibited from giving any competitor of
 Gaussian, Inc. access to this program.  By using this program,
 the user acknowledges that Gaussian, Inc. is engaged in the
 business of creating and licensing software in the field of
 computational chemistry and represents and warrants to the
 licensee that it is not a competitor of Gaussian, Inc. and that
 it will not use this program in any manner prohibited above.
 ---------------------------------------------------------------
  

 Cite this work as:
 Gaussian 09, Revision D.01,
 M. J. Frisch, G. W. Trucks, H. B. Schlegel, G. E. Scuseria, 
 M. A. Robb, J. R. Cheeseman, G. Scalmani, V. Barone, B. Mennucci, 
 G. A. Petersson, H. Nakatsuji, M. Caricato, X. Li, H. P. Hratchian, 
 A. F. Izmaylov, J. Bloino, G. Zheng, J. L. Sonnenberg, M. Hada, 
 M. Ehara, K. Toyota, R. Fukuda, J. Hasegawa, M. Ishida, T. Nakajima, 
 Y. Honda, O. Kitao, H. Nakai, T. Vreven, J. A. Montgomery, Jr., 
 J. E. Peralta, F. Ogliaro, M. Bearpark, J. J. Heyd, E. Brothers, 
 K. N. Kudin, V. N. Staroverov, T. Keith, R. Kobayashi, J. Normand, 
 K. Raghavachari, A. Rendell, J. C. Burant, S. S. Iyengar, J. Tomasi, 
 M. Cossi, N. Rega, J. M. Millam, M. Klene, J. E. Knox, J. B. Cross, 
 V. Bakken, C. Adamo, J. Jaramillo, R. Gomperts, R. E. Stratmann, 
 O. Yazyev, A. J. Austin, R. Cammi, C. Pomelli, J. W. Ochterski, 
 R. L. Martin, K. Morokuma, V. G. Zakrzewski, G. A. Voth, 
 P. Salvador, J. J. Dannenberg, S. Dapprich, A. D. Daniels, 
 O. Farkas, J. B. Foresman, J. V. Ortiz, J. Cioslowski, 
 and D. J. Fox, Gaussian, Inc., Wallingford CT, 2013.
 
 ******************************************
 Gaussian 09:  EM64L-G09RevD.01 24-Apr-2013
                17-May-2017 
 ******************************************
 %Mem=256MB
 %NProc=12
 Will use up to   12 processors via shared memory.
 ----------------------------------------------------------------------
 #P HF/6-31G* SCF(Conver=6) NoSymm Test Pop=chelpg IOp(6/33=2) GFInput 
 GFPrint
 ----------------------------------------------------------------------
 1/38=1/1;
 2/12=2,15=1,17=6,18=5,40=1/2;
 3/5=1,6=6,7=1,11=9,16=1,24=110,25=1,30=1/1,2,3;
 4//1;
 5/5=2,6=6,38=5/2;
 6/7=2,8=2,9=2,10=2,15=8,20=3,28=1,33=2/1,2;
 99/5=1,9=1/99;
 Leave Link    1 at Wed May 17 11:47:37 2017, MaxMem=    33554432 cpu:         0.6
 (Enter /home/michal/g09/l101.exe)
 ----------------------------------------------
 MEP - Input generated by R.E.D.-III.x MOLECULE
 ----------------------------------------------
 Symbolic Z-matrix:
 Charge =  0 Multiplicity = 1
 O                     6.12584   3.71544   0. 
 H                     5.85739   3.72907  -0.92954 
 O                     0.        0.        0. 
 H                    -0.11197  -0.16693  -0.94645 
 C                     8.82737   0.06115   0.41853 
 C                     7.90432   1.25606   0.79662 
 H                     7.68322   1.11658   1.86929 
 C                     6.53286   1.27457   0.09816 
 H                     6.67316   1.39019  -0.98666 
 C                     5.78557  -0.05838   0.38262 
 H                     5.57463  -0.0552    1.46476 
 C                     10.08258   0.39275   1.29871 
 H                     9.80564   0.13348   2.33322 
 C                     8.06275  -1.22523   0.78835 
 H                     7.93412  -1.25575   1.88003 
 H                     8.62449  -2.12458   0.51687 
 C                     4.38478  -0.14621  -0.31774 
 C                     8.82323   2.48386   0.70002 
 H                     8.45506   3.32929   1.28568 
 H                     8.88778   2.83693  -0.33467 
 C                     6.68169  -1.28789   0.10855 
 H                     6.82731  -1.40689  -0.97061 
 H                     6.17099  -2.19676   0.44557 
 C                     10.19236   1.95374   1.20335 
 H                     10.9999   2.23992   0.519 
 H                     10.44644   2.38791   2.17508 
 C                     5.68114   2.46872   0.57114 
 H                     5.83992   2.61402   1.64917 
 C                     11.43276  -0.31112   1.00618 
 H                     11.75013   0.        0. 
 C                     9.20402   0.06405  -1.08118 
 H                     8.32476   0.05162  -1.7306 
 H                     9.79248   0.94532  -1.35281 
 H                     9.80243  -0.81753  -1.333 
 C                     3.61898   1.16617  -0.1177 
 C                     3.5649   -1.295     0.34912 
 H                     3.64851  -1.18815   1.43948 
 H                     4.01694  -2.25988   0.09631 
 C                     4.212     2.29128   0.30769 
 H                     3.61301   3.18838   0.46423 
 C                     4.51814  -0.42041  -1.83976 
 H                     4.8997   -1.42798  -2.03158 
 H                     3.55424  -0.3389   -2.34886 
 H                     5.19456   0.2972   -2.31415 
 C                     2.13074   1.15172  -0.41221 
 H                     1.6801    2.10961  -0.13454 
 H                     1.96693   1.02721  -1.49494 
 C                     2.07339  -1.32654  -0.0187 
 H                     1.94536  -1.54473  -1.0894 
 H                     1.57046  -2.13265   0.52746 
 C                     12.53189   0.1609    2.00872 
 H                     12.17151   1.02577   2.57502 
 H                     12.6967  -0.6261    2.75701 
 C                     1.39781   0.00639   0.30194 
 H                     1.43747   0.17855   1.38446 
 C                     11.33918  -1.84804   1.0138 
 H                     10.91319  -2.20874   1.95838 
 H                     12.33125  -2.29805   0.91016 
 H                     10.7215  -2.23503   0.19945 
 C                     13.87567   0.56901   1.37023 
 H                     13.67666   1.3618    0.63594 
 H                     14.50143   1.03451   2.14258 
 C                     14.67913  -0.54114   0.66715 
 H                     15.52312  -0.07358   0.13856 
 H                     14.05755  -0.99718  -0.11538 
 C                     15.24457  -1.66148   1.56661 
 H                     14.41259  -2.10985   2.12814 
 C                     16.26637  -1.13523   2.58768 
 H                     17.11525  -0.65994   2.07895 
 H                     16.66264  -1.95284   3.20054 
 H                     15.8298  -0.39713   3.26799 
 C                     15.87028  -2.76973   0.70433 
 H                     16.71061  -2.37915   0.11599 
 H                     16.25164  -3.58956   1.32374 
 H                     15.14125  -3.19068   0.00226 
 
 NAtoms=     75 NQM=       75 NQMF=       0 NMMI=      0 NMMIF=      0
                NMic=       0 NMicF=      0.
                    Isotopes and Nuclear Properties:
 (Nuclear quadrupole moments (NQMom) in fm**2, nuclear magnetic moments (NMagM)
  in nuclear magnetons)

  Atom         1           2           3           4           5           6           7           8           9          10
 IAtWgt=          16           1          16           1          12          12           1          12           1          12
 AtmWgt=  15.9949146   1.0078250  15.9949146   1.0078250  12.0000000  12.0000000   1.0078250  12.0000000   1.0078250  12.0000000
 NucSpn=           0           1           0           1           0           0           1           0           1           0
 AtZEff=   0.0000000   0.0000000   0.0000000   0.0000000   0.0000000   0.0000000   0.0000000   0.0000000   0.0000000   0.0000000
 NQMom=    0.0000000   0.0000000   0.0000000   0.0000000   0.0000000   0.0000000   0.0000000   0.0000000   0.0000000   0.0000000
 NMagM=    0.0000000   2.7928460   0.0000000   2.7928460   0.0000000   0.0000000   2.7928460   0.0000000   2.7928460   0.0000000
 AtZNuc=   8.0000000   1.0000000   8.0000000   1.0000000   6.0000000   6.0000000   1.0000000   6.0000000   1.0000000   6.0000000

  Atom        11          12          13          14          15          16          17          18          19          20
 IAtWgt=           1          12           1          12           1           1          12          12           1           1
 AtmWgt=   1.0078250  12.0000000   1.0078250  12.0000000   1.0078250   1.0078250  12.0000000  12.0000000   1.0078250   1.0078250
 NucSpn=           1           0           1           0           1           1           0           0           1           1
 AtZEff=   0.0000000   0.0000000   0.0000000   0.0000000   0.0000000   0.0000000   0.0000000   0.0000000   0.0000000   0.0000000
 NQMom=    0.0000000   0.0000000   0.0000000   0.0000000   0.0000000   0.0000000   0.0000000   0.0000000   0.0000000   0.0000000
 NMagM=    2.7928460   0.0000000   2.7928460   0.0000000   2.7928460   2.7928460   0.0000000   0.0000000   2.7928460   2.7928460
 AtZNuc=   1.0000000   6.0000000   1.0000000   6.0000000   1.0000000   1.0000000   6.0000000   6.0000000   1.0000000   1.0000000

  Atom        21          22          23          24          25          26          27          28          29          30
 IAtWgt=          12           1           1          12           1           1          12           1          12           1
 AtmWgt=  12.0000000   1.0078250   1.0078250  12.0000000   1.0078250   1.0078250  12.0000000   1.0078250  12.0000000   1.0078250
 NucSpn=           0           1           1           0           1           1           0           1           0           1
 AtZEff=   0.0000000   0.0000000   0.0000000   0.0000000   0.0000000   0.0000000   0.0000000   0.0000000   0.0000000   0.0000000
 NQMom=    0.0000000   0.0000000   0.0000000   0.0000000   0.0000000   0.0000000   0.0000000   0.0000000   0.0000000   0.0000000
 NMagM=    0.0000000   2.7928460   2.7928460   0.0000000   2.7928460   2.7928460   0.0000000   2.7928460   0.0000000   2.7928460
 AtZNuc=   6.0000000   1.0000000   1.0000000   6.0000000   1.0000000   1.0000000   6.0000000   1.0000000   6.0000000   1.0000000

  Atom        31          32          33          34          35          36          37          38          39          40
 IAtWgt=          12           1           1           1          12          12           1           1          12           1
 AtmWgt=  12.0000000   1.0078250   1.0078250   1.0078250  12.0000000  12.0000000   1.0078250   1.0078250  12.0000000   1.0078250
 NucSpn=           0           1           1           1           0           0           1           1           0           1
 AtZEff=   0.0000000   0.0000000   0.0000000   0.0000000   0.0000000   0.0000000   0.0000000   0.0000000   0.0000000   0.0000000
 NQMom=    0.0000000   0.0000000   0.0000000   0.0000000   0.0000000   0.0000000   0.0000000   0.0000000   0.0000000   0.0000000
 NMagM=    0.0000000   2.7928460   2.7928460   2.7928460   0.0000000   0.0000000   2.7928460   2.7928460   0.0000000   2.7928460
 AtZNuc=   6.0000000   1.0000000   1.0000000   1.0000000   6.0000000   6.0000000   1.0000000   1.0000000   6.0000000   1.0000000

  Atom        41          42          43          44          45          46          47          48          49          50
 IAtWgt=          12           1           1           1          12           1           1          12           1           1
 AtmWgt=  12.0000000   1.0078250   1.0078250   1.0078250  12.0000000   1.0078250   1.0078250  12.0000000   1.0078250   1.0078250
 NucSpn=           0           1           1           1           0           1           1           0           1           1
 AtZEff=   0.0000000   0.0000000   0.0000000   0.0000000   0.0000000   0.0000000   0.0000000   0.0000000   0.0000000   0.0000000
 NQMom=    0.0000000   0.0000000   0.0000000   0.0000000   0.0000000   0.0000000   0.0000000   0.0000000   0.0000000   0.0000000
 NMagM=    0.0000000   2.7928460   2.7928460   2.7928460   0.0000000   2.7928460   2.7928460   0.0000000   2.7928460   2.7928460
 AtZNuc=   6.0000000   1.0000000   1.0000000   1.0000000   6.0000000   1.0000000   1.0000000   6.0000000   1.0000000   1.0000000

  Atom        51          52          53          54          55          56          57          58          59          60
 IAtWgt=          12           1           1          12           1          12           1           1           1          12
 AtmWgt=  12.0000000   1.0078250   1.0078250  12.0000000   1.0078250  12.0000000   1.0078250   1.0078250   1.0078250  12.0000000
 NucSpn=           0           1           1           0           1           0           1           1           1           0
 AtZEff=   0.0000000   0.0000000   0.0000000   0.0000000   0.0000000   0.0000000   0.0000000   0.0000000   0.0000000   0.0000000
 NQMom=    0.0000000   0.0000000   0.0000000   0.0000000   0.0000000   0.0000000   0.0000000   0.0000000   0.0000000   0.0000000
 NMagM=    0.0000000   2.7928460   2.7928460   0.0000000   2.7928460   0.0000000   2.7928460   2.7928460   2.7928460   0.0000000
 AtZNuc=   6.0000000   1.0000000   1.0000000   6.0000000   1.0000000   6.0000000   1.0000000   1.0000000   1.0000000   6.0000000

  Atom        61          62          63          64          65          66          67          68          69          70
 IAtWgt=           1           1          12           1           1          12           1          12           1           1
 AtmWgt=   1.0078250   1.0078250  12.0000000   1.0078250   1.0078250  12.0000000   1.0078250  12.0000000   1.0078250   1.0078250
 NucSpn=           1           1           0           1           1           0           1           0           1           1
 AtZEff=   0.0000000   0.0000000   0.0000000   0.0000000   0.0000000   0.0000000   0.0000000   0.0000000   0.0000000   0.0000000
 NQMom=    0.0000000   0.0000000   0.0000000   0.0000000   0.0000000   0.0000000   0.0000000   0.0000000   0.0000000   0.0000000
 NMagM=    2.7928460   2.7928460   0.0000000   2.7928460   2.7928460   0.0000000   2.7928460   0.0000000   2.7928460   2.7928460
 AtZNuc=   1.0000000   1.0000000   6.0000000   1.0000000   1.0000000   6.0000000   1.0000000   6.0000000   1.0000000   1.0000000

  Atom        71          72          73          74          75
 IAtWgt=           1          12           1           1           1
 AtmWgt=   1.0078250  12.0000000   1.0078250   1.0078250   1.0078250
 NucSpn=           1           0           1           1           1
 AtZEff=   0.0000000   0.0000000   0.0000000   0.0000000   0.0000000
 NQMom=    0.0000000   0.0000000   0.0000000   0.0000000   0.0000000
 NMagM=    2.7928460   0.0000000   2.7928460   2.7928460   2.7928460
 AtZNuc=   1.0000000   6.0000000   1.0000000   1.0000000   1.0000000
 Leave Link  101 at Wed May 17 11:47:37 2017, MaxMem=    33554432 cpu:         1.0
 (Enter /home/michal/g09/l202.exe)
 Symmetry turned off by external request.
 Stoichiometry    C27H46O2
 Framework group  C1[X(C27H46O2)]
 Deg. of freedom   219
 Full point group                 C1      NOp   1
                          Input orientation:                          
 ---------------------------------------------------------------------
 Center     Atomic      Atomic             Coordinates (Angstroms)
 Number     Number       Type             X           Y           Z
 ---------------------------------------------------------------------
      1          8           0        6.125843    3.715443    0.000000
      2          1           0        5.857393    3.729067   -0.929539
      3          8           0        0.000000    0.000000    0.000000
      4          1           0       -0.111968   -0.166926   -0.946446
      5          6           0        8.827367    0.061153    0.418526
      6          6           0        7.904317    1.256063    0.796624
      7          1           0        7.683217    1.116580    1.869295
      8          6           0        6.532857    1.274569    0.098163
      9          1           0        6.673164    1.390188   -0.986656
     10          6           0        5.785569   -0.058377    0.382618
     11          1           0        5.574628   -0.055202    1.464762
     12          6           0       10.082582    0.392753    1.298705
     13          1           0        9.805644    0.133484    2.333219
     14          6           0        8.062747   -1.225234    0.788347
     15          1           0        7.934124   -1.255751    1.880035
     16          1           0        8.624492   -2.124577    0.516868
     17          6           0        4.384783   -0.146215   -0.317739
     18          6           0        8.823227    2.483860    0.700023
     19          1           0        8.455057    3.329294    1.285680
     20          1           0        8.887783    2.836925   -0.334674
     21          6           0        6.681692   -1.287893    0.108549
     22          1           0        6.827306   -1.406891   -0.970610
     23          1           0        6.170987   -2.196762    0.445569
     24          6           0       10.192355    1.953744    1.203346
     25          1           0       10.999896    2.239925    0.518998
     26          1           0       10.446440    2.387913    2.175080
     27          6           0        5.681139    2.468723    0.571138
     28          1           0        5.839921    2.614020    1.649167
     29          6           0       11.432757   -0.311116    1.006183
     30          1           0       11.750127    0.000000    0.000000
     31          6           0        9.204019    0.064050   -1.081183
     32          1           0        8.324760    0.051615   -1.730597
     33          1           0        9.792480    0.945324   -1.352807
     34          1           0        9.802434   -0.817532   -1.333003
     35          6           0        3.618983    1.166175   -0.117699
     36          6           0        3.564903   -1.295001    0.349119
     37          1           0        3.648509   -1.188155    1.439476
     38          1           0        4.016941   -2.259876    0.096314
     39          6           0        4.211997    2.291284    0.307688
     40          1           0        3.613008    3.188376    0.464233
     41          6           0        4.518142   -0.420415   -1.839762
     42          1           0        4.899696   -1.427976   -2.031580
     43          1           0        3.554244   -0.338895   -2.348857
     44          1           0        5.194561    0.297204   -2.314155
     45          6           0        2.130736    1.151724   -0.412209
     46          1           0        1.680098    2.109609   -0.134540
     47          1           0        1.966934    1.027207   -1.494941
     48          6           0        2.073387   -1.326537   -0.018704
     49          1           0        1.945355   -1.544730   -1.089400
     50          1           0        1.570458   -2.132647    0.527463
     51          6           0       12.531890    0.160896    2.008716
     52          1           0       12.171513    1.025772    2.575017
     53          1           0       12.696696   -0.626100    2.757012
     54          6           0        1.397810    0.006394    0.301944
     55          1           0        1.437471    0.178550    1.384457
     56          6           0       11.339181   -1.848045    1.013803
     57          1           0       10.913191   -2.208739    1.958381
     58          1           0       12.331254   -2.298046    0.910158
     59          1           0       10.721505   -2.235033    0.199452
     60          6           0       13.875673    0.569008    1.370231
     61          1           0       13.676660    1.361799    0.635940
     62          1           0       14.501430    1.034508    2.142576
     63          6           0       14.679131   -0.541142    0.667155
     64          1           0       15.523118   -0.073581    0.138560
     65          1           0       14.057552   -0.997181   -0.115382
     66          6           0       15.244574   -1.661475    1.566607
     67          1           0       14.412589   -2.109852    2.128144
     68          6           0       16.266368   -1.135232    2.587679
     69          1           0       17.115246   -0.659940    2.078946
     70          1           0       16.662643   -1.952839    3.200541
     71          1           0       15.829797   -0.397135    3.267985
     72          6           0       15.870283   -2.769727    0.704335
     73          1           0       16.710612   -2.379148    0.115989
     74          1           0       16.251637   -3.589559    1.323744
     75          1           0       15.141252   -3.190681    0.002256
 ---------------------------------------------------------------------
 Rotational constants (GHZ):      0.4625916      0.0565509      0.0526791
 Leave Link  202 at Wed May 17 11:47:37 2017, MaxMem=    33554432 cpu:         0.0
 (Enter /home/michal/g09/l301.exe)
 Standard basis: 6-31G(d) (6D, 7F)
 Ernie: Thresh=  0.10000D-02 Tol=  0.10000D-05 Strict=F.
 AO basis set in the form of general basis input (Overlap normalization):
      1 0
 S   6 1.00       0.000000000000
      0.5484671660D+04  0.1831074430D-02
      0.8252349460D+03  0.1395017220D-01
      0.1880469580D+03  0.6844507810D-01
      0.5296450000D+02  0.2327143360D+00
      0.1689757040D+02  0.4701928980D+00
      0.5799635340D+01  0.3585208530D+00
 SP   3 1.00       0.000000000000
      0.1553961625D+02 -0.1107775495D+00  0.7087426823D-01
      0.3599933586D+01 -0.1480262627D+00  0.3397528391D+00
      0.1013761750D+01  0.1130767015D+01  0.7271585773D+00
 SP   1 1.00       0.000000000000
      0.2700058226D+00  0.1000000000D+01  0.1000000000D+01
 D   1 1.00       0.000000000000
      0.8000000000D+00  0.1000000000D+01
 ****
      2 0
 S   3 1.00       0.000000000000
      0.1873113696D+02  0.3349460434D-01
      0.2825394365D+01  0.2347269535D+00
      0.6401216923D+00  0.8137573261D+00
 S   1 1.00       0.000000000000
      0.1612777588D+00  0.1000000000D+01
 ****
      3 0
 S   6 1.00       0.000000000000
      0.5484671660D+04  0.1831074430D-02
      0.8252349460D+03  0.1395017220D-01
      0.1880469580D+03  0.6844507810D-01
      0.5296450000D+02  0.2327143360D+00
      0.1689757040D+02  0.4701928980D+00
      0.5799635340D+01  0.3585208530D+00
 SP   3 1.00       0.000000000000
      0.1553961625D+02 -0.1107775495D+00  0.7087426823D-01
      0.3599933586D+01 -0.1480262627D+00  0.3397528391D+00
      0.1013761750D+01  0.1130767015D+01  0.7271585773D+00
 SP   1 1.00       0.000000000000
      0.2700058226D+00  0.1000000000D+01  0.1000000000D+01
 D   1 1.00       0.000000000000
      0.8000000000D+00  0.1000000000D+01
 ****
      4 0
 S   3 1.00       0.000000000000
      0.1873113696D+02  0.3349460434D-01
      0.2825394365D+01  0.2347269535D+00
      0.6401216923D+00  0.8137573261D+00
 S   1 1.00       0.000000000000
      0.1612777588D+00  0.1000000000D+01
 ****
      5 0
 S   6 1.00       0.000000000000
      0.3047524880D+04  0.1834737132D-02
      0.4573695180D+03  0.1403732281D-01
      0.1039486850D+03  0.6884262226D-01
      0.2921015530D+02  0.2321844432D+00
      0.9286662960D+01  0.4679413484D+00
      0.3163926960D+01  0.3623119853D+00
 SP   3 1.00       0.000000000000
      0.7868272350D+01 -0.1193324198D+00  0.6899906659D-01
      0.1881288540D+01 -0.1608541517D+00  0.3164239610D+00
      0.5442492580D+00  0.1143456438D+01  0.7443082909D+00
 SP   1 1.00       0.000000000000
      0.1687144782D+00  0.1000000000D+01  0.1000000000D+01
 D   1 1.00       0.000000000000
      0.8000000000D+00  0.1000000000D+01
 ****
      6 0
 S   6 1.00       0.000000000000
      0.3047524880D+04  0.1834737132D-02
      0.4573695180D+03  0.1403732281D-01
      0.1039486850D+03  0.6884262226D-01
      0.2921015530D+02  0.2321844432D+00
      0.9286662960D+01  0.4679413484D+00
      0.3163926960D+01  0.3623119853D+00
 SP   3 1.00       0.000000000000
      0.7868272350D+01 -0.1193324198D+00  0.6899906659D-01
      0.1881288540D+01 -0.1608541517D+00  0.3164239610D+00
      0.5442492580D+00  0.1143456438D+01  0.7443082909D+00
 SP   1 1.00       0.000000000000
      0.1687144782D+00  0.1000000000D+01  0.1000000000D+01
 D   1 1.00       0.000000000000
      0.8000000000D+00  0.1000000000D+01
 ****
      7 0
 S   3 1.00       0.000000000000
      0.1873113696D+02  0.3349460434D-01
      0.2825394365D+01  0.2347269535D+00
      0.6401216923D+00  0.8137573261D+00
 S   1 1.00       0.000000000000
      0.1612777588D+00  0.1000000000D+01
 ****
      8 0
 S   6 1.00       0.000000000000
      0.3047524880D+04  0.1834737132D-02
      0.4573695180D+03  0.1403732281D-01
      0.1039486850D+03  0.6884262226D-01
      0.2921015530D+02  0.2321844432D+00
      0.9286662960D+01  0.4679413484D+00
      0.3163926960D+01  0.3623119853D+00
 SP   3 1.00       0.000000000000
      0.7868272350D+01 -0.1193324198D+00  0.6899906659D-01
      0.1881288540D+01 -0.1608541517D+00  0.3164239610D+00
      0.5442492580D+00  0.1143456438D+01  0.7443082909D+00
 SP   1 1.00       0.000000000000
      0.1687144782D+00  0.1000000000D+01  0.1000000000D+01
 D   1 1.00       0.000000000000
      0.8000000000D+00  0.1000000000D+01
 ****
      9 0
 S   3 1.00       0.000000000000
      0.1873113696D+02  0.3349460434D-01
      0.2825394365D+01  0.2347269535D+00
      0.6401216923D+00  0.8137573261D+00
 S   1 1.00       0.000000000000
      0.1612777588D+00  0.1000000000D+01
 ****
     10 0
 S   6 1.00       0.000000000000
      0.3047524880D+04  0.1834737132D-02
      0.4573695180D+03  0.1403732281D-01
      0.1039486850D+03  0.6884262226D-01
      0.2921015530D+02  0.2321844432D+00
      0.9286662960D+01  0.4679413484D+00
      0.3163926960D+01  0.3623119853D+00
 SP   3 1.00       0.000000000000
      0.7868272350D+01 -0.1193324198D+00  0.6899906659D-01
      0.1881288540D+01 -0.1608541517D+00  0.3164239610D+00
      0.5442492580D+00  0.1143456438D+01  0.7443082909D+00
 SP   1 1.00       0.000000000000
      0.1687144782D+00  0.1000000000D+01  0.1000000000D+01
 D   1 1.00       0.000000000000
      0.8000000000D+00  0.1000000000D+01
 ****
     11 0
 S   3 1.00       0.000000000000
      0.1873113696D+02  0.3349460434D-01
      0.2825394365D+01  0.2347269535D+00
      0.6401216923D+00  0.8137573261D+00
 S   1 1.00       0.000000000000
      0.1612777588D+00  0.1000000000D+01
 ****
     12 0
 S   6 1.00       0.000000000000
      0.3047524880D+04  0.1834737132D-02
      0.4573695180D+03  0.1403732281D-01
      0.1039486850D+03  0.6884262226D-01
      0.2921015530D+02  0.2321844432D+00
      0.9286662960D+01  0.4679413484D+00
      0.3163926960D+01  0.3623119853D+00
 SP   3 1.00       0.000000000000
      0.7868272350D+01 -0.1193324198D+00  0.6899906659D-01
      0.1881288540D+01 -0.1608541517D+00  0.3164239610D+00
      0.5442492580D+00  0.1143456438D+01  0.7443082909D+00
 SP   1 1.00       0.000000000000
      0.1687144782D+00  0.1000000000D+01  0.1000000000D+01
 D   1 1.00       0.000000000000
      0.8000000000D+00  0.1000000000D+01
 ****
     13 0
 S   3 1.00       0.000000000000
      0.1873113696D+02  0.3349460434D-01
      0.2825394365D+01  0.2347269535D+00
      0.6401216923D+00  0.8137573261D+00
 S   1 1.00       0.000000000000
      0.1612777588D+00  0.1000000000D+01
 ****
     14 0
 S   6 1.00       0.000000000000
      0.3047524880D+04  0.1834737132D-02
      0.4573695180D+03  0.1403732281D-01
      0.1039486850D+03  0.6884262226D-01
      0.2921015530D+02  0.2321844432D+00
      0.9286662960D+01  0.4679413484D+00
      0.3163926960D+01  0.3623119853D+00
 SP   3 1.00       0.000000000000
      0.7868272350D+01 -0.1193324198D+00  0.6899906659D-01
      0.1881288540D+01 -0.1608541517D+00  0.3164239610D+00
      0.5442492580D+00  0.1143456438D+01  0.7443082909D+00
 SP   1 1.00       0.000000000000
      0.1687144782D+00  0.1000000000D+01  0.1000000000D+01
 D   1 1.00       0.000000000000
      0.8000000000D+00  0.1000000000D+01
 ****
     15 0
 S   3 1.00       0.000000000000
      0.1873113696D+02  0.3349460434D-01
      0.2825394365D+01  0.2347269535D+00
      0.6401216923D+00  0.8137573261D+00
 S   1 1.00       0.000000000000
      0.1612777588D+00  0.1000000000D+01
 ****
     16 0
 S   3 1.00       0.000000000000
      0.1873113696D+02  0.3349460434D-01
      0.2825394365D+01  0.2347269535D+00
      0.6401216923D+00  0.8137573261D+00
 S   1 1.00       0.000000000000
      0.1612777588D+00  0.1000000000D+01
 ****
     17 0
 S   6 1.00       0.000000000000
      0.3047524880D+04  0.1834737132D-02
      0.4573695180D+03  0.1403732281D-01
      0.1039486850D+03  0.6884262226D-01
      0.2921015530D+02  0.2321844432D+00
      0.9286662960D+01  0.4679413484D+00
      0.3163926960D+01  0.3623119853D+00
 SP   3 1.00       0.000000000000
      0.7868272350D+01 -0.1193324198D+00  0.6899906659D-01
      0.1881288540D+01 -0.1608541517D+00  0.3164239610D+00
      0.5442492580D+00  0.1143456438D+01  0.7443082909D+00
 SP   1 1.00       0.000000000000
      0.1687144782D+00  0.1000000000D+01  0.1000000000D+01
 D   1 1.00       0.000000000000
      0.8000000000D+00  0.1000000000D+01
 ****
     18 0
 S   6 1.00       0.000000000000
      0.3047524880D+04  0.1834737132D-02
      0.4573695180D+03  0.1403732281D-01
      0.1039486850D+03  0.6884262226D-01
      0.2921015530D+02  0.2321844432D+00
      0.9286662960D+01  0.4679413484D+00
      0.3163926960D+01  0.3623119853D+00
 SP   3 1.00       0.000000000000
      0.7868272350D+01 -0.1193324198D+00  0.6899906659D-01
      0.1881288540D+01 -0.1608541517D+00  0.3164239610D+00
      0.5442492580D+00  0.1143456438D+01  0.7443082909D+00
 SP   1 1.00       0.000000000000
      0.1687144782D+00  0.1000000000D+01  0.1000000000D+01
 D   1 1.00       0.000000000000
      0.8000000000D+00  0.1000000000D+01
 ****
     19 0
 S   3 1.00       0.000000000000
      0.1873113696D+02  0.3349460434D-01
      0.2825394365D+01  0.2347269535D+00
      0.6401216923D+00  0.8137573261D+00
 S   1 1.00       0.000000000000
      0.1612777588D+00  0.1000000000D+01
 ****
     20 0
 S   3 1.00       0.000000000000
      0.1873113696D+02  0.3349460434D-01
      0.2825394365D+01  0.2347269535D+00
      0.6401216923D+00  0.8137573261D+00
 S   1 1.00       0.000000000000
      0.1612777588D+00  0.1000000000D+01
 ****
     21 0
 S   6 1.00       0.000000000000
      0.3047524880D+04  0.1834737132D-02
      0.4573695180D+03  0.1403732281D-01
      0.1039486850D+03  0.6884262226D-01
      0.2921015530D+02  0.2321844432D+00
      0.9286662960D+01  0.4679413484D+00
      0.3163926960D+01  0.3623119853D+00
 SP   3 1.00       0.000000000000
      0.7868272350D+01 -0.1193324198D+00  0.6899906659D-01
      0.1881288540D+01 -0.1608541517D+00  0.3164239610D+00
      0.5442492580D+00  0.1143456438D+01  0.7443082909D+00
 SP   1 1.00       0.000000000000
      0.1687144782D+00  0.1000000000D+01  0.1000000000D+01
 D   1 1.00       0.000000000000
      0.8000000000D+00  0.1000000000D+01
 ****
     22 0
 S   3 1.00       0.000000000000
      0.1873113696D+02  0.3349460434D-01
      0.2825394365D+01  0.2347269535D+00
      0.6401216923D+00  0.8137573261D+00
 S   1 1.00       0.000000000000
      0.1612777588D+00  0.1000000000D+01
 ****
     23 0
 S   3 1.00       0.000000000000
      0.1873113696D+02  0.3349460434D-01
      0.2825394365D+01  0.2347269535D+00
      0.6401216923D+00  0.8137573261D+00
 S   1 1.00       0.000000000000
      0.1612777588D+00  0.1000000000D+01
 ****
     24 0
 S   6 1.00       0.000000000000
      0.3047524880D+04  0.1834737132D-02
      0.4573695180D+03  0.1403732281D-01
      0.1039486850D+03  0.6884262226D-01
      0.2921015530D+02  0.2321844432D+00
      0.9286662960D+01  0.4679413484D+00
      0.3163926960D+01  0.3623119853D+00
 SP   3 1.00       0.000000000000
      0.7868272350D+01 -0.1193324198D+00  0.6899906659D-01
      0.1881288540D+01 -0.1608541517D+00  0.3164239610D+00
      0.5442492580D+00  0.1143456438D+01  0.7443082909D+00
 SP   1 1.00       0.000000000000
      0.1687144782D+00  0.1000000000D+01  0.1000000000D+01
 D   1 1.00       0.000000000000
      0.8000000000D+00  0.1000000000D+01
 ****
     25 0
 S   3 1.00       0.000000000000
      0.1873113696D+02  0.3349460434D-01
      0.2825394365D+01  0.2347269535D+00
      0.6401216923D+00  0.8137573261D+00
 S   1 1.00       0.000000000000
      0.1612777588D+00  0.1000000000D+01
 ****
     26 0
 S   3 1.00       0.000000000000
      0.1873113696D+02  0.3349460434D-01
      0.2825394365D+01  0.2347269535D+00
      0.6401216923D+00  0.8137573261D+00
 S   1 1.00       0.000000000000
      0.1612777588D+00  0.1000000000D+01
 ****
     27 0
 S   6 1.00       0.000000000000
      0.3047524880D+04  0.1834737132D-02
      0.4573695180D+03  0.1403732281D-01
      0.1039486850D+03  0.6884262226D-01
      0.2921015530D+02  0.2321844432D+00
      0.9286662960D+01  0.4679413484D+00
      0.3163926960D+01  0.3623119853D+00
 SP   3 1.00       0.000000000000
      0.7868272350D+01 -0.1193324198D+00  0.6899906659D-01
      0.1881288540D+01 -0.1608541517D+00  0.3164239610D+00
      0.5442492580D+00  0.1143456438D+01  0.7443082909D+00
 SP   1 1.00       0.000000000000
      0.1687144782D+00  0.1000000000D+01  0.1000000000D+01
 D   1 1.00       0.000000000000
      0.8000000000D+00  0.1000000000D+01
 ****
     28 0
 S   3 1.00       0.000000000000
      0.1873113696D+02  0.3349460434D-01
      0.2825394365D+01  0.2347269535D+00
      0.6401216923D+00  0.8137573261D+00
 S   1 1.00       0.000000000000
      0.1612777588D+00  0.1000000000D+01
 ****
     29 0
 S   6 1.00       0.000000000000
      0.3047524880D+04  0.1834737132D-02
      0.4573695180D+03  0.1403732281D-01
      0.1039486850D+03  0.6884262226D-01
      0.2921015530D+02  0.2321844432D+00
      0.9286662960D+01  0.4679413484D+00
      0.3163926960D+01  0.3623119853D+00
 SP   3 1.00       0.000000000000
      0.7868272350D+01 -0.1193324198D+00  0.6899906659D-01
      0.1881288540D+01 -0.1608541517D+00  0.3164239610D+00
      0.5442492580D+00  0.1143456438D+01  0.7443082909D+00
 SP   1 1.00       0.000000000000
      0.1687144782D+00  0.1000000000D+01  0.1000000000D+01
 D   1 1.00       0.000000000000
      0.8000000000D+00  0.1000000000D+01
 ****
     30 0
 S   3 1.00       0.000000000000
      0.1873113696D+02  0.3349460434D-01
      0.2825394365D+01  0.2347269535D+00
      0.6401216923D+00  0.8137573261D+00
 S   1 1.00       0.000000000000
      0.1612777588D+00  0.1000000000D+01
 ****
     31 0
 S   6 1.00       0.000000000000
      0.3047524880D+04  0.1834737132D-02
      0.4573695180D+03  0.1403732281D-01
      0.1039486850D+03  0.6884262226D-01
      0.2921015530D+02  0.2321844432D+00
      0.9286662960D+01  0.4679413484D+00
      0.3163926960D+01  0.3623119853D+00
 SP   3 1.00       0.000000000000
      0.7868272350D+01 -0.1193324198D+00  0.6899906659D-01
      0.1881288540D+01 -0.1608541517D+00  0.3164239610D+00
      0.5442492580D+00  0.1143456438D+01  0.7443082909D+00
 SP   1 1.00       0.000000000000
      0.1687144782D+00  0.1000000000D+01  0.1000000000D+01
 D   1 1.00       0.000000000000
      0.8000000000D+00  0.1000000000D+01
 ****
     32 0
 S   3 1.00       0.000000000000
      0.1873113696D+02  0.3349460434D-01
      0.2825394365D+01  0.2347269535D+00
      0.6401216923D+00  0.8137573261D+00
 S   1 1.00       0.000000000000
      0.1612777588D+00  0.1000000000D+01
 ****
     33 0
 S   3 1.00       0.000000000000
      0.1873113696D+02  0.3349460434D-01
      0.2825394365D+01  0.2347269535D+00
      0.6401216923D+00  0.8137573261D+00
 S   1 1.00       0.000000000000
      0.1612777588D+00  0.1000000000D+01
 ****
     34 0
 S   3 1.00       0.000000000000
      0.1873113696D+02  0.3349460434D-01
      0.2825394365D+01  0.2347269535D+00
      0.6401216923D+00  0.8137573261D+00
 S   1 1.00       0.000000000000
      0.1612777588D+00  0.1000000000D+01
 ****
     35 0
 S   6 1.00       0.000000000000
      0.3047524880D+04  0.1834737132D-02
      0.4573695180D+03  0.1403732281D-01
      0.1039486850D+03  0.6884262226D-01
      0.2921015530D+02  0.2321844432D+00
      0.9286662960D+01  0.4679413484D+00
      0.3163926960D+01  0.3623119853D+00
 SP   3 1.00       0.000000000000
      0.7868272350D+01 -0.1193324198D+00  0.6899906659D-01
      0.1881288540D+01 -0.1608541517D+00  0.3164239610D+00
      0.5442492580D+00  0.1143456438D+01  0.7443082909D+00
 SP   1 1.00       0.000000000000
      0.1687144782D+00  0.1000000000D+01  0.1000000000D+01
 D   1 1.00       0.000000000000
      0.8000000000D+00  0.1000000000D+01
 ****
     36 0
 S   6 1.00       0.000000000000
      0.3047524880D+04  0.1834737132D-02
      0.4573695180D+03  0.1403732281D-01
      0.1039486850D+03  0.6884262226D-01
      0.2921015530D+02  0.2321844432D+00
      0.9286662960D+01  0.4679413484D+00
      0.3163926960D+01  0.3623119853D+00
 SP   3 1.00       0.000000000000
      0.7868272350D+01 -0.1193324198D+00  0.6899906659D-01
      0.1881288540D+01 -0.1608541517D+00  0.3164239610D+00
      0.5442492580D+00  0.1143456438D+01  0.7443082909D+00
 SP   1 1.00       0.000000000000
      0.1687144782D+00  0.1000000000D+01  0.1000000000D+01
 D   1 1.00       0.000000000000
      0.8000000000D+00  0.1000000000D+01
 ****
     37 0
 S   3 1.00       0.000000000000
      0.1873113696D+02  0.3349460434D-01
      0.2825394365D+01  0.2347269535D+00
      0.6401216923D+00  0.8137573261D+00
 S   1 1.00       0.000000000000
      0.1612777588D+00  0.1000000000D+01
 ****
     38 0
 S   3 1.00       0.000000000000
      0.1873113696D+02  0.3349460434D-01
      0.2825394365D+01  0.2347269535D+00
      0.6401216923D+00  0.8137573261D+00
 S   1 1.00       0.000000000000
      0.1612777588D+00  0.1000000000D+01
 ****
     39 0
 S   6 1.00       0.000000000000
      0.3047524880D+04  0.1834737132D-02
      0.4573695180D+03  0.1403732281D-01
      0.1039486850D+03  0.6884262226D-01
      0.2921015530D+02  0.2321844432D+00
      0.9286662960D+01  0.4679413484D+00
      0.3163926960D+01  0.3623119853D+00
 SP   3 1.00       0.000000000000
      0.7868272350D+01 -0.1193324198D+00  0.6899906659D-01
      0.1881288540D+01 -0.1608541517D+00  0.3164239610D+00
      0.5442492580D+00  0.1143456438D+01  0.7443082909D+00
 SP   1 1.00       0.000000000000
      0.1687144782D+00  0.1000000000D+01  0.1000000000D+01
 D   1 1.00       0.000000000000
      0.8000000000D+00  0.1000000000D+01
 ****
     40 0
 S   3 1.00       0.000000000000
      0.1873113696D+02  0.3349460434D-01
      0.2825394365D+01  0.2347269535D+00
      0.6401216923D+00  0.8137573261D+00
 S   1 1.00       0.000000000000
      0.1612777588D+00  0.1000000000D+01
 ****
     41 0
 S   6 1.00       0.000000000000
      0.3047524880D+04  0.1834737132D-02
      0.4573695180D+03  0.1403732281D-01
      0.1039486850D+03  0.6884262226D-01
      0.2921015530D+02  0.2321844432D+00
      0.9286662960D+01  0.4679413484D+00
      0.3163926960D+01  0.3623119853D+00
 SP   3 1.00       0.000000000000
      0.7868272350D+01 -0.1193324198D+00  0.6899906659D-01
      0.1881288540D+01 -0.1608541517D+00  0.3164239610D+00
      0.5442492580D+00  0.1143456438D+01  0.7443082909D+00
 SP   1 1.00       0.000000000000
      0.1687144782D+00  0.1000000000D+01  0.1000000000D+01
 D   1 1.00       0.000000000000
      0.8000000000D+00  0.1000000000D+01
 ****
     42 0
 S   3 1.00       0.000000000000
      0.1873113696D+02  0.3349460434D-01
      0.2825394365D+01  0.2347269535D+00
      0.6401216923D+00  0.8137573261D+00
 S   1 1.00       0.000000000000
      0.1612777588D+00  0.1000000000D+01
 ****
     43 0
 S   3 1.00       0.000000000000
      0.1873113696D+02  0.3349460434D-01
      0.2825394365D+01  0.2347269535D+00
      0.6401216923D+00  0.8137573261D+00
 S   1 1.00       0.000000000000
      0.1612777588D+00  0.1000000000D+01
 ****
     44 0
 S   3 1.00       0.000000000000
      0.1873113696D+02  0.3349460434D-01
      0.2825394365D+01  0.2347269535D+00
      0.6401216923D+00  0.8137573261D+00
 S   1 1.00       0.000000000000
      0.1612777588D+00  0.1000000000D+01
 ****
     45 0
 S   6 1.00       0.000000000000
      0.3047524880D+04  0.1834737132D-02
      0.4573695180D+03  0.1403732281D-01
      0.1039486850D+03  0.6884262226D-01
      0.2921015530D+02  0.2321844432D+00
      0.9286662960D+01  0.4679413484D+00
      0.3163926960D+01  0.3623119853D+00
 SP   3 1.00       0.000000000000
      0.7868272350D+01 -0.1193324198D+00  0.6899906659D-01
      0.1881288540D+01 -0.1608541517D+00  0.3164239610D+00
      0.5442492580D+00  0.1143456438D+01  0.7443082909D+00
 SP   1 1.00       0.000000000000
      0.1687144782D+00  0.1000000000D+01  0.1000000000D+01
 D   1 1.00       0.000000000000
      0.8000000000D+00  0.1000000000D+01
 ****
     46 0
 S   3 1.00       0.000000000000
      0.1873113696D+02  0.3349460434D-01
      0.2825394365D+01  0.2347269535D+00
      0.6401216923D+00  0.8137573261D+00
 S   1 1.00       0.000000000000
      0.1612777588D+00  0.1000000000D+01
 ****
     47 0
 S   3 1.00       0.000000000000
      0.1873113696D+02  0.3349460434D-01
      0.2825394365D+01  0.2347269535D+00
      0.6401216923D+00  0.8137573261D+00
 S   1 1.00       0.000000000000
      0.1612777588D+00  0.1000000000D+01
 ****
     48 0
 S   6 1.00       0.000000000000
      0.3047524880D+04  0.1834737132D-02
      0.4573695180D+03  0.1403732281D-01
      0.1039486850D+03  0.6884262226D-01
      0.2921015530D+02  0.2321844432D+00
      0.9286662960D+01  0.4679413484D+00
      0.3163926960D+01  0.3623119853D+00
 SP   3 1.00       0.000000000000
      0.7868272350D+01 -0.1193324198D+00  0.6899906659D-01
      0.1881288540D+01 -0.1608541517D+00  0.3164239610D+00
      0.5442492580D+00  0.1143456438D+01  0.7443082909D+00
 SP   1 1.00       0.000000000000
      0.1687144782D+00  0.1000000000D+01  0.1000000000D+01
 D   1 1.00       0.000000000000
      0.8000000000D+00  0.1000000000D+01
 ****
     49 0
 S   3 1.00       0.000000000000
      0.1873113696D+02  0.3349460434D-01
      0.2825394365D+01  0.2347269535D+00
      0.6401216923D+00  0.8137573261D+00
 S   1 1.00       0.000000000000
      0.1612777588D+00  0.1000000000D+01
 ****
     50 0
 S   3 1.00       0.000000000000
      0.1873113696D+02  0.3349460434D-01
      0.2825394365D+01  0.2347269535D+00
      0.6401216923D+00  0.8137573261D+00
 S   1 1.00       0.000000000000
      0.1612777588D+00  0.1000000000D+01
 ****
     51 0
 S   6 1.00       0.000000000000
      0.3047524880D+04  0.1834737132D-02
      0.4573695180D+03  0.1403732281D-01
      0.1039486850D+03  0.6884262226D-01
      0.2921015530D+02  0.2321844432D+00
      0.9286662960D+01  0.4679413484D+00
      0.3163926960D+01  0.3623119853D+00
 SP   3 1.00       0.000000000000
      0.7868272350D+01 -0.1193324198D+00  0.6899906659D-01
      0.1881288540D+01 -0.1608541517D+00  0.3164239610D+00
      0.5442492580D+00  0.1143456438D+01  0.7443082909D+00
 SP   1 1.00       0.000000000000
      0.1687144782D+00  0.1000000000D+01  0.1000000000D+01
 D   1 1.00       0.000000000000
      0.8000000000D+00  0.1000000000D+01
 ****
     52 0
 S   3 1.00       0.000000000000
      0.1873113696D+02  0.3349460434D-01
      0.2825394365D+01  0.2347269535D+00
      0.6401216923D+00  0.8137573261D+00
 S   1 1.00       0.000000000000
      0.1612777588D+00  0.1000000000D+01
 ****
     53 0
 S   3 1.00       0.000000000000
      0.1873113696D+02  0.3349460434D-01
      0.2825394365D+01  0.2347269535D+00
      0.6401216923D+00  0.8137573261D+00
 S   1 1.00       0.000000000000
      0.1612777588D+00  0.1000000000D+01
 ****
     54 0
 S   6 1.00       0.000000000000
      0.3047524880D+04  0.1834737132D-02
      0.4573695180D+03  0.1403732281D-01
      0.1039486850D+03  0.6884262226D-01
      0.2921015530D+02  0.2321844432D+00
      0.9286662960D+01  0.4679413484D+00
      0.3163926960D+01  0.3623119853D+00
 SP   3 1.00       0.000000000000
      0.7868272350D+01 -0.1193324198D+00  0.6899906659D-01
      0.1881288540D+01 -0.1608541517D+00  0.3164239610D+00
      0.5442492580D+00  0.1143456438D+01  0.7443082909D+00
 SP   1 1.00       0.000000000000
      0.1687144782D+00  0.1000000000D+01  0.1000000000D+01
 D   1 1.00       0.000000000000
      0.8000000000D+00  0.1000000000D+01
 ****
     55 0
 S   3 1.00       0.000000000000
      0.1873113696D+02  0.3349460434D-01
      0.2825394365D+01  0.2347269535D+00
      0.6401216923D+00  0.8137573261D+00
 S   1 1.00       0.000000000000
      0.1612777588D+00  0.1000000000D+01
 ****
     56 0
 S   6 1.00       0.000000000000
      0.3047524880D+04  0.1834737132D-02
      0.4573695180D+03  0.1403732281D-01
      0.1039486850D+03  0.6884262226D-01
      0.2921015530D+02  0.2321844432D+00
      0.9286662960D+01  0.4679413484D+00
      0.3163926960D+01  0.3623119853D+00
 SP   3 1.00       0.000000000000
      0.7868272350D+01 -0.1193324198D+00  0.6899906659D-01
      0.1881288540D+01 -0.1608541517D+00  0.3164239610D+00
      0.5442492580D+00  0.1143456438D+01  0.7443082909D+00
 SP   1 1.00       0.000000000000
      0.1687144782D+00  0.1000000000D+01  0.1000000000D+01
 D   1 1.00       0.000000000000
      0.8000000000D+00  0.1000000000D+01
 ****
     57 0
 S   3 1.00       0.000000000000
      0.1873113696D+02  0.3349460434D-01
      0.2825394365D+01  0.2347269535D+00
      0.6401216923D+00  0.8137573261D+00
 S   1 1.00       0.000000000000
      0.1612777588D+00  0.1000000000D+01
 ****
     58 0
 S   3 1.00       0.000000000000
      0.1873113696D+02  0.3349460434D-01
      0.2825394365D+01  0.2347269535D+00
      0.6401216923D+00  0.8137573261D+00
 S   1 1.00       0.000000000000
      0.1612777588D+00  0.1000000000D+01
 ****
     59 0
 S   3 1.00       0.000000000000
      0.1873113696D+02  0.3349460434D-01
      0.2825394365D+01  0.2347269535D+00
      0.6401216923D+00  0.8137573261D+00
 S   1 1.00       0.000000000000
      0.1612777588D+00  0.1000000000D+01
 ****
     60 0
 S   6 1.00       0.000000000000
      0.3047524880D+04  0.1834737132D-02
      0.4573695180D+03  0.1403732281D-01
      0.1039486850D+03  0.6884262226D-01
      0.2921015530D+02  0.2321844432D+00
      0.9286662960D+01  0.4679413484D+00
      0.3163926960D+01  0.3623119853D+00
 SP   3 1.00       0.000000000000
      0.7868272350D+01 -0.1193324198D+00  0.6899906659D-01
      0.1881288540D+01 -0.1608541517D+00  0.3164239610D+00
      0.5442492580D+00  0.1143456438D+01  0.7443082909D+00
 SP   1 1.00       0.000000000000
      0.1687144782D+00  0.1000000000D+01  0.1000000000D+01
 D   1 1.00       0.000000000000
      0.8000000000D+00  0.1000000000D+01
 ****
     61 0
 S   3 1.00       0.000000000000
      0.1873113696D+02  0.3349460434D-01
      0.2825394365D+01  0.2347269535D+00
      0.6401216923D+00  0.8137573261D+00
 S   1 1.00       0.000000000000
      0.1612777588D+00  0.1000000000D+01
 ****
     62 0
 S   3 1.00       0.000000000000
      0.1873113696D+02  0.3349460434D-01
      0.2825394365D+01  0.2347269535D+00
      0.6401216923D+00  0.8137573261D+00
 S   1 1.00       0.000000000000
      0.1612777588D+00  0.1000000000D+01
 ****
     63 0
 S   6 1.00       0.000000000000
      0.3047524880D+04  0.1834737132D-02
      0.4573695180D+03  0.1403732281D-01
      0.1039486850D+03  0.6884262226D-01
      0.2921015530D+02  0.2321844432D+00
      0.9286662960D+01  0.4679413484D+00
      0.3163926960D+01  0.3623119853D+00
 SP   3 1.00       0.000000000000
      0.7868272350D+01 -0.1193324198D+00  0.6899906659D-01
      0.1881288540D+01 -0.1608541517D+00  0.3164239610D+00
      0.5442492580D+00  0.1143456438D+01  0.7443082909D+00
 SP   1 1.00       0.000000000000
      0.1687144782D+00  0.1000000000D+01  0.1000000000D+01
 D   1 1.00       0.000000000000
      0.8000000000D+00  0.1000000000D+01
 ****
     64 0
 S   3 1.00       0.000000000000
      0.1873113696D+02  0.3349460434D-01
      0.2825394365D+01  0.2347269535D+00
      0.6401216923D+00  0.8137573261D+00
 S   1 1.00       0.000000000000
      0.1612777588D+00  0.1000000000D+01
 ****
     65 0
 S   3 1.00       0.000000000000
      0.1873113696D+02  0.3349460434D-01
      0.2825394365D+01  0.2347269535D+00
      0.6401216923D+00  0.8137573261D+00
 S   1 1.00       0.000000000000
      0.1612777588D+00  0.1000000000D+01
 ****
     66 0
 S   6 1.00       0.000000000000
      0.3047524880D+04  0.1834737132D-02
      0.4573695180D+03  0.1403732281D-01
      0.1039486850D+03  0.6884262226D-01
      0.2921015530D+02  0.2321844432D+00
      0.9286662960D+01  0.4679413484D+00
      0.3163926960D+01  0.3623119853D+00
 SP   3 1.00       0.000000000000
      0.7868272350D+01 -0.1193324198D+00  0.6899906659D-01
      0.1881288540D+01 -0.1608541517D+00  0.3164239610D+00
      0.5442492580D+00  0.1143456438D+01  0.7443082909D+00
 SP   1 1.00       0.000000000000
      0.1687144782D+00  0.1000000000D+01  0.1000000000D+01
 D   1 1.00       0.000000000000
      0.8000000000D+00  0.1000000000D+01
 ****
     67 0
 S   3 1.00       0.000000000000
      0.1873113696D+02  0.3349460434D-01
      0.2825394365D+01  0.2347269535D+00
      0.6401216923D+00  0.8137573261D+00
 S   1 1.00       0.000000000000
      0.1612777588D+00  0.1000000000D+01
 ****
     68 0
 S   6 1.00       0.000000000000
      0.3047524880D+04  0.1834737132D-02
      0.4573695180D+03  0.1403732281D-01
      0.1039486850D+03  0.6884262226D-01
      0.2921015530D+02  0.2321844432D+00
      0.9286662960D+01  0.4679413484D+00
      0.3163926960D+01  0.3623119853D+00
 SP   3 1.00       0.000000000000
      0.7868272350D+01 -0.1193324198D+00  0.6899906659D-01
      0.1881288540D+01 -0.1608541517D+00  0.3164239610D+00
      0.5442492580D+00  0.1143456438D+01  0.7443082909D+00
 SP   1 1.00       0.000000000000
      0.1687144782D+00  0.1000000000D+01  0.1000000000D+01
 D   1 1.00       0.000000000000
      0.8000000000D+00  0.1000000000D+01
 ****
     69 0
 S   3 1.00       0.000000000000
      0.1873113696D+02  0.3349460434D-01
      0.2825394365D+01  0.2347269535D+00
      0.6401216923D+00  0.8137573261D+00
 S   1 1.00       0.000000000000
      0.1612777588D+00  0.1000000000D+01
 ****
     70 0
 S   3 1.00       0.000000000000
      0.1873113696D+02  0.3349460434D-01
      0.2825394365D+01  0.2347269535D+00
      0.6401216923D+00  0.8137573261D+00
 S   1 1.00       0.000000000000
      0.1612777588D+00  0.1000000000D+01
 ****
     71 0
 S   3 1.00       0.000000000000
      0.1873113696D+02  0.3349460434D-01
      0.2825394365D+01  0.2347269535D+00
      0.6401216923D+00  0.8137573261D+00
 S   1 1.00       0.000000000000
      0.1612777588D+00  0.1000000000D+01
 ****
     72 0
 S   6 1.00       0.000000000000
      0.3047524880D+04  0.1834737132D-02
      0.4573695180D+03  0.1403732281D-01
      0.1039486850D+03  0.6884262226D-01
      0.2921015530D+02  0.2321844432D+00
      0.9286662960D+01  0.4679413484D+00
      0.3163926960D+01  0.3623119853D+00
 SP   3 1.00       0.000000000000
      0.7868272350D+01 -0.1193324198D+00  0.6899906659D-01
      0.1881288540D+01 -0.1608541517D+00  0.3164239610D+00
      0.5442492580D+00  0.1143456438D+01  0.7443082909D+00
 SP   1 1.00       0.000000000000
      0.1687144782D+00  0.1000000000D+01  0.1000000000D+01
 D   1 1.00       0.000000000000
      0.8000000000D+00  0.1000000000D+01
 ****
     73 0
 S   3 1.00       0.000000000000
      0.1873113696D+02  0.3349460434D-01
      0.2825394365D+01  0.2347269535D+00
      0.6401216923D+00  0.8137573261D+00
 S   1 1.00       0.000000000000
      0.1612777588D+00  0.1000000000D+01
 ****
     74 0
 S   3 1.00       0.000000000000
      0.1873113696D+02  0.3349460434D-01
      0.2825394365D+01  0.2347269535D+00
      0.6401216923D+00  0.8137573261D+00
 S   1 1.00       0.000000000000
      0.1612777588D+00  0.1000000000D+01
 ****
     75 0
 S   3 1.00       0.000000000000
      0.1873113696D+02  0.3349460434D-01
      0.2825394365D+01  0.2347269535D+00
      0.6401216923D+00  0.8137573261D+00
 S   1 1.00       0.000000000000
      0.1612777588D+00  0.1000000000D+01
 ****

 AO basis set (Overlap normalization):
 Atom O1       Shell     1 S   6     bf    1 -     1         11.576166226664          7.021168863073          0.000000000000
      0.5484671660D+04  0.1831074430D-02
      0.8252349460D+03  0.1395017220D-01
      0.1880469580D+03  0.6844507810D-01
      0.5296450000D+02  0.2327143360D+00
      0.1689757040D+02  0.4701928980D+00
      0.5799635340D+01  0.3585208530D+00
 Atom O1       Shell     2 SP   3    bf    2 -     5         11.576166226664          7.021168863073          0.000000000000
      0.1553961625D+02 -0.1107775495D+00  0.7087426823D-01
      0.3599933586D+01 -0.1480262627D+00  0.3397528391D+00
      0.1013761750D+01  0.1130767015D+01  0.7271585773D+00
 Atom O1       Shell     3 SP   1    bf    6 -     9         11.576166226664          7.021168863073          0.000000000000
      0.2700058226D+00  0.1000000000D+01  0.1000000000D+01
 Atom O1       Shell     4 D   1     bf   10 -    15         11.576166226664          7.021168863073          0.000000000000
      0.8000000000D+00  0.1000000000D+01
 Atom H2       Shell     5 S   3     bf   16 -    16         11.068868490401          7.046915266695         -1.756574668960
      0.1873113696D+02  0.3349460434D-01
      0.2825394365D+01  0.2347269535D+00
      0.6401216923D+00  0.8137573261D+00
 Atom H2       Shell     6 S   1     bf   17 -    17         11.068868490401          7.046915266695         -1.756574668960
      0.1612777588D+00  0.1000000000D+01
 Atom O3       Shell     7 S   6     bf   18 -    18          0.000000000000          0.000000000000          0.000000000000
      0.5484671660D+04  0.1831074430D-02
      0.8252349460D+03  0.1395017220D-01
      0.1880469580D+03  0.6844507810D-01
      0.5296450000D+02  0.2327143360D+00
      0.1689757040D+02  0.4701928980D+00
      0.5799635340D+01  0.3585208530D+00
 Atom O3       Shell     8 SP   3    bf   19 -    22          0.000000000000          0.000000000000          0.000000000000
      0.1553961625D+02 -0.1107775495D+00  0.7087426823D-01
      0.3599933586D+01 -0.1480262627D+00  0.3397528391D+00
      0.1013761750D+01  0.1130767015D+01  0.7271585773D+00
 Atom O3       Shell     9 SP   1    bf   23 -    26          0.000000000000          0.000000000000          0.000000000000
      0.2700058226D+00  0.1000000000D+01  0.1000000000D+01
 Atom O3       Shell    10 D   1     bf   27 -    32          0.000000000000          0.000000000000          0.000000000000
      0.8000000000D+00  0.1000000000D+01
 Atom H4       Shell    11 S   3     bf   33 -    33         -0.211587948578         -0.315444840198         -1.788523796257
      0.1873113696D+02  0.3349460434D-01
      0.2825394365D+01  0.2347269535D+00
      0.6401216923D+00  0.8137573261D+00
 Atom H4       Shell    12 S   1     bf   34 -    34         -0.211587948578         -0.315444840198         -1.788523796257
      0.1612777588D+00  0.1000000000D+01
 Atom C5       Shell    13 S   6     bf   35 -    35         16.681305461965          0.115563329273          0.790898971472
      0.3047524880D+04  0.1834737132D-02
      0.4573695180D+03  0.1403732281D-01
      0.1039486850D+03  0.6884262226D-01
      0.2921015530D+02  0.2321844432D+00
      0.9286662960D+01  0.4679413484D+00
      0.3163926960D+01  0.3623119853D+00
 Atom C5       Shell    14 SP   3    bf   36 -    39         16.681305461965          0.115563329273          0.790898971472
      0.7868272350D+01 -0.1193324198D+00  0.6899906659D-01
      0.1881288540D+01 -0.1608541517D+00  0.3164239610D+00
      0.5442492580D+00  0.1143456438D+01  0.7443082909D+00
 Atom C5       Shell    15 SP   1    bf   40 -    43         16.681305461965          0.115563329273          0.790898971472
      0.1687144782D+00  0.1000000000D+01  0.1000000000D+01
 Atom C5       Shell    16 D   1     bf   44 -    49         16.681305461965          0.115563329273          0.790898971472
      0.8000000000D+00  0.1000000000D+01
 Atom C6       Shell    17 S   6     bf   50 -    50         14.936994132951          2.373615415801          1.505400416096
      0.3047524880D+04  0.1834737132D-02
      0.4573695180D+03  0.1403732281D-01
      0.1039486850D+03  0.6884262226D-01
      0.2921015530D+02  0.2321844432D+00
      0.9286662960D+01  0.4679413484D+00
      0.3163926960D+01  0.3623119853D+00
 Atom C6       Shell    18 SP   3    bf   51 -    54         14.936994132951          2.373615415801          1.505400416096
      0.7868272350D+01 -0.1193324198D+00  0.6899906659D-01
      0.1881288540D+01 -0.1608541517D+00  0.3164239610D+00
      0.5442492580D+00  0.1143456438D+01  0.7443082909D+00
 Atom C6       Shell    19 SP   1    bf   55 -    58         14.936994132951          2.373615415801          1.505400416096
      0.1687144782D+00  0.1000000000D+01  0.1000000000D+01
 Atom C6       Shell    20 D   1     bf   59 -    64         14.936994132951          2.373615415801          1.505400416096
      0.8000000000D+00  0.1000000000D+01
 Atom H7       Shell    21 S   3     bf   65 -    65         14.519175363716          2.110030896786          3.532455328114
      0.1873113696D+02  0.3349460434D-01
      0.2825394365D+01  0.2347269535D+00
      0.6401216923D+00  0.8137573261D+00
 Atom H7       Shell    22 S   1     bf   66 -    66         14.519175363716          2.110030896786          3.532455328114
      0.1612777588D+00  0.1000000000D+01
 Atom C8       Shell    23 S   6     bf   67 -    67         12.345309782723          2.408585440397          0.185500713951
      0.3047524880D+04  0.1834737132D-02
      0.4573695180D+03  0.1403732281D-01
      0.1039486850D+03  0.6884262226D-01
      0.2921015530D+02  0.2321844432D+00
      0.9286662960D+01  0.4679413484D+00
      0.3163926960D+01  0.3623119853D+00
 Atom C8       Shell    24 SP   3    bf   68 -    71         12.345309782723          2.408585440397          0.185500713951
      0.7868272350D+01 -0.1193324198D+00  0.6899906659D-01
      0.1881288540D+01 -0.1608541517D+00  0.3164239610D+00
      0.5442492580D+00  0.1143456438D+01  0.7443082909D+00
 Atom C8       Shell    25 SP   1    bf   72 -    75         12.345309782723          2.408585440397          0.185500713951
      0.1687144782D+00  0.1000000000D+01  0.1000000000D+01
 Atom C8       Shell    26 D   1     bf   76 -    81         12.345309782723          2.408585440397          0.185500713951
      0.8000000000D+00  0.1000000000D+01
 Atom H9       Shell    27 S   3     bf   82 -    82         12.610452210859          2.627074612121         -1.864509362807
      0.1873113696D+02  0.3349460434D-01
      0.2825394365D+01  0.2347269535D+00
      0.6401216923D+00  0.8137573261D+00
 Atom H9       Shell    28 S   1     bf   83 -    83         12.610452210859          2.627074612121         -1.864509362807
      0.1612777588D+00  0.1000000000D+01
 Atom C10      Shell    29 S   6     bf   84 -    84         10.933140687249         -0.110316240103          0.723042288649
      0.3047524880D+04  0.1834737132D-02
      0.4573695180D+03  0.1403732281D-01
      0.1039486850D+03  0.6884262226D-01
      0.2921015530D+02  0.2321844432D+00
      0.9286662960D+01  0.4679413484D+00
      0.3163926960D+01  0.3623119853D+00
 Atom C10      Shell    30 SP   3    bf   85 -    88         10.933140687249         -0.110316240103          0.723042288649
      0.7868272350D+01 -0.1193324198D+00  0.6899906659D-01
      0.1881288540D+01 -0.1608541517D+00  0.3164239610D+00
      0.5442492580D+00  0.1143456438D+01  0.7443082909D+00
 Atom C10      Shell    31 SP   1    bf   89 -    92         10.933140687249         -0.110316240103          0.723042288649
      0.1687144782D+00  0.1000000000D+01  0.1000000000D+01
 Atom C10      Shell    32 D   1     bf   93 -    98         10.933140687249         -0.110316240103          0.723042288649
      0.8000000000D+00  0.1000000000D+01
 Atom H11      Shell    33 S   3     bf   99 -    99         10.534521006401         -0.104317285597          2.767999388906
      0.1873113696D+02  0.3349460434D-01
      0.2825394365D+01  0.2347269535D+00
      0.6401216923D+00  0.8137573261D+00
 Atom H11      Shell    34 S   1     bf  100 -   100         10.534521006401         -0.104317285597          2.767999388906
      0.1612777588D+00  0.1000000000D+01
 Atom C12      Shell    35 S   6     bf  101 -   101         19.053318881335          0.742196061404          2.454197514402
      0.3047524880D+04  0.1834737132D-02
      0.4573695180D+03  0.1403732281D-01
      0.1039486850D+03  0.6884262226D-01
      0.2921015530D+02  0.2321844432D+00
      0.9286662960D+01  0.4679413484D+00
      0.3163926960D+01  0.3623119853D+00
 Atom C12      Shell    36 SP   3    bf  102 -   105         19.053318881335          0.742196061404          2.454197514402
      0.7868272350D+01 -0.1193324198D+00  0.6899906659D-01
      0.1881288540D+01 -0.1608541517D+00  0.3164239610D+00
      0.5442492580D+00  0.1143456438D+01  0.7443082909D+00
 Atom C12      Shell    37 SP   1    bf  106 -   109         19.053318881335          0.742196061404          2.454197514402
      0.1687144782D+00  0.1000000000D+01  0.1000000000D+01
 Atom C12      Shell    38 D   1     bf  110 -   115         19.053318881335          0.742196061404          2.454197514402
      0.8000000000D+00  0.1000000000D+01
 Atom H13      Shell    39 S   3     bf  116 -   116         18.529982585847          0.252249053499          4.409143973182
      0.1873113696D+02  0.3349460434D-01
      0.2825394365D+01  0.2347269535D+00
      0.6401216923D+00  0.8137573261D+00
 Atom H13      Shell    40 S   1     bf  117 -   117         18.529982585847          0.252249053499          4.409143973182
      0.1612777588D+00  0.1000000000D+01
 Atom C14      Shell    41 S   6     bf  118 -   118         15.236384048896         -2.315356878775          1.489760286730
      0.3047524880D+04  0.1834737132D-02
      0.4573695180D+03  0.1403732281D-01
      0.1039486850D+03  0.6884262226D-01
      0.2921015530D+02  0.2321844432D+00
      0.9286662960D+01  0.4679413484D+00
      0.3163926960D+01  0.3623119853D+00
 Atom C14      Shell    42 SP   3    bf  119 -   122         15.236384048896         -2.315356878775          1.489760286730
      0.7868272350D+01 -0.1193324198D+00  0.6899906659D-01
      0.1881288540D+01 -0.1608541517D+00  0.3164239610D+00
      0.5442492580D+00  0.1143456438D+01  0.7443082909D+00
 Atom C14      Shell    43 SP   1    bf  123 -   126         15.236384048896         -2.315356878775          1.489760286730
      0.1687144782D+00  0.1000000000D+01  0.1000000000D+01
 Atom C14      Shell    44 D   1     bf  127 -   132         15.236384048896         -2.315356878775          1.489760286730
      0.8000000000D+00  0.1000000000D+01
 Atom H15      Shell    45 S   3     bf  133 -   133         14.993322352526         -2.373025802351          3.552750608836
      0.1873113696D+02  0.3349460434D-01
      0.2825394365D+01  0.2347269535D+00
      0.6401216923D+00  0.8137573261D+00
 Atom H15      Shell    46 S   1     bf  134 -   134         14.993322352526         -2.373025802351          3.552750608836
      0.1612777588D+00  0.1000000000D+01
 Atom H16      Shell    47 S   3     bf  135 -   135         16.297928463284         -4.014869131762          0.976739420387
      0.1873113696D+02  0.3349460434D-01
      0.2825394365D+01  0.2347269535D+00
      0.6401216923D+00  0.8137573261D+00
 Atom H16      Shell    48 S   1     bf  136 -   136         16.297928463284         -4.014869131762          0.976739420387
      0.1612777588D+00  0.1000000000D+01
 Atom C17      Shell    49 S   6     bf  137 -   137          8.286038870955         -0.276305664013         -0.600439351586
      0.3047524880D+04  0.1834737132D-02
      0.4573695180D+03  0.1403732281D-01
      0.1039486850D+03  0.6884262226D-01
      0.2921015530D+02  0.2321844432D+00
      0.9286662960D+01  0.4679413484D+00
      0.3163926960D+01  0.3623119853D+00
 Atom C17      Shell    50 SP   3    bf  138 -   141          8.286038870955         -0.276305664013         -0.600439351586
      0.7868272350D+01 -0.1193324198D+00  0.6899906659D-01
      0.1881288540D+01 -0.1608541517D+00  0.3164239610D+00
      0.5442492580D+00  0.1143456438D+01  0.7443082909D+00
 Atom C17      Shell    51 SP   1    bf  142 -   145          8.286038870955         -0.276305664013         -0.600439351586
      0.1687144782D+00  0.1000000000D+01  0.1000000000D+01
 Atom C17      Shell    52 D   1     bf  146 -   151          8.286038870955         -0.276305664013         -0.600439351586
      0.8000000000D+00  0.1000000000D+01
 Atom C18      Shell    53 S   6     bf  152 -   152         16.673483261892          4.693815965012          1.322851038625
      0.3047524880D+04  0.1834737132D-02
      0.4573695180D+03  0.1403732281D-01
      0.1039486850D+03  0.6884262226D-01
      0.2921015530D+02  0.2321844432D+00
      0.9286662960D+01  0.4679413484D+00
      0.3163926960D+01  0.3623119853D+00
 Atom C18      Shell    54 SP   3    bf  153 -   156         16.673483261892          4.693815965012          1.322851038625
      0.7868272350D+01 -0.1193324198D+00  0.6899906659D-01
      0.1881288540D+01 -0.1608541517D+00  0.3164239610D+00
      0.5442492580D+00  0.1143456438D+01  0.7443082909D+00
 Atom C18      Shell    55 SP   1    bf  157 -   160         16.673483261892          4.693815965012          1.322851038625
      0.1687144782D+00  0.1000000000D+01  0.1000000000D+01
 Atom C18      Shell    56 D   1     bf  161 -   166         16.673483261892          4.693815965012          1.322851038625
      0.8000000000D+00  0.1000000000D+01
 Atom H19      Shell    57 S   3     bf  167 -   167         15.977742848239          6.291454008140          2.429582414227
      0.1873113696D+02  0.3349460434D-01
      0.2825394365D+01  0.2347269535D+00
      0.6401216923D+00  0.8137573261D+00
 Atom H19      Shell    58 S   1     bf  168 -   168         15.977742848239          6.291454008140          2.429582414227
      0.1612777588D+00  0.1000000000D+01
 Atom H20      Shell    59 S   3     bf  169 -   169         16.795475061524          5.361011385126         -0.632441617982
      0.1873113696D+02  0.3349460434D-01
      0.2825394365D+01  0.2347269535D+00
      0.6401216923D+00  0.8137573261D+00
 Atom H20      Shell    60 S   1     bf  170 -   170         16.795475061524          5.361011385126         -0.632441617982
      0.1612777588D+00  0.1000000000D+01
 Atom C21      Shell    61 S   6     bf  171 -   171         12.626567927601         -2.433764170289          0.205128033177
      0.3047524880D+04  0.1834737132D-02
      0.4573695180D+03  0.1403732281D-01
      0.1039486850D+03  0.6884262226D-01
      0.2921015530D+02  0.2321844432D+00
      0.9286662960D+01  0.4679413484D+00
      0.3163926960D+01  0.3623119853D+00
 Atom C21      Shell    62 SP   3    bf  172 -   175         12.626567927601         -2.433764170289          0.205128033177
      0.7868272350D+01 -0.1193324198D+00  0.6899906659D-01
      0.1881288540D+01 -0.1608541517D+00  0.3164239610D+00
      0.5442492580D+00  0.1143456438D+01  0.7443082909D+00
 Atom C21      Shell    63 SP   1    bf  176 -   179         12.626567927601         -2.433764170289          0.205128033177
      0.1687144782D+00  0.1000000000D+01  0.1000000000D+01
 Atom C21      Shell    64 D   1     bf  180 -   185         12.626567927601         -2.433764170289          0.205128033177
      0.8000000000D+00  0.1000000000D+01
 Atom H22      Shell    65 S   3     bf  186 -   186         12.901739340195         -2.658638424260         -1.834187384196
      0.1873113696D+02  0.3349460434D-01
      0.2825394365D+01  0.2347269535D+00
      0.6401216923D+00  0.8137573261D+00
 Atom H22      Shell    66 S   1     bf  187 -   187         12.901739340195         -2.658638424260         -1.834187384196
      0.1612777588D+00  0.1000000000D+01
 Atom H23      Shell    67 S   3     bf  188 -   188         11.661475324009         -4.151278899281          0.842002740797
      0.1873113696D+02  0.3349460434D-01
      0.2825394365D+01  0.2347269535D+00
      0.6401216923D+00  0.8137573261D+00
 Atom H23      Shell    68 S   1     bf  189 -   189         11.661475324009         -4.151278899281          0.842002740797
      0.1612777588D+00  0.1000000000D+01
 Atom C24      Shell    69 S   6     bf  190 -   190         19.260759807018          3.692041887454          2.273994326412
      0.3047524880D+04  0.1834737132D-02
      0.4573695180D+03  0.1403732281D-01
      0.1039486850D+03  0.6884262226D-01
      0.2921015530D+02  0.2321844432D+00
      0.9286662960D+01  0.4679413484D+00
      0.3163926960D+01  0.3623119853D+00
 Atom C24      Shell    70 SP   3    bf  191 -   194         19.260759807018          3.692041887454          2.273994326412
      0.7868272350D+01 -0.1193324198D+00  0.6899906659D-01
      0.1881288540D+01 -0.1608541517D+00  0.3164239610D+00
      0.5442492580D+00  0.1143456438D+01  0.7443082909D+00
 Atom C24      Shell    71 SP   1    bf  195 -   198         19.260759807018          3.692041887454          2.273994326412
      0.1687144782D+00  0.1000000000D+01  0.1000000000D+01
 Atom C24      Shell    72 D   1     bf  199 -   204         19.260759807018          3.692041887454          2.273994326412
      0.8000000000D+00  0.1000000000D+01
 Atom H25      Shell    73 S   3     bf  205 -   205         20.786790816841          4.232844033416          0.980763629981
      0.1873113696D+02  0.3349460434D-01
      0.2825394365D+01  0.2347269535D+00
      0.6401216923D+00  0.8137573261D+00
 Atom H25      Shell    74 S   1     bf  206 -   206         20.786790816841          4.232844033416          0.980763629981
      0.1612777588D+00  0.1000000000D+01
 Atom H26      Shell    75 S   3     bf  207 -   207         19.740909737656          4.512500862164          4.110304836815
      0.1873113696D+02  0.3349460434D-01
      0.2825394365D+01  0.2347269535D+00
      0.6401216923D+00  0.8137573261D+00
 Atom H26      Shell    76 S   1     bf  208 -   208         19.740909737656          4.512500862164          4.110304836815
      0.1612777588D+00  0.1000000000D+01
 Atom C27      Shell    77 S   6     bf  209 -   209         10.735796870650          4.665210670312          1.079293629296
      0.3047524880D+04  0.1834737132D-02
      0.4573695180D+03  0.1403732281D-01
      0.1039486850D+03  0.6884262226D-01
      0.2921015530D+02  0.2321844432D+00
      0.9286662960D+01  0.4679413484D+00
      0.3163926960D+01  0.3623119853D+00
 Atom C27      Shell    78 SP   3    bf  210 -   213         10.735796870650          4.665210670312          1.079293629296
      0.7868272350D+01 -0.1193324198D+00  0.6899906659D-01
      0.1881288540D+01 -0.1608541517D+00  0.3164239610D+00
      0.5442492580D+00  0.1143456438D+01  0.7443082909D+00
 Atom C27      Shell    79 SP   1    bf  214 -   217         10.735796870650          4.665210670312          1.079293629296
      0.1687144782D+00  0.1000000000D+01  0.1000000000D+01
 Atom C27      Shell    80 D   1     bf  218 -   223         10.735796870650          4.665210670312          1.079293629296
      0.8000000000D+00  0.1000000000D+01
 Atom H28      Shell    81 S   3     bf  224 -   224         11.035851422174          4.939781924783          3.116474034084
      0.1873113696D+02  0.3349460434D-01
      0.2825394365D+01  0.2347269535D+00
      0.6401216923D+00  0.8137573261D+00
 Atom H28      Shell    82 S   1     bf  225 -   225         11.035851422174          4.939781924783          3.116474034084
      0.1612777588D+00  0.1000000000D+01
 Atom C29      Shell    83 S   6     bf  226 -   226         21.604780013982         -0.587924791449          1.901409421394
      0.3047524880D+04  0.1834737132D-02
      0.4573695180D+03  0.1403732281D-01
      0.1039486850D+03  0.6884262226D-01
      0.2921015530D+02  0.2321844432D+00
      0.9286662960D+01  0.4679413484D+00
      0.3163926960D+01  0.3623119853D+00
 Atom C29      Shell    84 SP   3    bf  227 -   230         21.604780013982         -0.587924791449          1.901409421394
      0.7868272350D+01 -0.1193324198D+00  0.6899906659D-01
      0.1881288540D+01 -0.1608541517D+00  0.3164239610D+00
      0.5442492580D+00  0.1143456438D+01  0.7443082909D+00
 Atom C29      Shell    85 SP   1    bf  231 -   234         21.604780013982         -0.587924791449          1.901409421394
      0.1687144782D+00  0.1000000000D+01  0.1000000000D+01
 Atom C29      Shell    86 D   1     bf  235 -   240         21.604780013982         -0.587924791449          1.901409421394
      0.8000000000D+00  0.1000000000D+01
 Atom H30      Shell    87 S   3     bf  241 -   241         22.204522793618          0.000000000000          0.000000000000
      0.1873113696D+02  0.3349460434D-01
      0.2825394365D+01  0.2347269535D+00
      0.6401216923D+00  0.8137573261D+00
 Atom H30      Shell    88 S   1     bf  242 -   242         22.204522793618          0.000000000000          0.000000000000
      0.1612777588D+00  0.1000000000D+01
 Atom C31      Shell    89 S   6     bf  243 -   243         17.393076063355          0.121037185578         -2.043140147477
      0.3047524880D+04  0.1834737132D-02
      0.4573695180D+03  0.1403732281D-01
      0.1039486850D+03  0.6884262226D-01
      0.2921015530D+02  0.2321844432D+00
      0.9286662960D+01  0.4679413484D+00
      0.3163926960D+01  0.3623119853D+00
 Atom C31      Shell    90 SP   3    bf  244 -   247         17.393076063355          0.121037185578         -2.043140147477
      0.7868272350D+01 -0.1193324198D+00  0.6899906659D-01
      0.1881288540D+01 -0.1608541517D+00  0.3164239610D+00
      0.5442492580D+00  0.1143456438D+01  0.7443082909D+00
 Atom C31      Shell    91 SP   1    bf  248 -   251         17.393076063355          0.121037185578         -2.043140147477
      0.1687144782D+00  0.1000000000D+01  0.1000000000D+01
 Atom C31      Shell    92 D   1     bf  252 -   257         17.393076063355          0.121037185578         -2.043140147477
      0.8000000000D+00  0.1000000000D+01
 Atom H32      Shell    93 S   3     bf  258 -   258         15.731516559796          0.097538573397         -3.270353866167
      0.1873113696D+02  0.3349460434D-01
      0.2825394365D+01  0.2347269535D+00
      0.6401216923D+00  0.8137573261D+00
 Atom H32      Shell    94 S   1     bf  259 -   259         15.731516559796          0.097538573397         -3.270353866167
      0.1612777588D+00  0.1000000000D+01
 Atom H33      Shell    95 S   3     bf  260 -   260         18.505105664116          1.786403977070         -2.556435496541
      0.1873113696D+02  0.3349460434D-01
      0.2825394365D+01  0.2347269535D+00
      0.6401216923D+00  0.8137573261D+00
 Atom H33      Shell    96 S   1     bf  261 -   261         18.505105664116          1.786403977070         -2.556435496541
      0.1612777588D+00  0.1000000000D+01
 Atom H34      Shell    97 S   3     bf  262 -   262         18.523915393331         -1.544911169131         -2.519010509829
      0.1873113696D+02  0.3349460434D-01
      0.2825394365D+01  0.2347269535D+00
      0.6401216923D+00  0.8137573261D+00
 Atom H34      Shell    98 S   1     bf  263 -   263         18.523915393331         -1.544911169131         -2.519010509829
      0.1612777588D+00  0.1000000000D+01
 Atom C35      Shell    99 S   6     bf  264 -   264          6.838887203103          2.203750749408         -0.222419102882
      0.3047524880D+04  0.1834737132D-02
      0.4573695180D+03  0.1403732281D-01
      0.1039486850D+03  0.6884262226D-01
      0.2921015530D+02  0.2321844432D+00
      0.9286662960D+01  0.4679413484D+00
      0.3163926960D+01  0.3623119853D+00
 Atom C35      Shell   100 SP   3    bf  265 -   268          6.838887203103          2.203750749408         -0.222419102882
      0.7868272350D+01 -0.1193324198D+00  0.6899906659D-01
      0.1881288540D+01 -0.1608541517D+00  0.3164239610D+00
      0.5442492580D+00  0.1143456438D+01  0.7443082909D+00
 Atom C35      Shell   101 SP   1    bf  269 -   272          6.838887203103          2.203750749408         -0.222419102882
      0.1687144782D+00  0.1000000000D+01  0.1000000000D+01
 Atom C35      Shell   102 D   1     bf  273 -   278          6.838887203103          2.203750749408         -0.222419102882
      0.8000000000D+00  0.1000000000D+01
 Atom C36      Shell   103 S   6     bf  279 -   279          6.736691210679         -2.447196721587          0.659739808013
      0.3047524880D+04  0.1834737132D-02
      0.4573695180D+03  0.1403732281D-01
      0.1039486850D+03  0.6884262226D-01
      0.2921015530D+02  0.2321844432D+00
      0.9286662960D+01  0.4679413484D+00
      0.3163926960D+01  0.3623119853D+00
 Atom C36      Shell   104 SP   3    bf  280 -   283          6.736691210679         -2.447196721587          0.659739808013
      0.7868272350D+01 -0.1193324198D+00  0.6899906659D-01
      0.1881288540D+01 -0.1608541517D+00  0.3164239610D+00
      0.5442492580D+00  0.1143456438D+01  0.7443082909D+00
 Atom C36      Shell   105 SP   1    bf  284 -   287          6.736691210679         -2.447196721587          0.659739808013
      0.1687144782D+00  0.1000000000D+01  0.1000000000D+01
 Atom C36      Shell   106 D   1     bf  288 -   293          6.736691210679         -2.447196721587          0.659739808013
      0.8000000000D+00  0.1000000000D+01
 Atom H37      Shell   107 S   3     bf  294 -   294          6.894682312040         -2.245286627453          2.720215112506
      0.1873113696D+02  0.3349460434D-01
      0.2825394365D+01  0.2347269535D+00
      0.6401216923D+00  0.8137573261D+00
 Atom H37      Shell   108 S   1     bf  295 -   295          6.894682312040         -2.245286627453          2.720215112506
      0.1612777588D+00  0.1000000000D+01
 Atom H38      Shell   109 S   3     bf  296 -   296          7.590917758350         -4.270545865007          0.182006175694
      0.1873113696D+02  0.3349460434D-01
      0.2825394365D+01  0.2347269535D+00
      0.6401216923D+00  0.8137573261D+00
 Atom H38      Shell   110 S   1     bf  297 -   297          7.590917758350         -4.270545865007          0.182006175694
      0.1612777588D+00  0.1000000000D+01
 Atom C39      Shell   111 S   6     bf  298 -   298          7.959520519077          4.329899857375          0.581445997684
      0.3047524880D+04  0.1834737132D-02
[...]
 **** Fit      -0.000858
 **** Fit      -0.000645
 **** Fit      -0.000412
 **** Fit      -0.001198
 **** Fit      -0.001295
 **** Fit      -0.001325
 **** Fit      -0.001269
 **** Fit      -0.001126
 **** Fit      -0.000915
 **** Fit      -0.000668
 **** Fit      -0.000416
 **** Fit      -0.000841
 **** Fit      -0.001019
 **** Fit      -0.001206
 **** Fit      -0.001371
 **** Fit      -0.001476
 **** Fit      -0.001489
 **** Fit      -0.001397
 **** Fit      -0.001213
 **** Fit      -0.000971
 **** Fit      -0.000705
 **** Fit      -0.000441
 **** Fit      -0.000511
 **** Fit      -0.000658
 **** Fit      -0.000851
 **** Fit      -0.001082
 **** Fit      -0.001322
 **** Fit      -0.001521
 **** Fit      -0.001631
 **** Fit      -0.001622
 **** Fit      -0.001498
 **** Fit      -0.001291
 **** Fit      -0.001035
 **** Fit      -0.000760
 **** Fit      -0.000482
 **** Fit      -0.000217
 **** Fit       0.000019
 **** Fit       0.000205
 **** Fit       0.000329
 **** Fit      -0.000182
 **** Fit      -0.000247
 **** Fit      -0.000360
 **** Fit      -0.000542
 **** Fit      -0.000799
 **** Fit      -0.001109
 **** Fit      -0.001414
 **** Fit      -0.001643
 **** Fit      -0.001748
 **** Fit      -0.001721
 **** Fit      -0.001588
 **** Fit      -0.001382
 **** Fit      -0.001126
 **** Fit      -0.000838
 **** Fit      -0.000536
 **** Fit      -0.000248
 **** Fit      -0.000007
 **** Fit       0.000162
 **** Fit       0.000255
 **** Fit       0.000282
 **** Fit       0.000085
 **** Fit       0.000084
 **** Fit       0.000031
 **** Fit      -0.000113
 **** Fit      -0.000373
 **** Fit      -0.000735
 **** Fit      -0.001138
 **** Fit      -0.001495
 **** Fit      -0.001737
 **** Fit      -0.001841
 **** Fit      -0.001826
 **** Fit      -0.001715
 **** Fit      -0.001525
 **** Fit      -0.001261
 **** Fit      -0.000943
 **** Fit      -0.000610
 **** Fit      -0.000313
 **** Fit      -0.000092
 **** Fit       0.000041
 **** Fit       0.000098
 **** Fit       0.000284
 **** Fit       0.000367
 **** Fit       0.000437
 **** Fit       0.000455
 **** Fit       0.000368
 **** Fit       0.000132
 **** Fit      -0.000255
 **** Fit      -0.000732
 **** Fit      -0.001201
 **** Fit      -0.001580
 **** Fit      -0.001834
 **** Fit      -0.001972
 **** Fit      -0.002006
 **** Fit      -0.001932
 **** Fit      -0.001740
 **** Fit      -0.001440
 **** Fit      -0.001081
 **** Fit      -0.000733
 **** Fit      -0.000454
 **** Fit      -0.000268
 **** Fit      -0.000166
 **** Fit      -0.000123
 **** Fit       0.000486
 **** Fit       0.000623
 **** Fit       0.000755
 **** Fit       0.000838
 **** Fit       0.000810
 **** Fit       0.000615
 **** Fit       0.000238
 **** Fit      -0.000268
 **** Fit      -0.000807
 **** Fit      -0.001292
 **** Fit      -0.001688
 **** Fit      -0.001994
 **** Fit      -0.002207
 **** Fit      -0.002299
 **** Fit      -0.002231
 **** Fit      -0.001997
 **** Fit      -0.001645
 **** Fit      -0.001261
 **** Fit      -0.000924
 **** Fit      -0.000675
 **** Fit      -0.000511
 **** Fit      -0.000412
 **** Fit       0.000649
 **** Fit       0.000822
 **** Fit       0.000995
 **** Fit       0.001122
 **** Fit       0.001142
 **** Fit       0.000995
 **** Fit       0.000661
 **** Fit       0.000183
 **** Fit      -0.000359
 **** Fit      -0.000891
 **** Fit      -0.001383
 **** Fit      -0.001836
 **** Fit      -0.002235
 **** Fit      -0.002527
 **** Fit      -0.002639
 **** Fit      -0.002530
 **** Fit      -0.002235
 **** Fit      -0.001847
 **** Fit      -0.001466
 **** Fit      -0.001151
 **** Fit      -0.000915
 **** Fit      -0.000746
 **** Fit       0.000951
 **** Fit       0.001140
 **** Fit       0.001289
 **** Fit       0.001341
 **** Fit       0.001246
 **** Fit       0.000986
 **** Fit       0.000589
 **** Fit       0.000118
 **** Fit      -0.000376
 **** Fit      -0.000883
 **** Fit      -0.001416
 **** Fit      -0.001970
 **** Fit      -0.002477
 **** Fit      -0.002819
 **** Fit      -0.002903
 **** Fit      -0.002731
 **** Fit      -0.002391
 **** Fit      -0.001997
 **** Fit      -0.001631
 **** Fit      -0.001327
 **** Fit      -0.001088
 **** Fit       0.001014
 **** Fit       0.001202
 **** Fit       0.001356
 **** Fit       0.001432
 **** Fit       0.001392
 **** Fit       0.001224
 **** Fit       0.000952
 **** Fit       0.000617
 **** Fit       0.000249
 **** Fit      -0.000166
 **** Fit      -0.000677
 **** Fit      -0.001316
 **** Fit      -0.002024
 **** Fit      -0.002636
 **** Fit      -0.002982
 **** Fit      -0.003004
 **** Fit      -0.002774
 **** Fit      -0.002416
 **** Fit      -0.002034
 **** Fit      -0.001686
 **** Fit      -0.001392
 **** Fit       0.001206
 **** Fit       0.001358
 **** Fit       0.001453
 **** Fit       0.001468
 **** Fit       0.001400
 **** Fit       0.001271
 **** Fit       0.001111
 **** Fit       0.000935
 **** Fit       0.000704
 **** Fit       0.000318
 **** Fit      -0.000321
 **** Fit      -0.001189
 **** Fit      -0.002078
 **** Fit      -0.002723
 **** Fit      -0.002991
 **** Fit      -0.002924
 **** Fit      -0.002651
 **** Fit      -0.002297
 **** Fit      -0.001941
 **** Fit      -0.001618
 **** Fit       0.001323
 **** Fit       0.001434
 **** Fit       0.001499
 **** Fit       0.001522
 **** Fit       0.001526
 **** Fit       0.001537
 **** Fit       0.001560
 **** Fit       0.001536
 **** Fit       0.001320
 **** Fit       0.000742
 **** Fit      -0.000218
 **** Fit      -0.001324
 **** Fit      -0.002232
 **** Fit      -0.002736
 **** Fit      -0.002846
 **** Fit      -0.002688
 **** Fit      -0.002397
 **** Fit      -0.002067
 **** Fit       0.001581
 **** Fit       0.001680
 **** Fit       0.001813
 **** Fit       0.001975
 **** Fit       0.002094
 **** Fit       0.002000
 **** Fit       0.001495
 **** Fit       0.000530
 **** Fit      -0.000659
 **** Fit      -0.001704
 **** Fit      -0.002362
 **** Fit      -0.002612
 **** Fit      -0.002565
 **** Fit      -0.002353
 **** Fit       0.001564
 **** Fit       0.001710
 **** Fit       0.001891
 **** Fit       0.002096
 **** Fit       0.002246
 **** Fit       0.002183
 **** Fit       0.001727
 **** Fit       0.000839
 **** Fit      -0.000279
 **** Fit      -0.001297
 **** Fit      -0.001987
 **** Fit      -0.002308
 **** Fit      -0.002343
 **** Fit      -0.002203
 **** Fit       0.001473
 **** Fit       0.001617
 **** Fit       0.001784
 **** Fit       0.001951
 **** Fit       0.002048
 **** Fit       0.001948
 **** Fit       0.001525
 **** Fit       0.000763
 **** Fit      -0.000178
 **** Fit      -0.001051
 **** Fit      -0.001672
 **** Fit      -0.001997
 **** Fit      -0.002076
 **** Fit      -0.001993
 **** Fit       0.001321
 **** Fit       0.001433
 **** Fit       0.001549
 **** Fit       0.001643
 **** Fit       0.001658
 **** Fit       0.001508
 **** Fit       0.001121
 **** Fit       0.000503
 **** Fit      -0.000232
 **** Fit      -0.000917
 **** Fit      -0.001423
 **** Fit      -0.001708
 **** Fit      -0.001801
 **** Fit       0.001201
 **** Fit       0.001258
 **** Fit       0.001280
 **** Fit       0.001227
 **** Fit       0.001047
 **** Fit       0.000707
 **** Fit       0.000224
 **** Fit      -0.000326
 **** Fit      -0.000836
 **** Fit      -0.001223
 **** Fit      -0.001454
 **** Fit      -0.001542
 **** Fit       0.000964
 **** Fit       0.000934
 **** Fit       0.000840
 **** Fit       0.000656
 **** Fit       0.000370
 **** Fit       0.000001
 **** Fit      -0.000401
 **** Fit      -0.000771
 **** Fit      -0.001057
 **** Fit      -0.001235
 **** Fit       0.000637
 **** Fit       0.000528
 **** Fit       0.000357
 **** Fit       0.000125
 **** Fit      -0.000154
 **** Fit      -0.000446
 **** Fit      -0.000711
 **** Fit      -0.000632
 **** Fit      -0.000790
 **** Fit      -0.000950
 **** Fit      -0.001086
 **** Fit      -0.001170
 **** Fit      -0.000292
 **** Fit      -0.000429
 **** Fit      -0.000607
 **** Fit      -0.000811
 **** Fit      -0.001009
 **** Fit      -0.001166
 **** Fit      -0.001255
 **** Fit      -0.000373
 **** Fit       0.000031
 **** Fit      -0.000034
 **** Fit      -0.000156
 **** Fit      -0.000342
 **** Fit      -0.000579
 **** Fit      -0.000835
 **** Fit      -0.001067
 **** Fit      -0.001240
 **** Fit      -0.001338
 **** Fit      -0.001062
 **** Fit      -0.000868
 **** Fit      -0.000657
 **** Fit      -0.000457
 **** Fit      -0.000291
 **** Fit       0.000275
 **** Fit       0.000247
 **** Fit       0.000151
 **** Fit      -0.000027
 **** Fit      -0.000281
 **** Fit      -0.000580
 **** Fit      -0.000877
 **** Fit      -0.001133
 **** Fit      -0.001325
 **** Fit      -0.001476
 **** Fit      -0.001377
 **** Fit      -0.001209
 **** Fit      -0.000996
 **** Fit      -0.000775
 **** Fit      -0.000578
 **** Fit      -0.000425
 **** Fit       0.000504
 **** Fit       0.000513
 **** Fit       0.000450
 **** Fit       0.000292
 **** Fit       0.000041
 **** Fit      -0.000276
 **** Fit      -0.000616
 **** Fit      -0.000937
 **** Fit      -0.001217
 **** Fit      -0.001443
 **** Fit      -0.001607
 **** Fit      -0.001690
 **** Fit      -0.001676
 **** Fit      -0.001562
 **** Fit      -0.001369
 **** Fit      -0.001140
 **** Fit      -0.000917
 **** Fit      -0.000728
 **** Fit      -0.000584
 **** Fit       0.000691
 **** Fit       0.000732
 **** Fit       0.000701
 **** Fit       0.000574
 **** Fit       0.000347
 **** Fit       0.000041
 **** Fit      -0.000306
 **** Fit      -0.000661
 **** Fit      -0.001003
 **** Fit      -0.001322
 **** Fit      -0.001600
 **** Fit      -0.001806
 **** Fit      -0.001905
 **** Fit      -0.001875
 **** Fit      -0.001731
 **** Fit      -0.001515
 **** Fit      -0.001278
 **** Fit      -0.001058
 **** Fit      -0.000874
 **** Fit       0.000825
 **** Fit       0.000888
 **** Fit       0.000886
 **** Fit       0.000796
 **** Fit       0.000613
 **** Fit       0.000350
 **** Fit       0.000035
 **** Fit      -0.000309
 **** Fit      -0.000673
 **** Fit      -0.001052
 **** Fit      -0.001429
 **** Fit      -0.001763
 **** Fit      -0.001995
 **** Fit      -0.002081
 **** Fit      -0.002018
 **** Fit      -0.001843
 **** Fit      -0.001613
 **** Fit      -0.001375
 **** Fit      -0.001158
 **** Fit       0.000983
 **** Fit       0.001007
 **** Fit       0.000958
 **** Fit       0.000832
 **** Fit       0.000637
 **** Fit       0.000391
 **** Fit       0.000102
 **** Fit      -0.000233
 **** Fit      -0.000625
 **** Fit      -0.001069
 **** Fit      -0.001519
 **** Fit      -0.001895
 **** Fit      -0.002121
 **** Fit      -0.002169
 **** Fit      -0.002066
 **** Fit      -0.001869
 **** Fit      -0.001634
 **** Fit      -0.001401
 **** Fit       0.001075
 **** Fit       0.001068
 **** Fit       0.001004
 **** Fit       0.000891
 **** Fit       0.000735
 **** Fit       0.000536
 **** Fit       0.000273
 **** Fit      -0.000087
 **** Fit      -0.000557
 **** Fit      -0.001097
 **** Fit      -0.001608
 **** Fit      -0.001981
 **** Fit      -0.002159
 **** Fit      -0.002150
 **** Fit      -0.002011
 **** Fit      -0.001802
 **** Fit       0.001092
 **** Fit       0.001029
 **** Fit       0.000928
 **** Fit       0.000754
 **** Fit       0.000454
 **** Fit      -0.000007
 **** Fit      -0.000598
 **** Fit      -0.001211
 **** Fit      -0.001710
 **** Fit      -0.002009
 **** Fit      -0.002100
 **** Fit      -0.002032
 **** Fit       0.001220
 **** Fit       0.001229
 **** Fit       0.001206
 **** Fit       0.001105
 **** Fit       0.000864
 **** Fit       0.000434
 **** Fit      -0.000165
 **** Fit      -0.000824
 **** Fit      -0.001396
 **** Fit      -0.001779
 **** Fit      -0.001952
 **** Fit      -0.001953
 **** Fit       0.001260
 **** Fit       0.001308
 **** Fit       0.001324
 **** Fit       0.001262
 **** Fit       0.001058
 **** Fit       0.000666
 **** Fit       0.000100
 **** Fit      -0.000540
 **** Fit      -0.001118
 **** Fit      -0.001533
 **** Fit      -0.001754
 **** Fit      -0.001807
 **** Fit       0.001214
 **** Fit       0.001267
 **** Fit       0.001286
 **** Fit       0.001229
 **** Fit       0.001042
 **** Fit       0.000688
 **** Fit       0.000185
 **** Fit      -0.000387
 **** Fit      -0.000915
 **** Fit      -0.001312
 **** Fit      -0.001545
 **** Fit      -0.001627
 **** Fit       0.001099
 **** Fit       0.001136
 **** Fit       0.001136
 **** Fit       0.001064
 **** Fit       0.000883
 **** Fit       0.000571
 **** Fit       0.000143
 **** Fit      -0.000336
 **** Fit      -0.000783
 **** Fit      -0.001130
 **** Fit      -0.001347
 **** Fit       0.000954
 **** Fit       0.000927
 **** Fit       0.000839
 **** Fit       0.000665
 **** Fit       0.000394
 **** Fit       0.000044
 **** Fit      -0.000341
 **** Fit      -0.000700
 **** Fit      -0.000985
 **** Fit      -0.001171
 **** Fit       0.000608
 **** Fit       0.000445
 **** Fit       0.000216
 **** Fit      -0.000064
 **** Fit      -0.000364
 **** Fit      -0.000643
 **** Fit      -0.000448
 **** Fit      -0.000079
 **** Fit      -0.000252
 **** Fit      -0.000450
 **** Fit       0.000261
 **** Fit       0.000140
 **** Fit      -0.000033
 **** Fit      -0.000244
 **** Fit       0.000346
 **** Fit       0.000187
 **** Fit      -0.000020
 **** Fit      -0.000967
 **** Fit      -0.001165
 **** Fit      -0.001314
 **** Fit      -0.001397
 **** Fit      -0.001336
 **** Fit      -0.000259
 **** Fit      -0.000520
 **** Fit      -0.000788
 **** Fit      -0.001048
 **** Fit      -0.001276
 **** Fit      -0.001440
 **** Fit      -0.001518
 **** Fit      -0.001507
 **** Fit       0.000237
 **** Fit       0.000016
 **** Fit      -0.000239
 **** Fit      -0.000525
 **** Fit      -0.000832
 **** Fit      -0.001129
 **** Fit      -0.001377
 **** Fit      -0.001537
 **** Fit      -0.001594
 **** Fit       0.000478
 **** Fit       0.000300
 **** Fit       0.000074
 **** Fit      -0.000208
 **** Fit      -0.000539
 **** Fit      -0.000891
 **** Fit      -0.001213
 **** Fit      -0.001454
 **** Fit      -0.001586
 **** Fit      -0.001607
 **** Fit       0.000683
 **** Fit       0.000555
 **** Fit       0.000369
 **** Fit       0.000110
 **** Fit      -0.000226
 **** Fit      -0.000610
 **** Fit      -0.000987
 **** Fit      -0.001296
 **** Fit      -0.001496
 **** Fit      -0.001577
 **** Fit       0.000828
 **** Fit       0.000743
 **** Fit       0.000597
 **** Fit       0.000366
 **** Fit       0.000042
 **** Fit      -0.000349
 **** Fit      -0.000754
 **** Fit      -0.001106
 **** Fit      -0.001354
 **** Fit      -0.001484
 **** Fit       0.000897
 **** Fit       0.000841
 **** Fit       0.000722
 **** Fit       0.000517
 **** Fit       0.000216
 **** Fit      -0.000161
 **** Fit      -0.000563
 **** Fit      -0.000924
 **** Fit      -0.001196
 **** Fit      -0.001356
 **** Fit       0.000889
 **** Fit       0.000845
 **** Fit       0.000741
 **** Fit       0.000556
 **** Fit       0.000282
 **** Fit      -0.000064
 **** Fit      -0.000436
 **** Fit      -0.000778
 **** Fit      -0.001046
 **** Fit       0.000773
 **** Fit       0.000674
 **** Fit       0.000505
 **** Fit       0.000261
 **** Fit      -0.000042
 **** Fit      -0.000369
 **** Fit      -0.000674
 **** Fit      -0.000918
 **** Fit       0.000556
 **** Fit       0.000402
 **** Fit       0.000188
 **** Fit      -0.000070
 **** Fit      -0.000345
 **** Fit      -0.000602
 **** Fit      -0.000437
 **** Fit      -0.000653
 **** Fit      -0.000858
 **** Fit      -0.001029
 **** Fit      -0.000028
 **** Fit      -0.000240
 **** Fit      -0.000476
 **** Fit      -0.000715
 **** Fit      -0.000930
 **** Fit      -0.001097
 **** Fit       0.000161
 **** Fit      -0.000044
 **** Fit      -0.000286
 **** Fit      -0.000546
 **** Fit      -0.000795
 **** Fit      -0.001001
 **** Fit       0.000313
 **** Fit       0.000121
 **** Fit      -0.000117
 **** Fit      -0.000384
 **** Fit      -0.000651
 **** Fit      -0.000883
 **** Fit       0.000407
 **** Fit       0.000231
 **** Fit       0.000005
 **** Fit      -0.000256
 **** Fit      -0.000524
 **** Fit      -0.000765
 **** Fit       0.000278
 **** Fit       0.000069
 **** Fit      -0.000176
 **** Fit      -0.000430
 -----------------------------------------------------------------
 Leave Link  602 at Wed May 17 11:48:33 2017, MaxMem=    33554432 cpu:        37.1
 (Enter /home/michal/g09/l9999.exe)

 Test job not archived.
 1\1\GINC-LINUX\SP\RHF\6-31G(d)\C27H46O2\MICHAL\17-May-2017\0\\#P HF/6-
 31G* SCF(Conver=6) NoSymm Test Pop=chelpg IOp(6/33=2) GFInput GFPrint\
 \MEP - Input generated by R.E.D.-III.x MOLECULE\\0,1\O,0,6.12584333,3.
 71544254,0.\H,0,5.85739293,3.72906695,-0.92953928\O,0,0.,0.,0.\H,0,-0.
 11196752,-0.16692622,-0.94644603\C,0,8.82736666,0.06115348,0.41852571\
 C,0,7.90431686,1.25606318,0.79662359\H,0,7.68321669,1.11658026,1.86929
 485\C,0,6.53285657,1.27456852,0.09816275\H,0,6.6731639,1.39018801,-0.9
 8665586\C,0,5.78556887,-0.05837684,0.3826175\H,0,5.57462842,-0.0552023
 3,1.46476219\C,0,10.0825821,0.39275324,1.29870539\H,0,9.80564446,0.133
 48445,2.3332185\C,0,8.06274718,-1.22523409,0.78834719\H,0,7.93412447,-
 1.25575117,1.88003465\H,0,8.62449229,-2.12457724,0.51686824\C,0,4.3847
 8292,-0.14621466,-0.31773882\C,0,8.82322733,2.48386043,0.70002262\H,0,
 8.45505736,3.32929407,1.28567964\H,0,8.88778261,2.83692504,-0.33467369
 \C,0,6.68169197,-1.28789253,0.10854908\H,0,6.82730641,-1.40689086,-0.9
 7061016\H,0,6.17098696,-2.19676218,0.44556866\C,0,10.19235511,1.953744
 42,1.20334597\H,0,10.99989594,2.23992459,0.51899776\H,0,10.44643951,2.
 38791261,2.17507964\C,0,5.68113902,2.46872316,0.57113759\H,0,5.8399210
 5,2.61402001,1.64916703\C,0,11.43275718,-0.3111164,1.00618253\H,0,11.7
 5012739,0.,0.\C,0,9.20401944,0.06405012,-1.0811832\H,0,8.32476002,0.05
 161519,-1.73059673\H,0,9.79248016,0.94532427,-1.3528074\H,0,9.80243384
 ,-0.81753178,-1.33300295\C,0,3.61898324,1.16617467,-0.11769912\C,0,3.5
 6490345,-1.29500073,0.34911927\H,0,3.64850874,-1.18815451,1.43947584\H
 ,0,4.01694067,-2.25987554,0.09631352\C,0,4.21199685,2.29128432,0.30768
 797\H,0,3.613008,3.18837627,0.46423314\C,0,4.51814196,-0.42041491,-1.8
 3976165\H,0,4.8996963,-1.42797571,-2.03158044\H,0,3.55424361,-0.338895
 32,-2.34885659\H,0,5.19456059,0.29720379,-2.31415453\C,0,2.13073578,1.
 15172372,-0.41220867\H,0,1.68009841,2.10960928,-0.13453971\H,0,1.96693
 362,1.02720651,-1.49494091\C,0,2.07338652,-1.32653729,-0.01870352\H,0,
 1.94535513,-1.54473023,-1.08940016\H,0,1.57045769,-2.13264727,0.527463
 32\C,0,12.53189027,0.16089589,2.00871568\H,0,12.17151303,1.02577153,2.
 57501679\H,0,12.69669633,-0.62609985,2.75701183\C,0,1.39780988,0.00639
 364,0.30194407\H,0,1.43747054,0.17854953,1.38445705\C,0,11.33918104,-1
 .8480447,1.01380274\H,0,10.91319106,-2.20873855,1.95838082\H,0,12.3312
 5432,-2.29804567,0.91015788\H,0,10.7215047,-2.23503286,0.19945241\C,0,
 13.87567253,0.56900769,1.37023084\H,0,13.67666008,1.36179906,0.6359397
 5\H,0,14.50143045,1.03450781,2.14257576\C,0,14.67913121,-0.54114197,0.
 66715499\H,0,15.5231179,-0.07358063,0.13856007\H,0,14.05755153,-0.9971
 8113,-0.11538205\C,0,15.24457361,-1.66147525,1.56660651\H,0,14.4125888
 3,-2.10985249,2.12814402\C,0,16.26636798,-1.13523221,2.58767868\H,0,17
 .11524646,-0.6599402,2.07894624\H,0,16.66264323,-1.95283948,3.20054081
 \H,0,15.8297966,-0.39713474,3.26798521\C,0,15.87028326,-2.76972711,0.7
 0433468\H,0,16.71061207,-2.37914757,0.11598859\H,0,16.25163683,-3.5895
 589,1.32374412\H,0,15.14125177,-3.19068126,0.00225634\\Version=EM64L-G
 09RevD.01\HF=-1198.9222807\RMSD=4.813e-07\Dipole=0.1735699,-0.6971703,
 -0.7439717\Quadrupole=-4.7916145,-2.4254178,7.2170323,-7.6225085,-2.18
 44482,-2.3593352\PG=C01 [X(C27H46O2)]\\@


 A SCIENTIST IS SOMEONE WHOSE CURIOSITY SURVIVES
 EDUCATION'S ASSAULTS ON IT.
                          - SIR HERMANN BONDI
 Job cpu time:       0 days  0 hours 11 minutes 14.7 seconds.
 File lengths (MBytes):  RWF=    150 Int=      0 D2E=      0 Chk=     11 Scr=      1
 Normal termination of Gaussian 09 at Wed May 17 11:48:33 2017.
