 Entering Gaussian System, Link 0=/home/michal/g09/g09
 Input=JOB2-gau_m1-8-2.com
 Output=JOB2-gau_m1-8-2.log
 Initial command:
 /home/michal/g09/l1.exe "/home/michal/gauss_scratch/Gau-390.inp" -scrdir="/home/michal/gauss_scratch/"
 Entering Link 1 = /home/michal/g09/l1.exe PID=       391.
  
 Copyright (c) 1988,1990,1992,1993,1995,1998,2003,2009,2013,
            Gaussian, Inc.  All Rights Reserved.
  
 This is part of the Gaussian(R) 09 program.  It is based on
 the Gaussian(R) 03 system (copyright 2003, Gaussian, Inc.),
 the Gaussian(R) 98 system (copyright 1998, Gaussian, Inc.),
 the Gaussian(R) 94 system (copyright 1995, Gaussian, Inc.),
 the Gaussian 92(TM) system (copyright 1992, Gaussian, Inc.),
 the Gaussian 90(TM) system (copyright 1990, Gaussian, Inc.),
 the Gaussian 88(TM) system (copyright 1988, Gaussian, Inc.),
 the Gaussian 86(TM) system (copyright 1986, Carnegie Mellon
 University), and the Gaussian 82(TM) system (copyright 1983,
 Carnegie Mellon University). Gaussian is a federally registered
 trademark of Gaussian, Inc.
  
 This software contains proprietary and confidential information,
 including trade secrets, belonging to Gaussian, Inc.
  
 This software is provided under written license and may be
 used, copied, transmitted, or stored only in accord with that
 written license.
  
 The following legend is applicable only to US Government
 contracts under FAR:
  
                    RESTRICTED RIGHTS LEGEND
  
 Use, reproduction and disclosure by the US Government is
 subject to restrictions as set forth in subparagraphs (a)
 and (c) of the Commercial Computer Software - Restricted
 Rights clause in FAR 52.227-19.
  
 Gaussian, Inc.
 340 Quinnipiac St., Bldg. 40, Wallingford CT 06492
  
  
 ---------------------------------------------------------------
 Warning -- This program may not be used in any manner that
 competes with the business of Gaussian, Inc. or will provide
 assistance to any competitor of Gaussian, Inc.  The licensee
 of this program is prohibited from giving any competitor of
 Gaussian, Inc. access to this program.  By using this program,
 the user acknowledges that Gaussian, Inc. is engaged in the
 business of creating and licensing software in the field of
 computational chemistry and represents and warrants to the
 licensee that it is not a competitor of Gaussian, Inc. and that
 it will not use this program in any manner prohibited above.
 ---------------------------------------------------------------
  

 Cite this work as:
 Gaussian 09, Revision D.01,
 M. J. Frisch, G. W. Trucks, H. B. Schlegel, G. E. Scuseria, 
 M. A. Robb, J. R. Cheeseman, G. Scalmani, V. Barone, B. Mennucci, 
 G. A. Petersson, H. Nakatsuji, M. Caricato, X. Li, H. P. Hratchian, 
 A. F. Izmaylov, J. Bloino, G. Zheng, J. L. Sonnenberg, M. Hada, 
 M. Ehara, K. Toyota, R. Fukuda, J. Hasegawa, M. Ishida, T. Nakajima, 
 Y. Honda, O. Kitao, H. Nakai, T. Vreven, J. A. Montgomery, Jr., 
 J. E. Peralta, F. Ogliaro, M. Bearpark, J. J. Heyd, E. Brothers, 
 K. N. Kudin, V. N. Staroverov, T. Keith, R. Kobayashi, J. Normand, 
 K. Raghavachari, A. Rendell, J. C. Burant, S. S. Iyengar, J. Tomasi, 
 M. Cossi, N. Rega, J. M. Millam, M. Klene, J. E. Knox, J. B. Cross, 
 V. Bakken, C. Adamo, J. Jaramillo, R. Gomperts, R. E. Stratmann, 
 O. Yazyev, A. J. Austin, R. Cammi, C. Pomelli, J. W. Ochterski, 
 R. L. Martin, K. Morokuma, V. G. Zakrzewski, G. A. Voth, 
 P. Salvador, J. J. Dannenberg, S. Dapprich, A. D. Daniels, 
 O. Farkas, J. B. Foresman, J. V. Ortiz, J. Cioslowski, 
 and D. J. Fox, Gaussian, Inc., Wallingford CT, 2013.
 
 ******************************************
 Gaussian 09:  EM64L-G09RevD.01 24-Apr-2013
                17-May-2017 
 ******************************************
 %Mem=256MB
 %NProc=12
 Will use up to   12 processors via shared memory.
 ----------------------------------------------------------------------
 #P HF/6-31G* SCF(Conver=6) NoSymm Test Pop=chelpg IOp(6/33=2) GFInput 
 GFPrint
 ----------------------------------------------------------------------
 1/38=1/1;
 2/12=2,15=1,17=6,18=5,40=1/2;
 3/5=1,6=6,7=1,11=9,16=1,24=110,25=1,30=1/1,2,3;
 4//1;
 5/5=2,6=6,38=5/2;
 6/7=2,8=2,9=2,10=2,15=8,20=3,28=1,33=2/1,2;
 99/5=1,9=1/99;
 Leave Link    1 at Wed May 17 11:58:26 2017, MaxMem=    33554432 cpu:         0.6
 (Enter /home/michal/g09/l101.exe)
 ----------------------------------------------
 MEP - Input generated by R.E.D.-III.x MOLECULE
 ----------------------------------------------
 Symbolic Z-matrix:
 Charge =  0 Multiplicity = 1
 O                     7.12711   0.87851   0. 
 H                     7.53275   0.        0. 
 O                     8.70564  -0.15189  -6.91425 
 H                     8.87844  -1.10383  -6.92518 
 C                     2.66831   0.10194  -0.49141 
 C                     4.02777   0.8485   -0.44755 
 H                     3.82919   1.83199  -0.90721 
 C                     5.13382   0.218    -1.31041 
 H                     5.37445  -0.78545  -0.92975 
 C                     4.64183   0.1108   -2.784 
 H                     4.54755   1.15076  -3.13772 
 C                     1.83803   1.01085   0.46801 
 H                     1.70811   1.945    -0.09781 
 C                     2.18561   0.10329  -1.95139 
 H                     1.99171   1.14125  -2.25834 
 H                     1.23573  -0.43755  -2.05859 
 C                     5.69221  -0.56243  -3.73592 
 C                     4.26159   1.11266   1.05344 
 H                     4.92158   1.96641   1.22425 
 H                     4.74935   0.25419   1.52693 
 C                     3.23166  -0.52189  -2.89467 
 H                     3.29004  -1.59639  -2.69261 
 H                     2.87185  -0.42903  -3.92523 
 C                     2.82892   1.33172   1.62992 
 H                     2.66132   0.67864   2.49101 
 H                     2.69058   2.35676   1.98972 
 C                     6.43185   1.04564  -1.25134 
 H                     6.17243   2.11395  -1.25517 
 C                     0.39832   0.56482   0.85708 
 H                     0.        0.        0. 
 C                     2.77221  -1.34707   0.03384 
 H                     3.46059  -1.95271  -0.56133 
 H                     3.12358  -1.38721   1.06846 
 H                     1.79462  -1.8396   -0.00554 
 C                     7.08325   0.028    -3.4784 
 C                     5.29832  -0.25228  -5.21421 
 H                     5.0686    0.81951  -5.29062 
 H                     4.37582  -0.78618  -5.46535 
 C                     7.36852   0.76002  -2.39152 
 H                     8.3659    1.18414  -2.27567 
 C                     5.75535  -2.09949  -3.52753 
 H                     4.83879  -2.58717  -3.87338 
 H                     6.58562  -2.54648  -4.08042 
 H                     5.89896  -2.35077  -2.4722 
 C                     8.15202  -0.23702  -4.52203 
 H                     9.06415   0.3169   -4.27934 
 H                     8.42042  -1.30588  -4.51701 
 C                     6.37414  -0.59023  -6.25802 
 H                     6.55047  -1.67571  -6.29134 
 H                     6.03072  -0.29808  -7.25689 
 C                     0.29391  -0.35423   2.098 
 H                     1.13322  -1.0565    2.12522 
 H                     0.384     0.25752   3.00699 
 C                     7.6912    0.11852  -5.94323 
 H                     7.54056   1.20304  -6.00776 
 C                    -0.50054   1.80589   1.03477 
 H                    -0.11528   2.45373   1.83204 
 H                    -1.52776   1.53362   1.29785 
 H                    -0.54255   2.39956   0.11479 
 C                    -1.00914  -1.1684    2.16893 
 H                    -1.87224  -0.49258   2.14191 
 H                    -1.08105  -1.79536   1.26976 
 C                    -1.08231  -2.04837   3.42709 
 H                    -0.99207  -1.40225   4.31228 
 H                    -0.20367  -2.70953   3.44528 
 C                    -2.34895  -2.92059   3.59072 
 H                    -2.21698  -3.46879   4.53535 
 C                    -2.49361  -3.97064   2.47665 
 H                    -2.692    -3.50437   1.50468 
 H                    -3.32633  -4.65119   2.68806 
 H                    -1.58464  -4.57586   2.37819 
 C                    -3.63144  -2.08372   3.73073 
 H                    -3.8705   -1.55131   2.80289 
 H                    -4.48927  -2.72233   3.97062 
 H                    -3.53652  -1.33839   4.52919 
 
 NAtoms=     75 NQM=       75 NQMF=       0 NMMI=      0 NMMIF=      0
                NMic=       0 NMicF=      0.
                    Isotopes and Nuclear Properties:
 (Nuclear quadrupole moments (NQMom) in fm**2, nuclear magnetic moments (NMagM)
  in nuclear magnetons)

  Atom         1           2           3           4           5           6           7           8           9          10
 IAtWgt=          16           1          16           1          12          12           1          12           1          12
 AtmWgt=  15.9949146   1.0078250  15.9949146   1.0078250  12.0000000  12.0000000   1.0078250  12.0000000   1.0078250  12.0000000
 NucSpn=           0           1           0           1           0           0           1           0           1           0
 AtZEff=   0.0000000   0.0000000   0.0000000   0.0000000   0.0000000   0.0000000   0.0000000   0.0000000   0.0000000   0.0000000
 NQMom=    0.0000000   0.0000000   0.0000000   0.0000000   0.0000000   0.0000000   0.0000000   0.0000000   0.0000000   0.0000000
 NMagM=    0.0000000   2.7928460   0.0000000   2.7928460   0.0000000   0.0000000   2.7928460   0.0000000   2.7928460   0.0000000
 AtZNuc=   8.0000000   1.0000000   8.0000000   1.0000000   6.0000000   6.0000000   1.0000000   6.0000000   1.0000000   6.0000000

  Atom        11          12          13          14          15          16          17          18          19          20
 IAtWgt=           1          12           1          12           1           1          12          12           1           1
 AtmWgt=   1.0078250  12.0000000   1.0078250  12.0000000   1.0078250   1.0078250  12.0000000  12.0000000   1.0078250   1.0078250
 NucSpn=           1           0           1           0           1           1           0           0           1           1
 AtZEff=   0.0000000   0.0000000   0.0000000   0.0000000   0.0000000   0.0000000   0.0000000   0.0000000   0.0000000   0.0000000
 NQMom=    0.0000000   0.0000000   0.0000000   0.0000000   0.0000000   0.0000000   0.0000000   0.0000000   0.0000000   0.0000000
 NMagM=    2.7928460   0.0000000   2.7928460   0.0000000   2.7928460   2.7928460   0.0000000   0.0000000   2.7928460   2.7928460
 AtZNuc=   1.0000000   6.0000000   1.0000000   6.0000000   1.0000000   1.0000000   6.0000000   6.0000000   1.0000000   1.0000000

  Atom        21          22          23          24          25          26          27          28          29          30
 IAtWgt=          12           1           1          12           1           1          12           1          12           1
 AtmWgt=  12.0000000   1.0078250   1.0078250  12.0000000   1.0078250   1.0078250  12.0000000   1.0078250  12.0000000   1.0078250
 NucSpn=           0           1           1           0           1           1           0           1           0           1
 AtZEff=   0.0000000   0.0000000   0.0000000   0.0000000   0.0000000   0.0000000   0.0000000   0.0000000   0.0000000   0.0000000
 NQMom=    0.0000000   0.0000000   0.0000000   0.0000000   0.0000000   0.0000000   0.0000000   0.0000000   0.0000000   0.0000000
 NMagM=    0.0000000   2.7928460   2.7928460   0.0000000   2.7928460   2.7928460   0.0000000   2.7928460   0.0000000   2.7928460
 AtZNuc=   6.0000000   1.0000000   1.0000000   6.0000000   1.0000000   1.0000000   6.0000000   1.0000000   6.0000000   1.0000000

  Atom        31          32          33          34          35          36          37          38          39          40
 IAtWgt=          12           1           1           1          12          12           1           1          12           1
 AtmWgt=  12.0000000   1.0078250   1.0078250   1.0078250  12.0000000  12.0000000   1.0078250   1.0078250  12.0000000   1.0078250
 NucSpn=           0           1           1           1           0           0           1           1           0           1
 AtZEff=   0.0000000   0.0000000   0.0000000   0.0000000   0.0000000   0.0000000   0.0000000   0.0000000   0.0000000   0.0000000
 NQMom=    0.0000000   0.0000000   0.0000000   0.0000000   0.0000000   0.0000000   0.0000000   0.0000000   0.0000000   0.0000000
 NMagM=    0.0000000   2.7928460   2.7928460   2.7928460   0.0000000   0.0000000   2.7928460   2.7928460   0.0000000   2.7928460
 AtZNuc=   6.0000000   1.0000000   1.0000000   1.0000000   6.0000000   6.0000000   1.0000000   1.0000000   6.0000000   1.0000000

  Atom        41          42          43          44          45          46          47          48          49          50
 IAtWgt=          12           1           1           1          12           1           1          12           1           1
 AtmWgt=  12.0000000   1.0078250   1.0078250   1.0078250  12.0000000   1.0078250   1.0078250  12.0000000   1.0078250   1.0078250
 NucSpn=           0           1           1           1           0           1           1           0           1           1
 AtZEff=   0.0000000   0.0000000   0.0000000   0.0000000   0.0000000   0.0000000   0.0000000   0.0000000   0.0000000   0.0000000
 NQMom=    0.0000000   0.0000000   0.0000000   0.0000000   0.0000000   0.0000000   0.0000000   0.0000000   0.0000000   0.0000000
 NMagM=    0.0000000   2.7928460   2.7928460   2.7928460   0.0000000   2.7928460   2.7928460   0.0000000   2.7928460   2.7928460
 AtZNuc=   6.0000000   1.0000000   1.0000000   1.0000000   6.0000000   1.0000000   1.0000000   6.0000000   1.0000000   1.0000000

  Atom        51          52          53          54          55          56          57          58          59          60
 IAtWgt=          12           1           1          12           1          12           1           1           1          12
 AtmWgt=  12.0000000   1.0078250   1.0078250  12.0000000   1.0078250  12.0000000   1.0078250   1.0078250   1.0078250  12.0000000
 NucSpn=           0           1           1           0           1           0           1           1           1           0
 AtZEff=   0.0000000   0.0000000   0.0000000   0.0000000   0.0000000   0.0000000   0.0000000   0.0000000   0.0000000   0.0000000
 NQMom=    0.0000000   0.0000000   0.0000000   0.0000000   0.0000000   0.0000000   0.0000000   0.0000000   0.0000000   0.0000000
 NMagM=    0.0000000   2.7928460   2.7928460   0.0000000   2.7928460   0.0000000   2.7928460   2.7928460   2.7928460   0.0000000
 AtZNuc=   6.0000000   1.0000000   1.0000000   6.0000000   1.0000000   6.0000000   1.0000000   1.0000000   1.0000000   6.0000000

  Atom        61          62          63          64          65          66          67          68          69          70
 IAtWgt=           1           1          12           1           1          12           1          12           1           1
 AtmWgt=   1.0078250   1.0078250  12.0000000   1.0078250   1.0078250  12.0000000   1.0078250  12.0000000   1.0078250   1.0078250
 NucSpn=           1           1           0           1           1           0           1           0           1           1
 AtZEff=   0.0000000   0.0000000   0.0000000   0.0000000   0.0000000   0.0000000   0.0000000   0.0000000   0.0000000   0.0000000
 NQMom=    0.0000000   0.0000000   0.0000000   0.0000000   0.0000000   0.0000000   0.0000000   0.0000000   0.0000000   0.0000000
 NMagM=    2.7928460   2.7928460   0.0000000   2.7928460   2.7928460   0.0000000   2.7928460   0.0000000   2.7928460   2.7928460
 AtZNuc=   1.0000000   1.0000000   6.0000000   1.0000000   1.0000000   6.0000000   1.0000000   6.0000000   1.0000000   1.0000000

  Atom        71          72          73          74          75
 IAtWgt=           1          12           1           1           1
 AtmWgt=   1.0078250  12.0000000   1.0078250   1.0078250   1.0078250
 NucSpn=           1           0           1           1           1
 AtZEff=   0.0000000   0.0000000   0.0000000   0.0000000   0.0000000
 NQMom=    0.0000000   0.0000000   0.0000000   0.0000000   0.0000000
 NMagM=    2.7928460   0.0000000   2.7928460   2.7928460   2.7928460
 AtZNuc=   1.0000000   6.0000000   1.0000000   1.0000000   1.0000000
 Leave Link  101 at Wed May 17 11:58:26 2017, MaxMem=    33554432 cpu:         1.0
 (Enter /home/michal/g09/l202.exe)
 Symmetry turned off by external request.
 Stoichiometry    C27H46O2
 Framework group  C1[X(C27H46O2)]
 Deg. of freedom   219
 Full point group                 C1      NOp   1
                          Input orientation:                          
 ---------------------------------------------------------------------
 Center     Atomic      Atomic             Coordinates (Angstroms)
 Number     Number       Type             X           Y           Z
 ---------------------------------------------------------------------
      1          8           0        7.127112    0.878509    0.000000
      2          1           0        7.532745    0.000000    0.000000
      3          8           0        8.705643   -0.151890   -6.914251
      4          1           0        8.878436   -1.103826   -6.925179
      5          6           0        2.668311    0.101939   -0.491407
      6          6           0        4.027774    0.848499   -0.447550
      7          1           0        3.829193    1.831987   -0.907209
      8          6           0        5.133825    0.217997   -1.310407
      9          1           0        5.374449   -0.785446   -0.929752
     10          6           0        4.641827    0.110796   -2.783997
     11          1           0        4.547551    1.150756   -3.137721
     12          6           0        1.838032    1.010847    0.468012
     13          1           0        1.708111    1.945001   -0.097810
     14          6           0        2.185610    0.103291   -1.951387
     15          1           0        1.991709    1.141253   -2.258340
     16          1           0        1.235735   -0.437554   -2.058588
     17          6           0        5.692210   -0.562427   -3.735917
     18          6           0        4.261594    1.112662    1.053439
     19          1           0        4.921576    1.966409    1.224250
     20          1           0        4.749352    0.254186    1.526927
     21          6           0        3.231661   -0.521892   -2.894671
     22          1           0        3.290038   -1.596387   -2.692609
     23          1           0        2.871851   -0.429035   -3.925227
     24          6           0        2.828923    1.331725    1.629925
     25          1           0        2.661322    0.678642    2.491011
     26          1           0        2.690579    2.356759    1.989722
     27          6           0        6.431848    1.045640   -1.251338
     28          1           0        6.172435    2.113947   -1.255171
     29          6           0        0.398325    0.564816    0.857083
     30          1           0        0.000000    0.000000    0.000000
     31          6           0        2.772212   -1.347068    0.033842
     32          1           0        3.460588   -1.952710   -0.561329
     33          1           0        3.123581   -1.387209    1.068464
     34          1           0        1.794623   -1.839598   -0.005535
     35          6           0        7.083250    0.028002   -3.478397
     36          6           0        5.298316   -0.252275   -5.214207
     37          1           0        5.068597    0.819505   -5.290617
     38          1           0        4.375817   -0.786185   -5.465353
     39          6           0        7.368519    0.760022   -2.391521
     40          1           0        8.365897    1.184145   -2.275670
     41          6           0        5.755346   -2.099486   -3.527525
     42          1           0        4.838791   -2.587171   -3.873377
     43          1           0        6.585617   -2.546480   -4.080420
     44          1           0        5.898956   -2.350771   -2.472196
     45          6           0        8.152023   -0.237021   -4.522027
     46          1           0        9.064152    0.316895   -4.279336
     47          1           0        8.420420   -1.305884   -4.517006
     48          6           0        6.374145   -0.590229   -6.258020
     49          1           0        6.550472   -1.675713   -6.291336
     50          1           0        6.030716   -0.298082   -7.256892
     51          6           0        0.293908   -0.354231    2.097999
     52          1           0        1.133222   -1.056501    2.125221
     53          1           0        0.384003    0.257516    3.006987
     54          6           0        7.691199    0.118519   -5.943230
     55          1           0        7.540556    1.203038   -6.007755
     56          6           0       -0.500544    1.805895    1.034772
     57          1           0       -0.115285    2.453732    1.832041
     58          1           0       -1.527758    1.533615    1.297853
     59          1           0       -0.542545    2.399558    0.114787
     60          6           0       -1.009139   -1.168401    2.168930
     61          1           0       -1.872242   -0.492579    2.141912
     62          1           0       -1.081045   -1.795357    1.269759
     63          6           0       -1.082311   -2.048374    3.427094
     64          1           0       -0.992068   -1.402252    4.312283
     65          1           0       -0.203668   -2.709532    3.445279
     66          6           0       -2.348951   -2.920587    3.590716
     67          1           0       -2.216978   -3.468792    4.535351
     68          6           0       -2.493611   -3.970643    2.476651
     69          1           0       -2.692001   -3.504366    1.504683
     70          1           0       -3.326332   -4.651190    2.688059
     71          1           0       -1.584640   -4.575858    2.378191
     72          6           0       -3.631439   -2.083724    3.730727
     73          1           0       -3.870502   -1.551309    2.802890
     74          1           0       -4.489273   -2.722330    3.970617
     75          1           0       -3.536525   -1.338391    4.529188
 ---------------------------------------------------------------------
 Rotational constants (GHZ):      0.3714331      0.0583692      0.0549340
 Leave Link  202 at Wed May 17 11:58:26 2017, MaxMem=    33554432 cpu:         0.3
 (Enter /home/michal/g09/l301.exe)
 Standard basis: 6-31G(d) (6D, 7F)
 Ernie: Thresh=  0.10000D-02 Tol=  0.10000D-05 Strict=F.
 AO basis set in the form of general basis input (Overlap normalization):
      1 0
 S   6 1.00       0.000000000000
      0.5484671660D+04  0.1831074430D-02
      0.8252349460D+03  0.1395017220D-01
      0.1880469580D+03  0.6844507810D-01
      0.5296450000D+02  0.2327143360D+00
      0.1689757040D+02  0.4701928980D+00
      0.5799635340D+01  0.3585208530D+00
 SP   3 1.00       0.000000000000
      0.1553961625D+02 -0.1107775495D+00  0.7087426823D-01
      0.3599933586D+01 -0.1480262627D+00  0.3397528391D+00
      0.1013761750D+01  0.1130767015D+01  0.7271585773D+00
 SP   1 1.00       0.000000000000
      0.2700058226D+00  0.1000000000D+01  0.1000000000D+01
 D   1 1.00       0.000000000000
      0.8000000000D+00  0.1000000000D+01
 ****
      2 0
 S   3 1.00       0.000000000000
      0.1873113696D+02  0.3349460434D-01
      0.2825394365D+01  0.2347269535D+00
      0.6401216923D+00  0.8137573261D+00
 S   1 1.00       0.000000000000
      0.1612777588D+00  0.1000000000D+01
 ****
      3 0
 S   6 1.00       0.000000000000
      0.5484671660D+04  0.1831074430D-02
      0.8252349460D+03  0.1395017220D-01
      0.1880469580D+03  0.6844507810D-01
      0.5296450000D+02  0.2327143360D+00
      0.1689757040D+02  0.4701928980D+00
      0.5799635340D+01  0.3585208530D+00
 SP   3 1.00       0.000000000000
      0.1553961625D+02 -0.1107775495D+00  0.7087426823D-01
      0.3599933586D+01 -0.1480262627D+00  0.3397528391D+00
      0.1013761750D+01  0.1130767015D+01  0.7271585773D+00
 SP   1 1.00       0.000000000000
      0.2700058226D+00  0.1000000000D+01  0.1000000000D+01
 D   1 1.00       0.000000000000
      0.8000000000D+00  0.1000000000D+01
 ****
      4 0
 S   3 1.00       0.000000000000
      0.1873113696D+02  0.3349460434D-01
      0.2825394365D+01  0.2347269535D+00
      0.6401216923D+00  0.8137573261D+00
 S   1 1.00       0.000000000000
      0.1612777588D+00  0.1000000000D+01
 ****
      5 0
 S   6 1.00       0.000000000000
      0.3047524880D+04  0.1834737132D-02
      0.4573695180D+03  0.1403732281D-01
      0.1039486850D+03  0.6884262226D-01
      0.2921015530D+02  0.2321844432D+00
      0.9286662960D+01  0.4679413484D+00
      0.3163926960D+01  0.3623119853D+00
 SP   3 1.00       0.000000000000
      0.7868272350D+01 -0.1193324198D+00  0.6899906659D-01
      0.1881288540D+01 -0.1608541517D+00  0.3164239610D+00
      0.5442492580D+00  0.1143456438D+01  0.7443082909D+00
 SP   1 1.00       0.000000000000
      0.1687144782D+00  0.1000000000D+01  0.1000000000D+01
 D   1 1.00       0.000000000000
      0.8000000000D+00  0.1000000000D+01
 ****
      6 0
 S   6 1.00       0.000000000000
      0.3047524880D+04  0.1834737132D-02
      0.4573695180D+03  0.1403732281D-01
      0.1039486850D+03  0.6884262226D-01
      0.2921015530D+02  0.2321844432D+00
      0.9286662960D+01  0.4679413484D+00
      0.3163926960D+01  0.3623119853D+00
 SP   3 1.00       0.000000000000
      0.7868272350D+01 -0.1193324198D+00  0.6899906659D-01
      0.1881288540D+01 -0.1608541517D+00  0.3164239610D+00
      0.5442492580D+00  0.1143456438D+01  0.7443082909D+00
 SP   1 1.00       0.000000000000
      0.1687144782D+00  0.1000000000D+01  0.1000000000D+01
 D   1 1.00       0.000000000000
      0.8000000000D+00  0.1000000000D+01
 ****
      7 0
 S   3 1.00       0.000000000000
      0.1873113696D+02  0.3349460434D-01
      0.2825394365D+01  0.2347269535D+00
      0.6401216923D+00  0.8137573261D+00
 S   1 1.00       0.000000000000
      0.1612777588D+00  0.1000000000D+01
 ****
      8 0
 S   6 1.00       0.000000000000
      0.3047524880D+04  0.1834737132D-02
      0.4573695180D+03  0.1403732281D-01
      0.1039486850D+03  0.6884262226D-01
      0.2921015530D+02  0.2321844432D+00
      0.9286662960D+01  0.4679413484D+00
      0.3163926960D+01  0.3623119853D+00
 SP   3 1.00       0.000000000000
      0.7868272350D+01 -0.1193324198D+00  0.6899906659D-01
      0.1881288540D+01 -0.1608541517D+00  0.3164239610D+00
      0.5442492580D+00  0.1143456438D+01  0.7443082909D+00
 SP   1 1.00       0.000000000000
      0.1687144782D+00  0.1000000000D+01  0.1000000000D+01
 D   1 1.00       0.000000000000
      0.8000000000D+00  0.1000000000D+01
 ****
      9 0
 S   3 1.00       0.000000000000
      0.1873113696D+02  0.3349460434D-01
      0.2825394365D+01  0.2347269535D+00
      0.6401216923D+00  0.8137573261D+00
 S   1 1.00       0.000000000000
      0.1612777588D+00  0.1000000000D+01
 ****
     10 0
 S   6 1.00       0.000000000000
      0.3047524880D+04  0.1834737132D-02
      0.4573695180D+03  0.1403732281D-01
      0.1039486850D+03  0.6884262226D-01
      0.2921015530D+02  0.2321844432D+00
      0.9286662960D+01  0.4679413484D+00
      0.3163926960D+01  0.3623119853D+00
 SP   3 1.00       0.000000000000
      0.7868272350D+01 -0.1193324198D+00  0.6899906659D-01
      0.1881288540D+01 -0.1608541517D+00  0.3164239610D+00
      0.5442492580D+00  0.1143456438D+01  0.7443082909D+00
 SP   1 1.00       0.000000000000
      0.1687144782D+00  0.1000000000D+01  0.1000000000D+01
 D   1 1.00       0.000000000000
      0.8000000000D+00  0.1000000000D+01
 ****
     11 0
 S   3 1.00       0.000000000000
      0.1873113696D+02  0.3349460434D-01
      0.2825394365D+01  0.2347269535D+00
      0.6401216923D+00  0.8137573261D+00
 S   1 1.00       0.000000000000
      0.1612777588D+00  0.1000000000D+01
 ****
     12 0
 S   6 1.00       0.000000000000
      0.3047524880D+04  0.1834737132D-02
      0.4573695180D+03  0.1403732281D-01
      0.1039486850D+03  0.6884262226D-01
      0.2921015530D+02  0.2321844432D+00
      0.9286662960D+01  0.4679413484D+00
      0.3163926960D+01  0.3623119853D+00
 SP   3 1.00       0.000000000000
      0.7868272350D+01 -0.1193324198D+00  0.6899906659D-01
      0.1881288540D+01 -0.1608541517D+00  0.3164239610D+00
      0.5442492580D+00  0.1143456438D+01  0.7443082909D+00
 SP   1 1.00       0.000000000000
      0.1687144782D+00  0.1000000000D+01  0.1000000000D+01
 D   1 1.00       0.000000000000
      0.8000000000D+00  0.1000000000D+01
 ****
     13 0
 S   3 1.00       0.000000000000
      0.1873113696D+02  0.3349460434D-01
      0.2825394365D+01  0.2347269535D+00
      0.6401216923D+00  0.8137573261D+00
 S   1 1.00       0.000000000000
      0.1612777588D+00  0.1000000000D+01
 ****
     14 0
 S   6 1.00       0.000000000000
      0.3047524880D+04  0.1834737132D-02
      0.4573695180D+03  0.1403732281D-01
      0.1039486850D+03  0.6884262226D-01
      0.2921015530D+02  0.2321844432D+00
      0.9286662960D+01  0.4679413484D+00
      0.3163926960D+01  0.3623119853D+00
 SP   3 1.00       0.000000000000
      0.7868272350D+01 -0.1193324198D+00  0.6899906659D-01
      0.1881288540D+01 -0.1608541517D+00  0.3164239610D+00
      0.5442492580D+00  0.1143456438D+01  0.7443082909D+00
 SP   1 1.00       0.000000000000
      0.1687144782D+00  0.1000000000D+01  0.1000000000D+01
 D   1 1.00       0.000000000000
      0.8000000000D+00  0.1000000000D+01
 ****
     15 0
 S   3 1.00       0.000000000000
      0.1873113696D+02  0.3349460434D-01
      0.2825394365D+01  0.2347269535D+00
      0.6401216923D+00  0.8137573261D+00
 S   1 1.00       0.000000000000
      0.1612777588D+00  0.1000000000D+01
 ****
     16 0
 S   3 1.00       0.000000000000
      0.1873113696D+02  0.3349460434D-01
      0.2825394365D+01  0.2347269535D+00
      0.6401216923D+00  0.8137573261D+00
 S   1 1.00       0.000000000000
      0.1612777588D+00  0.1000000000D+01
 ****
     17 0
 S   6 1.00       0.000000000000
      0.3047524880D+04  0.1834737132D-02
      0.4573695180D+03  0.1403732281D-01
      0.1039486850D+03  0.6884262226D-01
      0.2921015530D+02  0.2321844432D+00
      0.9286662960D+01  0.4679413484D+00
      0.3163926960D+01  0.3623119853D+00
 SP   3 1.00       0.000000000000
      0.7868272350D+01 -0.1193324198D+00  0.6899906659D-01
      0.1881288540D+01 -0.1608541517D+00  0.3164239610D+00
      0.5442492580D+00  0.1143456438D+01  0.7443082909D+00
 SP   1 1.00       0.000000000000
      0.1687144782D+00  0.1000000000D+01  0.1000000000D+01
 D   1 1.00       0.000000000000
      0.8000000000D+00  0.1000000000D+01
 ****
     18 0
 S   6 1.00       0.000000000000
      0.3047524880D+04  0.1834737132D-02
      0.4573695180D+03  0.1403732281D-01
      0.1039486850D+03  0.6884262226D-01
      0.2921015530D+02  0.2321844432D+00
      0.9286662960D+01  0.4679413484D+00
      0.3163926960D+01  0.3623119853D+00
 SP   3 1.00       0.000000000000
      0.7868272350D+01 -0.1193324198D+00  0.6899906659D-01
      0.1881288540D+01 -0.1608541517D+00  0.3164239610D+00
      0.5442492580D+00  0.1143456438D+01  0.7443082909D+00
 SP   1 1.00       0.000000000000
      0.1687144782D+00  0.1000000000D+01  0.1000000000D+01
 D   1 1.00       0.000000000000
      0.8000000000D+00  0.1000000000D+01
 ****
     19 0
 S   3 1.00       0.000000000000
      0.1873113696D+02  0.3349460434D-01
      0.2825394365D+01  0.2347269535D+00
      0.6401216923D+00  0.8137573261D+00
 S   1 1.00       0.000000000000
      0.1612777588D+00  0.1000000000D+01
 ****
     20 0
 S   3 1.00       0.000000000000
      0.1873113696D+02  0.3349460434D-01
      0.2825394365D+01  0.2347269535D+00
      0.6401216923D+00  0.8137573261D+00
 S   1 1.00       0.000000000000
      0.1612777588D+00  0.1000000000D+01
 ****
     21 0
 S   6 1.00       0.000000000000
      0.3047524880D+04  0.1834737132D-02
      0.4573695180D+03  0.1403732281D-01
      0.1039486850D+03  0.6884262226D-01
      0.2921015530D+02  0.2321844432D+00
      0.9286662960D+01  0.4679413484D+00
      0.3163926960D+01  0.3623119853D+00
 SP   3 1.00       0.000000000000
      0.7868272350D+01 -0.1193324198D+00  0.6899906659D-01
      0.1881288540D+01 -0.1608541517D+00  0.3164239610D+00
      0.5442492580D+00  0.1143456438D+01  0.7443082909D+00
 SP   1 1.00       0.000000000000
      0.1687144782D+00  0.1000000000D+01  0.1000000000D+01
 D   1 1.00       0.000000000000
      0.8000000000D+00  0.1000000000D+01
 ****
     22 0
 S   3 1.00       0.000000000000
      0.1873113696D+02  0.3349460434D-01
      0.2825394365D+01  0.2347269535D+00
      0.6401216923D+00  0.8137573261D+00
 S   1 1.00       0.000000000000
      0.1612777588D+00  0.1000000000D+01
 ****
     23 0
 S   3 1.00       0.000000000000
      0.1873113696D+02  0.3349460434D-01
      0.2825394365D+01  0.2347269535D+00
      0.6401216923D+00  0.8137573261D+00
 S   1 1.00       0.000000000000
      0.1612777588D+00  0.1000000000D+01
 ****
     24 0
 S   6 1.00       0.000000000000
      0.3047524880D+04  0.1834737132D-02
      0.4573695180D+03  0.1403732281D-01
      0.1039486850D+03  0.6884262226D-01
      0.2921015530D+02  0.2321844432D+00
      0.9286662960D+01  0.4679413484D+00
      0.3163926960D+01  0.3623119853D+00
 SP   3 1.00       0.000000000000
      0.7868272350D+01 -0.1193324198D+00  0.6899906659D-01
      0.1881288540D+01 -0.1608541517D+00  0.3164239610D+00
      0.5442492580D+00  0.1143456438D+01  0.7443082909D+00
 SP   1 1.00       0.000000000000
      0.1687144782D+00  0.1000000000D+01  0.1000000000D+01
 D   1 1.00       0.000000000000
      0.8000000000D+00  0.1000000000D+01
 ****
     25 0
 S   3 1.00       0.000000000000
      0.1873113696D+02  0.3349460434D-01
      0.2825394365D+01  0.2347269535D+00
      0.6401216923D+00  0.8137573261D+00
 S   1 1.00       0.000000000000
      0.1612777588D+00  0.1000000000D+01
 ****
     26 0
 S   3 1.00       0.000000000000
      0.1873113696D+02  0.3349460434D-01
      0.2825394365D+01  0.2347269535D+00
      0.6401216923D+00  0.8137573261D+00
 S   1 1.00       0.000000000000
      0.1612777588D+00  0.1000000000D+01
 ****
     27 0
 S   6 1.00       0.000000000000
      0.3047524880D+04  0.1834737132D-02
      0.4573695180D+03  0.1403732281D-01
      0.1039486850D+03  0.6884262226D-01
      0.2921015530D+02  0.2321844432D+00
      0.9286662960D+01  0.4679413484D+00
      0.3163926960D+01  0.3623119853D+00
 SP   3 1.00       0.000000000000
      0.7868272350D+01 -0.1193324198D+00  0.6899906659D-01
      0.1881288540D+01 -0.1608541517D+00  0.3164239610D+00
      0.5442492580D+00  0.1143456438D+01  0.7443082909D+00
 SP   1 1.00       0.000000000000
      0.1687144782D+00  0.1000000000D+01  0.1000000000D+01
 D   1 1.00       0.000000000000
      0.8000000000D+00  0.1000000000D+01
 ****
     28 0
 S   3 1.00       0.000000000000
      0.1873113696D+02  0.3349460434D-01
      0.2825394365D+01  0.2347269535D+00
      0.6401216923D+00  0.8137573261D+00
 S   1 1.00       0.000000000000
      0.1612777588D+00  0.1000000000D+01
 ****
     29 0
 S   6 1.00       0.000000000000
      0.3047524880D+04  0.1834737132D-02
      0.4573695180D+03  0.1403732281D-01
      0.1039486850D+03  0.6884262226D-01
      0.2921015530D+02  0.2321844432D+00
      0.9286662960D+01  0.4679413484D+00
      0.3163926960D+01  0.3623119853D+00
 SP   3 1.00       0.000000000000
      0.7868272350D+01 -0.1193324198D+00  0.6899906659D-01
      0.1881288540D+01 -0.1608541517D+00  0.3164239610D+00
      0.5442492580D+00  0.1143456438D+01  0.7443082909D+00
 SP   1 1.00       0.000000000000
      0.1687144782D+00  0.1000000000D+01  0.1000000000D+01
 D   1 1.00       0.000000000000
      0.8000000000D+00  0.1000000000D+01
 ****
     30 0
 S   3 1.00       0.000000000000
      0.1873113696D+02  0.3349460434D-01
      0.2825394365D+01  0.2347269535D+00
      0.6401216923D+00  0.8137573261D+00
 S   1 1.00       0.000000000000
      0.1612777588D+00  0.1000000000D+01
 ****
     31 0
 S   6 1.00       0.000000000000
      0.3047524880D+04  0.1834737132D-02
      0.4573695180D+03  0.1403732281D-01
      0.1039486850D+03  0.6884262226D-01
      0.2921015530D+02  0.2321844432D+00
      0.9286662960D+01  0.4679413484D+00
      0.3163926960D+01  0.3623119853D+00
 SP   3 1.00       0.000000000000
      0.7868272350D+01 -0.1193324198D+00  0.6899906659D-01
      0.1881288540D+01 -0.1608541517D+00  0.3164239610D+00
      0.5442492580D+00  0.1143456438D+01  0.7443082909D+00
 SP   1 1.00       0.000000000000
      0.1687144782D+00  0.1000000000D+01  0.1000000000D+01
 D   1 1.00       0.000000000000
      0.8000000000D+00  0.1000000000D+01
 ****
     32 0
 S   3 1.00       0.000000000000
      0.1873113696D+02  0.3349460434D-01
      0.2825394365D+01  0.2347269535D+00
      0.6401216923D+00  0.8137573261D+00
 S   1 1.00       0.000000000000
      0.1612777588D+00  0.1000000000D+01
 ****
     33 0
 S   3 1.00       0.000000000000
      0.1873113696D+02  0.3349460434D-01
      0.2825394365D+01  0.2347269535D+00
      0.6401216923D+00  0.8137573261D+00
 S   1 1.00       0.000000000000
      0.1612777588D+00  0.1000000000D+01
 ****
     34 0
 S   3 1.00       0.000000000000
      0.1873113696D+02  0.3349460434D-01
      0.2825394365D+01  0.2347269535D+00
      0.6401216923D+00  0.8137573261D+00
 S   1 1.00       0.000000000000
      0.1612777588D+00  0.1000000000D+01
 ****
     35 0
 S   6 1.00       0.000000000000
      0.3047524880D+04  0.1834737132D-02
      0.4573695180D+03  0.1403732281D-01
      0.1039486850D+03  0.6884262226D-01
      0.2921015530D+02  0.2321844432D+00
      0.9286662960D+01  0.4679413484D+00
      0.3163926960D+01  0.3623119853D+00
 SP   3 1.00       0.000000000000
      0.7868272350D+01 -0.1193324198D+00  0.6899906659D-01
      0.1881288540D+01 -0.1608541517D+00  0.3164239610D+00
      0.5442492580D+00  0.1143456438D+01  0.7443082909D+00
 SP   1 1.00       0.000000000000
      0.1687144782D+00  0.1000000000D+01  0.1000000000D+01
 D   1 1.00       0.000000000000
      0.8000000000D+00  0.1000000000D+01
 ****
     36 0
 S   6 1.00       0.000000000000
      0.3047524880D+04  0.1834737132D-02
      0.4573695180D+03  0.1403732281D-01
      0.1039486850D+03  0.6884262226D-01
      0.2921015530D+02  0.2321844432D+00
      0.9286662960D+01  0.4679413484D+00
      0.3163926960D+01  0.3623119853D+00
 SP   3 1.00       0.000000000000
      0.7868272350D+01 -0.1193324198D+00  0.6899906659D-01
      0.1881288540D+01 -0.1608541517D+00  0.3164239610D+00
      0.5442492580D+00  0.1143456438D+01  0.7443082909D+00
 SP   1 1.00       0.000000000000
      0.1687144782D+00  0.1000000000D+01  0.1000000000D+01
 D   1 1.00       0.000000000000
      0.8000000000D+00  0.1000000000D+01
 ****
     37 0
 S   3 1.00       0.000000000000
      0.1873113696D+02  0.3349460434D-01
      0.2825394365D+01  0.2347269535D+00
      0.6401216923D+00  0.8137573261D+00
 S   1 1.00       0.000000000000
      0.1612777588D+00  0.1000000000D+01
 ****
     38 0
 S   3 1.00       0.000000000000
      0.1873113696D+02  0.3349460434D-01
      0.2825394365D+01  0.2347269535D+00
      0.6401216923D+00  0.8137573261D+00
 S   1 1.00       0.000000000000
      0.1612777588D+00  0.1000000000D+01
 ****
     39 0
 S   6 1.00       0.000000000000
      0.3047524880D+04  0.1834737132D-02
      0.4573695180D+03  0.1403732281D-01
      0.1039486850D+03  0.6884262226D-01
      0.2921015530D+02  0.2321844432D+00
      0.9286662960D+01  0.4679413484D+00
      0.3163926960D+01  0.3623119853D+00
 SP   3 1.00       0.000000000000
      0.7868272350D+01 -0.1193324198D+00  0.6899906659D-01
      0.1881288540D+01 -0.1608541517D+00  0.3164239610D+00
      0.5442492580D+00  0.1143456438D+01  0.7443082909D+00
 SP   1 1.00       0.000000000000
      0.1687144782D+00  0.1000000000D+01  0.1000000000D+01
 D   1 1.00       0.000000000000
      0.8000000000D+00  0.1000000000D+01
 ****
     40 0
 S   3 1.00       0.000000000000
      0.1873113696D+02  0.3349460434D-01
      0.2825394365D+01  0.2347269535D+00
      0.6401216923D+00  0.8137573261D+00
 S   1 1.00       0.000000000000
      0.1612777588D+00  0.1000000000D+01
 ****
     41 0
 S   6 1.00       0.000000000000
      0.3047524880D+04  0.1834737132D-02
      0.4573695180D+03  0.1403732281D-01
      0.1039486850D+03  0.6884262226D-01
      0.2921015530D+02  0.2321844432D+00
      0.9286662960D+01  0.4679413484D+00
      0.3163926960D+01  0.3623119853D+00
 SP   3 1.00       0.000000000000
      0.7868272350D+01 -0.1193324198D+00  0.6899906659D-01
      0.1881288540D+01 -0.1608541517D+00  0.3164239610D+00
      0.5442492580D+00  0.1143456438D+01  0.7443082909D+00
 SP   1 1.00       0.000000000000
      0.1687144782D+00  0.1000000000D+01  0.1000000000D+01
 D   1 1.00       0.000000000000
      0.8000000000D+00  0.1000000000D+01
 ****
     42 0
 S   3 1.00       0.000000000000
      0.1873113696D+02  0.3349460434D-01
      0.2825394365D+01  0.2347269535D+00
      0.6401216923D+00  0.8137573261D+00
 S   1 1.00       0.000000000000
      0.1612777588D+00  0.1000000000D+01
 ****
     43 0
 S   3 1.00       0.000000000000
      0.1873113696D+02  0.3349460434D-01
      0.2825394365D+01  0.2347269535D+00
      0.6401216923D+00  0.8137573261D+00
 S   1 1.00       0.000000000000
      0.1612777588D+00  0.1000000000D+01
 ****
     44 0
 S   3 1.00       0.000000000000
      0.1873113696D+02  0.3349460434D-01
      0.2825394365D+01  0.2347269535D+00
      0.6401216923D+00  0.8137573261D+00
 S   1 1.00       0.000000000000
      0.1612777588D+00  0.1000000000D+01
 ****
     45 0
 S   6 1.00       0.000000000000
      0.3047524880D+04  0.1834737132D-02
      0.4573695180D+03  0.1403732281D-01
      0.1039486850D+03  0.6884262226D-01
      0.2921015530D+02  0.2321844432D+00
      0.9286662960D+01  0.4679413484D+00
      0.3163926960D+01  0.3623119853D+00
 SP   3 1.00       0.000000000000
      0.7868272350D+01 -0.1193324198D+00  0.6899906659D-01
      0.1881288540D+01 -0.1608541517D+00  0.3164239610D+00
      0.5442492580D+00  0.1143456438D+01  0.7443082909D+00
 SP   1 1.00       0.000000000000
      0.1687144782D+00  0.1000000000D+01  0.1000000000D+01
 D   1 1.00       0.000000000000
      0.8000000000D+00  0.1000000000D+01
 ****
     46 0
 S   3 1.00       0.000000000000
      0.1873113696D+02  0.3349460434D-01
      0.2825394365D+01  0.2347269535D+00
      0.6401216923D+00  0.8137573261D+00
 S   1 1.00       0.000000000000
      0.1612777588D+00  0.1000000000D+01
 ****
     47 0
 S   3 1.00       0.000000000000
      0.1873113696D+02  0.3349460434D-01
      0.2825394365D+01  0.2347269535D+00
      0.6401216923D+00  0.8137573261D+00
 S   1 1.00       0.000000000000
      0.1612777588D+00  0.1000000000D+01
 ****
     48 0
 S   6 1.00       0.000000000000
      0.3047524880D+04  0.1834737132D-02
      0.4573695180D+03  0.1403732281D-01
      0.1039486850D+03  0.6884262226D-01
      0.2921015530D+02  0.2321844432D+00
      0.9286662960D+01  0.4679413484D+00
      0.3163926960D+01  0.3623119853D+00
 SP   3 1.00       0.000000000000
      0.7868272350D+01 -0.1193324198D+00  0.6899906659D-01
      0.1881288540D+01 -0.1608541517D+00  0.3164239610D+00
      0.5442492580D+00  0.1143456438D+01  0.7443082909D+00
 SP   1 1.00       0.000000000000
      0.1687144782D+00  0.1000000000D+01  0.1000000000D+01
 D   1 1.00       0.000000000000
      0.8000000000D+00  0.1000000000D+01
 ****
     49 0
 S   3 1.00       0.000000000000
      0.1873113696D+02  0.3349460434D-01
      0.2825394365D+01  0.2347269535D+00
      0.6401216923D+00  0.8137573261D+00
 S   1 1.00       0.000000000000
      0.1612777588D+00  0.1000000000D+01
 ****
     50 0
 S   3 1.00       0.000000000000
      0.1873113696D+02  0.3349460434D-01
      0.2825394365D+01  0.2347269535D+00
      0.6401216923D+00  0.8137573261D+00
 S   1 1.00       0.000000000000
      0.1612777588D+00  0.1000000000D+01
 ****
     51 0
 S   6 1.00       0.000000000000
      0.3047524880D+04  0.1834737132D-02
      0.4573695180D+03  0.1403732281D-01
      0.1039486850D+03  0.6884262226D-01
      0.2921015530D+02  0.2321844432D+00
      0.9286662960D+01  0.4679413484D+00
      0.3163926960D+01  0.3623119853D+00
 SP   3 1.00       0.000000000000
      0.7868272350D+01 -0.1193324198D+00  0.6899906659D-01
      0.1881288540D+01 -0.1608541517D+00  0.3164239610D+00
      0.5442492580D+00  0.1143456438D+01  0.7443082909D+00
 SP   1 1.00       0.000000000000
      0.1687144782D+00  0.1000000000D+01  0.1000000000D+01
 D   1 1.00       0.000000000000
      0.8000000000D+00  0.1000000000D+01
 ****
     52 0
 S   3 1.00       0.000000000000
      0.1873113696D+02  0.3349460434D-01
      0.2825394365D+01  0.2347269535D+00
      0.6401216923D+00  0.8137573261D+00
 S   1 1.00       0.000000000000
      0.1612777588D+00  0.1000000000D+01
 ****
     53 0
 S   3 1.00       0.000000000000
      0.1873113696D+02  0.3349460434D-01
      0.2825394365D+01  0.2347269535D+00
      0.6401216923D+00  0.8137573261D+00
 S   1 1.00       0.000000000000
      0.1612777588D+00  0.1000000000D+01
 ****
     54 0
 S   6 1.00       0.000000000000
      0.3047524880D+04  0.1834737132D-02
      0.4573695180D+03  0.1403732281D-01
      0.1039486850D+03  0.6884262226D-01
      0.2921015530D+02  0.2321844432D+00
      0.9286662960D+01  0.4679413484D+00
      0.3163926960D+01  0.3623119853D+00
 SP   3 1.00       0.000000000000
      0.7868272350D+01 -0.1193324198D+00  0.6899906659D-01
      0.1881288540D+01 -0.1608541517D+00  0.3164239610D+00
      0.5442492580D+00  0.1143456438D+01  0.7443082909D+00
 SP   1 1.00       0.000000000000
      0.1687144782D+00  0.1000000000D+01  0.1000000000D+01
 D   1 1.00       0.000000000000
      0.8000000000D+00  0.1000000000D+01
 ****
     55 0
 S   3 1.00       0.000000000000
      0.1873113696D+02  0.3349460434D-01
      0.2825394365D+01  0.2347269535D+00
      0.6401216923D+00  0.8137573261D+00
 S   1 1.00       0.000000000000
      0.1612777588D+00  0.1000000000D+01
 ****
     56 0
 S   6 1.00       0.000000000000
      0.3047524880D+04  0.1834737132D-02
      0.4573695180D+03  0.1403732281D-01
      0.1039486850D+03  0.6884262226D-01
      0.2921015530D+02  0.2321844432D+00
      0.9286662960D+01  0.4679413484D+00
      0.3163926960D+01  0.3623119853D+00
 SP   3 1.00       0.000000000000
      0.7868272350D+01 -0.1193324198D+00  0.6899906659D-01
      0.1881288540D+01 -0.1608541517D+00  0.3164239610D+00
      0.5442492580D+00  0.1143456438D+01  0.7443082909D+00
 SP   1 1.00       0.000000000000
      0.1687144782D+00  0.1000000000D+01  0.1000000000D+01
 D   1 1.00       0.000000000000
      0.8000000000D+00  0.1000000000D+01
 ****
     57 0
 S   3 1.00       0.000000000000
      0.1873113696D+02  0.3349460434D-01
      0.2825394365D+01  0.2347269535D+00
      0.6401216923D+00  0.8137573261D+00
 S   1 1.00       0.000000000000
      0.1612777588D+00  0.1000000000D+01
 ****
     58 0
 S   3 1.00       0.000000000000
      0.1873113696D+02  0.3349460434D-01
      0.2825394365D+01  0.2347269535D+00
      0.6401216923D+00  0.8137573261D+00
 S   1 1.00       0.000000000000
      0.1612777588D+00  0.1000000000D+01
 ****
     59 0
 S   3 1.00       0.000000000000
      0.1873113696D+02  0.3349460434D-01
      0.2825394365D+01  0.2347269535D+00
      0.6401216923D+00  0.8137573261D+00
 S   1 1.00       0.000000000000
      0.1612777588D+00  0.1000000000D+01
 ****
     60 0
 S   6 1.00       0.000000000000
      0.3047524880D+04  0.1834737132D-02
      0.4573695180D+03  0.1403732281D-01
      0.1039486850D+03  0.6884262226D-01
      0.2921015530D+02  0.2321844432D+00
      0.9286662960D+01  0.4679413484D+00
      0.3163926960D+01  0.3623119853D+00
 SP   3 1.00       0.000000000000
      0.7868272350D+01 -0.1193324198D+00  0.6899906659D-01
      0.1881288540D+01 -0.1608541517D+00  0.3164239610D+00
      0.5442492580D+00  0.1143456438D+01  0.7443082909D+00
 SP   1 1.00       0.000000000000
      0.1687144782D+00  0.1000000000D+01  0.1000000000D+01
 D   1 1.00       0.000000000000
      0.8000000000D+00  0.1000000000D+01
 ****
     61 0
 S   3 1.00       0.000000000000
      0.1873113696D+02  0.3349460434D-01
      0.2825394365D+01  0.2347269535D+00
      0.6401216923D+00  0.8137573261D+00
 S   1 1.00       0.000000000000
      0.1612777588D+00  0.1000000000D+01
 ****
     62 0
 S   3 1.00       0.000000000000
      0.1873113696D+02  0.3349460434D-01
      0.2825394365D+01  0.2347269535D+00
      0.6401216923D+00  0.8137573261D+00
 S   1 1.00       0.000000000000
      0.1612777588D+00  0.1000000000D+01
 ****
     63 0
 S   6 1.00       0.000000000000
      0.3047524880D+04  0.1834737132D-02
      0.4573695180D+03  0.1403732281D-01
      0.1039486850D+03  0.6884262226D-01
      0.2921015530D+02  0.2321844432D+00
      0.9286662960D+01  0.4679413484D+00
      0.3163926960D+01  0.3623119853D+00
 SP   3 1.00       0.000000000000
      0.7868272350D+01 -0.1193324198D+00  0.6899906659D-01
      0.1881288540D+01 -0.1608541517D+00  0.3164239610D+00
      0.5442492580D+00  0.1143456438D+01  0.7443082909D+00
 SP   1 1.00       0.000000000000
      0.1687144782D+00  0.1000000000D+01  0.1000000000D+01
 D   1 1.00       0.000000000000
      0.8000000000D+00  0.1000000000D+01
 ****
     64 0
 S   3 1.00       0.000000000000
      0.1873113696D+02  0.3349460434D-01
      0.2825394365D+01  0.2347269535D+00
      0.6401216923D+00  0.8137573261D+00
 S   1 1.00       0.000000000000
      0.1612777588D+00  0.1000000000D+01
 ****
     65 0
 S   3 1.00       0.000000000000
      0.1873113696D+02  0.3349460434D-01
      0.2825394365D+01  0.2347269535D+00
      0.6401216923D+00  0.8137573261D+00
 S   1 1.00       0.000000000000
      0.1612777588D+00  0.1000000000D+01
 ****
     66 0
 S   6 1.00       0.000000000000
      0.3047524880D+04  0.1834737132D-02
      0.4573695180D+03  0.1403732281D-01
      0.1039486850D+03  0.6884262226D-01
      0.2921015530D+02  0.2321844432D+00
      0.9286662960D+01  0.4679413484D+00
      0.3163926960D+01  0.3623119853D+00
 SP   3 1.00       0.000000000000
      0.7868272350D+01 -0.1193324198D+00  0.6899906659D-01
      0.1881288540D+01 -0.1608541517D+00  0.3164239610D+00
      0.5442492580D+00  0.1143456438D+01  0.7443082909D+00
 SP   1 1.00       0.000000000000
      0.1687144782D+00  0.1000000000D+01  0.1000000000D+01
 D   1 1.00       0.000000000000
      0.8000000000D+00  0.1000000000D+01
 ****
     67 0
 S   3 1.00       0.000000000000
      0.1873113696D+02  0.3349460434D-01
      0.2825394365D+01  0.2347269535D+00
      0.6401216923D+00  0.8137573261D+00
 S   1 1.00       0.000000000000
      0.1612777588D+00  0.1000000000D+01
 ****
     68 0
 S   6 1.00       0.000000000000
      0.3047524880D+04  0.1834737132D-02
      0.4573695180D+03  0.1403732281D-01
      0.1039486850D+03  0.6884262226D-01
      0.2921015530D+02  0.2321844432D+00
      0.9286662960D+01  0.4679413484D+00
      0.3163926960D+01  0.3623119853D+00
 SP   3 1.00       0.000000000000
      0.7868272350D+01 -0.1193324198D+00  0.6899906659D-01
      0.1881288540D+01 -0.1608541517D+00  0.3164239610D+00
      0.5442492580D+00  0.1143456438D+01  0.7443082909D+00
 SP   1 1.00       0.000000000000
      0.1687144782D+00  0.1000000000D+01  0.1000000000D+01
 D   1 1.00       0.000000000000
      0.8000000000D+00  0.1000000000D+01
 ****
     69 0
 S   3 1.00       0.000000000000
      0.1873113696D+02  0.3349460434D-01
      0.2825394365D+01  0.2347269535D+00
      0.6401216923D+00  0.8137573261D+00
 S   1 1.00       0.000000000000
      0.1612777588D+00  0.1000000000D+01
 ****
     70 0
 S   3 1.00       0.000000000000
      0.1873113696D+02  0.3349460434D-01
      0.2825394365D+01  0.2347269535D+00
      0.6401216923D+00  0.8137573261D+00
 S   1 1.00       0.000000000000
      0.1612777588D+00  0.1000000000D+01
 ****
     71 0
 S   3 1.00       0.000000000000
      0.1873113696D+02  0.3349460434D-01
      0.2825394365D+01  0.2347269535D+00
      0.6401216923D+00  0.8137573261D+00
 S   1 1.00       0.000000000000
      0.1612777588D+00  0.1000000000D+01
 ****
     72 0
 S   6 1.00       0.000000000000
      0.3047524880D+04  0.1834737132D-02
      0.4573695180D+03  0.1403732281D-01
      0.1039486850D+03  0.6884262226D-01
      0.2921015530D+02  0.2321844432D+00
      0.9286662960D+01  0.4679413484D+00
      0.3163926960D+01  0.3623119853D+00
 SP   3 1.00       0.000000000000
      0.7868272350D+01 -0.1193324198D+00  0.6899906659D-01
      0.1881288540D+01 -0.1608541517D+00  0.3164239610D+00
      0.5442492580D+00  0.1143456438D+01  0.7443082909D+00
 SP   1 1.00       0.000000000000
      0.1687144782D+00  0.1000000000D+01  0.1000000000D+01
 D   1 1.00       0.000000000000
      0.8000000000D+00  0.1000000000D+01
 ****
     73 0
 S   3 1.00       0.000000000000
      0.1873113696D+02  0.3349460434D-01
      0.2825394365D+01  0.2347269535D+00
      0.6401216923D+00  0.8137573261D+00
 S   1 1.00       0.000000000000
      0.1612777588D+00  0.1000000000D+01
 ****
     74 0
 S   3 1.00       0.000000000000
      0.1873113696D+02  0.3349460434D-01
      0.2825394365D+01  0.2347269535D+00
      0.6401216923D+00  0.8137573261D+00
 S   1 1.00       0.000000000000
      0.1612777588D+00  0.1000000000D+01
 ****
     75 0
 S   3 1.00       0.000000000000
      0.1873113696D+02  0.3349460434D-01
      0.2825394365D+01  0.2347269535D+00
      0.6401216923D+00  0.8137573261D+00
 S   1 1.00       0.000000000000
      0.1612777588D+00  0.1000000000D+01
 ****

 AO basis set (Overlap normalization):
 Atom O1       Shell     1 S   6     bf    1 -     1         13.468290195245          1.660140470412          0.000000000000
      0.5484671660D+04  0.1831074430D-02
      0.8252349460D+03  0.1395017220D-01
      0.1880469580D+03  0.6844507810D-01
      0.5296450000D+02  0.2327143360D+00
      0.1689757040D+02  0.4701928980D+00
      0.5799635340D+01  0.3585208530D+00
 Atom O1       Shell     2 SP   3    bf    2 -     5         13.468290195245          1.660140470412          0.000000000000
      0.1553961625D+02 -0.1107775495D+00  0.7087426823D-01
      0.3599933586D+01 -0.1480262627D+00  0.3397528391D+00
      0.1013761750D+01  0.1130767015D+01  0.7271585773D+00
 Atom O1       Shell     3 SP   1    bf    6 -     9         13.468290195245          1.660140470412          0.000000000000
      0.2700058226D+00  0.1000000000D+01  0.1000000000D+01
 Atom O1       Shell     4 D   1     bf   10 -    15         13.468290195245          1.660140470412          0.000000000000
      0.8000000000D+00  0.1000000000D+01
 Atom H2       Shell     5 S   3     bf   16 -    16         14.234825475706          0.000000000000          0.000000000000
      0.1873113696D+02  0.3349460434D-01
      0.2825394365D+01  0.2347269535D+00
      0.6401216923D+00  0.8137573261D+00
 Atom H2       Shell     6 S   1     bf   17 -    17         14.234825475706          0.000000000000          0.000000000000
      0.1612777588D+00  0.1000000000D+01
 Atom O3       Shell     7 S   6     bf   18 -    18         16.451281326337         -0.287030256660        -13.066041541024
      0.5484671660D+04  0.1831074430D-02
      0.8252349460D+03  0.1395017220D-01
      0.1880469580D+03  0.6844507810D-01
      0.5296450000D+02  0.2327143360D+00
      0.1689757040D+02  0.4701928980D+00
      0.5799635340D+01  0.3585208530D+00
 Atom O3       Shell     8 SP   3    bf   19 -    22         16.451281326337         -0.287030256660        -13.066041541024
      0.1553961625D+02 -0.1107775495D+00  0.7087426823D-01
      0.3599933586D+01 -0.1480262627D+00  0.3397528391D+00
      0.1013761750D+01  0.1130767015D+01  0.7271585773D+00
 Atom O3       Shell     9 SP   1    bf   23 -    26         16.451281326337         -0.287030256660        -13.066041541024
      0.2700058226D+00  0.1000000000D+01  0.1000000000D+01
 Atom O3       Shell    10 D   1     bf   27 -    32         16.451281326337         -0.287030256660        -13.066041541024
      0.8000000000D+00  0.1000000000D+01
 Atom H4       Shell    11 S   3     bf   33 -    33         16.777812641736         -2.085928536002        -13.086692600485
      0.1873113696D+02  0.3349460434D-01
      0.2825394365D+01  0.2347269535D+00
      0.6401216923D+00  0.8137573261D+00
 Atom H4       Shell    12 S   1     bf   34 -    34         16.777812641736         -2.085928536002        -13.086692600485
      0.1612777588D+00  0.1000000000D+01
 Atom C5       Shell    13 S   6     bf   35 -    35          5.042377726565          0.192637302486         -0.928624063968
      0.3047524880D+04  0.1834737132D-02
      0.4573695180D+03  0.1403732281D-01
      0.1039486850D+03  0.6884262226D-01
      0.2921015530D+02  0.2321844432D+00
      0.9286662960D+01  0.4679413484D+00
      0.3163926960D+01  0.3623119853D+00
 Atom C5       Shell    14 SP   3    bf   36 -    39          5.042377726565          0.192637302486         -0.928624063968
      0.7868272350D+01 -0.1193324198D+00  0.6899906659D-01
      0.1881288540D+01 -0.1608541517D+00  0.3164239610D+00
      0.5442492580D+00  0.1143456438D+01  0.7443082909D+00
 Atom C5       Shell    15 SP   1    bf   40 -    43          5.042377726565          0.192637302486         -0.928624063968
      0.1687144782D+00  0.1000000000D+01  0.1000000000D+01
 Atom C5       Shell    16 D   1     bf   44 -    49          5.042377726565          0.192637302486         -0.928624063968
      0.8000000000D+00  0.1000000000D+01
 Atom C6       Shell    17 S   6     bf   50 -    50          7.611389104856          1.603429959240         -0.845746855184
      0.3047524880D+04  0.1834737132D-02
      0.4573695180D+03  0.1403732281D-01
      0.1039486850D+03  0.6884262226D-01
      0.2921015530D+02  0.2321844432D+00
      0.9286662960D+01  0.4679413484D+00
      0.3163926960D+01  0.3623119853D+00
 Atom C6       Shell    18 SP   3    bf   51 -    54          7.611389104856          1.603429959240         -0.845746855184
      0.7868272350D+01 -0.1193324198D+00  0.6899906659D-01
      0.1881288540D+01 -0.1608541517D+00  0.3164239610D+00
      0.5442492580D+00  0.1143456438D+01  0.7443082909D+00
 Atom C6       Shell    19 SP   1    bf   55 -    58          7.611389104856          1.603429959240         -0.845746855184
      0.1687144782D+00  0.1000000000D+01  0.1000000000D+01
 Atom C6       Shell    20 D   1     bf   59 -    64          7.611389104856          1.603429959240         -0.845746855184
      0.8000000000D+00  0.1000000000D+01
 Atom H7       Shell    21 S   3     bf   65 -    65          7.236125418559          3.461953803493         -1.714375931679
      0.1873113696D+02  0.3349460434D-01
      0.2825394365D+01  0.2347269535D+00
      0.6401216923D+00  0.8137573261D+00
 Atom H7       Shell    22 S   1     bf   66 -    66          7.236125418559          3.461953803493         -1.714375931679
      0.1612777588D+00  0.1000000000D+01
 Atom C8       Shell    23 S   6     bf   67 -    67          9.701522716141          0.411955402578         -2.476309445548
      0.3047524880D+04  0.1834737132D-02
      0.4573695180D+03  0.1403732281D-01
      0.1039486850D+03  0.6884262226D-01
      0.2921015530D+02  0.2321844432D+00
      0.9286662960D+01  0.4679413484D+00
      0.3163926960D+01  0.3623119853D+00
 Atom C8       Shell    24 SP   3    bf   68 -    71          9.701522716141          0.411955402578         -2.476309445548
      0.7868272350D+01 -0.1193324198D+00  0.6899906659D-01
      0.1881288540D+01 -0.1608541517D+00  0.3164239610D+00
      0.5442492580D+00  0.1143456438D+01  0.7443082909D+00
 Atom C8       Shell    25 SP   1    bf   72 -    75          9.701522716141          0.411955402578         -2.476309445548
      0.1687144782D+00  0.1000000000D+01  0.1000000000D+01
 Atom C8       Shell    26 D   1     bf   76 -    81          9.701522716141          0.411955402578         -2.476309445548
      0.8000000000D+00  0.1000000000D+01
 Atom H9       Shell    27 S   3     bf   82 -    82         10.156237235387         -1.484277416431         -1.756976802681
      0.1873113696D+02  0.3349460434D-01
      0.2825394365D+01  0.2347269535D+00
      0.6401216923D+00  0.8137573261D+00
 Atom H9       Shell    28 S   1     bf   83 -    83         10.156237235387         -1.484277416431         -1.756976802681
      0.1612777588D+00  0.1000000000D+01
 Atom C10      Shell    29 S   6     bf   84 -    84          8.771782334255          0.209373945441         -5.260991053296
      0.3047524880D+04  0.1834737132D-02
      0.4573695180D+03  0.1403732281D-01
      0.1039486850D+03  0.6884262226D-01
      0.2921015530D+02  0.2321844432D+00
      0.9286662960D+01  0.4679413484D+00
      0.3163926960D+01  0.3623119853D+00
 Atom C10      Shell    30 SP   3    bf   85 -    88          8.771782334255          0.209373945441         -5.260991053296
      0.7868272350D+01 -0.1193324198D+00  0.6899906659D-01
      0.1881288540D+01 -0.1608541517D+00  0.3164239610D+00
      0.5442492580D+00  0.1143456438D+01  0.7443082909D+00
 Atom C10      Shell    31 SP   1    bf   89 -    92          8.771782334255          0.209373945441         -5.260991053296
      0.1687144782D+00  0.1000000000D+01  0.1000000000D+01
 Atom C10      Shell    32 D   1     bf   93 -    98          8.771782334255          0.209373945441         -5.260991053296
      0.8000000000D+00  0.1000000000D+01
 Atom H11      Shell    33 S   3     bf   99 -    99          8.593626588940          2.174613251138         -5.929433484788
      0.1873113696D+02  0.3349460434D-01
      0.2825394365D+01  0.2347269535D+00
      0.6401216923D+00  0.8137573261D+00
 Atom H11      Shell    34 S   1     bf  100 -   100          8.593626588940          2.174613251138         -5.929433484788
      0.1612777588D+00  0.1000000000D+01
 Atom C12      Shell    35 S   6     bf  101 -   101          3.473377141275          1.910224842626          0.884414280137
      0.3047524880D+04  0.1834737132D-02
      0.4573695180D+03  0.1403732281D-01
      0.1039486850D+03  0.6884262226D-01
      0.2921015530D+02  0.2321844432D+00
      0.9286662960D+01  0.4679413484D+00
      0.3163926960D+01  0.3623119853D+00
 Atom C12      Shell    36 SP   3    bf  102 -   105          3.473377141275          1.910224842626          0.884414280137
      0.7868272350D+01 -0.1193324198D+00  0.6899906659D-01
      0.1881288540D+01 -0.1608541517D+00  0.3164239610D+00
      0.5442492580D+00  0.1143456438D+01  0.7443082909D+00
 Atom C12      Shell    37 SP   1    bf  106 -   109          3.473377141275          1.910224842626          0.884414280137
      0.1687144782D+00  0.1000000000D+01  0.1000000000D+01
 Atom C12      Shell    38 D   1     bf  110 -   115          3.473377141275          1.910224842626          0.884414280137
      0.8000000000D+00  0.1000000000D+01
 Atom H13      Shell    39 S   3     bf  116 -   116          3.227862485898          3.675518330017         -0.184834585489
      0.1873113696D+02  0.3349460434D-01
      0.2825394365D+01  0.2347269535D+00
      0.6401216923D+00  0.8137573261D+00
 Atom H13      Shell    40 S   1     bf  117 -   117          3.227862485898          3.675518330017         -0.184834585489
      0.1612777588D+00  0.1000000000D+01
 Atom C14      Shell    41 S   6     bf  118 -   118          4.130204938009          0.195192042143         -3.687586121102
      0.3047524880D+04  0.1834737132D-02
      0.4573695180D+03  0.1403732281D-01
      0.1039486850D+03  0.6884262226D-01
      0.2921015530D+02  0.2321844432D+00
      0.9286662960D+01  0.4679413484D+00
      0.3163926960D+01  0.3623119853D+00
 Atom C14      Shell    42 SP   3    bf  119 -   122          4.130204938009          0.195192042143         -3.687586121102
      0.7868272350D+01 -0.1193324198D+00  0.6899906659D-01
      0.1881288540D+01 -0.1608541517D+00  0.3164239610D+00
      0.5442492580D+00  0.1143456438D+01  0.7443082909D+00
 Atom C14      Shell    43 SP   1    bf  123 -   126          4.130204938009          0.195192042143         -3.687586121102
      0.1687144782D+00  0.1000000000D+01  0.1000000000D+01
 Atom C14      Shell    44 D   1     bf  127 -   132          4.130204938009          0.195192042143         -3.687586121102
      0.8000000000D+00  0.1000000000D+01
 Atom H15      Shell    45 S   3     bf  133 -   133          3.763785340089          2.156655731718         -4.267644795242
      0.1873113696D+02  0.3349460434D-01
      0.2825394365D+01  0.2347269535D+00
      0.6401216923D+00  0.8137573261D+00
 Atom H15      Shell    46 S   1     bf  134 -   134          3.763785340089          2.156655731718         -4.267644795242
      0.1612777588D+00  0.1000000000D+01
 Atom H16      Shell    47 S   3     bf  135 -   135          2.335200382671         -0.826857719677         -3.890167880595
      0.1873113696D+02  0.3349460434D-01
      0.2825394365D+01  0.2347269535D+00
      0.6401216923D+00  0.8137573261D+00
 Atom H16      Shell    48 S   1     bf  136 -   136          2.335200382671         -0.826857719677         -3.890167880595
      0.1612777588D+00  0.1000000000D+01
 Atom C17      Shell    49 S   6     bf  137 -   137         10.756717499544         -1.062833698939         -7.059860287548
      0.3047524880D+04  0.1834737132D-02
      0.4573695180D+03  0.1403732281D-01
      0.1039486850D+03  0.6884262226D-01
      0.2921015530D+02  0.2321844432D+00
      0.9286662960D+01  0.4679413484D+00
      0.3163926960D+01  0.3623119853D+00
 Atom C17      Shell    50 SP   3    bf  138 -   141         10.756717499544         -1.062833698939         -7.059860287548
      0.7868272350D+01 -0.1193324198D+00  0.6899906659D-01
      0.1881288540D+01 -0.1608541517D+00  0.3164239610D+00
      0.5442492580D+00  0.1143456438D+01  0.7443082909D+00
 Atom C17      Shell    51 SP   1    bf  142 -   145         10.756717499544         -1.062833698939         -7.059860287548
      0.1687144782D+00  0.1000000000D+01  0.1000000000D+01
 Atom C17      Shell    52 D   1     bf  146 -   151         10.756717499544         -1.062833698939         -7.059860287548
      0.8000000000D+00  0.1000000000D+01
 Atom C18      Shell    53 S   6     bf  152 -   152          8.053244718069          2.102627252154          1.990711491160
      0.3047524880D+04  0.1834737132D-02
      0.4573695180D+03  0.1403732281D-01
      0.1039486850D+03  0.6884262226D-01
      0.2921015530D+02  0.2321844432D+00
      0.9286662960D+01  0.4679413484D+00
      0.3163926960D+01  0.3623119853D+00
 Atom C18      Shell    54 SP   3    bf  153 -   156          8.053244718069          2.102627252154          1.990711491160
      0.7868272350D+01 -0.1193324198D+00  0.6899906659D-01
      0.1881288540D+01 -0.1608541517D+00  0.3164239610D+00
      0.5442492580D+00  0.1143456438D+01  0.7443082909D+00
 Atom C18      Shell    55 SP   1    bf  157 -   160          8.053244718069          2.102627252154          1.990711491160
      0.1687144782D+00  0.1000000000D+01  0.1000000000D+01
 Atom C18      Shell    56 D   1     bf  161 -   166          8.053244718069          2.102627252154          1.990711491160
      0.8000000000D+00  0.1000000000D+01
 Atom H19      Shell    57 S   3     bf  167 -   167          9.300431405792          3.715973983913          2.313496462295
      0.1873113696D+02  0.3349460434D-01
      0.2825394365D+01  0.2347269535D+00
      0.6401216923D+00  0.8137573261D+00
 Atom H19      Shell    58 S   1     bf  168 -   168          9.300431405792          3.715973983913          2.313496462295
      0.1612777588D+00  0.1000000000D+01
 Atom H20      Shell    59 S   3     bf  169 -   169          8.974973813885          0.480341340999          2.885473420272
      0.1873113696D+02  0.3349460434D-01
      0.2825394365D+01  0.2347269535D+00
      0.6401216923D+00  0.8137573261D+00
 Atom H20      Shell    60 S   1     bf  170 -   170          8.974973813885          0.480341340999          2.885473420272
      0.1612777588D+00  0.1000000000D+01
 Atom C21      Shell    61 S   6     bf  171 -   171          6.106953318362         -0.986233801321         -5.470135982827
      0.3047524880D+04  0.1834737132D-02
      0.4573695180D+03  0.1403732281D-01
      0.1039486850D+03  0.6884262226D-01
      0.2921015530D+02  0.2321844432D+00
      0.9286662960D+01  0.4679413484D+00
      0.3163926960D+01  0.3623119853D+00
 Atom C21      Shell    62 SP   3    bf  172 -   175          6.106953318362         -0.986233801321         -5.470135982827
      0.7868272350D+01 -0.1193324198D+00  0.6899906659D-01
      0.1881288540D+01 -0.1608541517D+00  0.3164239610D+00
      0.5442492580D+00  0.1143456438D+01  0.7443082909D+00
 Atom C21      Shell    63 SP   1    bf  176 -   179          6.106953318362         -0.986233801321         -5.470135982827
      0.1687144782D+00  0.1000000000D+01  0.1000000000D+01
 Atom C21      Shell    64 D   1     bf  180 -   185          6.106953318362         -0.986233801321         -5.470135982827
      0.8000000000D+00  0.1000000000D+01
 Atom H22      Shell    65 S   3     bf  186 -   186          6.217270597814         -3.016733589592         -5.088292742566
      0.1873113696D+02  0.3349460434D-01
      0.2825394365D+01  0.2347269535D+00
      0.6401216923D+00  0.8137573261D+00
 Atom H22      Shell    66 S   1     bf  187 -   187          6.217270597814         -3.016733589592         -5.088292742566
      0.1612777588D+00  0.1000000000D+01
 Atom H23      Shell    67 S   3     bf  188 -   188          5.427011657687         -0.810758254580         -7.417604303970
      0.1873113696D+02  0.3349460434D-01
      0.2825394365D+01  0.2347269535D+00
      0.6401216923D+00  0.8137573261D+00
 Atom H23      Shell    68 S   1     bf  189 -   189          5.427011657687         -0.810758254580         -7.417604303970
      0.1612777588D+00  0.1000000000D+01
 Atom C24      Shell    69 S   6     bf  190 -   190          5.345890042275          2.516594986297          3.080110941178
      0.3047524880D+04  0.1834737132D-02
      0.4573695180D+03  0.1403732281D-01
      0.1039486850D+03  0.6884262226D-01
      0.2921015530D+02  0.2321844432D+00
      0.9286662960D+01  0.4679413484D+00
      0.3163926960D+01  0.3623119853D+00
 Atom C24      Shell    70 SP   3    bf  191 -   194          5.345890042275          2.516594986297          3.080110941178
      0.7868272350D+01 -0.1193324198D+00  0.6899906659D-01
      0.1881288540D+01 -0.1608541517D+00  0.3164239610D+00
      0.5442492580D+00  0.1143456438D+01  0.7443082909D+00
 Atom C24      Shell    71 SP   1    bf  195 -   198          5.345890042275          2.516594986297          3.080110941178
      0.1687144782D+00  0.1000000000D+01  0.1000000000D+01
 Atom C24      Shell    72 D   1     bf  199 -   204          5.345890042275          2.516594986297          3.080110941178
      0.8000000000D+00  0.1000000000D+01
 Atom H25      Shell    73 S   3     bf  205 -   205          5.029170562903          1.282448070294          4.707328716286
      0.1873113696D+02  0.3349460434D-01
      0.2825394365D+01  0.2347269535D+00
      0.6401216923D+00  0.8137573261D+00
 Atom H25      Shell    74 S   1     bf  206 -   206          5.029170562903          1.282448070294          4.707328716286
      0.1612777588D+00  0.1000000000D+01
 Atom H26      Shell    75 S   3     bf  207 -   207          5.084457429996          4.453628712165          3.760030435365
      0.1873113696D+02  0.3349460434D-01
      0.2825394365D+01  0.2347269535D+00
      0.6401216923D+00  0.8137573261D+00
 Atom H26      Shell    76 S   1     bf  208 -   208          5.084457429996          4.453628712165          3.760030435365
      0.1612777588D+00  0.1000000000D+01
 Atom C27      Shell    77 S   6     bf  209 -   209         12.154431456218          1.975973932789         -2.364685439371
      0.3047524880D+04  0.1834737132D-02
      0.4573695180D+03  0.1403732281D-01
      0.1039486850D+03  0.6884262226D-01
      0.2921015530D+02  0.2321844432D+00
      0.9286662960D+01  0.4679413484D+00
      0.3163926960D+01  0.3623119853D+00
 Atom C27      Shell    78 SP   3    bf  210 -   213         12.154431456218          1.975973932789         -2.364685439371
      0.7868272350D+01 -0.1193324198D+00  0.6899906659D-01
      0.1881288540D+01 -0.1608541517D+00  0.3164239610D+00
      0.5442492580D+00  0.1143456438D+01  0.7443082909D+00
 Atom C27      Shell    79 SP   1    bf  214 -   217         12.154431456218          1.975973932789         -2.364685439371
      0.1687144782D+00  0.1000000000D+01  0.1000000000D+01
 Atom C27      Shell    80 D   1     bf  218 -   223         12.154431456218          1.975973932789         -2.364685439371
      0.8000000000D+00  0.1000000000D+01
 Atom H28      Shell    81 S   3     bf  224 -   224         11.664211704141          3.994780681565         -2.371929780091
      0.1873113696D+02  0.3349460434D-01
      0.2825394365D+01  0.2347269535D+00
      0.6401216923D+00  0.8137573261D+00
 Atom H28      Shell    82 S   1     bf  225 -   225         11.664211704141          3.994780681565         -2.371929780091
      0.1612777588D+00  0.1000000000D+01
 Atom C29      Shell    83 S   6     bf  226 -   226          0.752725048498          1.067346667301          1.619651859693
      0.3047524880D+04  0.1834737132D-02
      0.4573695180D+03  0.1403732281D-01
      0.1039486850D+03  0.6884262226D-01
      0.2921015530D+02  0.2321844432D+00
      0.9286662960D+01  0.4679413484D+00
      0.3163926960D+01  0.3623119853D+00
 Atom C29      Shell    84 SP   3    bf  227 -   230          0.752725048498          1.067346667301          1.619651859693
      0.7868272350D+01 -0.1193324198D+00  0.6899906659D-01
      0.1881288540D+01 -0.1608541517D+00  0.3164239610D+00
      0.5442492580D+00  0.1143456438D+01  0.7443082909D+00
 Atom C29      Shell    85 SP   1    bf  231 -   234          0.752725048498          1.067346667301          1.619651859693
      0.1687144782D+00  0.1000000000D+01  0.1000000000D+01
 Atom C29      Shell    86 D   1     bf  235 -   240          0.752725048498          1.067346667301          1.619651859693
      0.8000000000D+00  0.1000000000D+01
 Atom H30      Shell    87 S   3     bf  241 -   241          0.000000000000          0.000000000000          0.000000000000
      0.1873113696D+02  0.3349460434D-01
      0.2825394365D+01  0.2347269535D+00
      0.6401216923D+00  0.8137573261D+00
 Atom H30      Shell    88 S   1     bf  242 -   242          0.000000000000          0.000000000000          0.000000000000
      0.1612777588D+00  0.1000000000D+01
 Atom C31      Shell    89 S   6     bf  243 -   243          5.238721216635         -2.545590150395          0.063951733844
      0.3047524880D+04  0.1834737132D-02
      0.4573695180D+03  0.1403732281D-01
      0.1039486850D+03  0.6884262226D-01
      0.2921015530D+02  0.2321844432D+00
      0.9286662960D+01  0.4679413484D+00
      0.3163926960D+01  0.3623119853D+00
 Atom C31      Shell    90 SP   3    bf  244 -   247          5.238721216635         -2.545590150395          0.063951733844
      0.7868272350D+01 -0.1193324198D+00  0.6899906659D-01
      0.1881288540D+01 -0.1608541517D+00  0.3164239610D+00
      0.5442492580D+00  0.1143456438D+01  0.7443082909D+00
 Atom C31      Shell    91 SP   1    bf  248 -   251          5.238721216635         -2.545590150395          0.063951733844
      0.1687144782D+00  0.1000000000D+01  0.1000000000D+01
 Atom C31      Shell    92 D   1     bf  252 -   257          5.238721216635         -2.545590150395          0.063951733844
      0.8000000000D+00  0.1000000000D+01
 Atom H32      Shell    93 S   3     bf  258 -   258          6.539562992935         -3.690086304365         -1.060758458392
      0.1873113696D+02  0.3349460434D-01
      0.2825394365D+01  0.2347269535D+00
      0.6401216923D+00  0.8137573261D+00
 Atom H32      Shell    94 S   1     bf  259 -   259          6.539562992935         -3.690086304365         -1.060758458392
      0.1612777588D+00  0.1000000000D+01
 Atom H33      Shell    95 S   3     bf  260 -   260          5.902712058070         -2.621444815615          2.019104985354
      0.1873113696D+02  0.3349460434D-01
      0.2825394365D+01  0.2347269535D+00
      0.6401216923D+00  0.8137573261D+00
 Atom H33      Shell    96 S   1     bf  261 -   261          5.902712058070         -2.621444815615          2.019104985354
      0.1612777588D+00  0.1000000000D+01
 Atom H34      Shell    97 S   3     bf  262 -   262          3.391345660524         -3.476335772097         -0.010459993193
      0.1873113696D+02  0.3349460434D-01
      0.2825394365D+01  0.2347269535D+00
      0.6401216923D+00  0.8137573261D+00
 Atom H34      Shell    98 S   1     bf  263 -   263          3.391345660524         -3.476335772097         -0.010459993193
      0.1612777588D+00  0.1000000000D+01
 Atom C35      Shell    99 S   6     bf  264 -   264         13.385401818180          0.052916923755         -6.573217824835
      0.3047524880D+04  0.1834737132D-02
      0.4573695180D+03  0.1403732281D-01
      0.1039486850D+03  0.6884262226D-01
      0.2921015530D+02  0.2321844432D+00
      0.9286662960D+01  0.4679413484D+00
      0.3163926960D+01  0.3623119853D+00
 Atom C35      Shell   100 SP   3    bf  265 -   268         13.385401818180          0.052916923755         -6.573217824835
      0.7868272350D+01 -0.1193324198D+00  0.6899906659D-01
      0.1881288540D+01 -0.1608541517D+00  0.3164239610D+00
      0.5442492580D+00  0.1143456438D+01  0.7443082909D+00
 Atom C35      Shell   101 SP   1    bf  269 -   272         13.385401818180          0.052916923755         -6.573217824835
      0.1687144782D+00  0.1000000000D+01  0.1000000000D+01
 Atom C35      Shell   102 D   1     bf  273 -   278         13.385401818180          0.052916923755         -6.573217824835
      0.8000000000D+00  0.1000000000D+01
 Atom C36      Shell   103 S   6     bf  279 -   279         10.012366016514         -0.476731189297         -9.853423815990
      0.3047524880D+04  0.1834737132D-02
      0.4573695180D+03  0.1403732281D-01
      0.1039486850D+03  0.6884262226D-01
      0.2921015530D+02  0.2321844432D+00
      0.9286662960D+01  0.4679413484D+00
      0.3163926960D+01  0.3623119853D+00
 Atom C36      Shell   104 SP   3    bf  280 -   283         10.012366016514         -0.476731189297         -9.853423815990
      0.7868272350D+01 -0.1193324198D+00  0.6899906659D-01
      0.1881288540D+01 -0.1608541517D+00  0.3164239610D+00
      0.5442492580D+00  0.1143456438D+01  0.7443082909D+00
 Atom C36      Shell   105 SP   1    bf  284 -   287         10.012366016514         -0.476731189297         -9.853423815990
      0.1687144782D+00  0.1000000000D+01  0.1000000000D+01
 Atom C36      Shell   106 D   1     bf  288 -   293         10.012366016514         -0.476731189297         -9.853423815990
      0.8000000000D+00  0.1000000000D+01
 Atom H37      Shell   107 S   3     bf  294 -   294          9.578259792226          1.548640392476         -9.997817752010
      0.1873113696D+02  0.3349460434D-01
      0.2825394365D+01  0.2347269535D+00
      0.6401216923D+00  0.8137573261D+00
 Atom H37      Shell   108 S   1     bf  295 -   295          9.578259792226          1.548640392476         -9.997817752010
      0.1612777588D+00  0.1000000000D+01
 Atom H38      Shell   109 S   3     bf  296 -   296          8.269095662036         -1.485674264194        -10.328019444682
      0.1873113696D+02  0.3349460434D-01
      0.2825394365D+01  0.2347269535D+00
      0.6401216923D+00  0.8137573261D+00
 Atom H38      Shell   110 S   1     bf  297 -   297          8.269095662036         -1.485674264194        -10.328019444682
      0.1612777588D+00  0.1000000000D+01
 Atom C39      Shell   111 S   6     bf  298 -   298         13.924482574814          1.436234115269         -4.519319806634
      0.3047524880D+04  0.1834737132D-02
[...]
 **** Fit      -0.032279
 **** Fit      -0.032484
 **** Fit      -0.031163
 **** Fit      -0.028328
 **** Fit      -0.024294
 **** Fit      -0.019553
 **** Fit      -0.014589
 **** Fit      -0.009768
 **** Fit      -0.005342
 **** Fit      -0.001547
 **** Fit       0.001371
 **** Fit       0.003263
 **** Fit       0.004221
 **** Fit       0.004532
 **** Fit       0.004496
 **** Fit       0.004283
 **** Fit       0.003925
 **** Fit       0.003383
 **** Fit       0.002625
 **** Fit       0.001665
 **** Fit       0.000565
 **** Fit      -0.000589
 **** Fit      -0.001719
 **** Fit      -0.025654
 **** Fit      -0.027334
 **** Fit      -0.028256
 **** Fit      -0.028149
 **** Fit      -0.026863
 **** Fit      -0.024440
 **** Fit      -0.021114
 **** Fit      -0.017235
 **** Fit      -0.013160
 **** Fit      -0.009177
 **** Fit      -0.005505
 **** Fit      -0.002335
 **** Fit       0.000166
 **** Fit       0.001912
 **** Fit       0.002960
 **** Fit       0.003484
 **** Fit       0.003672
 **** Fit       0.003630
 **** Fit       0.003375
 **** Fit       0.002874
 **** Fit       0.002103
 **** Fit       0.001089
 **** Fit      -0.000093
 **** Fit      -0.001346
 **** Fit      -0.002575
 **** Fit      -0.024268
 **** Fit      -0.023970
 **** Fit      -0.022788
 **** Fit      -0.020771
 **** Fit      -0.014992
 **** Fit      -0.011731
 **** Fit      -0.008529
 **** Fit      -0.005563
 **** Fit      -0.002977
 **** Fit      -0.000882
 **** Fit       0.000673
 **** Fit       0.001720
 **** Fit       0.002355
 **** Fit       0.002683
 **** Fit       0.002760
 **** Fit       0.002587
 **** Fit       0.002136
 **** Fit       0.001392
 **** Fit       0.000389
 **** Fit      -0.000797
 **** Fit      -0.002065
 **** Fit      -0.010410
 **** Fit      -0.007875
 **** Fit      -0.005514
 **** Fit      -0.003431
 **** Fit      -0.001702
 **** Fit      -0.000359
 **** Fit       0.000615
 **** Fit       0.001267
 **** Fit       0.001647
 **** Fit       0.001781
 **** Fit       0.001657
 **** Fit       0.001253
 **** Fit       0.000564
 **** Fit      -0.000380
 **** Fit      -0.001505
 **** Fit      -0.002719
 **** Fit      -0.007249
 **** Fit      -0.005382
 **** Fit      -0.003718
 **** Fit      -0.002307
 **** Fit      -0.001175
 **** Fit      -0.000317
 **** Fit       0.000287
 **** Fit       0.000657
 **** Fit       0.000798
 **** Fit       0.000696
 **** Fit       0.000334
 **** Fit      -0.000289
 **** Fit      -0.001144
 **** Fit      -0.002168
 **** Fit      -0.000203
 **** Fit      -0.000529
 **** Fit      -0.001082
 **** Fit       0.008710
 **** Fit       0.009783
 **** Fit       0.010564
 **** Fit       0.010988
 **** Fit       0.011048
 **** Fit       0.010799
 **** Fit       0.006957
 **** Fit       0.008368
 **** Fit       0.009582
 **** Fit       0.010456
 **** Fit       0.010903
 **** Fit       0.010921
 **** Fit       0.010587
 **** Fit       0.010025
 **** Fit       0.004346
 **** Fit       0.005877
 **** Fit       0.007394
 **** Fit       0.008713
 **** Fit       0.009657
 **** Fit       0.010120
 **** Fit       0.010106
 **** Fit       0.009722
 **** Fit       0.009122
 **** Fit       0.008444
 **** Fit       0.007183
 **** Fit       0.006658
 **** Fit       0.006202
 **** Fit       0.005808
 **** Fit       0.001208
 **** Fit       0.002526
 **** Fit       0.004015
 **** Fit       0.005529
 **** Fit       0.006866
 **** Fit       0.007827
 **** Fit       0.008295
 **** Fit       0.008289
 **** Fit       0.007940
 **** Fit       0.007421
 **** Fit       0.006870
 **** Fit       0.006369
 **** Fit       0.005942
 **** Fit       0.005588
 **** Fit       0.005292
 **** Fit       0.005041
 **** Fit       0.004826
 **** Fit      -0.001123
 **** Fit      -0.000057
 **** Fit       0.001210
 **** Fit       0.002544
 **** Fit       0.003750
 **** Fit       0.004637
 **** Fit       0.005102
 **** Fit       0.005181
 **** Fit       0.005019
 **** Fit       0.004775
 **** Fit       0.004556
 **** Fit       0.004401
 **** Fit       0.004304
 **** Fit       0.004245
 **** Fit       0.004202
 **** Fit       0.004162
 **** Fit       0.004119
 **** Fit       0.004072
 **** Fit      -0.004020
 **** Fit      -0.003400
 **** Fit      -0.002576
 **** Fit      -0.001647
 **** Fit      -0.000763
 **** Fit      -0.000067
 **** Fit       0.000388
 **** Fit       0.000667
 **** Fit       0.000898
 **** Fit       0.001182
 **** Fit       0.001546
 **** Fit       0.001959
 **** Fit       0.002370
 **** Fit       0.002740
 **** Fit       0.003047
 **** Fit       0.003282
 **** Fit       0.003445
 **** Fit       0.003546
 **** Fit       0.003600
 **** Fit      -0.007338
 **** Fit      -0.007338
 **** Fit      -0.007164
 **** Fit      -0.006859
 **** Fit      -0.006489
 **** Fit      -0.006094
 **** Fit      -0.005642
 **** Fit      -0.005036
 **** Fit      -0.004197
 **** Fit      -0.003135
 **** Fit      -0.001947
 **** Fit      -0.000760
 **** Fit       0.000325
 **** Fit       0.001249
 **** Fit       0.001989
 **** Fit       0.002541
 **** Fit       0.002921
 **** Fit       0.003158
 **** Fit       0.003290
 **** Fit       0.003353
 **** Fit      -0.010812
 **** Fit      -0.011535
 **** Fit      -0.012139
 **** Fit      -0.012592
 **** Fit      -0.012847
 **** Fit      -0.012810
 **** Fit      -0.012336
 **** Fit      -0.011302
 **** Fit      -0.009707
 **** Fit      -0.007708
 **** Fit      -0.005549
 **** Fit      -0.003460
 **** Fit      -0.001595
 **** Fit      -0.000034
 **** Fit       0.001189
 **** Fit       0.002073
 **** Fit       0.002650
 **** Fit       0.002983
 **** Fit       0.003147
 **** Fit       0.003206
 **** Fit       0.003210
 **** Fit      -0.014096
 **** Fit      -0.015530
 **** Fit      -0.016903
 **** Fit      -0.018102
 **** Fit      -0.018960
 **** Fit      -0.019242
 **** Fit      -0.018702
 **** Fit      -0.017206
 **** Fit      -0.014843
 **** Fit      -0.011915
 **** Fit      -0.008802
 **** Fit      -0.005822
 **** Fit      -0.003173
 **** Fit      -0.000965
 **** Fit       0.000741
 **** Fit       0.001932
 **** Fit       0.002660
 **** Fit       0.003034
 **** Fit       0.003177
 **** Fit       0.003189
 **** Fit       0.003132
 **** Fit      -0.018851
 **** Fit      -0.020835
 **** Fit      -0.022608
 **** Fit      -0.023902
 **** Fit      -0.024376
 **** Fit      -0.023723
 **** Fit      -0.021819
 **** Fit      -0.018834
 **** Fit      -0.015174
 **** Fit      -0.011306
 **** Fit      -0.007603
 **** Fit      -0.004296
 **** Fit      -0.001530
 **** Fit       0.000594
 **** Fit       0.002036
 **** Fit       0.002862
 **** Fit       0.003231
 **** Fit       0.003320
 **** Fit       0.003260
 **** Fit       0.003123
 **** Fit      -0.021142
 **** Fit      -0.023472
 **** Fit      -0.025540
 **** Fit      -0.027015
 **** Fit      -0.027513
 **** Fit      -0.026717
 **** Fit      -0.024539
 **** Fit      -0.021196
 **** Fit      -0.017135
 **** Fit      -0.012845
 **** Fit      -0.008714
 **** Fit      -0.004991
 **** Fit      -0.001854
 **** Fit       0.000555
 **** Fit       0.002168
 **** Fit       0.003057
 **** Fit       0.003417
 **** Fit       0.003460
 **** Fit       0.003338
 **** Fit       0.003129
 **** Fit       0.002861
 **** Fit      -0.022257
 **** Fit      -0.024644
 **** Fit      -0.026711
 **** Fit      -0.028117
 **** Fit      -0.028493
 **** Fit      -0.027566
 **** Fit      -0.025285
 **** Fit      -0.021881
 **** Fit      -0.017779
 **** Fit      -0.013437
 **** Fit      -0.009220
 **** Fit      -0.005384
 **** Fit      -0.002123
 **** Fit       0.000398
 **** Fit       0.002095
 **** Fit       0.003038
 **** Fit       0.003422
 **** Fit       0.003469
 **** Fit       0.003330
 **** Fit       0.003081
 **** Fit       0.002745
 **** Fit       0.002327
 **** Fit       0.001836
 **** Fit      -0.024478
 **** Fit      -0.026321
 **** Fit      -0.027487
 **** Fit      -0.027667
 **** Fit      -0.026651
 **** Fit      -0.024427
 **** Fit      -0.021208
 **** Fit      -0.017359
 **** Fit      -0.013272
 **** Fit      -0.009271
 **** Fit      -0.005600
 **** Fit      -0.002453
 **** Fit       0.000011
 **** Fit       0.001711
 **** Fit       0.002702
 **** Fit       0.003155
 **** Fit       0.003262
 **** Fit       0.003160
 **** Fit       0.002914
 **** Fit       0.002541
 **** Fit       0.002048
 **** Fit       0.001447
 **** Fit       0.000767
 **** Fit      -0.024803
 **** Fit      -0.025661
 **** Fit      -0.025640
 **** Fit      -0.024597
 **** Fit      -0.022544
 **** Fit      -0.019663
 **** Fit      -0.016246
 **** Fit      -0.012608
 **** Fit      -0.009025
 **** Fit      -0.005712
 **** Fit      -0.002845
 **** Fit      -0.000563
 **** Fit       0.001070
 **** Fit       0.002091
 **** Fit       0.002629
 **** Fit       0.002828
 **** Fit       0.002797
 **** Fit       0.002586
 **** Fit       0.002208
 **** Fit       0.001670
 **** Fit       0.000992
 **** Fit       0.000213
 **** Fit      -0.023018
 **** Fit      -0.022004
 **** Fit      -0.014788
 **** Fit      -0.011680
 **** Fit      -0.008604
 **** Fit      -0.005740
 **** Fit      -0.003237
 **** Fit      -0.001204
 **** Fit       0.000308
 **** Fit       0.001323
 **** Fit       0.001924
 **** Fit       0.002210
 **** Fit       0.002254
 **** Fit       0.002091
 **** Fit       0.001730
 **** Fit       0.001178
 **** Fit       0.000463
 **** Fit      -0.000370
 **** Fit      -0.010658
 **** Fit      -0.008094
 **** Fit      -0.005691
 **** Fit      -0.003568
 **** Fit      -0.001808
 **** Fit      -0.000450
 **** Fit       0.000516
 **** Fit       0.001140
 **** Fit       0.001480
 **** Fit       0.001580
 **** Fit       0.001460
 **** Fit       0.001126
 **** Fit       0.000588
 **** Fit      -0.000127
 **** Fit      -0.007551
 **** Fit      -0.005574
 **** Fit      -0.003808
 **** Fit      -0.002316
 **** Fit      -0.001129
 **** Fit      -0.000246
 **** Fit       0.000357
 **** Fit       0.000750
 **** Fit       0.000446
 **** Fit      -0.000061
 **** Fit       0.006855
 **** Fit       0.007509
 **** Fit       0.007901
 **** Fit       0.008029
 **** Fit       0.004887
 **** Fit       0.005788
 **** Fit       0.006473
 **** Fit       0.006885
 **** Fit       0.007024
 **** Fit       0.006940
 **** Fit       0.002160
 **** Fit       0.003136
 **** Fit       0.004014
 **** Fit       0.004695
 **** Fit       0.005124
 **** Fit       0.005305
 **** Fit       0.005294
 **** Fit       0.005169
 **** Fit      -0.000972
 **** Fit      -0.000186
 **** Fit       0.000639
 **** Fit       0.001409
 **** Fit       0.002038
 **** Fit       0.002481
 **** Fit       0.002752
 **** Fit       0.002904
 **** Fit       0.003003
 **** Fit      -0.003629
 **** Fit      -0.003150
 **** Fit      -0.002596
 **** Fit      -0.002032
 **** Fit      -0.001511
 **** Fit      -0.001052
 **** Fit      -0.000632
 **** Fit      -0.000208
 **** Fit       0.000250
 **** Fit       0.000742
 **** Fit       0.002155
 **** Fit       0.002515
 **** Fit       0.002796
 **** Fit       0.003000
 **** Fit      -0.006647
 **** Fit      -0.006582
 **** Fit      -0.006407
 **** Fit      -0.006136
 **** Fit      -0.005770
 **** Fit      -0.005289
 **** Fit      -0.004657
 **** Fit      -0.003858
 **** Fit      -0.002918
 **** Fit      -0.001899
 **** Fit      -0.000880
 **** Fit       0.000067
 **** Fit       0.000895
 **** Fit       0.001577
 **** Fit       0.002104
 **** Fit       0.002485
 **** Fit       0.002739
 **** Fit       0.002893
 **** Fit      -0.009791
 **** Fit      -0.010200
 **** Fit      -0.010462
 **** Fit      -0.010530
 **** Fit      -0.010340
 **** Fit      -0.009822
 **** Fit      -0.008933
 **** Fit      -0.007695
 **** Fit      -0.006199
 **** Fit      -0.004584
 **** Fit      -0.002988
 **** Fit      -0.001522
 **** Fit      -0.000256
 **** Fit       0.000772
 **** Fit       0.001553
 **** Fit       0.002103
 **** Fit       0.002457
 **** Fit       0.002663
 **** Fit      -0.013632
 **** Fit      -0.014316
 **** Fit      -0.014704
 **** Fit      -0.014669
 **** Fit      -0.014096
 **** Fit      -0.012940
 **** Fit      -0.011263
 **** Fit      -0.009223
 **** Fit      -0.007028
 **** Fit      -0.004872
 **** Fit      -0.002899
 **** Fit      -0.001205
 **** Fit       0.000157
 **** Fit       0.001174
 **** Fit       0.001869
 **** Fit       0.002298
 **** Fit       0.002528
 **** Fit       0.002622
 **** Fit      -0.016502
 **** Fit      -0.017515
 **** Fit      -0.018141
 **** Fit      -0.018202
 **** Fit      -0.017557
 **** Fit      -0.016167
 **** Fit      -0.014127
 **** Fit      -0.011648
 **** Fit      -0.008985
 **** Fit      -0.006369
 **** Fit      -0.003975
 **** Fit      -0.001920
 **** Fit      -0.000275
 **** Fit       0.000936
 **** Fit       0.001743
 **** Fit       0.002219
 **** Fit       0.002454
 **** Fit       0.002528
 **** Fit      -0.019724
 **** Fit      -0.020464
 **** Fit      -0.020546
 **** Fit      -0.019824
 **** Fit      -0.018270
 **** Fit      -0.016002
 **** Fit      -0.013256
 **** Fit      -0.010307
 **** Fit      -0.007403
 **** Fit      -0.004733
 **** Fit      -0.002434
 **** Fit      -0.000595
 **** Fit       0.000752
 **** Fit       0.001637
 **** Fit       0.002146
 **** Fit       0.002381
 **** Fit       0.002434
 **** Fit      -0.020811
 **** Fit      -0.021541
 **** Fit      -0.021578
 **** Fit      -0.020788
 **** Fit      -0.019161
 **** Fit      -0.016823
 **** Fit      -0.014006
 **** Fit      -0.010979
 **** Fit      -0.007985
 **** Fit      -0.005218
 **** Fit      -0.002821
 **** Fit      -0.000893
 **** Fit       0.000524
 **** Fit       0.001458
 **** Fit       0.001995
 **** Fit       0.002241
 **** Fit       0.002287
 **** Fit      -0.021432
 **** Fit      -0.020601
 **** Fit      -0.014011
 **** Fit      -0.011093
 **** Fit      -0.008194
 **** Fit      -0.005496
 **** Fit      -0.003143
 **** Fit      -0.001232
 **** Fit       0.000191
 **** Fit       0.001148
 **** Fit       0.001715
 **** Fit       0.001987
 **** Fit       0.002045
 **** Fit      -0.010795
 **** Fit      -0.008126
 **** Fit      -0.005627
 **** Fit      -0.003427
 **** Fit      -0.001619
 **** Fit      -0.000245
 **** Fit       0.000709
 **** Fit       0.001300
 **** Fit       0.001606
 **** Fit       0.001690
 **** Fit      -0.007875
 **** Fit      -0.005649
 **** Fit      -0.003672
 **** Fit      -0.002023
 **** Fit      -0.000740
 **** Fit       0.000182
 **** Fit       0.000783
 **** Fit       0.001116
 **** Fit      -0.005590
 **** Fit      -0.003864
 **** Fit      -0.002403
 **** Fit      -0.001239
 **** Fit      -0.000375
 **** Fit       0.000212
 **** Fit       0.000100
 **** Fit       0.000581
 **** Fit       0.000987
 **** Fit       0.001320
 **** Fit      -0.002534
 **** Fit      -0.002113
 **** Fit      -0.001685
 **** Fit      -0.001242
 **** Fit      -0.005539
 **** Fit      -0.005200
 **** Fit      -0.004744
 **** Fit      -0.004160
 **** Fit      -0.008673
 **** Fit      -0.008423
 **** Fit      -0.007932
 **** Fit      -0.007188
 **** Fit      -0.001441
 **** Fit      -0.000418
 **** Fit       0.000439
 **** Fit       0.001115
 **** Fit       0.001617
 **** Fit      -0.004107
 **** Fit      -0.002616
 **** Fit      -0.001301
 **** Fit      -0.000208
 **** Fit       0.000646
 **** Fit       0.001271
 **** Fit       0.001695
 **** Fit      -0.005353
 **** Fit      -0.003584
 **** Fit      -0.002026
 **** Fit      -0.000734
 **** Fit       0.000268
 **** Fit       0.000993
 **** Fit       0.001474
 **** Fit       0.001762
 **** Fit      -0.006276
 **** Fit      -0.004318
 **** Fit      -0.002592
 **** Fit      -0.001161
 **** Fit      -0.000053
 **** Fit       0.000743
 **** Fit       0.001266
 **** Fit       0.001570
 **** Fit      -0.006866
 **** Fit      -0.004829
 **** Fit      -0.003026
 **** Fit      -0.001526
 **** Fit      -0.000361
 **** Fit       0.000478
 **** Fit       0.001029
 **** Fit       0.001347
 **** Fit      -0.007162
 **** Fit      -0.005150
 **** Fit      -0.003360
 **** Fit      -0.001861
 **** Fit      -0.000686
 **** Fit       0.000168
 **** Fit       0.000736
 **** Fit      -0.005320
 **** Fit      -0.003618
 **** Fit      -0.002179
 **** Fit      -0.001038
 **** Fit      -0.000194
 **** Fit       0.000378
 **** Fit      -0.003813
 **** Fit      -0.002478
 **** Fit      -0.001404
 -----------------------------------------------------------------
 Leave Link  602 at Wed May 17 11:59:24 2017, MaxMem=    33554432 cpu:        37.7
 (Enter /home/michal/g09/l9999.exe)

 Test job not archived.
 1\1\GINC-LINUX\SP\RHF\6-31G(d)\C27H46O2\MICHAL\17-May-2017\0\\#P HF/6-
 31G* SCF(Conver=6) NoSymm Test Pop=chelpg IOp(6/33=2) GFInput GFPrint\
 \MEP - Input generated by R.E.D.-III.x MOLECULE\\0,1\O,0,7.12711221,0.
 8785085,0.\H,0,7.53274521,0.,0.\O,0,8.70564313,-0.15188987,-6.91425139
 \H,0,8.87843606,-1.10382584,-6.92517946\C,0,2.66831137,0.10193927,-0.4
 9140669\C,0,4.02777364,0.84849859,-0.44754996\H,0,3.82919265,1.8319870
 5,-0.90720867\C,0,5.13382471,0.21799741,-1.31040652\H,0,5.37444927,-0.
 78544578,-0.92975208\C,0,4.64182729,0.11079592,-2.78399656\H,0,4.54755
 133,1.15075577,-3.13772106\C,0,1.83803202,1.01084745,0.46801188\H,0,1.
 70811126,1.94500053,-0.09781025\C,0,2.18561032,0.10329118,-1.95138653\
 H,0,1.99170942,1.14125306,-2.25834036\H,0,1.23573482,-0.43755426,-2.05
 858818\C,0,5.69220974,-0.56242737,-3.73591716\C,0,4.26159356,1.1126624
 2,1.05343915\H,0,4.92157633,1.96640874,1.2242496\H,0,4.74935159,0.2541
 8569,1.52692677\C,0,3.23166051,-0.52189245,-2.89467129\H,0,3.2900379,-
 1.59638666,-2.69260855\H,0,2.87185088,-0.42903479,-3.92522714\C,0,2.82
 892317,1.33172471,1.62992451\H,0,2.66132244,0.67864229,2.49101107\H,0,
 2.69057899,2.35675881,1.98972241\C,0,6.43184811,1.04564037,-1.25133764
 \H,0,6.17243499,2.11394689,-1.25517118\C,0,0.39832494,0.56481553,0.857
 08285\H,0,0.,0.,0.\C,0,2.77221187,-1.34706829,0.0338418\H,0,3.46058769
 ,-1.95270957,-0.5613292\H,0,3.12358069,-1.38720885,1.06846434\H,0,1.79
 462283,-1.83959766,-0.00553519\C,0,7.08324957,0.02800243,-3.47839706\C
 ,0,5.2983159,-0.25227528,-5.21420731\H,0,5.06859678,0.8195052,-5.29061
 729\H,0,4.37581696,-0.78618496,-5.4653525\C,0,7.36851882,0.76002236,-2
 .39152104\H,0,8.36589681,1.18414461,-2.27566957\C,0,5.7553463,-2.09948
 598,-3.52752544\H,0,4.83879115,-2.5871711,-3.87337717\H,0,6.58561703,-
 2.54648023,-4.08041971\H,0,5.8989558,-2.35077059,-2.47219571\C,0,8.152
 02331,-0.23702107,-4.52202684\H,0,9.06415204,0.31689505,-4.27933605\H,
 0,8.42042036,-1.30588373,-4.51700626\C,0,6.37414493,-0.59022912,-6.258
 01957\H,0,6.55047221,-1.67571323,-6.29133585\H,0,6.03071562,-0.2980816
 6,-7.25689184\C,0,0.29390785,-0.35423134,2.09799919\H,0,1.13322222,-1.
 05650072,2.12522076\H,0,0.38400273,0.25751576,3.00698683\C,0,7.6911988
 4,0.11851891,-5.94322963\H,0,7.5405556,1.20303821,-6.00775524\C,0,-0.5
 0054439,1.80589476,1.03477219\H,0,-0.11528484,2.45373184,1.83204087\H,
 0,-1.52775789,1.53361514,1.2978532\H,0,-0.5425451,2.39955764,0.1147867
 2\C,0,-1.00913906,-1.16840095,2.16892994\H,0,-1.872242,-0.49257896,2.1
 4191208\H,0,-1.08104544,-1.79535676,1.26975906\C,0,-1.08231113,-2.0483
 7354,3.42709393\H,0,-0.99206789,-1.40225189,4.31228349\H,0,-0.20366786
 ,-2.70953189,3.44527867\C,0,-2.34895103,-2.92058715,3.59071624\H,0,-2.
 21697783,-3.46879203,4.53535126\C,0,-2.49361055,-3.97064327,2.47665115
 \H,0,-2.69200096,-3.50436618,1.50468316\H,0,-3.32633188,-4.65118984,2.
 68805938\H,0,-1.58463993,-4.5758575,2.37819073\C,0,-3.63143934,-2.0837
 2391,3.73072741\H,0,-3.87050225,-1.55130926,2.8028904\H,0,-4.48927325,
 -2.72232977,3.9706165\H,0,-3.53652458,-1.33839052,4.52918805\\Version=
 EM64L-G09RevD.01\HF=-1198.9250566\RMSD=5.008e-07\Dipole=-0.4549874,-0.
 9767343,-0.1732926\Quadrupole=-7.0314931,8.1981814,-1.1666884,-15.4546
 972,4.1206145,5.6793204\PG=C01 [X(C27H46O2)]\\@


 WHEN YOU'VE SEEN ONE NUCLEAR WAR YOU'VE SEEN THEM ALL.
 Job cpu time:       0 days  0 hours 11 minutes 33.7 seconds.
 File lengths (MBytes):  RWF=    150 Int=      0 D2E=      0 Chk=     11 Scr=      1
 Normal termination of Gaussian 09 at Wed May 17 11:59:24 2017.
