 Entering Gaussian System, Link 0=/home/michal/g09/g09
 Input=JOB2-gau_m1-5-4.com
 Output=JOB2-gau_m1-5-4.log
 Initial command:
 /home/michal/g09/l1.exe "/home/michal/gauss_scratch/Gau-31546.inp" -scrdir="/home/michal/gauss_scratch/"
 Entering Link 1 = /home/michal/g09/l1.exe PID=     31547.
  
 Copyright (c) 1988,1990,1992,1993,1995,1998,2003,2009,2013,
            Gaussian, Inc.  All Rights Reserved.
  
 This is part of the Gaussian(R) 09 program.  It is based on
 the Gaussian(R) 03 system (copyright 2003, Gaussian, Inc.),
 the Gaussian(R) 98 system (copyright 1998, Gaussian, Inc.),
 the Gaussian(R) 94 system (copyright 1995, Gaussian, Inc.),
 the Gaussian 92(TM) system (copyright 1992, Gaussian, Inc.),
 the Gaussian 90(TM) system (copyright 1990, Gaussian, Inc.),
 the Gaussian 88(TM) system (copyright 1988, Gaussian, Inc.),
 the Gaussian 86(TM) system (copyright 1986, Carnegie Mellon
 University), and the Gaussian 82(TM) system (copyright 1983,
 Carnegie Mellon University). Gaussian is a federally registered
 trademark of Gaussian, Inc.
  
 This software contains proprietary and confidential information,
 including trade secrets, belonging to Gaussian, Inc.
  
 This software is provided under written license and may be
 used, copied, transmitted, or stored only in accord with that
 written license.
  
 The following legend is applicable only to US Government
 contracts under FAR:
  
                    RESTRICTED RIGHTS LEGEND
  
 Use, reproduction and disclosure by the US Government is
 subject to restrictions as set forth in subparagraphs (a)
 and (c) of the Commercial Computer Software - Restricted
 Rights clause in FAR 52.227-19.
  
 Gaussian, Inc.
 340 Quinnipiac St., Bldg. 40, Wallingford CT 06492
  
  
 ---------------------------------------------------------------
 Warning -- This program may not be used in any manner that
 competes with the business of Gaussian, Inc. or will provide
 assistance to any competitor of Gaussian, Inc.  The licensee
 of this program is prohibited from giving any competitor of
 Gaussian, Inc. access to this program.  By using this program,
 the user acknowledges that Gaussian, Inc. is engaged in the
 business of creating and licensing software in the field of
 computational chemistry and represents and warrants to the
 licensee that it is not a competitor of Gaussian, Inc. and that
 it will not use this program in any manner prohibited above.
 ---------------------------------------------------------------
  

 Cite this work as:
 Gaussian 09, Revision D.01,
 M. J. Frisch, G. W. Trucks, H. B. Schlegel, G. E. Scuseria, 
 M. A. Robb, J. R. Cheeseman, G. Scalmani, V. Barone, B. Mennucci, 
 G. A. Petersson, H. Nakatsuji, M. Caricato, X. Li, H. P. Hratchian, 
 A. F. Izmaylov, J. Bloino, G. Zheng, J. L. Sonnenberg, M. Hada, 
 M. Ehara, K. Toyota, R. Fukuda, J. Hasegawa, M. Ishida, T. Nakajima, 
 Y. Honda, O. Kitao, H. Nakai, T. Vreven, J. A. Montgomery, Jr., 
 J. E. Peralta, F. Ogliaro, M. Bearpark, J. J. Heyd, E. Brothers, 
 K. N. Kudin, V. N. Staroverov, T. Keith, R. Kobayashi, J. Normand, 
 K. Raghavachari, A. Rendell, J. C. Burant, S. S. Iyengar, J. Tomasi, 
 M. Cossi, N. Rega, J. M. Millam, M. Klene, J. E. Knox, J. B. Cross, 
 V. Bakken, C. Adamo, J. Jaramillo, R. Gomperts, R. E. Stratmann, 
 O. Yazyev, A. J. Austin, R. Cammi, C. Pomelli, J. W. Ochterski, 
 R. L. Martin, K. Morokuma, V. G. Zakrzewski, G. A. Voth, 
 P. Salvador, J. J. Dannenberg, S. Dapprich, A. D. Daniels, 
 O. Farkas, J. B. Foresman, J. V. Ortiz, J. Cioslowski, 
 and D. J. Fox, Gaussian, Inc., Wallingford CT, 2013.
 
 ******************************************
 Gaussian 09:  EM64L-G09RevD.01 24-Apr-2013
                17-May-2017 
 ******************************************
 %Mem=256MB
 %NProc=12
 Will use up to   12 processors via shared memory.
 ----------------------------------------------------------------------
 #P HF/6-31G* SCF(Conver=6) NoSymm Test Pop=chelpg IOp(6/33=2) GFInput 
 GFPrint
 ----------------------------------------------------------------------
 1/38=1/1;
 2/12=2,15=1,17=6,18=5,40=1/2;
 3/5=1,6=6,7=1,11=9,16=1,24=110,25=1,30=1/1,2,3;
 4//1;
 5/5=2,6=6,38=5/2;
 6/7=2,8=2,9=2,10=2,15=8,20=3,28=1,33=2/1,2;
 99/5=1,9=1/99;
 Leave Link    1 at Wed May 17 11:48:33 2017, MaxMem=    33554432 cpu:         0.6
 (Enter /home/michal/g09/l101.exe)
 ----------------------------------------------
 MEP - Input generated by R.E.D.-III.x MOLECULE
 ----------------------------------------------
 Symbolic Z-matrix:
 Charge =  0 Multiplicity = 1
 O                     0.        0.        0. 
 H                    -0.2315    0.1366    0.92954 
 O                    -3.06333   6.47661   0. 
 H                    -3.06474   6.67761   0.94645 
 C                     4.26831   1.55999  -0.41853 
 C                     2.83951   1.07176  -0.79662 
 H                     2.73192   1.31001  -1.86929 
 C                     1.685     1.81226  -0.09816 
 H                     1.73834   1.63846   0.98666 
 C                     1.79619   3.33634  -0.38262 
 H                     1.61844   3.44996  -1.46476 
 C                     5.13286   0.59144  -1.29871 
 H                     5.0447    0.96041  -2.33322 
 C                     4.33938   3.05477  -0.78835 
 H                     4.24888   3.15113  -1.88003 
 H                     5.3038    3.49553  -0.51687 
 C                     0.67583   4.18174   0.31774 
 C                     2.92948  -0.45918  -0.70002 
 H                     2.15628  -0.96166  -1.28568 
 H                     2.78873  -0.78935   0.33467 
 C                     3.2216    3.86828  -0.10855 
 H                     3.40869   3.88731   0.97061 
 H                     3.29644   4.90812  -0.44557 
 C                     4.36404  -0.77152  -1.20335 
 H                     4.88009  -1.45542  -0.519 
 H                     4.33673  -1.27383  -2.17508 
 C                     0.31613   1.28535  -0.57114 
 H                     0.36853   1.0766   -1.64917 
 C                     6.64738   0.43452  -1.00618 
 H                     6.7407    0.        0. 
 C                     4.58099   1.34996   1.08118 
 H                     3.85421   1.84498   1.7306 
 H                     4.58623   0.29029   1.35281 
 H                     5.56621   1.75569   1.333 
 C                    -0.68652   3.50882   0.1177 
 C                     0.62494   5.59217  -0.34912 
 H                     0.63581   5.45694  -1.43948 
 H                     1.53395   6.14808  -0.09631 
 C                    -0.81188   2.24319  -0.30769 
 H                    -1.80613   1.82483  -0.46423 
 C                     0.93824   4.33702   1.83976 
 H                     1.81196   4.96739   2.03158 
 H                     0.08905   4.8003    2.34886 
 H                     1.10708   3.36542   2.31415 
 C                    -1.92031   4.34119   0.41221 
 H                    -2.8243    3.79034   0.13454 
 H                    -1.98835   4.53537   1.49494 
 C                    -0.60216   6.4406    0.0187 
 H                    -0.58872   6.69323   1.0894 
 H                    -0.57747   7.39041  -0.52746 
 C                     7.3043   -0.56515  -2.00872 
 H                     6.5269   -1.08815  -2.57502 
 H                     7.8756    0.00066  -2.75701 
 C                    -1.90055   5.70081  -0.30194 
 H                    -1.96235   5.53531  -1.38446 
 C                     7.41645   1.76848  -1.0138 
 H                     7.25983   2.30423  -1.95838 
 H                     8.49225   1.59712  -0.91016 
 H                     7.11438   2.43183  -0.19945 
 C                     8.20057  -1.64636  -1.37023 
 H                     7.59754  -2.19815  -0.63594 
 H                     8.46611  -2.37967  -2.14258 
 C                     9.48287  -1.16294  -0.66715 
 H                     9.92936  -2.01826  -0.13856 
 H                     9.21561  -0.43982   0.11538 
 C                     10.57218  -0.53983  -1.56661 
 H                     10.12514   0.29288  -2.12814 
 C                     11.13468  -1.54212  -2.58768 
 H                     11.58099  -2.40659  -2.07895 
 H                     11.91599  -1.07835  -3.20054 
 H                     10.36358  -1.91733  -3.26799 
 C                     11.70512   0.03999  -0.70433 
 H                     12.19099  -0.74909  -0.11599 
 H                     12.4752   0.51383  -1.32374 
 H                     11.32887   0.79306  -0.00226 
 
 NAtoms=     75 NQM=       75 NQMF=       0 NMMI=      0 NMMIF=      0
                NMic=       0 NMicF=      0.
                    Isotopes and Nuclear Properties:
 (Nuclear quadrupole moments (NQMom) in fm**2, nuclear magnetic moments (NMagM)
  in nuclear magnetons)

  Atom         1           2           3           4           5           6           7           8           9          10
 IAtWgt=          16           1          16           1          12          12           1          12           1          12
 AtmWgt=  15.9949146   1.0078250  15.9949146   1.0078250  12.0000000  12.0000000   1.0078250  12.0000000   1.0078250  12.0000000
 NucSpn=           0           1           0           1           0           0           1           0           1           0
 AtZEff=   0.0000000   0.0000000   0.0000000   0.0000000   0.0000000   0.0000000   0.0000000   0.0000000   0.0000000   0.0000000
 NQMom=    0.0000000   0.0000000   0.0000000   0.0000000   0.0000000   0.0000000   0.0000000   0.0000000   0.0000000   0.0000000
 NMagM=    0.0000000   2.7928460   0.0000000   2.7928460   0.0000000   0.0000000   2.7928460   0.0000000   2.7928460   0.0000000
 AtZNuc=   8.0000000   1.0000000   8.0000000   1.0000000   6.0000000   6.0000000   1.0000000   6.0000000   1.0000000   6.0000000

  Atom        11          12          13          14          15          16          17          18          19          20
 IAtWgt=           1          12           1          12           1           1          12          12           1           1
 AtmWgt=   1.0078250  12.0000000   1.0078250  12.0000000   1.0078250   1.0078250  12.0000000  12.0000000   1.0078250   1.0078250
 NucSpn=           1           0           1           0           1           1           0           0           1           1
 AtZEff=   0.0000000   0.0000000   0.0000000   0.0000000   0.0000000   0.0000000   0.0000000   0.0000000   0.0000000   0.0000000
 NQMom=    0.0000000   0.0000000   0.0000000   0.0000000   0.0000000   0.0000000   0.0000000   0.0000000   0.0000000   0.0000000
 NMagM=    2.7928460   0.0000000   2.7928460   0.0000000   2.7928460   2.7928460   0.0000000   0.0000000   2.7928460   2.7928460
 AtZNuc=   1.0000000   6.0000000   1.0000000   6.0000000   1.0000000   1.0000000   6.0000000   6.0000000   1.0000000   1.0000000

  Atom        21          22          23          24          25          26          27          28          29          30
 IAtWgt=          12           1           1          12           1           1          12           1          12           1
 AtmWgt=  12.0000000   1.0078250   1.0078250  12.0000000   1.0078250   1.0078250  12.0000000   1.0078250  12.0000000   1.0078250
 NucSpn=           0           1           1           0           1           1           0           1           0           1
 AtZEff=   0.0000000   0.0000000   0.0000000   0.0000000   0.0000000   0.0000000   0.0000000   0.0000000   0.0000000   0.0000000
 NQMom=    0.0000000   0.0000000   0.0000000   0.0000000   0.0000000   0.0000000   0.0000000   0.0000000   0.0000000   0.0000000
 NMagM=    0.0000000   2.7928460   2.7928460   0.0000000   2.7928460   2.7928460   0.0000000   2.7928460   0.0000000   2.7928460
 AtZNuc=   6.0000000   1.0000000   1.0000000   6.0000000   1.0000000   1.0000000   6.0000000   1.0000000   6.0000000   1.0000000

  Atom        31          32          33          34          35          36          37          38          39          40
 IAtWgt=          12           1           1           1          12          12           1           1          12           1
 AtmWgt=  12.0000000   1.0078250   1.0078250   1.0078250  12.0000000  12.0000000   1.0078250   1.0078250  12.0000000   1.0078250
 NucSpn=           0           1           1           1           0           0           1           1           0           1
 AtZEff=   0.0000000   0.0000000   0.0000000   0.0000000   0.0000000   0.0000000   0.0000000   0.0000000   0.0000000   0.0000000
 NQMom=    0.0000000   0.0000000   0.0000000   0.0000000   0.0000000   0.0000000   0.0000000   0.0000000   0.0000000   0.0000000
 NMagM=    0.0000000   2.7928460   2.7928460   2.7928460   0.0000000   0.0000000   2.7928460   2.7928460   0.0000000   2.7928460
 AtZNuc=   6.0000000   1.0000000   1.0000000   1.0000000   6.0000000   6.0000000   1.0000000   1.0000000   6.0000000   1.0000000

  Atom        41          42          43          44          45          46          47          48          49          50
 IAtWgt=          12           1           1           1          12           1           1          12           1           1
 AtmWgt=  12.0000000   1.0078250   1.0078250   1.0078250  12.0000000   1.0078250   1.0078250  12.0000000   1.0078250   1.0078250
 NucSpn=           0           1           1           1           0           1           1           0           1           1
 AtZEff=   0.0000000   0.0000000   0.0000000   0.0000000   0.0000000   0.0000000   0.0000000   0.0000000   0.0000000   0.0000000
 NQMom=    0.0000000   0.0000000   0.0000000   0.0000000   0.0000000   0.0000000   0.0000000   0.0000000   0.0000000   0.0000000
 NMagM=    0.0000000   2.7928460   2.7928460   2.7928460   0.0000000   2.7928460   2.7928460   0.0000000   2.7928460   2.7928460
 AtZNuc=   6.0000000   1.0000000   1.0000000   1.0000000   6.0000000   1.0000000   1.0000000   6.0000000   1.0000000   1.0000000

  Atom        51          52          53          54          55          56          57          58          59          60
 IAtWgt=          12           1           1          12           1          12           1           1           1          12
 AtmWgt=  12.0000000   1.0078250   1.0078250  12.0000000   1.0078250  12.0000000   1.0078250   1.0078250   1.0078250  12.0000000
 NucSpn=           0           1           1           0           1           0           1           1           1           0
 AtZEff=   0.0000000   0.0000000   0.0000000   0.0000000   0.0000000   0.0000000   0.0000000   0.0000000   0.0000000   0.0000000
 NQMom=    0.0000000   0.0000000   0.0000000   0.0000000   0.0000000   0.0000000   0.0000000   0.0000000   0.0000000   0.0000000
 NMagM=    0.0000000   2.7928460   2.7928460   0.0000000   2.7928460   0.0000000   2.7928460   2.7928460   2.7928460   0.0000000
 AtZNuc=   6.0000000   1.0000000   1.0000000   6.0000000   1.0000000   6.0000000   1.0000000   1.0000000   1.0000000   6.0000000

  Atom        61          62          63          64          65          66          67          68          69          70
 IAtWgt=           1           1          12           1           1          12           1          12           1           1
 AtmWgt=   1.0078250   1.0078250  12.0000000   1.0078250   1.0078250  12.0000000   1.0078250  12.0000000   1.0078250   1.0078250
 NucSpn=           1           1           0           1           1           0           1           0           1           1
 AtZEff=   0.0000000   0.0000000   0.0000000   0.0000000   0.0000000   0.0000000   0.0000000   0.0000000   0.0000000   0.0000000
 NQMom=    0.0000000   0.0000000   0.0000000   0.0000000   0.0000000   0.0000000   0.0000000   0.0000000   0.0000000   0.0000000
 NMagM=    2.7928460   2.7928460   0.0000000   2.7928460   2.7928460   0.0000000   2.7928460   0.0000000   2.7928460   2.7928460
 AtZNuc=   1.0000000   1.0000000   6.0000000   1.0000000   1.0000000   6.0000000   1.0000000   6.0000000   1.0000000   1.0000000

  Atom        71          72          73          74          75
 IAtWgt=           1          12           1           1           1
 AtmWgt=   1.0078250  12.0000000   1.0078250   1.0078250   1.0078250
 NucSpn=           1           0           1           1           1
 AtZEff=   0.0000000   0.0000000   0.0000000   0.0000000   0.0000000
 NQMom=    0.0000000   0.0000000   0.0000000   0.0000000   0.0000000
 NMagM=    2.7928460   0.0000000   2.7928460   2.7928460   2.7928460
 AtZNuc=   1.0000000   6.0000000   1.0000000   1.0000000   1.0000000
 Leave Link  101 at Wed May 17 11:48:34 2017, MaxMem=    33554432 cpu:         1.0
 (Enter /home/michal/g09/l202.exe)
 Symmetry turned off by external request.
 Stoichiometry    C27H46O2
 Framework group  C1[X(C27H46O2)]
 Deg. of freedom   219
 Full point group                 C1      NOp   1
                          Input orientation:                          
 ---------------------------------------------------------------------
 Center     Atomic      Atomic             Coordinates (Angstroms)
 Number     Number       Type             X           Y           Z
 ---------------------------------------------------------------------
      1          8           0        0.000000    0.000000    0.000000
      2          1           0       -0.231498    0.136601    0.929539
      3          8           0       -3.063326    6.476612    0.000000
      4          1           0       -3.064740    6.677607    0.946446
      5          6           0        4.268313    1.559986   -0.418526
      6          6           0        2.839514    1.071762   -0.796624
      7          1           0        2.731916    1.310013   -1.869295
      8          6           0        1.685000    1.812264   -0.098163
      9          1           0        1.738340    1.638457    0.986656
     10          6           0        1.796194    3.336343   -0.382618
     11          1           0        1.618440    3.449964   -1.464762
     12          6           0        5.132859    0.591439   -1.298705
     13          1           0        5.044697    0.960413   -2.333219
     14          6           0        4.339383    3.054772   -0.788347
     15          1           0        4.248885    3.151131   -1.880035
     16          1           0        5.303804    3.495532   -0.516868
     17          6           0        0.675827    4.181740    0.317739
     18          6           0        2.929476   -0.459182   -0.700023
     19          1           0        2.156284   -0.961658   -1.285680
     20          1           0        2.788732   -0.789353    0.334674
     21          6           0        3.221601    3.868284   -0.108549
     22          1           0        3.408689    3.887311    0.970610
     23          1           0        3.296445    4.908121   -0.445569
     24          6           0        4.364041   -0.771522   -1.203346
     25          1           0        4.880093   -1.455416   -0.518998
     26          1           0        4.336731   -1.273832   -2.175080
     27          6           0        0.316135    1.285352   -0.571138
     28          1           0        0.368532    1.076600   -1.649167
     29          6           0        6.647383    0.434521   -1.006183
     30          1           0        6.740704    0.000000    0.000000
     31          6           0        4.580987    1.349960    1.081183
     32          1           0        3.854208    1.844979    1.730597
     33          1           0        4.586231    0.290289    1.352807
     34          1           0        5.566213    1.755688    1.333003
     35          6           0       -0.686521    3.508818    0.117699
     36          6           0        0.624944    5.592173   -0.349119
     37          1           0        0.635809    5.456940   -1.439476
     38          1           0        1.533947    6.148081   -0.096314
     39          6           0       -0.811879    2.243187   -0.307688
     40          1           0       -1.806134    1.824834   -0.464233
     41          6           0        0.938236    4.337019    1.839762
     42          1           0        1.811959    4.967393    2.031580
     43          1           0        0.089049    4.800297    2.348857
     44          1           0        1.107076    3.365416    2.314155
     45          6           0       -1.920314    4.341190    0.412209
     46          1           0       -2.824297    3.790342    0.134540
     47          1           0       -1.988354    4.535371    1.494941
     48          6           0       -0.602160    6.440603    0.018704
     49          1           0       -0.588719    6.693229    1.089400
     50          1           0       -0.577468    7.390414   -0.527463
     51          6           0        7.304303   -0.565152   -2.008716
     52          1           0        6.526898   -1.088145   -2.575017
     53          1           0        7.875602    0.000659   -2.757012
     54          6           0       -1.900550    5.700812   -0.301944
     55          1           0       -1.962350    5.535308   -1.384457
     56          6           0        7.416453    1.768477   -1.013803
     57          1           0        7.259829    2.304235   -1.958381
     58          1           0        8.492254    1.597121   -0.910158
     59          1           0        7.114384    2.431830   -0.199452
     60          6           0        8.200574   -1.646357   -1.370231
     61          1           0        7.597540   -2.198148   -0.635940
     62          1           0        8.466110   -2.379674   -2.142576
     63          6           0        9.482870   -1.162936   -0.667155
     64          1           0        9.929355   -2.018260   -0.138560
     65          1           0        9.215605   -0.439816    0.115382
     66          6           0       10.572184   -0.539826   -1.566607
     67          1           0       10.125139    0.292876   -2.128144
     68          6           0       11.134683   -1.542119   -2.587679
     69          1           0       11.580988   -2.406589   -2.078946
     70          1           0       11.915986   -1.078351   -3.200541
     71          1           0       10.363582   -1.917334   -3.267985
     72          6           0       11.705124    0.039985   -0.704335
     73          1           0       12.190989   -0.749090   -0.115989
     74          1           0       12.475204    0.513833   -1.323744
     75          1           0       11.328866    0.793058   -0.002256
 ---------------------------------------------------------------------
 Rotational constants (GHZ):      0.4625916      0.0565509      0.0526791
 Leave Link  202 at Wed May 17 11:48:34 2017, MaxMem=    33554432 cpu:         0.1
 (Enter /home/michal/g09/l301.exe)
 Standard basis: 6-31G(d) (6D, 7F)
 Ernie: Thresh=  0.10000D-02 Tol=  0.10000D-05 Strict=F.
 AO basis set in the form of general basis input (Overlap normalization):
      1 0
 S   6 1.00       0.000000000000
      0.5484671660D+04  0.1831074430D-02
      0.8252349460D+03  0.1395017220D-01
      0.1880469580D+03  0.6844507810D-01
      0.5296450000D+02  0.2327143360D+00
      0.1689757040D+02  0.4701928980D+00
      0.5799635340D+01  0.3585208530D+00
 SP   3 1.00       0.000000000000
      0.1553961625D+02 -0.1107775495D+00  0.7087426823D-01
      0.3599933586D+01 -0.1480262627D+00  0.3397528391D+00
      0.1013761750D+01  0.1130767015D+01  0.7271585773D+00
 SP   1 1.00       0.000000000000
      0.2700058226D+00  0.1000000000D+01  0.1000000000D+01
 D   1 1.00       0.000000000000
      0.8000000000D+00  0.1000000000D+01
 ****
      2 0
 S   3 1.00       0.000000000000
      0.1873113696D+02  0.3349460434D-01
      0.2825394365D+01  0.2347269535D+00
      0.6401216923D+00  0.8137573261D+00
 S   1 1.00       0.000000000000
      0.1612777588D+00  0.1000000000D+01
 ****
      3 0
 S   6 1.00       0.000000000000
      0.5484671660D+04  0.1831074430D-02
      0.8252349460D+03  0.1395017220D-01
      0.1880469580D+03  0.6844507810D-01
      0.5296450000D+02  0.2327143360D+00
      0.1689757040D+02  0.4701928980D+00
      0.5799635340D+01  0.3585208530D+00
 SP   3 1.00       0.000000000000
      0.1553961625D+02 -0.1107775495D+00  0.7087426823D-01
      0.3599933586D+01 -0.1480262627D+00  0.3397528391D+00
      0.1013761750D+01  0.1130767015D+01  0.7271585773D+00
 SP   1 1.00       0.000000000000
      0.2700058226D+00  0.1000000000D+01  0.1000000000D+01
 D   1 1.00       0.000000000000
      0.8000000000D+00  0.1000000000D+01
 ****
      4 0
 S   3 1.00       0.000000000000
      0.1873113696D+02  0.3349460434D-01
      0.2825394365D+01  0.2347269535D+00
      0.6401216923D+00  0.8137573261D+00
 S   1 1.00       0.000000000000
      0.1612777588D+00  0.1000000000D+01
 ****
      5 0
 S   6 1.00       0.000000000000
      0.3047524880D+04  0.1834737132D-02
      0.4573695180D+03  0.1403732281D-01
      0.1039486850D+03  0.6884262226D-01
      0.2921015530D+02  0.2321844432D+00
      0.9286662960D+01  0.4679413484D+00
      0.3163926960D+01  0.3623119853D+00
 SP   3 1.00       0.000000000000
      0.7868272350D+01 -0.1193324198D+00  0.6899906659D-01
      0.1881288540D+01 -0.1608541517D+00  0.3164239610D+00
      0.5442492580D+00  0.1143456438D+01  0.7443082909D+00
 SP   1 1.00       0.000000000000
      0.1687144782D+00  0.1000000000D+01  0.1000000000D+01
 D   1 1.00       0.000000000000
      0.8000000000D+00  0.1000000000D+01
 ****
      6 0
 S   6 1.00       0.000000000000
      0.3047524880D+04  0.1834737132D-02
      0.4573695180D+03  0.1403732281D-01
      0.1039486850D+03  0.6884262226D-01
      0.2921015530D+02  0.2321844432D+00
      0.9286662960D+01  0.4679413484D+00
      0.3163926960D+01  0.3623119853D+00
 SP   3 1.00       0.000000000000
      0.7868272350D+01 -0.1193324198D+00  0.6899906659D-01
      0.1881288540D+01 -0.1608541517D+00  0.3164239610D+00
      0.5442492580D+00  0.1143456438D+01  0.7443082909D+00
 SP   1 1.00       0.000000000000
      0.1687144782D+00  0.1000000000D+01  0.1000000000D+01
 D   1 1.00       0.000000000000
      0.8000000000D+00  0.1000000000D+01
 ****
      7 0
 S   3 1.00       0.000000000000
      0.1873113696D+02  0.3349460434D-01
      0.2825394365D+01  0.2347269535D+00
      0.6401216923D+00  0.8137573261D+00
 S   1 1.00       0.000000000000
      0.1612777588D+00  0.1000000000D+01
 ****
      8 0
 S   6 1.00       0.000000000000
      0.3047524880D+04  0.1834737132D-02
      0.4573695180D+03  0.1403732281D-01
      0.1039486850D+03  0.6884262226D-01
      0.2921015530D+02  0.2321844432D+00
      0.9286662960D+01  0.4679413484D+00
      0.3163926960D+01  0.3623119853D+00
 SP   3 1.00       0.000000000000
      0.7868272350D+01 -0.1193324198D+00  0.6899906659D-01
      0.1881288540D+01 -0.1608541517D+00  0.3164239610D+00
      0.5442492580D+00  0.1143456438D+01  0.7443082909D+00
 SP   1 1.00       0.000000000000
      0.1687144782D+00  0.1000000000D+01  0.1000000000D+01
 D   1 1.00       0.000000000000
      0.8000000000D+00  0.1000000000D+01
 ****
      9 0
 S   3 1.00       0.000000000000
      0.1873113696D+02  0.3349460434D-01
      0.2825394365D+01  0.2347269535D+00
      0.6401216923D+00  0.8137573261D+00
 S   1 1.00       0.000000000000
      0.1612777588D+00  0.1000000000D+01
 ****
     10 0
 S   6 1.00       0.000000000000
      0.3047524880D+04  0.1834737132D-02
      0.4573695180D+03  0.1403732281D-01
      0.1039486850D+03  0.6884262226D-01
      0.2921015530D+02  0.2321844432D+00
      0.9286662960D+01  0.4679413484D+00
      0.3163926960D+01  0.3623119853D+00
 SP   3 1.00       0.000000000000
      0.7868272350D+01 -0.1193324198D+00  0.6899906659D-01
      0.1881288540D+01 -0.1608541517D+00  0.3164239610D+00
      0.5442492580D+00  0.1143456438D+01  0.7443082909D+00
 SP   1 1.00       0.000000000000
      0.1687144782D+00  0.1000000000D+01  0.1000000000D+01
 D   1 1.00       0.000000000000
      0.8000000000D+00  0.1000000000D+01
 ****
     11 0
 S   3 1.00       0.000000000000
      0.1873113696D+02  0.3349460434D-01
      0.2825394365D+01  0.2347269535D+00
      0.6401216923D+00  0.8137573261D+00
 S   1 1.00       0.000000000000
      0.1612777588D+00  0.1000000000D+01
 ****
     12 0
 S   6 1.00       0.000000000000
      0.3047524880D+04  0.1834737132D-02
      0.4573695180D+03  0.1403732281D-01
      0.1039486850D+03  0.6884262226D-01
      0.2921015530D+02  0.2321844432D+00
      0.9286662960D+01  0.4679413484D+00
      0.3163926960D+01  0.3623119853D+00
 SP   3 1.00       0.000000000000
      0.7868272350D+01 -0.1193324198D+00  0.6899906659D-01
      0.1881288540D+01 -0.1608541517D+00  0.3164239610D+00
      0.5442492580D+00  0.1143456438D+01  0.7443082909D+00
 SP   1 1.00       0.000000000000
      0.1687144782D+00  0.1000000000D+01  0.1000000000D+01
 D   1 1.00       0.000000000000
      0.8000000000D+00  0.1000000000D+01
 ****
     13 0
 S   3 1.00       0.000000000000
      0.1873113696D+02  0.3349460434D-01
      0.2825394365D+01  0.2347269535D+00
      0.6401216923D+00  0.8137573261D+00
 S   1 1.00       0.000000000000
      0.1612777588D+00  0.1000000000D+01
 ****
     14 0
 S   6 1.00       0.000000000000
      0.3047524880D+04  0.1834737132D-02
      0.4573695180D+03  0.1403732281D-01
      0.1039486850D+03  0.6884262226D-01
      0.2921015530D+02  0.2321844432D+00
      0.9286662960D+01  0.4679413484D+00
      0.3163926960D+01  0.3623119853D+00
 SP   3 1.00       0.000000000000
      0.7868272350D+01 -0.1193324198D+00  0.6899906659D-01
      0.1881288540D+01 -0.1608541517D+00  0.3164239610D+00
      0.5442492580D+00  0.1143456438D+01  0.7443082909D+00
 SP   1 1.00       0.000000000000
      0.1687144782D+00  0.1000000000D+01  0.1000000000D+01
 D   1 1.00       0.000000000000
      0.8000000000D+00  0.1000000000D+01
 ****
     15 0
 S   3 1.00       0.000000000000
      0.1873113696D+02  0.3349460434D-01
      0.2825394365D+01  0.2347269535D+00
      0.6401216923D+00  0.8137573261D+00
 S   1 1.00       0.000000000000
      0.1612777588D+00  0.1000000000D+01
 ****
     16 0
 S   3 1.00       0.000000000000
      0.1873113696D+02  0.3349460434D-01
      0.2825394365D+01  0.2347269535D+00
      0.6401216923D+00  0.8137573261D+00
 S   1 1.00       0.000000000000
      0.1612777588D+00  0.1000000000D+01
 ****
     17 0
 S   6 1.00       0.000000000000
      0.3047524880D+04  0.1834737132D-02
      0.4573695180D+03  0.1403732281D-01
      0.1039486850D+03  0.6884262226D-01
      0.2921015530D+02  0.2321844432D+00
      0.9286662960D+01  0.4679413484D+00
      0.3163926960D+01  0.3623119853D+00
 SP   3 1.00       0.000000000000
      0.7868272350D+01 -0.1193324198D+00  0.6899906659D-01
      0.1881288540D+01 -0.1608541517D+00  0.3164239610D+00
      0.5442492580D+00  0.1143456438D+01  0.7443082909D+00
 SP   1 1.00       0.000000000000
      0.1687144782D+00  0.1000000000D+01  0.1000000000D+01
 D   1 1.00       0.000000000000
      0.8000000000D+00  0.1000000000D+01
 ****
     18 0
 S   6 1.00       0.000000000000
      0.3047524880D+04  0.1834737132D-02
      0.4573695180D+03  0.1403732281D-01
      0.1039486850D+03  0.6884262226D-01
      0.2921015530D+02  0.2321844432D+00
      0.9286662960D+01  0.4679413484D+00
      0.3163926960D+01  0.3623119853D+00
 SP   3 1.00       0.000000000000
      0.7868272350D+01 -0.1193324198D+00  0.6899906659D-01
      0.1881288540D+01 -0.1608541517D+00  0.3164239610D+00
      0.5442492580D+00  0.1143456438D+01  0.7443082909D+00
 SP   1 1.00       0.000000000000
      0.1687144782D+00  0.1000000000D+01  0.1000000000D+01
 D   1 1.00       0.000000000000
      0.8000000000D+00  0.1000000000D+01
 ****
     19 0
 S   3 1.00       0.000000000000
      0.1873113696D+02  0.3349460434D-01
      0.2825394365D+01  0.2347269535D+00
      0.6401216923D+00  0.8137573261D+00
 S   1 1.00       0.000000000000
      0.1612777588D+00  0.1000000000D+01
 ****
     20 0
 S   3 1.00       0.000000000000
      0.1873113696D+02  0.3349460434D-01
      0.2825394365D+01  0.2347269535D+00
      0.6401216923D+00  0.8137573261D+00
 S   1 1.00       0.000000000000
      0.1612777588D+00  0.1000000000D+01
 ****
     21 0
 S   6 1.00       0.000000000000
      0.3047524880D+04  0.1834737132D-02
      0.4573695180D+03  0.1403732281D-01
      0.1039486850D+03  0.6884262226D-01
      0.2921015530D+02  0.2321844432D+00
      0.9286662960D+01  0.4679413484D+00
      0.3163926960D+01  0.3623119853D+00
 SP   3 1.00       0.000000000000
      0.7868272350D+01 -0.1193324198D+00  0.6899906659D-01
      0.1881288540D+01 -0.1608541517D+00  0.3164239610D+00
      0.5442492580D+00  0.1143456438D+01  0.7443082909D+00
 SP   1 1.00       0.000000000000
      0.1687144782D+00  0.1000000000D+01  0.1000000000D+01
 D   1 1.00       0.000000000000
      0.8000000000D+00  0.1000000000D+01
 ****
     22 0
 S   3 1.00       0.000000000000
      0.1873113696D+02  0.3349460434D-01
      0.2825394365D+01  0.2347269535D+00
      0.6401216923D+00  0.8137573261D+00
 S   1 1.00       0.000000000000
      0.1612777588D+00  0.1000000000D+01
 ****
     23 0
 S   3 1.00       0.000000000000
      0.1873113696D+02  0.3349460434D-01
      0.2825394365D+01  0.2347269535D+00
      0.6401216923D+00  0.8137573261D+00
 S   1 1.00       0.000000000000
      0.1612777588D+00  0.1000000000D+01
 ****
     24 0
 S   6 1.00       0.000000000000
      0.3047524880D+04  0.1834737132D-02
      0.4573695180D+03  0.1403732281D-01
      0.1039486850D+03  0.6884262226D-01
      0.2921015530D+02  0.2321844432D+00
      0.9286662960D+01  0.4679413484D+00
      0.3163926960D+01  0.3623119853D+00
 SP   3 1.00       0.000000000000
      0.7868272350D+01 -0.1193324198D+00  0.6899906659D-01
      0.1881288540D+01 -0.1608541517D+00  0.3164239610D+00
      0.5442492580D+00  0.1143456438D+01  0.7443082909D+00
 SP   1 1.00       0.000000000000
      0.1687144782D+00  0.1000000000D+01  0.1000000000D+01
 D   1 1.00       0.000000000000
      0.8000000000D+00  0.1000000000D+01
 ****
     25 0
 S   3 1.00       0.000000000000
      0.1873113696D+02  0.3349460434D-01
      0.2825394365D+01  0.2347269535D+00
      0.6401216923D+00  0.8137573261D+00
 S   1 1.00       0.000000000000
      0.1612777588D+00  0.1000000000D+01
 ****
     26 0
 S   3 1.00       0.000000000000
      0.1873113696D+02  0.3349460434D-01
      0.2825394365D+01  0.2347269535D+00
      0.6401216923D+00  0.8137573261D+00
 S   1 1.00       0.000000000000
      0.1612777588D+00  0.1000000000D+01
 ****
     27 0
 S   6 1.00       0.000000000000
      0.3047524880D+04  0.1834737132D-02
      0.4573695180D+03  0.1403732281D-01
      0.1039486850D+03  0.6884262226D-01
      0.2921015530D+02  0.2321844432D+00
      0.9286662960D+01  0.4679413484D+00
      0.3163926960D+01  0.3623119853D+00
 SP   3 1.00       0.000000000000
      0.7868272350D+01 -0.1193324198D+00  0.6899906659D-01
      0.1881288540D+01 -0.1608541517D+00  0.3164239610D+00
      0.5442492580D+00  0.1143456438D+01  0.7443082909D+00
 SP   1 1.00       0.000000000000
      0.1687144782D+00  0.1000000000D+01  0.1000000000D+01
 D   1 1.00       0.000000000000
      0.8000000000D+00  0.1000000000D+01
 ****
     28 0
 S   3 1.00       0.000000000000
      0.1873113696D+02  0.3349460434D-01
      0.2825394365D+01  0.2347269535D+00
      0.6401216923D+00  0.8137573261D+00
 S   1 1.00       0.000000000000
      0.1612777588D+00  0.1000000000D+01
 ****
     29 0
 S   6 1.00       0.000000000000
      0.3047524880D+04  0.1834737132D-02
      0.4573695180D+03  0.1403732281D-01
      0.1039486850D+03  0.6884262226D-01
      0.2921015530D+02  0.2321844432D+00
      0.9286662960D+01  0.4679413484D+00
      0.3163926960D+01  0.3623119853D+00
 SP   3 1.00       0.000000000000
      0.7868272350D+01 -0.1193324198D+00  0.6899906659D-01
      0.1881288540D+01 -0.1608541517D+00  0.3164239610D+00
      0.5442492580D+00  0.1143456438D+01  0.7443082909D+00
 SP   1 1.00       0.000000000000
      0.1687144782D+00  0.1000000000D+01  0.1000000000D+01
 D   1 1.00       0.000000000000
      0.8000000000D+00  0.1000000000D+01
 ****
     30 0
 S   3 1.00       0.000000000000
      0.1873113696D+02  0.3349460434D-01
      0.2825394365D+01  0.2347269535D+00
      0.6401216923D+00  0.8137573261D+00
 S   1 1.00       0.000000000000
      0.1612777588D+00  0.1000000000D+01
 ****
     31 0
 S   6 1.00       0.000000000000
      0.3047524880D+04  0.1834737132D-02
      0.4573695180D+03  0.1403732281D-01
      0.1039486850D+03  0.6884262226D-01
      0.2921015530D+02  0.2321844432D+00
      0.9286662960D+01  0.4679413484D+00
      0.3163926960D+01  0.3623119853D+00
 SP   3 1.00       0.000000000000
      0.7868272350D+01 -0.1193324198D+00  0.6899906659D-01
      0.1881288540D+01 -0.1608541517D+00  0.3164239610D+00
      0.5442492580D+00  0.1143456438D+01  0.7443082909D+00
 SP   1 1.00       0.000000000000
      0.1687144782D+00  0.1000000000D+01  0.1000000000D+01
 D   1 1.00       0.000000000000
      0.8000000000D+00  0.1000000000D+01
 ****
     32 0
 S   3 1.00       0.000000000000
      0.1873113696D+02  0.3349460434D-01
      0.2825394365D+01  0.2347269535D+00
      0.6401216923D+00  0.8137573261D+00
 S   1 1.00       0.000000000000
      0.1612777588D+00  0.1000000000D+01
 ****
     33 0
 S   3 1.00       0.000000000000
      0.1873113696D+02  0.3349460434D-01
      0.2825394365D+01  0.2347269535D+00
      0.6401216923D+00  0.8137573261D+00
 S   1 1.00       0.000000000000
      0.1612777588D+00  0.1000000000D+01
 ****
     34 0
 S   3 1.00       0.000000000000
      0.1873113696D+02  0.3349460434D-01
      0.2825394365D+01  0.2347269535D+00
      0.6401216923D+00  0.8137573261D+00
 S   1 1.00       0.000000000000
      0.1612777588D+00  0.1000000000D+01
 ****
     35 0
 S   6 1.00       0.000000000000
      0.3047524880D+04  0.1834737132D-02
      0.4573695180D+03  0.1403732281D-01
      0.1039486850D+03  0.6884262226D-01
      0.2921015530D+02  0.2321844432D+00
      0.9286662960D+01  0.4679413484D+00
      0.3163926960D+01  0.3623119853D+00
 SP   3 1.00       0.000000000000
      0.7868272350D+01 -0.1193324198D+00  0.6899906659D-01
      0.1881288540D+01 -0.1608541517D+00  0.3164239610D+00
      0.5442492580D+00  0.1143456438D+01  0.7443082909D+00
 SP   1 1.00       0.000000000000
      0.1687144782D+00  0.1000000000D+01  0.1000000000D+01
 D   1 1.00       0.000000000000
      0.8000000000D+00  0.1000000000D+01
 ****
     36 0
 S   6 1.00       0.000000000000
      0.3047524880D+04  0.1834737132D-02
      0.4573695180D+03  0.1403732281D-01
      0.1039486850D+03  0.6884262226D-01
      0.2921015530D+02  0.2321844432D+00
      0.9286662960D+01  0.4679413484D+00
      0.3163926960D+01  0.3623119853D+00
 SP   3 1.00       0.000000000000
      0.7868272350D+01 -0.1193324198D+00  0.6899906659D-01
      0.1881288540D+01 -0.1608541517D+00  0.3164239610D+00
      0.5442492580D+00  0.1143456438D+01  0.7443082909D+00
 SP   1 1.00       0.000000000000
      0.1687144782D+00  0.1000000000D+01  0.1000000000D+01
 D   1 1.00       0.000000000000
      0.8000000000D+00  0.1000000000D+01
 ****
     37 0
 S   3 1.00       0.000000000000
      0.1873113696D+02  0.3349460434D-01
      0.2825394365D+01  0.2347269535D+00
      0.6401216923D+00  0.8137573261D+00
 S   1 1.00       0.000000000000
      0.1612777588D+00  0.1000000000D+01
 ****
     38 0
 S   3 1.00       0.000000000000
      0.1873113696D+02  0.3349460434D-01
      0.2825394365D+01  0.2347269535D+00
      0.6401216923D+00  0.8137573261D+00
 S   1 1.00       0.000000000000
      0.1612777588D+00  0.1000000000D+01
 ****
     39 0
 S   6 1.00       0.000000000000
      0.3047524880D+04  0.1834737132D-02
      0.4573695180D+03  0.1403732281D-01
      0.1039486850D+03  0.6884262226D-01
      0.2921015530D+02  0.2321844432D+00
      0.9286662960D+01  0.4679413484D+00
      0.3163926960D+01  0.3623119853D+00
 SP   3 1.00       0.000000000000
      0.7868272350D+01 -0.1193324198D+00  0.6899906659D-01
      0.1881288540D+01 -0.1608541517D+00  0.3164239610D+00
      0.5442492580D+00  0.1143456438D+01  0.7443082909D+00
 SP   1 1.00       0.000000000000
      0.1687144782D+00  0.1000000000D+01  0.1000000000D+01
 D   1 1.00       0.000000000000
      0.8000000000D+00  0.1000000000D+01
 ****
     40 0
 S   3 1.00       0.000000000000
      0.1873113696D+02  0.3349460434D-01
      0.2825394365D+01  0.2347269535D+00
      0.6401216923D+00  0.8137573261D+00
 S   1 1.00       0.000000000000
      0.1612777588D+00  0.1000000000D+01
 ****
     41 0
 S   6 1.00       0.000000000000
      0.3047524880D+04  0.1834737132D-02
      0.4573695180D+03  0.1403732281D-01
      0.1039486850D+03  0.6884262226D-01
      0.2921015530D+02  0.2321844432D+00
      0.9286662960D+01  0.4679413484D+00
      0.3163926960D+01  0.3623119853D+00
 SP   3 1.00       0.000000000000
      0.7868272350D+01 -0.1193324198D+00  0.6899906659D-01
      0.1881288540D+01 -0.1608541517D+00  0.3164239610D+00
      0.5442492580D+00  0.1143456438D+01  0.7443082909D+00
 SP   1 1.00       0.000000000000
      0.1687144782D+00  0.1000000000D+01  0.1000000000D+01
 D   1 1.00       0.000000000000
      0.8000000000D+00  0.1000000000D+01
 ****
     42 0
 S   3 1.00       0.000000000000
      0.1873113696D+02  0.3349460434D-01
      0.2825394365D+01  0.2347269535D+00
      0.6401216923D+00  0.8137573261D+00
 S   1 1.00       0.000000000000
      0.1612777588D+00  0.1000000000D+01
 ****
     43 0
 S   3 1.00       0.000000000000
      0.1873113696D+02  0.3349460434D-01
      0.2825394365D+01  0.2347269535D+00
      0.6401216923D+00  0.8137573261D+00
 S   1 1.00       0.000000000000
      0.1612777588D+00  0.1000000000D+01
 ****
     44 0
 S   3 1.00       0.000000000000
      0.1873113696D+02  0.3349460434D-01
      0.2825394365D+01  0.2347269535D+00
      0.6401216923D+00  0.8137573261D+00
 S   1 1.00       0.000000000000
      0.1612777588D+00  0.1000000000D+01
 ****
     45 0
 S   6 1.00       0.000000000000
      0.3047524880D+04  0.1834737132D-02
      0.4573695180D+03  0.1403732281D-01
      0.1039486850D+03  0.6884262226D-01
      0.2921015530D+02  0.2321844432D+00
      0.9286662960D+01  0.4679413484D+00
      0.3163926960D+01  0.3623119853D+00
 SP   3 1.00       0.000000000000
      0.7868272350D+01 -0.1193324198D+00  0.6899906659D-01
      0.1881288540D+01 -0.1608541517D+00  0.3164239610D+00
      0.5442492580D+00  0.1143456438D+01  0.7443082909D+00
 SP   1 1.00       0.000000000000
      0.1687144782D+00  0.1000000000D+01  0.1000000000D+01
 D   1 1.00       0.000000000000
      0.8000000000D+00  0.1000000000D+01
 ****
     46 0
 S   3 1.00       0.000000000000
      0.1873113696D+02  0.3349460434D-01
      0.2825394365D+01  0.2347269535D+00
      0.6401216923D+00  0.8137573261D+00
 S   1 1.00       0.000000000000
      0.1612777588D+00  0.1000000000D+01
 ****
     47 0
 S   3 1.00       0.000000000000
      0.1873113696D+02  0.3349460434D-01
      0.2825394365D+01  0.2347269535D+00
      0.6401216923D+00  0.8137573261D+00
 S   1 1.00       0.000000000000
      0.1612777588D+00  0.1000000000D+01
 ****
     48 0
 S   6 1.00       0.000000000000
      0.3047524880D+04  0.1834737132D-02
      0.4573695180D+03  0.1403732281D-01
      0.1039486850D+03  0.6884262226D-01
      0.2921015530D+02  0.2321844432D+00
      0.9286662960D+01  0.4679413484D+00
      0.3163926960D+01  0.3623119853D+00
 SP   3 1.00       0.000000000000
      0.7868272350D+01 -0.1193324198D+00  0.6899906659D-01
      0.1881288540D+01 -0.1608541517D+00  0.3164239610D+00
      0.5442492580D+00  0.1143456438D+01  0.7443082909D+00
 SP   1 1.00       0.000000000000
      0.1687144782D+00  0.1000000000D+01  0.1000000000D+01
 D   1 1.00       0.000000000000
      0.8000000000D+00  0.1000000000D+01
 ****
     49 0
 S   3 1.00       0.000000000000
      0.1873113696D+02  0.3349460434D-01
      0.2825394365D+01  0.2347269535D+00
      0.6401216923D+00  0.8137573261D+00
 S   1 1.00       0.000000000000
      0.1612777588D+00  0.1000000000D+01
 ****
     50 0
 S   3 1.00       0.000000000000
      0.1873113696D+02  0.3349460434D-01
      0.2825394365D+01  0.2347269535D+00
      0.6401216923D+00  0.8137573261D+00
 S   1 1.00       0.000000000000
      0.1612777588D+00  0.1000000000D+01
 ****
     51 0
 S   6 1.00       0.000000000000
      0.3047524880D+04  0.1834737132D-02
      0.4573695180D+03  0.1403732281D-01
      0.1039486850D+03  0.6884262226D-01
      0.2921015530D+02  0.2321844432D+00
      0.9286662960D+01  0.4679413484D+00
      0.3163926960D+01  0.3623119853D+00
 SP   3 1.00       0.000000000000
      0.7868272350D+01 -0.1193324198D+00  0.6899906659D-01
      0.1881288540D+01 -0.1608541517D+00  0.3164239610D+00
      0.5442492580D+00  0.1143456438D+01  0.7443082909D+00
 SP   1 1.00       0.000000000000
      0.1687144782D+00  0.1000000000D+01  0.1000000000D+01
 D   1 1.00       0.000000000000
      0.8000000000D+00  0.1000000000D+01
 ****
     52 0
 S   3 1.00       0.000000000000
      0.1873113696D+02  0.3349460434D-01
      0.2825394365D+01  0.2347269535D+00
      0.6401216923D+00  0.8137573261D+00
 S   1 1.00       0.000000000000
      0.1612777588D+00  0.1000000000D+01
 ****
     53 0
 S   3 1.00       0.000000000000
      0.1873113696D+02  0.3349460434D-01
      0.2825394365D+01  0.2347269535D+00
      0.6401216923D+00  0.8137573261D+00
 S   1 1.00       0.000000000000
      0.1612777588D+00  0.1000000000D+01
 ****
     54 0
 S   6 1.00       0.000000000000
      0.3047524880D+04  0.1834737132D-02
      0.4573695180D+03  0.1403732281D-01
      0.1039486850D+03  0.6884262226D-01
      0.2921015530D+02  0.2321844432D+00
      0.9286662960D+01  0.4679413484D+00
      0.3163926960D+01  0.3623119853D+00
 SP   3 1.00       0.000000000000
      0.7868272350D+01 -0.1193324198D+00  0.6899906659D-01
      0.1881288540D+01 -0.1608541517D+00  0.3164239610D+00
      0.5442492580D+00  0.1143456438D+01  0.7443082909D+00
 SP   1 1.00       0.000000000000
      0.1687144782D+00  0.1000000000D+01  0.1000000000D+01
 D   1 1.00       0.000000000000
      0.8000000000D+00  0.1000000000D+01
 ****
     55 0
 S   3 1.00       0.000000000000
      0.1873113696D+02  0.3349460434D-01
      0.2825394365D+01  0.2347269535D+00
      0.6401216923D+00  0.8137573261D+00
 S   1 1.00       0.000000000000
      0.1612777588D+00  0.1000000000D+01
 ****
     56 0
 S   6 1.00       0.000000000000
      0.3047524880D+04  0.1834737132D-02
      0.4573695180D+03  0.1403732281D-01
      0.1039486850D+03  0.6884262226D-01
      0.2921015530D+02  0.2321844432D+00
      0.9286662960D+01  0.4679413484D+00
      0.3163926960D+01  0.3623119853D+00
 SP   3 1.00       0.000000000000
      0.7868272350D+01 -0.1193324198D+00  0.6899906659D-01
      0.1881288540D+01 -0.1608541517D+00  0.3164239610D+00
      0.5442492580D+00  0.1143456438D+01  0.7443082909D+00
 SP   1 1.00       0.000000000000
      0.1687144782D+00  0.1000000000D+01  0.1000000000D+01
 D   1 1.00       0.000000000000
      0.8000000000D+00  0.1000000000D+01
 ****
     57 0
 S   3 1.00       0.000000000000
      0.1873113696D+02  0.3349460434D-01
      0.2825394365D+01  0.2347269535D+00
      0.6401216923D+00  0.8137573261D+00
 S   1 1.00       0.000000000000
      0.1612777588D+00  0.1000000000D+01
 ****
     58 0
 S   3 1.00       0.000000000000
      0.1873113696D+02  0.3349460434D-01
      0.2825394365D+01  0.2347269535D+00
      0.6401216923D+00  0.8137573261D+00
 S   1 1.00       0.000000000000
      0.1612777588D+00  0.1000000000D+01
 ****
     59 0
 S   3 1.00       0.000000000000
      0.1873113696D+02  0.3349460434D-01
      0.2825394365D+01  0.2347269535D+00
      0.6401216923D+00  0.8137573261D+00
 S   1 1.00       0.000000000000
      0.1612777588D+00  0.1000000000D+01
 ****
     60 0
 S   6 1.00       0.000000000000
      0.3047524880D+04  0.1834737132D-02
      0.4573695180D+03  0.1403732281D-01
      0.1039486850D+03  0.6884262226D-01
      0.2921015530D+02  0.2321844432D+00
      0.9286662960D+01  0.4679413484D+00
      0.3163926960D+01  0.3623119853D+00
 SP   3 1.00       0.000000000000
      0.7868272350D+01 -0.1193324198D+00  0.6899906659D-01
      0.1881288540D+01 -0.1608541517D+00  0.3164239610D+00
      0.5442492580D+00  0.1143456438D+01  0.7443082909D+00
 SP   1 1.00       0.000000000000
      0.1687144782D+00  0.1000000000D+01  0.1000000000D+01
 D   1 1.00       0.000000000000
      0.8000000000D+00  0.1000000000D+01
 ****
     61 0
 S   3 1.00       0.000000000000
      0.1873113696D+02  0.3349460434D-01
      0.2825394365D+01  0.2347269535D+00
      0.6401216923D+00  0.8137573261D+00
 S   1 1.00       0.000000000000
      0.1612777588D+00  0.1000000000D+01
 ****
     62 0
 S   3 1.00       0.000000000000
      0.1873113696D+02  0.3349460434D-01
      0.2825394365D+01  0.2347269535D+00
      0.6401216923D+00  0.8137573261D+00
 S   1 1.00       0.000000000000
      0.1612777588D+00  0.1000000000D+01
 ****
     63 0
 S   6 1.00       0.000000000000
      0.3047524880D+04  0.1834737132D-02
      0.4573695180D+03  0.1403732281D-01
      0.1039486850D+03  0.6884262226D-01
      0.2921015530D+02  0.2321844432D+00
      0.9286662960D+01  0.4679413484D+00
      0.3163926960D+01  0.3623119853D+00
 SP   3 1.00       0.000000000000
      0.7868272350D+01 -0.1193324198D+00  0.6899906659D-01
      0.1881288540D+01 -0.1608541517D+00  0.3164239610D+00
      0.5442492580D+00  0.1143456438D+01  0.7443082909D+00
 SP   1 1.00       0.000000000000
      0.1687144782D+00  0.1000000000D+01  0.1000000000D+01
 D   1 1.00       0.000000000000
      0.8000000000D+00  0.1000000000D+01
 ****
     64 0
 S   3 1.00       0.000000000000
      0.1873113696D+02  0.3349460434D-01
      0.2825394365D+01  0.2347269535D+00
      0.6401216923D+00  0.8137573261D+00
 S   1 1.00       0.000000000000
      0.1612777588D+00  0.1000000000D+01
 ****
     65 0
 S   3 1.00       0.000000000000
      0.1873113696D+02  0.3349460434D-01
      0.2825394365D+01  0.2347269535D+00
      0.6401216923D+00  0.8137573261D+00
 S   1 1.00       0.000000000000
      0.1612777588D+00  0.1000000000D+01
 ****
     66 0
 S   6 1.00       0.000000000000
      0.3047524880D+04  0.1834737132D-02
      0.4573695180D+03  0.1403732281D-01
      0.1039486850D+03  0.6884262226D-01
      0.2921015530D+02  0.2321844432D+00
      0.9286662960D+01  0.4679413484D+00
      0.3163926960D+01  0.3623119853D+00
 SP   3 1.00       0.000000000000
      0.7868272350D+01 -0.1193324198D+00  0.6899906659D-01
      0.1881288540D+01 -0.1608541517D+00  0.3164239610D+00
      0.5442492580D+00  0.1143456438D+01  0.7443082909D+00
 SP   1 1.00       0.000000000000
      0.1687144782D+00  0.1000000000D+01  0.1000000000D+01
 D   1 1.00       0.000000000000
      0.8000000000D+00  0.1000000000D+01
 ****
     67 0
 S   3 1.00       0.000000000000
      0.1873113696D+02  0.3349460434D-01
      0.2825394365D+01  0.2347269535D+00
      0.6401216923D+00  0.8137573261D+00
 S   1 1.00       0.000000000000
      0.1612777588D+00  0.1000000000D+01
 ****
     68 0
 S   6 1.00       0.000000000000
      0.3047524880D+04  0.1834737132D-02
      0.4573695180D+03  0.1403732281D-01
      0.1039486850D+03  0.6884262226D-01
      0.2921015530D+02  0.2321844432D+00
      0.9286662960D+01  0.4679413484D+00
      0.3163926960D+01  0.3623119853D+00
 SP   3 1.00       0.000000000000
      0.7868272350D+01 -0.1193324198D+00  0.6899906659D-01
      0.1881288540D+01 -0.1608541517D+00  0.3164239610D+00
      0.5442492580D+00  0.1143456438D+01  0.7443082909D+00
 SP   1 1.00       0.000000000000
      0.1687144782D+00  0.1000000000D+01  0.1000000000D+01
 D   1 1.00       0.000000000000
      0.8000000000D+00  0.1000000000D+01
 ****
     69 0
 S   3 1.00       0.000000000000
      0.1873113696D+02  0.3349460434D-01
      0.2825394365D+01  0.2347269535D+00
      0.6401216923D+00  0.8137573261D+00
 S   1 1.00       0.000000000000
      0.1612777588D+00  0.1000000000D+01
 ****
     70 0
 S   3 1.00       0.000000000000
      0.1873113696D+02  0.3349460434D-01
      0.2825394365D+01  0.2347269535D+00
      0.6401216923D+00  0.8137573261D+00
 S   1 1.00       0.000000000000
      0.1612777588D+00  0.1000000000D+01
 ****
     71 0
 S   3 1.00       0.000000000000
      0.1873113696D+02  0.3349460434D-01
      0.2825394365D+01  0.2347269535D+00
      0.6401216923D+00  0.8137573261D+00
 S   1 1.00       0.000000000000
      0.1612777588D+00  0.1000000000D+01
 ****
     72 0
 S   6 1.00       0.000000000000
      0.3047524880D+04  0.1834737132D-02
      0.4573695180D+03  0.1403732281D-01
      0.1039486850D+03  0.6884262226D-01
      0.2921015530D+02  0.2321844432D+00
      0.9286662960D+01  0.4679413484D+00
      0.3163926960D+01  0.3623119853D+00
 SP   3 1.00       0.000000000000
      0.7868272350D+01 -0.1193324198D+00  0.6899906659D-01
      0.1881288540D+01 -0.1608541517D+00  0.3164239610D+00
      0.5442492580D+00  0.1143456438D+01  0.7443082909D+00
 SP   1 1.00       0.000000000000
      0.1687144782D+00  0.1000000000D+01  0.1000000000D+01
 D   1 1.00       0.000000000000
      0.8000000000D+00  0.1000000000D+01
 ****
     73 0
 S   3 1.00       0.000000000000
      0.1873113696D+02  0.3349460434D-01
      0.2825394365D+01  0.2347269535D+00
      0.6401216923D+00  0.8137573261D+00
 S   1 1.00       0.000000000000
      0.1612777588D+00  0.1000000000D+01
 ****
     74 0
 S   3 1.00       0.000000000000
      0.1873113696D+02  0.3349460434D-01
      0.2825394365D+01  0.2347269535D+00
      0.6401216923D+00  0.8137573261D+00
 S   1 1.00       0.000000000000
      0.1612777588D+00  0.1000000000D+01
 ****
     75 0
 S   3 1.00       0.000000000000
      0.1873113696D+02  0.3349460434D-01
      0.2825394365D+01  0.2347269535D+00
      0.6401216923D+00  0.8137573261D+00
 S   1 1.00       0.000000000000
      0.1612777588D+00  0.1000000000D+01
 ****

 AO basis set (Overlap normalization):
 Atom O1       Shell     1 S   6     bf    1 -     1          0.000000000000          0.000000000000          0.000000000000
      0.5484671660D+04  0.1831074430D-02
      0.8252349460D+03  0.1395017220D-01
      0.1880469580D+03  0.6844507810D-01
      0.5296450000D+02  0.2327143360D+00
      0.1689757040D+02  0.4701928980D+00
      0.5799635340D+01  0.3585208530D+00
 Atom O1       Shell     2 SP   3    bf    2 -     5          0.000000000000          0.000000000000          0.000000000000
      0.1553961625D+02 -0.1107775495D+00  0.7087426823D-01
      0.3599933586D+01 -0.1480262627D+00  0.3397528391D+00
      0.1013761750D+01  0.1130767015D+01  0.7271585773D+00
 Atom O1       Shell     3 SP   1    bf    6 -     9          0.000000000000          0.000000000000          0.000000000000
      0.2700058226D+00  0.1000000000D+01  0.1000000000D+01
 Atom O1       Shell     4 D   1     bf   10 -    15          0.000000000000          0.000000000000          0.000000000000
      0.8000000000D+00  0.1000000000D+01
 Atom H2       Shell     5 S   3     bf   16 -    16         -0.437468557304          0.258137818074          1.756574668960
      0.1873113696D+02  0.3349460434D-01
      0.2825394365D+01  0.2347269535D+00
      0.6401216923D+00  0.8137573261D+00
 Atom H2       Shell     6 S   1     bf   17 -    17         -0.437468557304          0.258137818074          1.756574668960
      0.1612777588D+00  0.1000000000D+01
 Atom O3       Shell     7 S   6     bf   18 -    18         -5.788846420960         12.239023402495          0.000000000000
      0.5484671660D+04  0.1831074430D-02
      0.8252349460D+03  0.1395017220D-01
      0.1880469580D+03  0.6844507810D-01
      0.5296450000D+02  0.2327143360D+00
      0.1689757040D+02  0.4701928980D+00
      0.5799635340D+01  0.3585208530D+00
 Atom O3       Shell     8 SP   3    bf   19 -    22         -5.788846420960         12.239023402495          0.000000000000
      0.1553961625D+02 -0.1107775495D+00  0.7087426823D-01
      0.3599933586D+01 -0.1480262627D+00  0.3397528391D+00
      0.1013761750D+01  0.1130767015D+01  0.7271585773D+00
 Atom O3       Shell     9 SP   1    bf   23 -    26         -5.788846420960         12.239023402495          0.000000000000
      0.2700058226D+00  0.1000000000D+01  0.1000000000D+01
 Atom O3       Shell    10 D   1     bf   27 -    32         -5.788846420960         12.239023402495          0.000000000000
      0.8000000000D+00  0.1000000000D+01
 Atom H4       Shell    11 S   3     bf   33 -    33         -5.791518758274         12.618849379006          1.788523796257
      0.1873113696D+02  0.3349460434D-01
      0.2825394365D+01  0.2347269535D+00
      0.6401216923D+00  0.8137573261D+00
 Atom H4       Shell    12 S   1     bf   34 -    34         -5.791518758274         12.618849379006          1.788523796257
      0.1612777588D+00  0.1000000000D+01
 Atom C5       Shell    13 S   6     bf   35 -    35          8.065943450915          2.947946821362         -0.790898971472
      0.3047524880D+04  0.1834737132D-02
      0.4573695180D+03  0.1403732281D-01
      0.1039486850D+03  0.6884262226D-01
      0.2921015530D+02  0.2321844432D+00
      0.9286662960D+01  0.4679413484D+00
      0.3163926960D+01  0.3623119853D+00
 Atom C5       Shell    14 SP   3    bf   36 -    39          8.065943450915          2.947946821362         -0.790898971472
      0.7868272350D+01 -0.1193324198D+00  0.6899906659D-01
      0.1881288540D+01 -0.1608541517D+00  0.3164239610D+00
      0.5442492580D+00  0.1143456438D+01  0.7443082909D+00
 Atom C5       Shell    15 SP   1    bf   40 -    43          8.065943450915          2.947946821362         -0.790898971472
      0.1687144782D+00  0.1000000000D+01  0.1000000000D+01
 Atom C5       Shell    16 D   1     bf   44 -    49          8.065943450915          2.947946821362         -0.790898971472
      0.8000000000D+00  0.1000000000D+01
 Atom C6       Shell    17 S   6     bf   50 -    50          5.365904075056          2.025337226552         -1.505400416096
      0.3047524880D+04  0.1834737132D-02
      0.4573695180D+03  0.1403732281D-01
      0.1039486850D+03  0.6884262226D-01
      0.2921015530D+02  0.2321844432D+00
      0.9286662960D+01  0.4679413484D+00
      0.3163926960D+01  0.3623119853D+00
 Atom C6       Shell    18 SP   3    bf   51 -    54          5.365904075056          2.025337226552         -1.505400416096
      0.7868272350D+01 -0.1193324198D+00  0.6899906659D-01
      0.1881288540D+01 -0.1608541517D+00  0.3164239610D+00
      0.5442492580D+00  0.1143456438D+01  0.7443082909D+00
 Atom C6       Shell    19 SP   1    bf   55 -    58          5.365904075056          2.025337226552         -1.505400416096
      0.1687144782D+00  0.1000000000D+01  0.1000000000D+01
 Atom C6       Shell    20 D   1     bf   59 -    64          5.365904075056          2.025337226552         -1.505400416096
      0.8000000000D+00  0.1000000000D+01
 Atom H7       Shell    21 S   3     bf   65 -    65          5.162572434439          2.475565573753         -3.532455328114
      0.1873113696D+02  0.3349460434D-01
      0.2825394365D+01  0.2347269535D+00
      0.6401216923D+00  0.8137573261D+00
 Atom H7       Shell    22 S   1     bf   66 -    66          5.162572434439          2.475565573753         -3.532455328114
      0.1612777588D+00  0.1000000000D+01
 Atom C8       Shell    23 S   6     bf   67 -    67          3.184188477221          3.424682678282         -0.185500713951
      0.3047524880D+04  0.1834737132D-02
      0.4573695180D+03  0.1403732281D-01
      0.1039486850D+03  0.6884262226D-01
      0.2921015530D+02  0.2321844432D+00
      0.9286662960D+01  0.4679413484D+00
      0.3163926960D+01  0.3623119853D+00
 Atom C8       Shell    24 SP   3    bf   68 -    71          3.184188477221          3.424682678282         -0.185500713951
      0.7868272350D+01 -0.1193324198D+00  0.6899906659D-01
      0.1881288540D+01 -0.1608541517D+00  0.3164239610D+00
      0.5442492580D+00  0.1143456438D+01  0.7443082909D+00
 Atom C8       Shell    25 SP   1    bf   72 -    75          3.184188477221          3.424682678282         -0.185500713951
      0.1687144782D+00  0.1000000000D+01  0.1000000000D+01
 Atom C8       Shell    26 D   1     bf   76 -    81          3.184188477221          3.424682678282         -0.185500713951
      0.8000000000D+00  0.1000000000D+01
 Atom H9       Shell    27 S   3     bf   82 -    82          3.284986903786          3.096235275071          1.864509362807
      0.1873113696D+02  0.3349460434D-01
      0.2825394365D+01  0.2347269535D+00
      0.6401216923D+00  0.8137573261D+00
 Atom H9       Shell    28 S   1     bf   83 -    83          3.284986903786          3.096235275071          1.864509362807
      0.1612777588D+00  0.1000000000D+01
 Atom C10      Shell    29 S   6     bf   84 -    84          3.394314061231          6.304775481336         -0.723042288649
      0.3047524880D+04  0.1834737132D-02
      0.4573695180D+03  0.1403732281D-01
      0.1039486850D+03  0.6884262226D-01
      0.2921015530D+02  0.2321844432D+00
      0.9286662960D+01  0.4679413484D+00
      0.3163926960D+01  0.3623119853D+00
 Atom C10      Shell    30 SP   3    bf   85 -    88          3.394314061231          6.304775481336         -0.723042288649
      0.7868272350D+01 -0.1193324198D+00  0.6899906659D-01
      0.1881288540D+01 -0.1608541517D+00  0.3164239610D+00
      0.5442492580D+00  0.1143456438D+01  0.7443082909D+00
 Atom C10      Shell    31 SP   1    bf   89 -    92          3.394314061231          6.304775481336         -0.723042288649
      0.1687144782D+00  0.1000000000D+01  0.1000000000D+01
 Atom C10      Shell    32 D   1     bf   93 -    98          3.394314061231          6.304775481336         -0.723042288649
      0.8000000000D+00  0.1000000000D+01
 Atom H11      Shell    33 S   3     bf   99 -    99          3.058408608172          6.519487279493         -2.767999388906
      0.1873113696D+02  0.3349460434D-01
      0.2825394365D+01  0.2347269535D+00
      0.6401216923D+00  0.8137573261D+00
 Atom H11      Shell    34 S   1     bf  100 -   100          3.058408608172          6.519487279493         -2.767999388906
      0.1612777588D+00  0.1000000000D+01
 Atom C12      Shell    35 S   6     bf  101 -   101          9.699698639094          1.117657148493         -2.454197514402
      0.3047524880D+04  0.1834737132D-02
      0.4573695180D+03  0.1403732281D-01
      0.1039486850D+03  0.6884262226D-01
      0.2921015530D+02  0.2321844432D+00
      0.9286662960D+01  0.4679413484D+00
      0.3163926960D+01  0.3623119853D+00
 Atom C12      Shell    36 SP   3    bf  102 -   105          9.699698639094          1.117657148493         -2.454197514402
      0.7868272350D+01 -0.1193324198D+00  0.6899906659D-01
      0.1881288540D+01 -0.1608541517D+00  0.3164239610D+00
      0.5442492580D+00  0.1143456438D+01  0.7443082909D+00
 Atom C12      Shell    37 SP   1    bf  106 -   109          9.699698639094          1.117657148493         -2.454197514402
      0.1687144782D+00  0.1000000000D+01  0.1000000000D+01
 Atom C12      Shell    38 D   1     bf  110 -   115          9.699698639094          1.117657148493         -2.454197514402
      0.8000000000D+00  0.1000000000D+01
 Atom H13      Shell    39 S   3     bf  116 -   116          9.533095564417          1.814917771230         -4.409143973182
      0.1873113696D+02  0.3349460434D-01
      0.2825394365D+01  0.2347269535D+00
      0.6401216923D+00  0.8137573261D+00
 Atom H13      Shell    40 S   1     bf  117 -   117          9.533095564417          1.814917771230         -4.409143973182
      0.1612777588D+00  0.1000000000D+01
 Atom C14      Shell    41 S   6     bf  118 -   118          8.200246362768          5.772682856353         -1.489760286730
      0.3047524880D+04  0.1834737132D-02
      0.4573695180D+03  0.1403732281D-01
      0.1039486850D+03  0.6884262226D-01
      0.2921015530D+02  0.2321844432D+00
      0.9286662960D+01  0.4679413484D+00
      0.3163926960D+01  0.3623119853D+00
 Atom C14      Shell    42 SP   3    bf  119 -   122          8.200246362768          5.772682856353         -1.489760286730
      0.7868272350D+01 -0.1193324198D+00  0.6899906659D-01
      0.1881288540D+01 -0.1608541517D+00  0.3164239610D+00
      0.5442492580D+00  0.1143456438D+01  0.7443082909D+00
 Atom C14      Shell    43 SP   1    bf  123 -   126          8.200246362768          5.772682856353         -1.489760286730
      0.1687144782D+00  0.1000000000D+01  0.1000000000D+01
 Atom C14      Shell    44 D   1     bf  127 -   132          8.200246362768          5.772682856353         -1.489760286730
      0.8000000000D+00  0.1000000000D+01
 Atom H15      Shell    45 S   3     bf  133 -   133          8.029228226441          5.954774863408         -3.552750608836
      0.1873113696D+02  0.3349460434D-01
      0.2825394365D+01  0.2347269535D+00
      0.6401216923D+00  0.8137573261D+00
 Atom H15      Shell    46 S   1     bf  134 -   134          8.029228226441          5.954774863408         -3.552750608836
      0.1612777588D+00  0.1000000000D+01
 Atom H16      Shell    47 S   3     bf  135 -   135         10.022736739044          6.605597752998         -0.976739420387
      0.1873113696D+02  0.3349460434D-01
      0.2825394365D+01  0.2347269535D+00
      0.6401216923D+00  0.8137573261D+00
 Atom H16      Shell    48 S   1     bf  136 -   136         10.022736739044          6.605597752998         -0.976739420387
      0.1612777588D+00  0.1000000000D+01
 Atom C17      Shell    49 S   6     bf  137 -   137          1.277127300703          7.902342603043          0.600439351586
      0.3047524880D+04  0.1834737132D-02
      0.4573695180D+03  0.1403732281D-01
      0.1039486850D+03  0.6884262226D-01
      0.2921015530D+02  0.2321844432D+00
      0.9286662960D+01  0.4679413484D+00
      0.3163926960D+01  0.3623119853D+00
 Atom C17      Shell    50 SP   3    bf  138 -   141          1.277127300703          7.902342603043          0.600439351586
      0.7868272350D+01 -0.1193324198D+00  0.6899906659D-01
      0.1881288540D+01 -0.1608541517D+00  0.3164239610D+00
      0.5442492580D+00  0.1143456438D+01  0.7443082909D+00
 Atom C17      Shell    51 SP   1    bf  142 -   145          1.277127300703          7.902342603043          0.600439351586
      0.1687144782D+00  0.1000000000D+01  0.1000000000D+01
 Atom C17      Shell    52 D   1     bf  146 -   151          1.277127300703          7.902342603043          0.600439351586
      0.8000000000D+00  0.1000000000D+01
 Atom C18      Shell    53 S   6     bf  152 -   152          5.535906540279         -0.867727620438         -1.322851038625
      0.3047524880D+04  0.1834737132D-02
      0.4573695180D+03  0.1403732281D-01
      0.1039486850D+03  0.6884262226D-01
      0.2921015530D+02  0.2321844432D+00
      0.9286662960D+01  0.4679413484D+00
      0.3163926960D+01  0.3623119853D+00
 Atom C18      Shell    54 SP   3    bf  153 -   156          5.535906540279         -0.867727620438         -1.322851038625
      0.7868272350D+01 -0.1193324198D+00  0.6899906659D-01
      0.1881288540D+01 -0.1608541517D+00  0.3164239610D+00
      0.5442492580D+00  0.1143456438D+01  0.7443082909D+00
 Atom C18      Shell    55 SP   1    bf  157 -   160          5.535906540279         -0.867727620438         -1.322851038625
      0.1687144782D+00  0.1000000000D+01  0.1000000000D+01
 Atom C18      Shell    56 D   1     bf  161 -   166          5.535906540279         -0.867727620438         -1.322851038625
      0.8000000000D+00  0.1000000000D+01
 Atom H19      Shell    57 S   3     bf  167 -   167          4.074786942819         -1.817270442471         -2.429582414227
      0.1873113696D+02  0.3349460434D-01
      0.2825394365D+01  0.2347269535D+00
      0.6401216923D+00  0.8137573261D+00
 Atom H19      Shell    58 S   1     bf  168 -   168          4.074786942819         -1.817270442471         -2.429582414227
      0.1612777588D+00  0.1000000000D+01
 Atom H20      Shell    59 S   3     bf  169 -   169          5.269938793151         -1.491661048863          0.632441617982
      0.1873113696D+02  0.3349460434D-01
      0.2825394365D+01  0.2347269535D+00
      0.6401216923D+00  0.8137573261D+00
 Atom H20      Shell    60 S   1     bf  170 -   170          5.269938793151         -1.491661048863          0.632441617982
      0.1612777588D+00  0.1000000000D+01
 Atom C21      Shell    61 S   6     bf  171 -   171          6.087942843540          7.309996891792         -0.205128033177
      0.3047524880D+04  0.1834737132D-02
      0.4573695180D+03  0.1403732281D-01
      0.1039486850D+03  0.6884262226D-01
      0.2921015530D+02  0.2321844432D+00
      0.9286662960D+01  0.4679413484D+00
      0.3163926960D+01  0.3623119853D+00
 Atom C21      Shell    62 SP   3    bf  172 -   175          6.087942843540          7.309996891792         -0.205128033177
      0.7868272350D+01 -0.1193324198D+00  0.6899906659D-01
      0.1881288540D+01 -0.1608541517D+00  0.3164239610D+00
      0.5442492580D+00  0.1143456438D+01  0.7443082909D+00
 Atom C21      Shell    63 SP   1    bf  176 -   179          6.087942843540          7.309996891792         -0.205128033177
      0.1687144782D+00  0.1000000000D+01  0.1000000000D+01
 Atom C21      Shell    64 D   1     bf  180 -   185          6.087942843540          7.309996891792         -0.205128033177
      0.8000000000D+00  0.1000000000D+01
 Atom H22      Shell    65 S   3     bf  186 -   186          6.441488965639          7.345953523505          1.834187384196
      0.1873113696D+02  0.3349460434D-01
      0.2825394365D+01  0.2347269535D+00
      0.6401216923D+00  0.8137573261D+00
 Atom H22      Shell    66 S   1     bf  187 -   187          6.441488965639          7.345953523505          1.834187384196
      0.1612777588D+00  0.1000000000D+01
 Atom H23      Shell    67 S   3     bf  188 -   188          6.229377978661          9.275004932805         -0.842002740797
      0.1873113696D+02  0.3349460434D-01
      0.2825394365D+01  0.2347269535D+00
      0.6401216923D+00  0.8137573261D+00
 Atom H23      Shell    68 S   1     bf  189 -   189          6.229377978661          9.275004932805         -0.842002740797
      0.1612777588D+00  0.1000000000D+01
 Atom C24      Shell    69 S   6     bf  190 -   190          8.246841982534         -1.457965039832         -2.273994326412
      0.3047524880D+04  0.1834737132D-02
      0.4573695180D+03  0.1403732281D-01
      0.1039486850D+03  0.6884262226D-01
      0.2921015530D+02  0.2321844432D+00
      0.9286662960D+01  0.4679413484D+00
      0.3163926960D+01  0.3623119853D+00
 Atom C24      Shell    70 SP   3    bf  191 -   194          8.246841982534         -1.457965039832         -2.273994326412
      0.7868272350D+01 -0.1193324198D+00  0.6899906659D-01
      0.1881288540D+01 -0.1608541517D+00  0.3164239610D+00
      0.5442492580D+00  0.1143456438D+01  0.7443082909D+00
 Atom C24      Shell    71 SP   1    bf  195 -   198          8.246841982534         -1.457965039832         -2.273994326412
      0.1687144782D+00  0.1000000000D+01  0.1000000000D+01
 Atom C24      Shell    72 D   1     bf  199 -   204          8.246841982534         -1.457965039832         -2.273994326412
      0.8000000000D+00  0.1000000000D+01
 Atom H25      Shell    73 S   3     bf  205 -   205          9.222038800581         -2.750338348619         -0.980763629981
      0.1873113696D+02  0.3349460434D-01
      0.2825394365D+01  0.2347269535D+00
      0.6401216923D+00  0.8137573261D+00
 Atom H25      Shell    74 S   1     bf  206 -   206          9.222038800581         -2.750338348619         -0.980763629981
      0.1612777588D+00  0.1000000000D+01
 Atom H26      Shell    75 S   3     bf  207 -   207          8.195234827961         -2.407192939005         -4.110304836815
      0.1873113696D+02  0.3349460434D-01
      0.2825394365D+01  0.2347269535D+00
      0.6401216923D+00  0.8137573261D+00
 Atom H26      Shell    76 S   1     bf  208 -   208          8.195234827961         -2.407192939005         -4.110304836815
      0.1612777588D+00  0.1000000000D+01
 Atom C27      Shell    77 S   6     bf  209 -   209          0.597408155280          2.428963377740         -1.079293629296
      0.3047524880D+04  0.1834737132D-02
      0.4573695180D+03  0.1403732281D-01
      0.1039486850D+03  0.6884262226D-01
      0.2921015530D+02  0.2321844432D+00
      0.9286662960D+01  0.4679413484D+00
      0.3163926960D+01  0.3623119853D+00
 Atom C27      Shell    78 SP   3    bf  210 -   213          0.597408155280          2.428963377740         -1.079293629296
      0.7868272350D+01 -0.1193324198D+00  0.6899906659D-01
      0.1881288540D+01 -0.1608541517D+00  0.3164239610D+00
      0.5442492580D+00  0.1143456438D+01  0.7443082909D+00
 Atom C27      Shell    79 SP   1    bf  214 -   217          0.597408155280          2.428963377740         -1.079293629296
      0.1687144782D+00  0.1000000000D+01  0.1000000000D+01
 Atom C27      Shell    80 D   1     bf  218 -   223          0.597408155280          2.428963377740         -1.079293629296
      0.8000000000D+00  0.1000000000D+01
 Atom H28      Shell    81 S   3     bf  224 -   224          0.696424286643          2.034479041281         -3.116474034084
      0.1873113696D+02  0.3349460434D-01
      0.2825394365D+01  0.2347269535D+00
      0.6401216923D+00  0.8137573261D+00
 Atom H28      Shell    82 S   1     bf  225 -   225          0.696424286643          2.034479041281         -3.116474034084
      0.1612777588D+00  0.1000000000D+01
 Atom C29      Shell    83 S   6     bf  226 -   226         12.561733691653          0.821125840166         -1.901409421394
      0.3047524880D+04  0.1834737132D-02
      0.4573695180D+03  0.1403732281D-01
      0.1039486850D+03  0.6884262226D-01
      0.2921015530D+02  0.2321844432D+00
      0.9286662960D+01  0.4679413484D+00
      0.3163926960D+01  0.3623119853D+00
 Atom C29      Shell    84 SP   3    bf  227 -   230         12.561733691653          0.821125840166         -1.901409421394
      0.7868272350D+01 -0.1193324198D+00  0.6899906659D-01
      0.1881288540D+01 -0.1608541517D+00  0.3164239610D+00
      0.5442492580D+00  0.1143456438D+01  0.7443082909D+00
 Atom C29      Shell    85 SP   1    bf  231 -   234         12.561733691653          0.821125840166         -1.901409421394
      0.1687144782D+00  0.1000000000D+01  0.1000000000D+01
 Atom C29      Shell    86 D   1     bf  235 -   240         12.561733691653          0.821125840166         -1.901409421394
      0.8000000000D+00  0.1000000000D+01
 Atom H30      Shell    87 S   3     bf  241 -   241         12.738083671367          0.000000000000          0.000000000000
      0.1873113696D+02  0.3349460434D-01
      0.2825394365D+01  0.2347269535D+00
      0.6401216923D+00  0.8137573261D+00
 Atom H30      Shell    88 S   1     bf  242 -   242         12.738083671367          0.000000000000          0.000000000000
      0.1612777588D+00  0.1000000000D+01
 Atom C31      Shell    89 S   6     bf  243 -   243          8.656810905001          2.551055124987          2.043140147477
      0.3047524880D+04  0.1834737132D-02
      0.4573695180D+03  0.1403732281D-01
      0.1039486850D+03  0.6884262226D-01
      0.2921015530D+02  0.2321844432D+00
      0.9286662960D+01  0.4679413484D+00
      0.3163926960D+01  0.3623119853D+00
 Atom C31      Shell    90 SP   3    bf  244 -   247          8.656810905001          2.551055124987          2.043140147477
      0.7868272350D+01 -0.1193324198D+00  0.6899906659D-01
      0.1881288540D+01 -0.1608541517D+00  0.3164239610D+00
      0.5442492580D+00  0.1143456438D+01  0.7443082909D+00
 Atom C31      Shell    91 SP   1    bf  248 -   251          8.656810905001          2.551055124987          2.043140147477
      0.1687144782D+00  0.1000000000D+01  0.1000000000D+01
 Atom C31      Shell    92 D   1     bf  252 -   257          8.656810905001          2.551055124987          2.043140147477
      0.8000000000D+00  0.1000000000D+01
 Atom H32      Shell    93 S   3     bf  258 -   258          7.283397163437          3.486505219898          3.270353866167
      0.1873113696D+02  0.3349460434D-01
      0.2825394365D+01  0.2347269535D+00
      0.6401216923D+00  0.8137573261D+00
 Atom H32      Shell    94 S   1     bf  259 -   259          7.283397163437          3.486505219898          3.270353866167
      0.1612777588D+00  0.1000000000D+01
 Atom H33      Shell    95 S   3     bf  260 -   260          8.666720232000          0.548567125129          2.556435496541
      0.1873113696D+02  0.3349460434D-01
      0.2825394365D+01  0.2347269535D+00
      0.6401216923D+00  0.8137573261D+00
 Atom H33      Shell    96 S   1     bf  261 -   261          8.666720232000          0.548567125129          2.556435496541
      0.1612777588D+00  0.1000000000D+01
 Atom H34      Shell    97 S   3     bf  262 -   262         10.518619074376          3.317770061712          2.519010509829
      0.1873113696D+02  0.3349460434D-01
      0.2825394365D+01  0.2347269535D+00
      0.6401216923D+00  0.8137573261D+00
 Atom H34      Shell    98 S   1     bf  263 -   263         10.518619074376          3.317770061712          2.519010509829
      0.1612777588D+00  0.1000000000D+01
 Atom C35      Shell    99 S   6     bf  264 -   264         -1.297336787858          6.630704881167          0.222419102882
      0.3047524880D+04  0.1834737132D-02
      0.4573695180D+03  0.1403732281D-01
      0.1039486850D+03  0.6884262226D-01
      0.2921015530D+02  0.2321844432D+00
      0.9286662960D+01  0.4679413484D+00
      0.3163926960D+01  0.3623119853D+00
 Atom C35      Shell   100 SP   3    bf  265 -   268         -1.297336787858          6.630704881167          0.222419102882
      0.7868272350D+01 -0.1193324198D+00  0.6899906659D-01
      0.1881288540D+01 -0.1608541517D+00  0.3164239610D+00
      0.5442492580D+00  0.1143456438D+01  0.7443082909D+00
 Atom C35      Shell   101 SP   1    bf  269 -   272         -1.297336787858          6.630704881167          0.222419102882
      0.1687144782D+00  0.1000000000D+01  0.1000000000D+01
 Atom C35      Shell   102 D   1     bf  273 -   278         -1.297336787858          6.630704881167          0.222419102882
      0.8000000000D+00  0.1000000000D+01
 Atom C36      Shell   103 S   6     bf  279 -   279          1.180972592650         10.567675665587         -0.659739808013
      0.3047524880D+04  0.1834737132D-02
      0.4573695180D+03  0.1403732281D-01
      0.1039486850D+03  0.6884262226D-01
      0.2921015530D+02  0.2321844432D+00
      0.9286662960D+01  0.4679413484D+00
      0.3163926960D+01  0.3623119853D+00
 Atom C36      Shell   104 SP   3    bf  280 -   283          1.180972592650         10.567675665587         -0.659739808013
      0.7868272350D+01 -0.1193324198D+00  0.6899906659D-01
      0.1881288540D+01 -0.1608541517D+00  0.3164239610D+00
      0.5442492580D+00  0.1143456438D+01  0.7443082909D+00
 Atom C36      Shell   105 SP   1    bf  284 -   287          1.180972592650         10.567675665587         -0.659739808013
      0.1687144782D+00  0.1000000000D+01  0.1000000000D+01
 Atom C36      Shell   106 D   1     bf  288 -   293          1.180972592650         10.567675665587         -0.659739808013
      0.8000000000D+00  0.1000000000D+01
 Atom H37      Shell   107 S   3     bf  294 -   294          1.201504788338         10.312122728301         -2.720215112506
      0.1873113696D+02  0.3349460434D-01
      0.2825394365D+01  0.2347269535D+00
      0.6401216923D+00  0.8137573261D+00
 Atom H37      Shell   108 S   1     bf  295 -   295          1.201504788338         10.312122728301         -2.720215112506
      0.1612777588D+00  0.1000000000D+01
 Atom H38      Shell   109 S   3     bf  296 -   296          2.898740129204         11.618189729640         -0.182006175694
      0.1873113696D+02  0.3349460434D-01
      0.2825394365D+01  0.2347269535D+00
      0.6401216923D+00  0.8137573261D+00
 Atom H38      Shell   110 S   1     bf  297 -   297          2.898740129204         11.618189729640         -0.182006175694
      0.1612777588D+00  0.1000000000D+01
 Atom C39      Shell   111 S   6     bf  298 -   298         -1.534229681137          4.239008660212         -0.581445997684
      0.3047524880D+04  0.1834737132D-02
[...]
 **** Fit      -0.000009
 **** Fit       0.000284
 **** Fit       0.000465
 **** Fit       0.000532
 **** Fit       0.000516
 **** Fit       0.000452
 **** Fit      -0.000112
 **** Fit      -0.000154
 **** Fit      -0.000252
 **** Fit      -0.000430
 **** Fit      -0.000695
 **** Fit      -0.001026
 **** Fit      -0.001367
 **** Fit      -0.001656
 **** Fit      -0.001847
 **** Fit      -0.001929
 **** Fit      -0.001909
 **** Fit      -0.001788
 **** Fit      -0.001555
 **** Fit      -0.001203
 **** Fit      -0.000764
 **** Fit      -0.000313
 **** Fit       0.000058
 **** Fit       0.000293
 **** Fit       0.000388
 **** Fit       0.000384
 **** Fit       0.000327
 **** Fit       0.000197
 **** Fit       0.000219
 **** Fit       0.000181
 **** Fit       0.000048
 **** Fit      -0.000203
 **** Fit      -0.000563
 **** Fit      -0.000978
 **** Fit      -0.001379
 **** Fit      -0.001712
 **** Fit      -0.001957
 **** Fit      -0.002108
 **** Fit      -0.002148
 **** Fit      -0.002035
 **** Fit      -0.001738
 **** Fit      -0.001282
 **** Fit      -0.000765
 **** Fit      -0.000317
 **** Fit      -0.000020
 **** Fit       0.000120
 **** Fit       0.000149
 **** Fit       0.000122
 **** Fit       0.000080
 **** Fit       0.000496
 **** Fit       0.000581
 **** Fit       0.000610
 **** Fit       0.000535
 **** Fit       0.000321
 **** Fit      -0.000033
 **** Fit      -0.000483
 **** Fit      -0.000963
 **** Fit      -0.001419
 **** Fit      -0.001829
 **** Fit      -0.002180
 **** Fit      -0.002433
 **** Fit      -0.002510
 **** Fit      -0.002339
 **** Fit      -0.001928
 **** Fit      -0.001386
 **** Fit      -0.000875
 **** Fit      -0.000507
 **** Fit      -0.000298
 **** Fit      -0.000205
 **** Fit      -0.000172
 **** Fit      -0.000159
 **** Fit       0.000750
 **** Fit       0.000887
 **** Fit       0.000971
 **** Fit       0.000955
 **** Fit       0.000797
 **** Fit       0.000486
 **** Fit       0.000055
 **** Fit      -0.000442
 **** Fit      -0.000964
 **** Fit      -0.001499
 **** Fit      -0.002039
 **** Fit      -0.002529
 **** Fit      -0.002856
 **** Fit      -0.002897
 **** Fit      -0.002618
 **** Fit      -0.002121
 **** Fit      -0.001585
 **** Fit      -0.001147
 **** Fit      -0.000848
 **** Fit      -0.000658
 **** Fit      -0.000535
 **** Fit      -0.000442
 **** Fit       0.000938
 **** Fit       0.001106
 **** Fit       0.001231
 **** Fit       0.001266
 **** Fit       0.001174
 **** Fit       0.000942
 **** Fit       0.000591
 **** Fit       0.000159
 **** Fit      -0.000336
 **** Fit      -0.000905
 **** Fit      -0.001565
 **** Fit      -0.002273
 **** Fit      -0.002887
 **** Fit      -0.003221
 **** Fit      -0.003176
 **** Fit      -0.002816
 **** Fit      -0.002317
 **** Fit      -0.001836
 **** Fit      -0.001445
 **** Fit      -0.001148
 **** Fit      -0.000920
 **** Fit      -0.000736
 **** Fit       0.001237
 **** Fit       0.001386
 **** Fit       0.001464
 **** Fit       0.001444
 **** Fit       0.001317
 **** Fit       0.001100
 **** Fit       0.000814
 **** Fit       0.000458
 **** Fit      -0.000015
 **** Fit      -0.000677
 **** Fit      -0.001535
 **** Fit      -0.002440
 **** Fit      -0.003130
 **** Fit      -0.003407
 **** Fit      -0.003273
 **** Fit      -0.002884
 **** Fit      -0.002413
 **** Fit      -0.001967
 **** Fit      -0.001584
 **** Fit      -0.001264
 **** Fit      -0.000998
 **** Fit       0.001294
 **** Fit       0.001455
 **** Fit       0.001569
 **** Fit       0.001621
 **** Fit       0.001610
 **** Fit       0.001553
 **** Fit       0.001466
 **** Fit       0.001334
 **** Fit       0.001070
 **** Fit       0.000528
 **** Fit      -0.000383
 **** Fit      -0.001538
 **** Fit      -0.002591
 **** Fit      -0.003228
 **** Fit      -0.003372
 **** Fit      -0.003153
 **** Fit      -0.002755
 **** Fit      -0.002310
 **** Fit      -0.001886
 **** Fit      -0.001510
 **** Fit      -0.001188
 **** Fit       0.001604
 **** Fit       0.001718
 **** Fit       0.001811
 **** Fit       0.001905
 **** Fit       0.002012
 **** Fit       0.002109
 **** Fit       0.002078
 **** Fit       0.001709
 **** Fit       0.000827
 **** Fit      -0.000478
 **** Fit      -0.001806
 **** Fit      -0.002746
 **** Fit      -0.003149
 **** Fit      -0.003116
 **** Fit      -0.002828
 **** Fit      -0.002433
 **** Fit      -0.002019
 **** Fit      -0.001630
 **** Fit       0.001742
 **** Fit       0.001909
 **** Fit       0.002105
 **** Fit       0.002342
 **** Fit       0.002583
 **** Fit       0.002699
 **** Fit       0.002453
 **** Fit       0.001641
 **** Fit       0.000329
 **** Fit      -0.001090
 **** Fit      -0.002176
 **** Fit      -0.002744
 **** Fit      -0.002859
 **** Fit      -0.002684
 **** Fit      -0.002364
 **** Fit      -0.001993
 **** Fit       0.001699
 **** Fit       0.001897
 **** Fit       0.002133
 **** Fit       0.002406
 **** Fit       0.002671
 **** Fit       0.002801
 **** Fit       0.002587
 **** Fit       0.001857
 **** Fit       0.000671
 **** Fit      -0.000636
 **** Fit      -0.001685
 **** Fit      -0.002292
 **** Fit      -0.002489
 **** Fit      -0.002402
 **** Fit      -0.002158
 **** Fit       0.001790
 **** Fit       0.002009
 **** Fit       0.002244
 **** Fit       0.002445
 **** Fit       0.002503
 **** Fit       0.002265
 **** Fit       0.001624
 **** Fit       0.000642
 **** Fit      -0.000433
 **** Fit      -0.001319
 **** Fit      -0.001867
 **** Fit      -0.002083
 **** Fit      -0.002052
 **** Fit      -0.001872
 **** Fit       0.001620
 **** Fit       0.001790
 **** Fit       0.001951
 **** Fit       0.002058
 **** Fit       0.002028
 **** Fit       0.001767
 **** Fit       0.001224
 **** Fit       0.000459
 **** Fit      -0.000359
 **** Fit      -0.001045
 **** Fit      -0.001490
 **** Fit      -0.001685
 **** Fit      -0.001683
 **** Fit       0.001534
 **** Fit       0.001622
 **** Fit       0.001646
 **** Fit       0.001555
 **** Fit       0.001296
 **** Fit       0.000854
 **** Fit       0.000280
 **** Fit      -0.000317
 **** Fit      -0.000821
 **** Fit      -0.001158
 **** Fit      -0.001317
 **** Fit      -0.001327
 **** Fit       0.001317
 **** Fit       0.001288
 **** Fit       0.001167
 **** Fit       0.000933
 **** Fit       0.000585
 **** Fit       0.000164
 **** Fit      -0.000263
 **** Fit      -0.000622
 **** Fit      -0.000868
 **** Fit      -0.000989
 **** Fit       0.001009
 **** Fit       0.000885
 **** Fit       0.000685
 **** Fit       0.000418
 **** Fit       0.000112
 **** Fit      -0.000189
 **** Fit      -0.000442
 **** Fit      -0.000240
 **** Fit      -0.000031
 **** Fit       0.000140
 **** Fit      -0.000641
 **** Fit      -0.000810
 **** Fit      -0.000989
 **** Fit      -0.001153
 **** Fit      -0.001274
 **** Fit      -0.000950
 **** Fit      -0.000724
 **** Fit      -0.000472
 **** Fit      -0.000223
 **** Fit      -0.000011
 **** Fit       0.000141
 **** Fit       0.000228
 **** Fit      -0.000242
 **** Fit      -0.000374
 **** Fit      -0.000555
 **** Fit      -0.000771
 **** Fit      -0.000993
 **** Fit      -0.001189
 **** Fit      -0.001334
 **** Fit      -0.001377
 **** Fit      -0.001244
 **** Fit      -0.001037
 **** Fit      -0.000772
 **** Fit      -0.000490
 **** Fit      -0.000237
 **** Fit      -0.000048
 **** Fit       0.000068
 **** Fit       0.000120
 **** Fit       0.000057
 **** Fit      -0.000054
 **** Fit      -0.000232
 **** Fit      -0.000468
 **** Fit      -0.000735
 **** Fit      -0.001000
 **** Fit      -0.001234
 **** Fit      -0.001546
 **** Fit      -0.001597
 **** Fit      -0.001550
 **** Fit      -0.001394
 **** Fit      -0.001143
 **** Fit      -0.000843
 **** Fit      -0.000554
 **** Fit      -0.000324
 **** Fit      -0.000171
 **** Fit      -0.000086
 **** Fit      -0.000046
 **** Fit       0.000374
 **** Fit       0.000361
 **** Fit       0.000281
 **** Fit       0.000122
 **** Fit      -0.000113
 **** Fit      -0.000402
 **** Fit      -0.000716
 **** Fit      -0.001027
 **** Fit      -0.001317
 **** Fit      -0.001568
 **** Fit      -0.001752
 **** Fit      -0.001829
 **** Fit      -0.001765
 **** Fit      -0.001563
 **** Fit      -0.001270
 **** Fit      -0.000958
 **** Fit      -0.000689
 **** Fit      -0.000490
 **** Fit      -0.000358
 **** Fit      -0.000274
 **** Fit       0.000634
 **** Fit       0.000592
 **** Fit       0.000466
 **** Fit       0.000255
 **** Fit      -0.000026
 **** Fit      -0.000355
 **** Fit      -0.000712
 **** Fit      -0.001084
 **** Fit      -0.001454
 **** Fit      -0.001784
 **** Fit      -0.002012
 **** Fit      -0.002081
 **** Fit      -0.001971
 **** Fit      -0.001722
 **** Fit      -0.001411
 **** Fit      -0.001112
 **** Fit      -0.000865
 **** Fit      -0.000678
 **** Fit      -0.000538
 **** Fit       0.000854
 **** Fit       0.000850
 **** Fit       0.000768
 **** Fit       0.000604
 **** Fit       0.000365
 **** Fit       0.000065
 **** Fit      -0.000291
 **** Fit      -0.000701
 **** Fit      -0.001158
 **** Fit      -0.001623
 **** Fit      -0.002016
 **** Fit      -0.002251
 **** Fit      -0.002276
 **** Fit      -0.002114
 **** Fit      -0.001838
 **** Fit      -0.001530
 **** Fit      -0.001245
 **** Fit      -0.001003
 **** Fit      -0.000806
 **** Fit       0.001044
 **** Fit       0.001013
 **** Fit       0.000913
 **** Fit       0.000746
 **** Fit       0.000517
 **** Fit       0.000217
 **** Fit      -0.000172
 **** Fit      -0.000664
 **** Fit      -0.001230
 **** Fit      -0.001783
 **** Fit      -0.002199
 **** Fit      -0.002392
 **** Fit      -0.002354
 **** Fit      -0.002150
 **** Fit      -0.001864
 **** Fit      -0.001563
 **** Fit      -0.001284
 **** Fit      -0.001040
 **** Fit       0.001166
 **** Fit       0.001090
 **** Fit       0.000960
 **** Fit       0.000758
 **** Fit       0.000441
 **** Fit      -0.000030
 **** Fit      -0.000650
 **** Fit      -0.001330
 **** Fit      -0.001919
 **** Fit      -0.002286
 **** Fit      -0.002393
 **** Fit      -0.002288
 **** Fit      -0.002055
 **** Fit      -0.001769
 **** Fit      -0.001478
 **** Fit       0.001352
 **** Fit       0.001362
 **** Fit       0.001335
 **** Fit       0.001240
 **** Fit       0.001018
 **** Fit       0.000603
 **** Fit      -0.000023
 **** Fit      -0.000778
 **** Fit      -0.001492
 **** Fit      -0.002005
 **** Fit      -0.002247
 **** Fit      -0.002249
 **** Fit      -0.002087
 **** Fit      -0.001840
 **** Fit      -0.001563
 **** Fit       0.001459
 **** Fit       0.001533
 **** Fit       0.001583
 **** Fit       0.001569
 **** Fit       0.001425
 **** Fit       0.001073
 **** Fit       0.000478
 **** Fit      -0.000287
 **** Fit      -0.001052
 **** Fit      -0.001647
 **** Fit      -0.001983
 **** Fit      -0.002073
 **** Fit      -0.001985
 **** Fit       0.001483
 **** Fit       0.001590
 **** Fit       0.001675
 **** Fit       0.001699
 **** Fit       0.001595
 **** Fit       0.001289
 **** Fit       0.000748
 **** Fit       0.000035
 **** Fit      -0.000700
 **** Fit      -0.001299
 **** Fit      -0.001673
 **** Fit      -0.001819
 **** Fit      -0.001789
 **** Fit       0.001542
 **** Fit       0.001626
 **** Fit       0.001648
 **** Fit       0.001550
 **** Fit       0.001274
 **** Fit       0.000799
 **** Fit       0.000179
 **** Fit      -0.000466
 **** Fit      -0.001008
 **** Fit      -0.001368
 **** Fit      -0.001535
 **** Fit      -0.001542
 **** Fit       0.001421
 **** Fit       0.001480
 **** Fit       0.001478
 **** Fit       0.001372
 **** Fit       0.001121
 **** Fit       0.000717
 **** Fit       0.000206
 **** Fit      -0.000324
 **** Fit      -0.000777
 **** Fit      -0.001091
 **** Fit      -0.001251
 **** Fit       0.001291
 **** Fit       0.001262
 **** Fit       0.001146
 **** Fit       0.000921
 **** Fit       0.000588
 **** Fit       0.000182
 **** Fit      -0.000233
 **** Fit      -0.000591
 **** Fit      -0.000846
 **** Fit       0.001049
 **** Fit       0.000932
 **** Fit       0.000737
 **** Fit       0.000469
 **** Fit       0.000155
 **** Fit      -0.000161
 **** Fit      -0.000434
 **** Fit       0.000382
 **** Fit      -0.000697
 **** Fit      -0.000517
 **** Fit      -0.000345
 **** Fit      -0.000201
 **** Fit      -0.001091
 **** Fit      -0.000949
 **** Fit      -0.000769
 **** Fit      -0.000582
 **** Fit      -0.000417
 **** Fit      -0.000288
 **** Fit      -0.001268
 **** Fit      -0.001333
 **** Fit      -0.001314
 **** Fit      -0.001213
 **** Fit      -0.001049
 **** Fit      -0.000859
 **** Fit      -0.000676
 **** Fit      -0.000521
 **** Fit      -0.000530
 **** Fit      -0.000789
 **** Fit      -0.001042
 **** Fit      -0.001265
 **** Fit      -0.001424
 **** Fit      -0.001490
 **** Fit      -0.001451
 **** Fit      -0.001325
 **** Fit      -0.001146
 **** Fit      -0.000953
 **** Fit      -0.000775
 **** Fit       0.000013
 **** Fit      -0.000241
 **** Fit      -0.000531
 **** Fit      -0.000844
 **** Fit      -0.001150
 **** Fit      -0.001408
 **** Fit      -0.001573
 **** Fit      -0.001618
 **** Fit      -0.001549
 **** Fit      -0.001401
 **** Fit      -0.001213
 **** Fit      -0.001020
 **** Fit       0.000329
 **** Fit       0.000095
 **** Fit      -0.000196
 **** Fit      -0.000542
 **** Fit      -0.000914
 **** Fit      -0.001264
 **** Fit      -0.001531
 **** Fit      -0.001672
 **** Fit      -0.001679
 **** Fit      -0.001579
 **** Fit      -0.001413
 **** Fit      -0.001220
 **** Fit       0.000765
 **** Fit       0.000636
 **** Fit       0.000446
 **** Fit       0.000179
 **** Fit      -0.000170
 **** Fit      -0.000583
 **** Fit      -0.001006
 **** Fit      -0.001365
 **** Fit      -0.001601
 **** Fit      -0.001691
 **** Fit      -0.001652
 **** Fit      -0.001523
 **** Fit       0.000974
 **** Fit       0.000899
 **** Fit       0.000761
 **** Fit       0.000535
 **** Fit       0.000204
 **** Fit      -0.000221
 **** Fit      -0.000687
 **** Fit      -0.001115
 **** Fit      -0.001429
 **** Fit      -0.001595
 **** Fit      -0.001620
 **** Fit       0.001116
 **** Fit       0.001087
 **** Fit       0.000995
 **** Fit       0.000810
 **** Fit       0.000509
 **** Fit       0.000096
 **** Fit      -0.000381
 **** Fit      -0.000840
 **** Fit      -0.001202
 **** Fit      -0.001423
 **** Fit      -0.001501
 **** Fit       0.001182
 **** Fit       0.001180
 **** Fit       0.001118
 **** Fit       0.000965
 **** Fit       0.000695
 **** Fit       0.000312
 **** Fit      -0.000142
 **** Fit      -0.000594
 **** Fit      -0.000967
 **** Fit      -0.001214
 **** Fit      -0.001328
 **** Fit       0.001185
 **** Fit       0.001135
 **** Fit       0.001001
 **** Fit       0.000761
 **** Fit       0.000418
 **** Fit       0.000009
 **** Fit      -0.000404
 **** Fit      -0.000755
 **** Fit      -0.001000
 **** Fit       0.001072
 **** Fit       0.000949
 **** Fit       0.000736
 **** Fit       0.000440
 **** Fit       0.000088
 **** Fit      -0.000268
 **** Fit      -0.000576
 **** Fit      -0.000799
 **** Fit       0.000850
 **** Fit       0.000664
 **** Fit       0.000414
 **** Fit       0.000123
 **** Fit      -0.000170
 **** Fit      -0.000620
 **** Fit      -0.000828
 **** Fit      -0.001002
 **** Fit      -0.000182
 **** Fit      -0.000424
 **** Fit      -0.000674
 **** Fit      -0.000905
 **** Fit      -0.001084
 **** Fit       0.000268
 **** Fit       0.000061
 **** Fit      -0.000190
 **** Fit      -0.000468
 **** Fit      -0.000743
 **** Fit      -0.000976
 **** Fit      -0.001137
 **** Fit       0.000484
 **** Fit       0.000295
 **** Fit       0.000048
 **** Fit      -0.000242
 **** Fit      -0.000545
 **** Fit      -0.000818
 **** Fit      -0.001025
 **** Fit       0.000653
 **** Fit       0.000485
 **** Fit       0.000253
 **** Fit      -0.000034
 **** Fit      -0.000346
 **** Fit      -0.000639
 **** Fit      -0.000875
 **** Fit       0.000759
 **** Fit       0.000612
 **** Fit       0.000399
 **** Fit       0.000127
 **** Fit      -0.000175
 **** Fit      -0.000469
 **** Fit      -0.000714
 **** Fit       0.000671
 **** Fit       0.000478
 **** Fit       0.000231
 **** Fit      -0.000048
 **** Fit      -0.000324
 **** Fit       0.000283
 -----------------------------------------------------------------
 Leave Link  602 at Wed May 17 11:49:31 2017, MaxMem=    33554432 cpu:        37.0
 (Enter /home/michal/g09/l9999.exe)

 Test job not archived.
 1\1\GINC-LINUX\SP\RHF\6-31G(d)\C27H46O2\MICHAL\17-May-2017\0\\#P HF/6-
 31G* SCF(Conver=6) NoSymm Test Pop=chelpg IOp(6/33=2) GFInput GFPrint\
 \MEP - Input generated by R.E.D.-III.x MOLECULE\\0,1\O,0,0.,0.,0.\H,0,
 -0.23149839,0.13660065,0.92953928\O,0,-3.06332559,6.47661224,0.\H,0,-3
 .06473973,6.67760749,0.94644603\C,0,4.26831344,1.55998627,-0.41852571\
 C,0,2.83951414,1.0717623,-0.79662359\H,0,2.73191567,1.31001288,-1.8692
 9485\C,0,1.68499997,1.81226402,-0.09816275\H,0,1.7383402,1.63845714,0.
 98665586\C,0,1.79619364,3.33634349,-0.3826175\H,0,1.61844013,3.4499640
 8,-1.46476219\C,0,5.13285945,0.59143869,-1.29870539\H,0,5.0446969,0.96
 041312,-2.3332185\C,0,4.33938348,3.0547722,-0.78834719\H,0,4.24888458,
 3.15113114,-1.88003465\H,0,5.30380385,3.49553178,-0.51686824\C,0,0.675
 82666,4.1817396,0.31773882\C,0,2.92947557,-0.45918168,-0.70002262\H,0,
 2.15628438,-0.9616581,-1.28567964\H,0,2.7887315,-0.78935303,0.33467369
 \C,0,3.2216006,3.86828375,-0.10854908\H,0,3.40868915,3.88731118,0.9706
 1016\H,0,3.29644485,4.90812122,-0.44556866\C,0,4.36404082,-0.77152187,
 -1.20334597\H,0,4.88009275,-1.45541637,-0.51899776\H,0,4.33673149,-1.2
 7383164,-2.17507964\C,0,0.31613478,1.28535206,-0.57113759\H,0,0.368531
 86,1.07659994,-1.64916703\C,0,6.64738317,0.43452108,-1.00618253\H,0,6.
 74070356,0.,0.\C,0,4.58098703,1.34996023,1.0811832\H,0,3.85420778,1.84
 49791,1.73059673\H,0,4.58623082,0.29028922,1.3528074\H,0,5.56621348,1.
 7556883,1.33300295\C,0,-0.68652106,3.5088179,0.11769912\C,0,0.62494378
 ,5.59217311,-0.34911927\H,0,0.63580895,5.45694032,-1.43947584\H,0,1.53
 394721,6.14808121,-0.09631352\C,0,-0.81187938,2.24318677,-0.30768797\H
 ,0,-1.8061342,1.82483411,-0.46423314\C,0,0.93823612,4.33701896,1.83976
 165\H,0,1.8119586,4.96739306,2.03158044\H,0,0.08904888,4.80029696,2.34
 885659\H,0,1.10707599,3.36541624,2.31415453\C,0,-1.92031435,4.34119008
 ,0.41220867\H,0,-2.82429733,3.79034206,0.13453971\H,0,-1.98835373,4.53
 537125,1.49494091\C,0,-0.60215997,6.44060325,0.01870352\H,0,-0.5887194
 7,6.69322856,1.08940016\H,0,-0.57746808,7.39041429,-0.52746332\C,0,7.3
 0430305,-0.56515158,-2.00871568\H,0,6.5268976,-1.08814525,-2.57501679\
 H,0,7.8756015,0.00065882,-2.75701183\C,0,-1.90055013,5.70081163,-0.301
 94407\H,0,-1.9623497,5.53530805,-1.38445705\C,0,7.41645274,1.7684765,-
 1.01380274\H,0,7.25982942,2.30423452,-1.95838082\H,0,8.4922536,1.59712
 081,-0.91015788\H,0,7.11438414,2.43183045,-0.19945241\C,0,8.20057406,-
 1.64635659,-1.37023084\H,0,7.59754008,-2.19814833,-0.63593975\H,0,8.46
 611034,-2.37967359,-2.14257576\C,0,9.48287005,-1.16293635,-0.66715499\
 H,0,9.92935513,-2.01825981,-0.13856007\H,0,9.21560516,-0.43981639,0.11
 538205\C,0,10.57218402,-0.53982576,-1.56660651\H,0,10.12513887,0.29287
 555,-2.12814402\C,0,11.13468258,-1.54211855,-2.58767868\H,0,11.5809881
 5,-2.40658863,-2.07894624\H,0,11.91598639,-1.07835129,-3.20054081\H,0,
 10.36358203,-1.91733368,-3.26798521\C,0,11.70512436,0.03998538,-0.7043
 3468\H,0,12.19098938,-0.74909006,-0.11598859\H,0,12.47520402,0.5138334
 9,-1.32374412\H,0,11.32886552,0.79305816,-0.00225634\\Version=EM64L-G0
 9RevD.01\HF=-1198.9222807\RMSD=4.809e-07\Dipole=0.5290986,0.486036,0.7
 439728\Quadrupole=-5.1110312,-0.1821972,5.2932284,7.7411366,-3.7845431
 ,5.932864\PG=C01 [X(C27H46O2)]\\@


 WE STILL HAVE JUDGEMENT HERE,
 THAT WE TEACH BUT BLOODY INSTRUCTIONS,
 WHICH, BEING TAUGHT,
 RETURN TO PLAGUE THE INVENTOR.
           MACBETH ACT I, SCENE VII
 Job cpu time:       0 days  0 hours 11 minutes 25.1 seconds.
 File lengths (MBytes):  RWF=    150 Int=      0 D2E=      0 Chk=     11 Scr=      1
 Normal termination of Gaussian 09 at Wed May 17 11:49:31 2017.
