 Entering Gaussian System, Link 0=/home/michal/g09/g09
 Input=JOB2-gau_m1-15-4.com
 Output=JOB2-gau_m1-15-4.log
 Initial command:
 /home/michal/g09/l1.exe "/home/michal/gauss_scratch/Gau-4629.inp" -scrdir="/home/michal/gauss_scratch/"
 Entering Link 1 = /home/michal/g09/l1.exe PID=      4630.
  
 Copyright (c) 1988,1990,1992,1993,1995,1998,2003,2009,2013,
            Gaussian, Inc.  All Rights Reserved.
  
 This is part of the Gaussian(R) 09 program.  It is based on
 the Gaussian(R) 03 system (copyright 2003, Gaussian, Inc.),
 the Gaussian(R) 98 system (copyright 1998, Gaussian, Inc.),
 the Gaussian(R) 94 system (copyright 1995, Gaussian, Inc.),
 the Gaussian 92(TM) system (copyright 1992, Gaussian, Inc.),
 the Gaussian 90(TM) system (copyright 1990, Gaussian, Inc.),
 the Gaussian 88(TM) system (copyright 1988, Gaussian, Inc.),
 the Gaussian 86(TM) system (copyright 1986, Carnegie Mellon
 University), and the Gaussian 82(TM) system (copyright 1983,
 Carnegie Mellon University). Gaussian is a federally registered
 trademark of Gaussian, Inc.
  
 This software contains proprietary and confidential information,
 including trade secrets, belonging to Gaussian, Inc.
  
 This software is provided under written license and may be
 used, copied, transmitted, or stored only in accord with that
 written license.
  
 The following legend is applicable only to US Government
 contracts under FAR:
  
                    RESTRICTED RIGHTS LEGEND
  
 Use, reproduction and disclosure by the US Government is
 subject to restrictions as set forth in subparagraphs (a)
 and (c) of the Commercial Computer Software - Restricted
 Rights clause in FAR 52.227-19.
  
 Gaussian, Inc.
 340 Quinnipiac St., Bldg. 40, Wallingford CT 06492
  
  
 ---------------------------------------------------------------
 Warning -- This program may not be used in any manner that
 competes with the business of Gaussian, Inc. or will provide
 assistance to any competitor of Gaussian, Inc.  The licensee
 of this program is prohibited from giving any competitor of
 Gaussian, Inc. access to this program.  By using this program,
 the user acknowledges that Gaussian, Inc. is engaged in the
 business of creating and licensing software in the field of
 computational chemistry and represents and warrants to the
 licensee that it is not a competitor of Gaussian, Inc. and that
 it will not use this program in any manner prohibited above.
 ---------------------------------------------------------------
  

 Cite this work as:
 Gaussian 09, Revision D.01,
 M. J. Frisch, G. W. Trucks, H. B. Schlegel, G. E. Scuseria, 
 M. A. Robb, J. R. Cheeseman, G. Scalmani, V. Barone, B. Mennucci, 
 G. A. Petersson, H. Nakatsuji, M. Caricato, X. Li, H. P. Hratchian, 
 A. F. Izmaylov, J. Bloino, G. Zheng, J. L. Sonnenberg, M. Hada, 
 M. Ehara, K. Toyota, R. Fukuda, J. Hasegawa, M. Ishida, T. Nakajima, 
 Y. Honda, O. Kitao, H. Nakai, T. Vreven, J. A. Montgomery, Jr., 
 J. E. Peralta, F. Ogliaro, M. Bearpark, J. J. Heyd, E. Brothers, 
 K. N. Kudin, V. N. Staroverov, T. Keith, R. Kobayashi, J. Normand, 
 K. Raghavachari, A. Rendell, J. C. Burant, S. S. Iyengar, J. Tomasi, 
 M. Cossi, N. Rega, J. M. Millam, M. Klene, J. E. Knox, J. B. Cross, 
 V. Bakken, C. Adamo, J. Jaramillo, R. Gomperts, R. E. Stratmann, 
 O. Yazyev, A. J. Austin, R. Cammi, C. Pomelli, J. W. Ochterski, 
 R. L. Martin, K. Morokuma, V. G. Zakrzewski, G. A. Voth, 
 P. Salvador, J. J. Dannenberg, S. Dapprich, A. D. Daniels, 
 O. Farkas, J. B. Foresman, J. V. Ortiz, J. Cioslowski, 
 and D. J. Fox, Gaussian, Inc., Wallingford CT, 2013.
 
 ******************************************
 Gaussian 09:  EM64L-G09RevD.01 24-Apr-2013
                17-May-2017 
 ******************************************
 %Mem=256MB
 %NProc=12
 Will use up to   12 processors via shared memory.
 ----------------------------------------------------------------------
 #P HF/6-31G* SCF(Conver=6) NoSymm Test Pop=chelpg IOp(6/33=2) GFInput 
 GFPrint
 ----------------------------------------------------------------------
 1/38=1/1;
 2/12=2,15=1,17=6,18=5,40=1/2;
 3/5=1,6=6,7=1,11=9,16=1,24=110,25=1,30=1/1,2,3;
 4//1;
 5/5=2,6=6,38=5/2;
 6/7=2,8=2,9=2,10=2,15=8,20=3,28=1,33=2/1,2;
 99/5=1,9=1/99;
 Leave Link    1 at Wed May 17 12:28:37 2017, MaxMem=    33554432 cpu:         0.6
 (Enter /home/michal/g09/l101.exe)
 ----------------------------------------------
 MEP - Input generated by R.E.D.-III.x MOLECULE
 ----------------------------------------------
 Symbolic Z-matrix:
 Charge =  0 Multiplicity = 1
 O                     0.        0.        0. 
 H                    -0.48203  -0.00004   0.83903 
 O                    -3.24709   6.38607   0. 
 H                    -3.51657   6.4552    0.92669 
 C                     4.14066   1.6483    1.00164 
 C                     2.89216   1.19069   0.18902 
 H                     3.06547   1.56243  -0.83539 
 C                     1.55726   1.82192   0.62322 
 H                     1.31074   1.50312   1.64644 
 C                     1.67411   3.3725    0.57958 
 H                     1.79466   3.6304   -0.4856 
 C                     5.24002   0.81537   0.25491 
 H                     5.29293   1.27381  -0.74245 
 C                     4.24031   3.17776   0.85547 
 H                     4.44002   3.42416  -0.1968 
 H                     5.07817   3.58053   1.43678 
 C                     0.36621   4.10435   1.04326 
 C                     3.02824  -0.34265   0.12558 
 H                     2.49041  -0.77189  -0.72284 
 H                     2.59989  -0.80455   1.02142 
 C                     2.94379   3.87866   1.30362 
 H                     2.83066   3.75102   2.38547 
 H                     3.05547   4.95568   1.13668 
 C                     4.56337  -0.57664   0.05013 
 H                     4.88471  -1.29048   0.81568 
 H                     4.86475  -1.00559  -0.91209 
 C                     0.39984   1.35597  -0.28138 
 H                     0.75827   1.30318  -1.31927 
 C                     6.72125   0.70697   0.7185 
 H                     7.16328   0.        0. 
 C                     4.02349   1.26323   2.49501 
 H                     3.07455   1.58907   2.92903 
 H                     4.09319   0.18382   2.65012 
 H                     4.81997   1.73258   3.07964 
 C                    -0.85642   3.45282   0.38752 
 C                     0.43359   5.59207   0.57519 
 H                     0.74846   5.60678  -0.47739 
 H                     1.21165   6.1171    1.13926 
 C                    -0.80103   2.25759  -0.21812 
 H                    -1.69366   1.8563   -0.69797 
 C                     0.1946    4.05323   2.58512 
 H                     0.95249   4.65928   3.09094 
 H                    -0.7819    4.43529   2.89385 
 H                     0.27197   3.0277    2.95904 
 C                    -2.16149   4.22508   0.43405 
 H                    -2.92837   3.70877  -0.15164 
 H                    -2.53153   4.26853   1.47126 
 C                    -0.88562   6.37084   0.69435 
 H                    -1.17696   6.47536   1.7501 
 H                    -0.75698   7.3864    0.30301 
 C                     7.5334    2.02058   0.60363 
 H                     7.12653   2.75584   1.30969 
 H                     8.55302   1.80747   0.95644 
 C                    -2.01115   5.66963  -0.06552 
 H                    -1.76734   5.65285  -1.13478 
 C                     6.97239   0.09027   2.10957 
 H                     6.76838   0.79893   2.91771 
 H                     8.02483  -0.20311   2.19609 
 H                     6.3702   -0.80495   2.2897 
 C                     7.64382   2.6752   -0.78737 
 H                     6.64975   2.96251  -1.14815 
 H                     8.19938   3.61349  -0.66357 
 C                     8.34923   1.80119  -1.83788 
 H                     7.75442   0.89567  -2.01692 
 H                     9.30724   1.45658  -1.42114 
 C                     8.62733   2.46568  -3.20742 
 H                     9.1114    1.69337  -3.82336 
 C                     9.61101   3.64373  -3.10995 
 H                     9.17936   4.48947  -2.56243 
 H                     9.8827    4.00677  -4.10777 
 H                     10.53531   3.3504   -2.59843 
 C                     7.33855   2.88151  -3.936 
 H                     6.82532   3.6977   -3.41446 
 H                     7.55976   3.23081  -4.95102 
 H                     6.63733   2.0426   -4.01746 
 
 NAtoms=     75 NQM=       75 NQMF=       0 NMMI=      0 NMMIF=      0
                NMic=       0 NMicF=      0.
                    Isotopes and Nuclear Properties:
 (Nuclear quadrupole moments (NQMom) in fm**2, nuclear magnetic moments (NMagM)
  in nuclear magnetons)

  Atom         1           2           3           4           5           6           7           8           9          10
 IAtWgt=          16           1          16           1          12          12           1          12           1          12
 AtmWgt=  15.9949146   1.0078250  15.9949146   1.0078250  12.0000000  12.0000000   1.0078250  12.0000000   1.0078250  12.0000000
 NucSpn=           0           1           0           1           0           0           1           0           1           0
 AtZEff=   0.0000000   0.0000000   0.0000000   0.0000000   0.0000000   0.0000000   0.0000000   0.0000000   0.0000000   0.0000000
 NQMom=    0.0000000   0.0000000   0.0000000   0.0000000   0.0000000   0.0000000   0.0000000   0.0000000   0.0000000   0.0000000
 NMagM=    0.0000000   2.7928460   0.0000000   2.7928460   0.0000000   0.0000000   2.7928460   0.0000000   2.7928460   0.0000000
 AtZNuc=   8.0000000   1.0000000   8.0000000   1.0000000   6.0000000   6.0000000   1.0000000   6.0000000   1.0000000   6.0000000

  Atom        11          12          13          14          15          16          17          18          19          20
 IAtWgt=           1          12           1          12           1           1          12          12           1           1
 AtmWgt=   1.0078250  12.0000000   1.0078250  12.0000000   1.0078250   1.0078250  12.0000000  12.0000000   1.0078250   1.0078250
 NucSpn=           1           0           1           0           1           1           0           0           1           1
 AtZEff=   0.0000000   0.0000000   0.0000000   0.0000000   0.0000000   0.0000000   0.0000000   0.0000000   0.0000000   0.0000000
 NQMom=    0.0000000   0.0000000   0.0000000   0.0000000   0.0000000   0.0000000   0.0000000   0.0000000   0.0000000   0.0000000
 NMagM=    2.7928460   0.0000000   2.7928460   0.0000000   2.7928460   2.7928460   0.0000000   0.0000000   2.7928460   2.7928460
 AtZNuc=   1.0000000   6.0000000   1.0000000   6.0000000   1.0000000   1.0000000   6.0000000   6.0000000   1.0000000   1.0000000

  Atom        21          22          23          24          25          26          27          28          29          30
 IAtWgt=          12           1           1          12           1           1          12           1          12           1
 AtmWgt=  12.0000000   1.0078250   1.0078250  12.0000000   1.0078250   1.0078250  12.0000000   1.0078250  12.0000000   1.0078250
 NucSpn=           0           1           1           0           1           1           0           1           0           1
 AtZEff=   0.0000000   0.0000000   0.0000000   0.0000000   0.0000000   0.0000000   0.0000000   0.0000000   0.0000000   0.0000000
 NQMom=    0.0000000   0.0000000   0.0000000   0.0000000   0.0000000   0.0000000   0.0000000   0.0000000   0.0000000   0.0000000
 NMagM=    0.0000000   2.7928460   2.7928460   0.0000000   2.7928460   2.7928460   0.0000000   2.7928460   0.0000000   2.7928460
 AtZNuc=   6.0000000   1.0000000   1.0000000   6.0000000   1.0000000   1.0000000   6.0000000   1.0000000   6.0000000   1.0000000

  Atom        31          32          33          34          35          36          37          38          39          40
 IAtWgt=          12           1           1           1          12          12           1           1          12           1
 AtmWgt=  12.0000000   1.0078250   1.0078250   1.0078250  12.0000000  12.0000000   1.0078250   1.0078250  12.0000000   1.0078250
 NucSpn=           0           1           1           1           0           0           1           1           0           1
 AtZEff=   0.0000000   0.0000000   0.0000000   0.0000000   0.0000000   0.0000000   0.0000000   0.0000000   0.0000000   0.0000000
 NQMom=    0.0000000   0.0000000   0.0000000   0.0000000   0.0000000   0.0000000   0.0000000   0.0000000   0.0000000   0.0000000
 NMagM=    0.0000000   2.7928460   2.7928460   2.7928460   0.0000000   0.0000000   2.7928460   2.7928460   0.0000000   2.7928460
 AtZNuc=   6.0000000   1.0000000   1.0000000   1.0000000   6.0000000   6.0000000   1.0000000   1.0000000   6.0000000   1.0000000

  Atom        41          42          43          44          45          46          47          48          49          50
 IAtWgt=          12           1           1           1          12           1           1          12           1           1
 AtmWgt=  12.0000000   1.0078250   1.0078250   1.0078250  12.0000000   1.0078250   1.0078250  12.0000000   1.0078250   1.0078250
 NucSpn=           0           1           1           1           0           1           1           0           1           1
 AtZEff=   0.0000000   0.0000000   0.0000000   0.0000000   0.0000000   0.0000000   0.0000000   0.0000000   0.0000000   0.0000000
 NQMom=    0.0000000   0.0000000   0.0000000   0.0000000   0.0000000   0.0000000   0.0000000   0.0000000   0.0000000   0.0000000
 NMagM=    0.0000000   2.7928460   2.7928460   2.7928460   0.0000000   2.7928460   2.7928460   0.0000000   2.7928460   2.7928460
 AtZNuc=   6.0000000   1.0000000   1.0000000   1.0000000   6.0000000   1.0000000   1.0000000   6.0000000   1.0000000   1.0000000

  Atom        51          52          53          54          55          56          57          58          59          60
 IAtWgt=          12           1           1          12           1          12           1           1           1          12
 AtmWgt=  12.0000000   1.0078250   1.0078250  12.0000000   1.0078250  12.0000000   1.0078250   1.0078250   1.0078250  12.0000000
 NucSpn=           0           1           1           0           1           0           1           1           1           0
 AtZEff=   0.0000000   0.0000000   0.0000000   0.0000000   0.0000000   0.0000000   0.0000000   0.0000000   0.0000000   0.0000000
 NQMom=    0.0000000   0.0000000   0.0000000   0.0000000   0.0000000   0.0000000   0.0000000   0.0000000   0.0000000   0.0000000
 NMagM=    0.0000000   2.7928460   2.7928460   0.0000000   2.7928460   0.0000000   2.7928460   2.7928460   2.7928460   0.0000000
 AtZNuc=   6.0000000   1.0000000   1.0000000   6.0000000   1.0000000   6.0000000   1.0000000   1.0000000   1.0000000   6.0000000

  Atom        61          62          63          64          65          66          67          68          69          70
 IAtWgt=           1           1          12           1           1          12           1          12           1           1
 AtmWgt=   1.0078250   1.0078250  12.0000000   1.0078250   1.0078250  12.0000000   1.0078250  12.0000000   1.0078250   1.0078250
 NucSpn=           1           1           0           1           1           0           1           0           1           1
 AtZEff=   0.0000000   0.0000000   0.0000000   0.0000000   0.0000000   0.0000000   0.0000000   0.0000000   0.0000000   0.0000000
 NQMom=    0.0000000   0.0000000   0.0000000   0.0000000   0.0000000   0.0000000   0.0000000   0.0000000   0.0000000   0.0000000
 NMagM=    2.7928460   2.7928460   0.0000000   2.7928460   2.7928460   0.0000000   2.7928460   0.0000000   2.7928460   2.7928460
 AtZNuc=   1.0000000   1.0000000   6.0000000   1.0000000   1.0000000   6.0000000   1.0000000   6.0000000   1.0000000   1.0000000

  Atom        71          72          73          74          75
 IAtWgt=           1          12           1           1           1
 AtmWgt=   1.0078250  12.0000000   1.0078250   1.0078250   1.0078250
 NucSpn=           1           0           1           1           1
 AtZEff=   0.0000000   0.0000000   0.0000000   0.0000000   0.0000000
 NQMom=    0.0000000   0.0000000   0.0000000   0.0000000   0.0000000
 NMagM=    2.7928460   0.0000000   2.7928460   2.7928460   2.7928460
 AtZNuc=   1.0000000   6.0000000   1.0000000   1.0000000   1.0000000
 Leave Link  101 at Wed May 17 12:28:37 2017, MaxMem=    33554432 cpu:         1.0
 (Enter /home/michal/g09/l202.exe)
 Symmetry turned off by external request.
 Stoichiometry    C27H46O2
 Framework group  C1[X(C27H46O2)]
 Deg. of freedom   219
 Full point group                 C1      NOp   1
                          Input orientation:                          
 ---------------------------------------------------------------------
 Center     Atomic      Atomic             Coordinates (Angstroms)
 Number     Number       Type             X           Y           Z
 ---------------------------------------------------------------------
      1          8           0        0.000000    0.000000    0.000000
      2          1           0       -0.482030   -0.000041    0.839025
      3          8           0       -3.247085    6.386070    0.000000
      4          1           0       -3.516573    6.455204    0.926693
      5          6           0        4.140657    1.648303    1.001640
      6          6           0        2.892160    1.190694    0.189023
      7          1           0        3.065468    1.562426   -0.835387
      8          6           0        1.557262    1.821922    0.623221
      9          1           0        1.310741    1.503123    1.646437
     10          6           0        1.674113    3.372503    0.579579
     11          1           0        1.794656    3.630396   -0.485597
     12          6           0        5.240023    0.815367    0.254907
     13          1           0        5.292929    1.273807   -0.742447
     14          6           0        4.240314    3.177763    0.855469
     15          1           0        4.440018    3.424156   -0.196800
     16          1           0        5.078171    3.580532    1.436778
     17          6           0        0.366211    4.104350    1.043256
     18          6           0        3.028240   -0.342649    0.125582
     19          1           0        2.490412   -0.771889   -0.722837
     20          1           0        2.599888   -0.804552    1.021418
     21          6           0        2.943789    3.878657    1.303624
     22          1           0        2.830663    3.751020    2.385468
     23          1           0        3.055474    4.955680    1.136676
     24          6           0        4.563369   -0.576638    0.050129
     25          1           0        4.884709   -1.290484    0.815680
     26          1           0        4.864752   -1.005588   -0.912087
     27          6           0        0.399839    1.355965   -0.281381
     28          1           0        0.758267    1.303179   -1.319270
     29          6           0        6.721254    0.706973    0.718503
     30          1           0        7.163285    0.000000    0.000000
     31          6           0        4.023486    1.263229    2.495008
     32          1           0        3.074546    1.589067    2.929028
     33          1           0        4.093195    0.183821    2.650118
     34          1           0        4.819969    1.732575    3.079635
     35          6           0       -0.856424    3.452824    0.387523
     36          6           0        0.433594    5.592072    0.575193
     37          1           0        0.748457    5.606779   -0.477390
     38          1           0        1.211645    6.117099    1.139261
     39          6           0       -0.801031    2.257588   -0.218124
     40          1           0       -1.693661    1.856303   -0.697966
     41          6           0        0.194598    4.053234    2.585125
     42          1           0        0.952491    4.659282    3.090945
     43          1           0       -0.781899    4.435291    2.893853
     44          1           0        0.271966    3.027705    2.959043
     45          6           0       -2.161494    4.225085    0.434045
     46          1           0       -2.928369    3.708774   -0.151638
     47          1           0       -2.531534    4.268528    1.471260
     48          6           0       -0.885619    6.370845    0.694351
     49          1           0       -1.176963    6.475365    1.750095
     50          1           0       -0.756975    7.386396    0.303006
     51          6           0        7.533401    2.020579    0.603631
     52          1           0        7.126534    2.755837    1.309691
     53          1           0        8.553023    1.807474    0.956437
     54          6           0       -2.011146    5.669633   -0.065516
     55          1           0       -1.767341    5.652850   -1.134776
     56          6           0        6.972388    0.090274    2.109567
     57          1           0        6.768376    0.798929    2.917714
     58          1           0        8.024829   -0.203105    2.196092
     59          1           0        6.370201   -0.804953    2.289702
     60          6           0        7.643820    2.675196   -0.787374
     61          1           0        6.649749    2.962510   -1.148147
     62          1           0        8.199376    3.613489   -0.663572
     63          6           0        8.349232    1.801195   -1.837878
     64          1           0        7.754416    0.895674   -2.016922
     65          1           0        9.307236    1.456576   -1.421138
     66          6           0        8.627329    2.465685   -3.207422
     67          1           0        9.111395    1.693369   -3.823364
     68          6           0        9.611007    3.643733   -3.109952
     69          1           0        9.179357    4.489469   -2.562431
     70          1           0        9.882702    4.006768   -4.107770
     71          1           0       10.535312    3.350400   -2.598432
     72          6           0        7.338549    2.881505   -3.936000
     73          1           0        6.825324    3.697701   -3.414464
     74          1           0        7.559759    3.230805   -4.951016
     75          1           0        6.637329    2.042598   -4.017457
 ---------------------------------------------------------------------
 Rotational constants (GHZ):      0.2587008      0.0754491      0.0681495
 Leave Link  202 at Wed May 17 12:28:37 2017, MaxMem=    33554432 cpu:         0.0
 (Enter /home/michal/g09/l301.exe)
 Standard basis: 6-31G(d) (6D, 7F)
 Ernie: Thresh=  0.10000D-02 Tol=  0.10000D-05 Strict=F.
 AO basis set in the form of general basis input (Overlap normalization):
      1 0
 S   6 1.00       0.000000000000
      0.5484671660D+04  0.1831074430D-02
      0.8252349460D+03  0.1395017220D-01
      0.1880469580D+03  0.6844507810D-01
      0.5296450000D+02  0.2327143360D+00
      0.1689757040D+02  0.4701928980D+00
      0.5799635340D+01  0.3585208530D+00
 SP   3 1.00       0.000000000000
      0.1553961625D+02 -0.1107775495D+00  0.7087426823D-01
      0.3599933586D+01 -0.1480262627D+00  0.3397528391D+00
      0.1013761750D+01  0.1130767015D+01  0.7271585773D+00
 SP   1 1.00       0.000000000000
      0.2700058226D+00  0.1000000000D+01  0.1000000000D+01
 D   1 1.00       0.000000000000
      0.8000000000D+00  0.1000000000D+01
 ****
      2 0
 S   3 1.00       0.000000000000
      0.1873113696D+02  0.3349460434D-01
      0.2825394365D+01  0.2347269535D+00
      0.6401216923D+00  0.8137573261D+00
 S   1 1.00       0.000000000000
      0.1612777588D+00  0.1000000000D+01
 ****
      3 0
 S   6 1.00       0.000000000000
      0.5484671660D+04  0.1831074430D-02
      0.8252349460D+03  0.1395017220D-01
      0.1880469580D+03  0.6844507810D-01
      0.5296450000D+02  0.2327143360D+00
      0.1689757040D+02  0.4701928980D+00
      0.5799635340D+01  0.3585208530D+00
 SP   3 1.00       0.000000000000
      0.1553961625D+02 -0.1107775495D+00  0.7087426823D-01
      0.3599933586D+01 -0.1480262627D+00  0.3397528391D+00
      0.1013761750D+01  0.1130767015D+01  0.7271585773D+00
 SP   1 1.00       0.000000000000
      0.2700058226D+00  0.1000000000D+01  0.1000000000D+01
 D   1 1.00       0.000000000000
      0.8000000000D+00  0.1000000000D+01
 ****
      4 0
 S   3 1.00       0.000000000000
      0.1873113696D+02  0.3349460434D-01
      0.2825394365D+01  0.2347269535D+00
      0.6401216923D+00  0.8137573261D+00
 S   1 1.00       0.000000000000
      0.1612777588D+00  0.1000000000D+01
 ****
      5 0
 S   6 1.00       0.000000000000
      0.3047524880D+04  0.1834737132D-02
      0.4573695180D+03  0.1403732281D-01
      0.1039486850D+03  0.6884262226D-01
      0.2921015530D+02  0.2321844432D+00
      0.9286662960D+01  0.4679413484D+00
      0.3163926960D+01  0.3623119853D+00
 SP   3 1.00       0.000000000000
      0.7868272350D+01 -0.1193324198D+00  0.6899906659D-01
      0.1881288540D+01 -0.1608541517D+00  0.3164239610D+00
      0.5442492580D+00  0.1143456438D+01  0.7443082909D+00
 SP   1 1.00       0.000000000000
      0.1687144782D+00  0.1000000000D+01  0.1000000000D+01
 D   1 1.00       0.000000000000
      0.8000000000D+00  0.1000000000D+01
 ****
      6 0
 S   6 1.00       0.000000000000
      0.3047524880D+04  0.1834737132D-02
      0.4573695180D+03  0.1403732281D-01
      0.1039486850D+03  0.6884262226D-01
      0.2921015530D+02  0.2321844432D+00
      0.9286662960D+01  0.4679413484D+00
      0.3163926960D+01  0.3623119853D+00
 SP   3 1.00       0.000000000000
      0.7868272350D+01 -0.1193324198D+00  0.6899906659D-01
      0.1881288540D+01 -0.1608541517D+00  0.3164239610D+00
      0.5442492580D+00  0.1143456438D+01  0.7443082909D+00
 SP   1 1.00       0.000000000000
      0.1687144782D+00  0.1000000000D+01  0.1000000000D+01
 D   1 1.00       0.000000000000
      0.8000000000D+00  0.1000000000D+01
 ****
      7 0
 S   3 1.00       0.000000000000
      0.1873113696D+02  0.3349460434D-01
      0.2825394365D+01  0.2347269535D+00
      0.6401216923D+00  0.8137573261D+00
 S   1 1.00       0.000000000000
      0.1612777588D+00  0.1000000000D+01
 ****
      8 0
 S   6 1.00       0.000000000000
      0.3047524880D+04  0.1834737132D-02
      0.4573695180D+03  0.1403732281D-01
      0.1039486850D+03  0.6884262226D-01
      0.2921015530D+02  0.2321844432D+00
      0.9286662960D+01  0.4679413484D+00
      0.3163926960D+01  0.3623119853D+00
 SP   3 1.00       0.000000000000
      0.7868272350D+01 -0.1193324198D+00  0.6899906659D-01
      0.1881288540D+01 -0.1608541517D+00  0.3164239610D+00
      0.5442492580D+00  0.1143456438D+01  0.7443082909D+00
 SP   1 1.00       0.000000000000
      0.1687144782D+00  0.1000000000D+01  0.1000000000D+01
 D   1 1.00       0.000000000000
      0.8000000000D+00  0.1000000000D+01
 ****
      9 0
 S   3 1.00       0.000000000000
      0.1873113696D+02  0.3349460434D-01
      0.2825394365D+01  0.2347269535D+00
      0.6401216923D+00  0.8137573261D+00
 S   1 1.00       0.000000000000
      0.1612777588D+00  0.1000000000D+01
 ****
     10 0
 S   6 1.00       0.000000000000
      0.3047524880D+04  0.1834737132D-02
      0.4573695180D+03  0.1403732281D-01
      0.1039486850D+03  0.6884262226D-01
      0.2921015530D+02  0.2321844432D+00
      0.9286662960D+01  0.4679413484D+00
      0.3163926960D+01  0.3623119853D+00
 SP   3 1.00       0.000000000000
      0.7868272350D+01 -0.1193324198D+00  0.6899906659D-01
      0.1881288540D+01 -0.1608541517D+00  0.3164239610D+00
      0.5442492580D+00  0.1143456438D+01  0.7443082909D+00
 SP   1 1.00       0.000000000000
      0.1687144782D+00  0.1000000000D+01  0.1000000000D+01
 D   1 1.00       0.000000000000
      0.8000000000D+00  0.1000000000D+01
 ****
     11 0
 S   3 1.00       0.000000000000
      0.1873113696D+02  0.3349460434D-01
      0.2825394365D+01  0.2347269535D+00
      0.6401216923D+00  0.8137573261D+00
 S   1 1.00       0.000000000000
      0.1612777588D+00  0.1000000000D+01
 ****
     12 0
 S   6 1.00       0.000000000000
      0.3047524880D+04  0.1834737132D-02
      0.4573695180D+03  0.1403732281D-01
      0.1039486850D+03  0.6884262226D-01
      0.2921015530D+02  0.2321844432D+00
      0.9286662960D+01  0.4679413484D+00
      0.3163926960D+01  0.3623119853D+00
 SP   3 1.00       0.000000000000
      0.7868272350D+01 -0.1193324198D+00  0.6899906659D-01
      0.1881288540D+01 -0.1608541517D+00  0.3164239610D+00
      0.5442492580D+00  0.1143456438D+01  0.7443082909D+00
 SP   1 1.00       0.000000000000
      0.1687144782D+00  0.1000000000D+01  0.1000000000D+01
 D   1 1.00       0.000000000000
      0.8000000000D+00  0.1000000000D+01
 ****
     13 0
 S   3 1.00       0.000000000000
      0.1873113696D+02  0.3349460434D-01
      0.2825394365D+01  0.2347269535D+00
      0.6401216923D+00  0.8137573261D+00
 S   1 1.00       0.000000000000
      0.1612777588D+00  0.1000000000D+01
 ****
     14 0
 S   6 1.00       0.000000000000
      0.3047524880D+04  0.1834737132D-02
      0.4573695180D+03  0.1403732281D-01
      0.1039486850D+03  0.6884262226D-01
      0.2921015530D+02  0.2321844432D+00
      0.9286662960D+01  0.4679413484D+00
      0.3163926960D+01  0.3623119853D+00
 SP   3 1.00       0.000000000000
      0.7868272350D+01 -0.1193324198D+00  0.6899906659D-01
      0.1881288540D+01 -0.1608541517D+00  0.3164239610D+00
      0.5442492580D+00  0.1143456438D+01  0.7443082909D+00
 SP   1 1.00       0.000000000000
      0.1687144782D+00  0.1000000000D+01  0.1000000000D+01
 D   1 1.00       0.000000000000
      0.8000000000D+00  0.1000000000D+01
 ****
     15 0
 S   3 1.00       0.000000000000
      0.1873113696D+02  0.3349460434D-01
      0.2825394365D+01  0.2347269535D+00
      0.6401216923D+00  0.8137573261D+00
 S   1 1.00       0.000000000000
      0.1612777588D+00  0.1000000000D+01
 ****
     16 0
 S   3 1.00       0.000000000000
      0.1873113696D+02  0.3349460434D-01
      0.2825394365D+01  0.2347269535D+00
      0.6401216923D+00  0.8137573261D+00
 S   1 1.00       0.000000000000
      0.1612777588D+00  0.1000000000D+01
 ****
     17 0
 S   6 1.00       0.000000000000
      0.3047524880D+04  0.1834737132D-02
      0.4573695180D+03  0.1403732281D-01
      0.1039486850D+03  0.6884262226D-01
      0.2921015530D+02  0.2321844432D+00
      0.9286662960D+01  0.4679413484D+00
      0.3163926960D+01  0.3623119853D+00
 SP   3 1.00       0.000000000000
      0.7868272350D+01 -0.1193324198D+00  0.6899906659D-01
      0.1881288540D+01 -0.1608541517D+00  0.3164239610D+00
      0.5442492580D+00  0.1143456438D+01  0.7443082909D+00
 SP   1 1.00       0.000000000000
      0.1687144782D+00  0.1000000000D+01  0.1000000000D+01
 D   1 1.00       0.000000000000
      0.8000000000D+00  0.1000000000D+01
 ****
     18 0
 S   6 1.00       0.000000000000
      0.3047524880D+04  0.1834737132D-02
      0.4573695180D+03  0.1403732281D-01
      0.1039486850D+03  0.6884262226D-01
      0.2921015530D+02  0.2321844432D+00
      0.9286662960D+01  0.4679413484D+00
      0.3163926960D+01  0.3623119853D+00
 SP   3 1.00       0.000000000000
      0.7868272350D+01 -0.1193324198D+00  0.6899906659D-01
      0.1881288540D+01 -0.1608541517D+00  0.3164239610D+00
      0.5442492580D+00  0.1143456438D+01  0.7443082909D+00
 SP   1 1.00       0.000000000000
      0.1687144782D+00  0.1000000000D+01  0.1000000000D+01
 D   1 1.00       0.000000000000
      0.8000000000D+00  0.1000000000D+01
 ****
     19 0
 S   3 1.00       0.000000000000
      0.1873113696D+02  0.3349460434D-01
      0.2825394365D+01  0.2347269535D+00
      0.6401216923D+00  0.8137573261D+00
 S   1 1.00       0.000000000000
      0.1612777588D+00  0.1000000000D+01
 ****
     20 0
 S   3 1.00       0.000000000000
      0.1873113696D+02  0.3349460434D-01
      0.2825394365D+01  0.2347269535D+00
      0.6401216923D+00  0.8137573261D+00
 S   1 1.00       0.000000000000
      0.1612777588D+00  0.1000000000D+01
 ****
     21 0
 S   6 1.00       0.000000000000
      0.3047524880D+04  0.1834737132D-02
      0.4573695180D+03  0.1403732281D-01
      0.1039486850D+03  0.6884262226D-01
      0.2921015530D+02  0.2321844432D+00
      0.9286662960D+01  0.4679413484D+00
      0.3163926960D+01  0.3623119853D+00
 SP   3 1.00       0.000000000000
      0.7868272350D+01 -0.1193324198D+00  0.6899906659D-01
      0.1881288540D+01 -0.1608541517D+00  0.3164239610D+00
      0.5442492580D+00  0.1143456438D+01  0.7443082909D+00
 SP   1 1.00       0.000000000000
      0.1687144782D+00  0.1000000000D+01  0.1000000000D+01
 D   1 1.00       0.000000000000
      0.8000000000D+00  0.1000000000D+01
 ****
     22 0
 S   3 1.00       0.000000000000
      0.1873113696D+02  0.3349460434D-01
      0.2825394365D+01  0.2347269535D+00
      0.6401216923D+00  0.8137573261D+00
 S   1 1.00       0.000000000000
      0.1612777588D+00  0.1000000000D+01
 ****
     23 0
 S   3 1.00       0.000000000000
      0.1873113696D+02  0.3349460434D-01
      0.2825394365D+01  0.2347269535D+00
      0.6401216923D+00  0.8137573261D+00
 S   1 1.00       0.000000000000
      0.1612777588D+00  0.1000000000D+01
 ****
     24 0
 S   6 1.00       0.000000000000
      0.3047524880D+04  0.1834737132D-02
      0.4573695180D+03  0.1403732281D-01
      0.1039486850D+03  0.6884262226D-01
      0.2921015530D+02  0.2321844432D+00
      0.9286662960D+01  0.4679413484D+00
      0.3163926960D+01  0.3623119853D+00
 SP   3 1.00       0.000000000000
      0.7868272350D+01 -0.1193324198D+00  0.6899906659D-01
      0.1881288540D+01 -0.1608541517D+00  0.3164239610D+00
      0.5442492580D+00  0.1143456438D+01  0.7443082909D+00
 SP   1 1.00       0.000000000000
      0.1687144782D+00  0.1000000000D+01  0.1000000000D+01
 D   1 1.00       0.000000000000
      0.8000000000D+00  0.1000000000D+01
 ****
     25 0
 S   3 1.00       0.000000000000
      0.1873113696D+02  0.3349460434D-01
      0.2825394365D+01  0.2347269535D+00
      0.6401216923D+00  0.8137573261D+00
 S   1 1.00       0.000000000000
      0.1612777588D+00  0.1000000000D+01
 ****
     26 0
 S   3 1.00       0.000000000000
      0.1873113696D+02  0.3349460434D-01
      0.2825394365D+01  0.2347269535D+00
      0.6401216923D+00  0.8137573261D+00
 S   1 1.00       0.000000000000
      0.1612777588D+00  0.1000000000D+01
 ****
     27 0
 S   6 1.00       0.000000000000
      0.3047524880D+04  0.1834737132D-02
      0.4573695180D+03  0.1403732281D-01
      0.1039486850D+03  0.6884262226D-01
      0.2921015530D+02  0.2321844432D+00
      0.9286662960D+01  0.4679413484D+00
      0.3163926960D+01  0.3623119853D+00
 SP   3 1.00       0.000000000000
      0.7868272350D+01 -0.1193324198D+00  0.6899906659D-01
      0.1881288540D+01 -0.1608541517D+00  0.3164239610D+00
      0.5442492580D+00  0.1143456438D+01  0.7443082909D+00
 SP   1 1.00       0.000000000000
      0.1687144782D+00  0.1000000000D+01  0.1000000000D+01
 D   1 1.00       0.000000000000
      0.8000000000D+00  0.1000000000D+01
 ****
     28 0
 S   3 1.00       0.000000000000
      0.1873113696D+02  0.3349460434D-01
      0.2825394365D+01  0.2347269535D+00
      0.6401216923D+00  0.8137573261D+00
 S   1 1.00       0.000000000000
      0.1612777588D+00  0.1000000000D+01
 ****
     29 0
 S   6 1.00       0.000000000000
      0.3047524880D+04  0.1834737132D-02
      0.4573695180D+03  0.1403732281D-01
      0.1039486850D+03  0.6884262226D-01
      0.2921015530D+02  0.2321844432D+00
      0.9286662960D+01  0.4679413484D+00
      0.3163926960D+01  0.3623119853D+00
 SP   3 1.00       0.000000000000
      0.7868272350D+01 -0.1193324198D+00  0.6899906659D-01
      0.1881288540D+01 -0.1608541517D+00  0.3164239610D+00
      0.5442492580D+00  0.1143456438D+01  0.7443082909D+00
 SP   1 1.00       0.000000000000
      0.1687144782D+00  0.1000000000D+01  0.1000000000D+01
 D   1 1.00       0.000000000000
      0.8000000000D+00  0.1000000000D+01
 ****
     30 0
 S   3 1.00       0.000000000000
      0.1873113696D+02  0.3349460434D-01
      0.2825394365D+01  0.2347269535D+00
      0.6401216923D+00  0.8137573261D+00
 S   1 1.00       0.000000000000
      0.1612777588D+00  0.1000000000D+01
 ****
     31 0
 S   6 1.00       0.000000000000
      0.3047524880D+04  0.1834737132D-02
      0.4573695180D+03  0.1403732281D-01
      0.1039486850D+03  0.6884262226D-01
      0.2921015530D+02  0.2321844432D+00
      0.9286662960D+01  0.4679413484D+00
      0.3163926960D+01  0.3623119853D+00
 SP   3 1.00       0.000000000000
      0.7868272350D+01 -0.1193324198D+00  0.6899906659D-01
      0.1881288540D+01 -0.1608541517D+00  0.3164239610D+00
      0.5442492580D+00  0.1143456438D+01  0.7443082909D+00
 SP   1 1.00       0.000000000000
      0.1687144782D+00  0.1000000000D+01  0.1000000000D+01
 D   1 1.00       0.000000000000
      0.8000000000D+00  0.1000000000D+01
 ****
     32 0
 S   3 1.00       0.000000000000
      0.1873113696D+02  0.3349460434D-01
      0.2825394365D+01  0.2347269535D+00
      0.6401216923D+00  0.8137573261D+00
 S   1 1.00       0.000000000000
      0.1612777588D+00  0.1000000000D+01
 ****
     33 0
 S   3 1.00       0.000000000000
      0.1873113696D+02  0.3349460434D-01
      0.2825394365D+01  0.2347269535D+00
      0.6401216923D+00  0.8137573261D+00
 S   1 1.00       0.000000000000
      0.1612777588D+00  0.1000000000D+01
 ****
     34 0
 S   3 1.00       0.000000000000
      0.1873113696D+02  0.3349460434D-01
      0.2825394365D+01  0.2347269535D+00
      0.6401216923D+00  0.8137573261D+00
 S   1 1.00       0.000000000000
      0.1612777588D+00  0.1000000000D+01
 ****
     35 0
 S   6 1.00       0.000000000000
      0.3047524880D+04  0.1834737132D-02
      0.4573695180D+03  0.1403732281D-01
      0.1039486850D+03  0.6884262226D-01
      0.2921015530D+02  0.2321844432D+00
      0.9286662960D+01  0.4679413484D+00
      0.3163926960D+01  0.3623119853D+00
 SP   3 1.00       0.000000000000
      0.7868272350D+01 -0.1193324198D+00  0.6899906659D-01
      0.1881288540D+01 -0.1608541517D+00  0.3164239610D+00
      0.5442492580D+00  0.1143456438D+01  0.7443082909D+00
 SP   1 1.00       0.000000000000
      0.1687144782D+00  0.1000000000D+01  0.1000000000D+01
 D   1 1.00       0.000000000000
      0.8000000000D+00  0.1000000000D+01
 ****
     36 0
 S   6 1.00       0.000000000000
      0.3047524880D+04  0.1834737132D-02
      0.4573695180D+03  0.1403732281D-01
      0.1039486850D+03  0.6884262226D-01
      0.2921015530D+02  0.2321844432D+00
      0.9286662960D+01  0.4679413484D+00
      0.3163926960D+01  0.3623119853D+00
 SP   3 1.00       0.000000000000
      0.7868272350D+01 -0.1193324198D+00  0.6899906659D-01
      0.1881288540D+01 -0.1608541517D+00  0.3164239610D+00
      0.5442492580D+00  0.1143456438D+01  0.7443082909D+00
 SP   1 1.00       0.000000000000
      0.1687144782D+00  0.1000000000D+01  0.1000000000D+01
 D   1 1.00       0.000000000000
      0.8000000000D+00  0.1000000000D+01
 ****
     37 0
 S   3 1.00       0.000000000000
      0.1873113696D+02  0.3349460434D-01
      0.2825394365D+01  0.2347269535D+00
      0.6401216923D+00  0.8137573261D+00
 S   1 1.00       0.000000000000
      0.1612777588D+00  0.1000000000D+01
 ****
     38 0
 S   3 1.00       0.000000000000
      0.1873113696D+02  0.3349460434D-01
      0.2825394365D+01  0.2347269535D+00
      0.6401216923D+00  0.8137573261D+00
 S   1 1.00       0.000000000000
      0.1612777588D+00  0.1000000000D+01
 ****
     39 0
 S   6 1.00       0.000000000000
      0.3047524880D+04  0.1834737132D-02
      0.4573695180D+03  0.1403732281D-01
      0.1039486850D+03  0.6884262226D-01
      0.2921015530D+02  0.2321844432D+00
      0.9286662960D+01  0.4679413484D+00
      0.3163926960D+01  0.3623119853D+00
 SP   3 1.00       0.000000000000
      0.7868272350D+01 -0.1193324198D+00  0.6899906659D-01
      0.1881288540D+01 -0.1608541517D+00  0.3164239610D+00
      0.5442492580D+00  0.1143456438D+01  0.7443082909D+00
 SP   1 1.00       0.000000000000
      0.1687144782D+00  0.1000000000D+01  0.1000000000D+01
 D   1 1.00       0.000000000000
      0.8000000000D+00  0.1000000000D+01
 ****
     40 0
 S   3 1.00       0.000000000000
      0.1873113696D+02  0.3349460434D-01
      0.2825394365D+01  0.2347269535D+00
      0.6401216923D+00  0.8137573261D+00
 S   1 1.00       0.000000000000
      0.1612777588D+00  0.1000000000D+01
 ****
     41 0
 S   6 1.00       0.000000000000
      0.3047524880D+04  0.1834737132D-02
      0.4573695180D+03  0.1403732281D-01
      0.1039486850D+03  0.6884262226D-01
      0.2921015530D+02  0.2321844432D+00
      0.9286662960D+01  0.4679413484D+00
      0.3163926960D+01  0.3623119853D+00
 SP   3 1.00       0.000000000000
      0.7868272350D+01 -0.1193324198D+00  0.6899906659D-01
      0.1881288540D+01 -0.1608541517D+00  0.3164239610D+00
      0.5442492580D+00  0.1143456438D+01  0.7443082909D+00
 SP   1 1.00       0.000000000000
      0.1687144782D+00  0.1000000000D+01  0.1000000000D+01
 D   1 1.00       0.000000000000
      0.8000000000D+00  0.1000000000D+01
 ****
     42 0
 S   3 1.00       0.000000000000
      0.1873113696D+02  0.3349460434D-01
      0.2825394365D+01  0.2347269535D+00
      0.6401216923D+00  0.8137573261D+00
 S   1 1.00       0.000000000000
      0.1612777588D+00  0.1000000000D+01
 ****
     43 0
 S   3 1.00       0.000000000000
      0.1873113696D+02  0.3349460434D-01
      0.2825394365D+01  0.2347269535D+00
      0.6401216923D+00  0.8137573261D+00
 S   1 1.00       0.000000000000
      0.1612777588D+00  0.1000000000D+01
 ****
     44 0
 S   3 1.00       0.000000000000
      0.1873113696D+02  0.3349460434D-01
      0.2825394365D+01  0.2347269535D+00
      0.6401216923D+00  0.8137573261D+00
 S   1 1.00       0.000000000000
      0.1612777588D+00  0.1000000000D+01
 ****
     45 0
 S   6 1.00       0.000000000000
      0.3047524880D+04  0.1834737132D-02
      0.4573695180D+03  0.1403732281D-01
      0.1039486850D+03  0.6884262226D-01
      0.2921015530D+02  0.2321844432D+00
      0.9286662960D+01  0.4679413484D+00
      0.3163926960D+01  0.3623119853D+00
 SP   3 1.00       0.000000000000
      0.7868272350D+01 -0.1193324198D+00  0.6899906659D-01
      0.1881288540D+01 -0.1608541517D+00  0.3164239610D+00
      0.5442492580D+00  0.1143456438D+01  0.7443082909D+00
 SP   1 1.00       0.000000000000
      0.1687144782D+00  0.1000000000D+01  0.1000000000D+01
 D   1 1.00       0.000000000000
      0.8000000000D+00  0.1000000000D+01
 ****
     46 0
 S   3 1.00       0.000000000000
      0.1873113696D+02  0.3349460434D-01
      0.2825394365D+01  0.2347269535D+00
      0.6401216923D+00  0.8137573261D+00
 S   1 1.00       0.000000000000
      0.1612777588D+00  0.1000000000D+01
 ****
     47 0
 S   3 1.00       0.000000000000
      0.1873113696D+02  0.3349460434D-01
      0.2825394365D+01  0.2347269535D+00
      0.6401216923D+00  0.8137573261D+00
 S   1 1.00       0.000000000000
      0.1612777588D+00  0.1000000000D+01
 ****
     48 0
 S   6 1.00       0.000000000000
      0.3047524880D+04  0.1834737132D-02
      0.4573695180D+03  0.1403732281D-01
      0.1039486850D+03  0.6884262226D-01
      0.2921015530D+02  0.2321844432D+00
      0.9286662960D+01  0.4679413484D+00
      0.3163926960D+01  0.3623119853D+00
 SP   3 1.00       0.000000000000
      0.7868272350D+01 -0.1193324198D+00  0.6899906659D-01
      0.1881288540D+01 -0.1608541517D+00  0.3164239610D+00
      0.5442492580D+00  0.1143456438D+01  0.7443082909D+00
 SP   1 1.00       0.000000000000
      0.1687144782D+00  0.1000000000D+01  0.1000000000D+01
 D   1 1.00       0.000000000000
      0.8000000000D+00  0.1000000000D+01
 ****
     49 0
 S   3 1.00       0.000000000000
      0.1873113696D+02  0.3349460434D-01
      0.2825394365D+01  0.2347269535D+00
      0.6401216923D+00  0.8137573261D+00
 S   1 1.00       0.000000000000
      0.1612777588D+00  0.1000000000D+01
 ****
     50 0
 S   3 1.00       0.000000000000
      0.1873113696D+02  0.3349460434D-01
      0.2825394365D+01  0.2347269535D+00
      0.6401216923D+00  0.8137573261D+00
 S   1 1.00       0.000000000000
      0.1612777588D+00  0.1000000000D+01
 ****
     51 0
 S   6 1.00       0.000000000000
      0.3047524880D+04  0.1834737132D-02
      0.4573695180D+03  0.1403732281D-01
      0.1039486850D+03  0.6884262226D-01
      0.2921015530D+02  0.2321844432D+00
      0.9286662960D+01  0.4679413484D+00
      0.3163926960D+01  0.3623119853D+00
 SP   3 1.00       0.000000000000
      0.7868272350D+01 -0.1193324198D+00  0.6899906659D-01
      0.1881288540D+01 -0.1608541517D+00  0.3164239610D+00
      0.5442492580D+00  0.1143456438D+01  0.7443082909D+00
 SP   1 1.00       0.000000000000
      0.1687144782D+00  0.1000000000D+01  0.1000000000D+01
 D   1 1.00       0.000000000000
      0.8000000000D+00  0.1000000000D+01
 ****
     52 0
 S   3 1.00       0.000000000000
      0.1873113696D+02  0.3349460434D-01
      0.2825394365D+01  0.2347269535D+00
      0.6401216923D+00  0.8137573261D+00
 S   1 1.00       0.000000000000
      0.1612777588D+00  0.1000000000D+01
 ****
     53 0
 S   3 1.00       0.000000000000
      0.1873113696D+02  0.3349460434D-01
      0.2825394365D+01  0.2347269535D+00
      0.6401216923D+00  0.8137573261D+00
 S   1 1.00       0.000000000000
      0.1612777588D+00  0.1000000000D+01
 ****
     54 0
 S   6 1.00       0.000000000000
      0.3047524880D+04  0.1834737132D-02
      0.4573695180D+03  0.1403732281D-01
      0.1039486850D+03  0.6884262226D-01
      0.2921015530D+02  0.2321844432D+00
      0.9286662960D+01  0.4679413484D+00
      0.3163926960D+01  0.3623119853D+00
 SP   3 1.00       0.000000000000
      0.7868272350D+01 -0.1193324198D+00  0.6899906659D-01
      0.1881288540D+01 -0.1608541517D+00  0.3164239610D+00
      0.5442492580D+00  0.1143456438D+01  0.7443082909D+00
 SP   1 1.00       0.000000000000
      0.1687144782D+00  0.1000000000D+01  0.1000000000D+01
 D   1 1.00       0.000000000000
      0.8000000000D+00  0.1000000000D+01
 ****
     55 0
 S   3 1.00       0.000000000000
      0.1873113696D+02  0.3349460434D-01
      0.2825394365D+01  0.2347269535D+00
      0.6401216923D+00  0.8137573261D+00
 S   1 1.00       0.000000000000
      0.1612777588D+00  0.1000000000D+01
 ****
     56 0
 S   6 1.00       0.000000000000
      0.3047524880D+04  0.1834737132D-02
      0.4573695180D+03  0.1403732281D-01
      0.1039486850D+03  0.6884262226D-01
      0.2921015530D+02  0.2321844432D+00
      0.9286662960D+01  0.4679413484D+00
      0.3163926960D+01  0.3623119853D+00
 SP   3 1.00       0.000000000000
      0.7868272350D+01 -0.1193324198D+00  0.6899906659D-01
      0.1881288540D+01 -0.1608541517D+00  0.3164239610D+00
      0.5442492580D+00  0.1143456438D+01  0.7443082909D+00
 SP   1 1.00       0.000000000000
      0.1687144782D+00  0.1000000000D+01  0.1000000000D+01
 D   1 1.00       0.000000000000
      0.8000000000D+00  0.1000000000D+01
 ****
     57 0
 S   3 1.00       0.000000000000
      0.1873113696D+02  0.3349460434D-01
      0.2825394365D+01  0.2347269535D+00
      0.6401216923D+00  0.8137573261D+00
 S   1 1.00       0.000000000000
      0.1612777588D+00  0.1000000000D+01
 ****
     58 0
 S   3 1.00       0.000000000000
      0.1873113696D+02  0.3349460434D-01
      0.2825394365D+01  0.2347269535D+00
      0.6401216923D+00  0.8137573261D+00
 S   1 1.00       0.000000000000
      0.1612777588D+00  0.1000000000D+01
 ****
     59 0
 S   3 1.00       0.000000000000
      0.1873113696D+02  0.3349460434D-01
      0.2825394365D+01  0.2347269535D+00
      0.6401216923D+00  0.8137573261D+00
 S   1 1.00       0.000000000000
      0.1612777588D+00  0.1000000000D+01
 ****
     60 0
 S   6 1.00       0.000000000000
      0.3047524880D+04  0.1834737132D-02
      0.4573695180D+03  0.1403732281D-01
      0.1039486850D+03  0.6884262226D-01
      0.2921015530D+02  0.2321844432D+00
      0.9286662960D+01  0.4679413484D+00
      0.3163926960D+01  0.3623119853D+00
 SP   3 1.00       0.000000000000
      0.7868272350D+01 -0.1193324198D+00  0.6899906659D-01
      0.1881288540D+01 -0.1608541517D+00  0.3164239610D+00
      0.5442492580D+00  0.1143456438D+01  0.7443082909D+00
 SP   1 1.00       0.000000000000
      0.1687144782D+00  0.1000000000D+01  0.1000000000D+01
 D   1 1.00       0.000000000000
      0.8000000000D+00  0.1000000000D+01
 ****
     61 0
 S   3 1.00       0.000000000000
      0.1873113696D+02  0.3349460434D-01
      0.2825394365D+01  0.2347269535D+00
      0.6401216923D+00  0.8137573261D+00
 S   1 1.00       0.000000000000
      0.1612777588D+00  0.1000000000D+01
 ****
     62 0
 S   3 1.00       0.000000000000
      0.1873113696D+02  0.3349460434D-01
      0.2825394365D+01  0.2347269535D+00
      0.6401216923D+00  0.8137573261D+00
 S   1 1.00       0.000000000000
      0.1612777588D+00  0.1000000000D+01
 ****
     63 0
 S   6 1.00       0.000000000000
      0.3047524880D+04  0.1834737132D-02
      0.4573695180D+03  0.1403732281D-01
      0.1039486850D+03  0.6884262226D-01
      0.2921015530D+02  0.2321844432D+00
      0.9286662960D+01  0.4679413484D+00
      0.3163926960D+01  0.3623119853D+00
 SP   3 1.00       0.000000000000
      0.7868272350D+01 -0.1193324198D+00  0.6899906659D-01
      0.1881288540D+01 -0.1608541517D+00  0.3164239610D+00
      0.5442492580D+00  0.1143456438D+01  0.7443082909D+00
 SP   1 1.00       0.000000000000
      0.1687144782D+00  0.1000000000D+01  0.1000000000D+01
 D   1 1.00       0.000000000000
      0.8000000000D+00  0.1000000000D+01
 ****
     64 0
 S   3 1.00       0.000000000000
      0.1873113696D+02  0.3349460434D-01
      0.2825394365D+01  0.2347269535D+00
      0.6401216923D+00  0.8137573261D+00
 S   1 1.00       0.000000000000
      0.1612777588D+00  0.1000000000D+01
 ****
     65 0
 S   3 1.00       0.000000000000
      0.1873113696D+02  0.3349460434D-01
      0.2825394365D+01  0.2347269535D+00
      0.6401216923D+00  0.8137573261D+00
 S   1 1.00       0.000000000000
      0.1612777588D+00  0.1000000000D+01
 ****
     66 0
 S   6 1.00       0.000000000000
      0.3047524880D+04  0.1834737132D-02
      0.4573695180D+03  0.1403732281D-01
      0.1039486850D+03  0.6884262226D-01
      0.2921015530D+02  0.2321844432D+00
      0.9286662960D+01  0.4679413484D+00
      0.3163926960D+01  0.3623119853D+00
 SP   3 1.00       0.000000000000
      0.7868272350D+01 -0.1193324198D+00  0.6899906659D-01
      0.1881288540D+01 -0.1608541517D+00  0.3164239610D+00
      0.5442492580D+00  0.1143456438D+01  0.7443082909D+00
 SP   1 1.00       0.000000000000
      0.1687144782D+00  0.1000000000D+01  0.1000000000D+01
 D   1 1.00       0.000000000000
      0.8000000000D+00  0.1000000000D+01
 ****
     67 0
 S   3 1.00       0.000000000000
      0.1873113696D+02  0.3349460434D-01
      0.2825394365D+01  0.2347269535D+00
      0.6401216923D+00  0.8137573261D+00
 S   1 1.00       0.000000000000
      0.1612777588D+00  0.1000000000D+01
 ****
     68 0
 S   6 1.00       0.000000000000
      0.3047524880D+04  0.1834737132D-02
      0.4573695180D+03  0.1403732281D-01
      0.1039486850D+03  0.6884262226D-01
      0.2921015530D+02  0.2321844432D+00
      0.9286662960D+01  0.4679413484D+00
      0.3163926960D+01  0.3623119853D+00
 SP   3 1.00       0.000000000000
      0.7868272350D+01 -0.1193324198D+00  0.6899906659D-01
      0.1881288540D+01 -0.1608541517D+00  0.3164239610D+00
      0.5442492580D+00  0.1143456438D+01  0.7443082909D+00
 SP   1 1.00       0.000000000000
      0.1687144782D+00  0.1000000000D+01  0.1000000000D+01
 D   1 1.00       0.000000000000
      0.8000000000D+00  0.1000000000D+01
 ****
     69 0
 S   3 1.00       0.000000000000
      0.1873113696D+02  0.3349460434D-01
      0.2825394365D+01  0.2347269535D+00
      0.6401216923D+00  0.8137573261D+00
 S   1 1.00       0.000000000000
      0.1612777588D+00  0.1000000000D+01
 ****
     70 0
 S   3 1.00       0.000000000000
      0.1873113696D+02  0.3349460434D-01
      0.2825394365D+01  0.2347269535D+00
      0.6401216923D+00  0.8137573261D+00
 S   1 1.00       0.000000000000
      0.1612777588D+00  0.1000000000D+01
 ****
     71 0
 S   3 1.00       0.000000000000
      0.1873113696D+02  0.3349460434D-01
      0.2825394365D+01  0.2347269535D+00
      0.6401216923D+00  0.8137573261D+00
 S   1 1.00       0.000000000000
      0.1612777588D+00  0.1000000000D+01
 ****
     72 0
 S   6 1.00       0.000000000000
      0.3047524880D+04  0.1834737132D-02
      0.4573695180D+03  0.1403732281D-01
      0.1039486850D+03  0.6884262226D-01
      0.2921015530D+02  0.2321844432D+00
      0.9286662960D+01  0.4679413484D+00
      0.3163926960D+01  0.3623119853D+00
 SP   3 1.00       0.000000000000
      0.7868272350D+01 -0.1193324198D+00  0.6899906659D-01
      0.1881288540D+01 -0.1608541517D+00  0.3164239610D+00
      0.5442492580D+00  0.1143456438D+01  0.7443082909D+00
 SP   1 1.00       0.000000000000
      0.1687144782D+00  0.1000000000D+01  0.1000000000D+01
 D   1 1.00       0.000000000000
      0.8000000000D+00  0.1000000000D+01
 ****
     73 0
 S   3 1.00       0.000000000000
      0.1873113696D+02  0.3349460434D-01
      0.2825394365D+01  0.2347269535D+00
      0.6401216923D+00  0.8137573261D+00
 S   1 1.00       0.000000000000
      0.1612777588D+00  0.1000000000D+01
 ****
     74 0
 S   3 1.00       0.000000000000
      0.1873113696D+02  0.3349460434D-01
      0.2825394365D+01  0.2347269535D+00
      0.6401216923D+00  0.8137573261D+00
 S   1 1.00       0.000000000000
      0.1612777588D+00  0.1000000000D+01
 ****
     75 0
 S   3 1.00       0.000000000000
      0.1873113696D+02  0.3349460434D-01
      0.2825394365D+01  0.2347269535D+00
      0.6401216923D+00  0.8137573261D+00
 S   1 1.00       0.000000000000
      0.1612777588D+00  0.1000000000D+01
 ****

 AO basis set (Overlap normalization):
 Atom O1       Shell     1 S   6     bf    1 -     1          0.000000000000          0.000000000000          0.000000000000
      0.5484671660D+04  0.1831074430D-02
      0.8252349460D+03  0.1395017220D-01
      0.1880469580D+03  0.6844507810D-01
      0.5296450000D+02  0.2327143360D+00
      0.1689757040D+02  0.4701928980D+00
      0.5799635340D+01  0.3585208530D+00
 Atom O1       Shell     2 SP   3    bf    2 -     5          0.000000000000          0.000000000000          0.000000000000
      0.1553961625D+02 -0.1107775495D+00  0.7087426823D-01
      0.3599933586D+01 -0.1480262627D+00  0.3397528391D+00
      0.1013761750D+01  0.1130767015D+01  0.7271585773D+00
 Atom O1       Shell     3 SP   1    bf    6 -     9          0.000000000000          0.000000000000          0.000000000000
      0.2700058226D+00  0.1000000000D+01  0.1000000000D+01
 Atom O1       Shell     4 D   1     bf   10 -    15          0.000000000000          0.000000000000          0.000000000000
      0.8000000000D+00  0.1000000000D+01
 Atom H2       Shell     5 S   3     bf   16 -    16         -0.910905065780         -0.000078329148          1.585527997768
      0.1873113696D+02  0.3349460434D-01
      0.2825394365D+01  0.2347269535D+00
      0.6401216923D+00  0.8137573261D+00
 Atom H2       Shell     6 S   1     bf   17 -    17         -0.910905065780         -0.000078329148          1.585527997768
      0.1612777588D+00  0.1000000000D+01
 Atom O3       Shell     7 S   6     bf   18 -    18         -6.136102306167         12.067923894560          0.000000000000
      0.5484671660D+04  0.1831074430D-02
      0.8252349460D+03  0.1395017220D-01
      0.1880469580D+03  0.6844507810D-01
      0.5296450000D+02  0.2327143360D+00
      0.1689757040D+02  0.4701928980D+00
      0.5799635340D+01  0.3585208530D+00
 Atom O3       Shell     8 SP   3    bf   19 -    22         -6.136102306167         12.067923894560          0.000000000000
      0.1553961625D+02 -0.1107775495D+00  0.7087426823D-01
      0.3599933586D+01 -0.1480262627D+00  0.3397528391D+00
      0.1013761750D+01  0.1130767015D+01  0.7271585773D+00
 Atom O3       Shell     9 SP   1    bf   23 -    26         -6.136102306167         12.067923894560          0.000000000000
      0.2700058226D+00  0.1000000000D+01  0.1000000000D+01
 Atom O3       Shell    10 D   1     bf   27 -    32         -6.136102306167         12.067923894560          0.000000000000
      0.8000000000D+00  0.1000000000D+01
 Atom H4       Shell    11 S   3     bf   33 -    33         -6.645359971889         12.198568183237          1.751196073749
      0.1873113696D+02  0.3349460434D-01
      0.2825394365D+01  0.2347269535D+00
      0.6401216923D+00  0.8137573261D+00
 Atom H4       Shell    12 S   1     bf   34 -    34         -6.645359971889         12.198568183237          1.751196073749
      0.1612777588D+00  0.1000000000D+01
 Atom C5       Shell    13 S   6     bf   35 -    35          7.824706927634          3.114841480781          1.892825378230
      0.3047524880D+04  0.1834737132D-02
      0.4573695180D+03  0.1403732281D-01
      0.1039486850D+03  0.6884262226D-01
      0.2921015530D+02  0.2321844432D+00
      0.9286662960D+01  0.4679413484D+00
      0.3163926960D+01  0.3623119853D+00
 Atom C5       Shell    14 SP   3    bf   36 -    39          7.824706927634          3.114841480781          1.892825378230
      0.7868272350D+01 -0.1193324198D+00  0.6899906659D-01
      0.1881288540D+01 -0.1608541517D+00  0.3164239610D+00
      0.5442492580D+00  0.1143456438D+01  0.7443082909D+00
 Atom C5       Shell    15 SP   1    bf   40 -    43          7.824706927634          3.114841480781          1.892825378230
      0.1687144782D+00  0.1000000000D+01  0.1000000000D+01
 Atom C5       Shell    16 D   1     bf   44 -    49          7.824706927634          3.114841480781          1.892825378230
      0.8000000000D+00  0.1000000000D+01
 Atom C6       Shell    17 S   6     bf   50 -    50          5.465389973439          2.250085227919          0.357201268179
      0.3047524880D+04  0.1834737132D-02
      0.4573695180D+03  0.1403732281D-01
      0.1039486850D+03  0.6884262226D-01
      0.2921015530D+02  0.2321844432D+00
      0.9286662960D+01  0.4679413484D+00
      0.3163926960D+01  0.3623119853D+00
 Atom C6       Shell    18 SP   3    bf   51 -    54          5.465389973439          2.250085227919          0.357201268179
      0.7868272350D+01 -0.1193324198D+00  0.6899906659D-01
      0.1881288540D+01 -0.1608541517D+00  0.3164239610D+00
      0.5442492580D+00  0.1143456438D+01  0.7443082909D+00
 Atom C6       Shell    19 SP   1    bf   55 -    58          5.465389973439          2.250085227919          0.357201268179
      0.1687144782D+00  0.1000000000D+01  0.1000000000D+01
 Atom C6       Shell    20 D   1     bf   59 -    64          5.465389973439          2.250085227919          0.357201268179
      0.8000000000D+00  0.1000000000D+01
 Atom H7       Shell    21 S   3     bf   65 -    65          5.792895877296          2.952558131071         -1.578652550487
      0.1873113696D+02  0.3349460434D-01
      0.2825394365D+01  0.2347269535D+00
      0.6401216923D+00  0.8137573261D+00
 Atom H7       Shell    22 S   1     bf   66 -    66          5.792895877296          2.952558131071         -1.578652550487
      0.1612777588D+00  0.1000000000D+01
 Atom C8       Shell    23 S   6     bf   67 -    67          2.942797865670          3.442933256431          1.177717690565
      0.3047524880D+04  0.1834737132D-02
      0.4573695180D+03  0.1403732281D-01
      0.1039486850D+03  0.6884262226D-01
      0.2921015530D+02  0.2321844432D+00
      0.9286662960D+01  0.4679413484D+00
      0.3163926960D+01  0.3623119853D+00
 Atom C8       Shell    24 SP   3    bf   68 -    71          2.942797865670          3.442933256431          1.177717690565
      0.7868272350D+01 -0.1193324198D+00  0.6899906659D-01
      0.1881288540D+01 -0.1608541517D+00  0.3164239610D+00
      0.5442492580D+00  0.1143456438D+01  0.7443082909D+00
 Atom C8       Shell    25 SP   1    bf   72 -    75          2.942797865670          3.442933256431          1.177717690565
      0.1687144782D+00  0.1000000000D+01  0.1000000000D+01
 Atom C8       Shell    26 D   1     bf   76 -    81          2.942797865670          3.442933256431          1.177717690565
      0.8000000000D+00  0.1000000000D+01
 Atom H9       Shell    27 S   3     bf   82 -    82          2.476941729015          2.840490095946          3.111314873872
      0.1873113696D+02  0.3349460434D-01
      0.2825394365D+01  0.2347269535D+00
      0.6401216923D+00  0.8137573261D+00
 Atom H9       Shell    28 S   1     bf   83 -    83          2.476941729015          2.840490095946          3.111314873872
      0.1612777588D+00  0.1000000000D+01
 Atom C10      Shell    29 S   6     bf   84 -    84          3.163615841394          6.373106655493          1.095246281570
      0.3047524880D+04  0.1834737132D-02
      0.4573695180D+03  0.1403732281D-01
      0.1039486850D+03  0.6884262226D-01
      0.2921015530D+02  0.2321844432D+00
      0.9286662960D+01  0.4679413484D+00
      0.3163926960D+01  0.3623119853D+00
 Atom C10      Shell    30 SP   3    bf   85 -    88          3.163615841394          6.373106655493          1.095246281570
      0.7868272350D+01 -0.1193324198D+00  0.6899906659D-01
      0.1881288540D+01 -0.1608541517D+00  0.3164239610D+00
      0.5442492580D+00  0.1143456438D+01  0.7443082909D+00
 Atom C10      Shell    31 SP   1    bf   89 -    92          3.163615841394          6.373106655493          1.095246281570
      0.1687144782D+00  0.1000000000D+01  0.1000000000D+01
 Atom C10      Shell    32 D   1     bf   93 -    98          3.163615841394          6.373106655493          1.095246281570
      0.8000000000D+00  0.1000000000D+01
 Atom H11      Shell    33 S   3     bf   99 -    99          3.391407775822          6.860454307307         -0.917646077944
      0.1873113696D+02  0.3349460434D-01
      0.2825394365D+01  0.2347269535D+00
      0.6401216923D+00  0.8137573261D+00
 Atom H11      Shell    34 S   1     bf  100 -   100          3.391407775822          6.860454307307         -0.917646077944
      0.1612777588D+00  0.1000000000D+01
 Atom C12      Shell    35 S   6     bf  101 -   101          9.902207606337          1.540821064786          0.481704343766
      0.3047524880D+04  0.1834737132D-02
      0.4573695180D+03  0.1403732281D-01
      0.1039486850D+03  0.6884262226D-01
      0.2921015530D+02  0.2321844432D+00
      0.9286662960D+01  0.4679413484D+00
      0.3163926960D+01  0.3623119853D+00
 Atom C12      Shell    36 SP   3    bf  102 -   105          9.902207606337          1.540821064786          0.481704343766
      0.7868272350D+01 -0.1193324198D+00  0.6899906659D-01
      0.1881288540D+01 -0.1608541517D+00  0.3164239610D+00
      0.5442492580D+00  0.1143456438D+01  0.7443082909D+00
 Atom C12      Shell    37 SP   1    bf  106 -   109          9.902207606337          1.540821064786          0.481704343766
      0.1687144782D+00  0.1000000000D+01  0.1000000000D+01
 Atom C12      Shell    38 D   1     bf  110 -   115          9.902207606337          1.540821064786          0.481704343766
      0.8000000000D+00  0.1000000000D+01
 Atom H13      Shell    39 S   3     bf  116 -   116         10.002186950007          2.407147302118         -1.403020836778
      0.1873113696D+02  0.3349460434D-01
      0.2825394365D+01  0.2347269535D+00
      0.6401216923D+00  0.8137573261D+00
 Atom H13      Shell    40 S   1     bf  117 -   117         10.002186950007          2.407147302118         -1.403020836778
      0.1612777588D+00  0.1000000000D+01
 Atom C14      Shell    41 S   6     bf  118 -   118          8.013031969571          6.005102125368          1.616601331489
      0.3047524880D+04  0.1834737132D-02
      0.4573695180D+03  0.1403732281D-01
      0.1039486850D+03  0.6884262226D-01
      0.2921015530D+02  0.2321844432D+00
      0.9286662960D+01  0.4679413484D+00
      0.3163926960D+01  0.3623119853D+00
 Atom C14      Shell    42 SP   3    bf  119 -   122          8.013031969571          6.005102125368          1.616601331489
      0.7868272350D+01 -0.1193324198D+00  0.6899906659D-01
      0.1881288540D+01 -0.1608541517D+00  0.3164239610D+00
      0.5442492580D+00  0.1143456438D+01  0.7443082909D+00
 Atom C14      Shell    43 SP   1    bf  123 -   126          8.013031969571          6.005102125368          1.616601331489
      0.1687144782D+00  0.1000000000D+01  0.1000000000D+01
 Atom C14      Shell    44 D   1     bf  127 -   132          8.013031969571          6.005102125368          1.616601331489
      0.8000000000D+00  0.1000000000D+01
 Atom H15      Shell    45 S   3     bf  133 -   133          8.390418800973          6.470717284147         -0.371898443103
      0.1873113696D+02  0.3349460434D-01
      0.2825394365D+01  0.2347269535D+00
      0.6401216923D+00  0.8137573261D+00
 Atom H15      Shell    46 S   1     bf  134 -   134          8.390418800973          6.470717284147         -0.371898443103
      0.1612777588D+00  0.1000000000D+01
 Atom H16      Shell    47 S   3     bf  135 -   135          9.596351916839          6.766225400259          2.715117047139
      0.1873113696D+02  0.3349460434D-01
      0.2825394365D+01  0.2347269535D+00
      0.6401216923D+00  0.8137573261D+00
 Atom H16      Shell    48 S   1     bf  136 -   136          9.596351916839          6.766225400259          2.715117047139
      0.1612777588D+00  0.1000000000D+01
 Atom C17      Shell    49 S   6     bf  137 -   137          0.692038175597          7.756098039324          1.971468995764
      0.3047524880D+04  0.1834737132D-02
      0.4573695180D+03  0.1403732281D-01
      0.1039486850D+03  0.6884262226D-01
      0.2921015530D+02  0.2321844432D+00
      0.9286662960D+01  0.4679413484D+00
      0.3163926960D+01  0.3623119853D+00
 Atom C17      Shell    50 SP   3    bf  138 -   141          0.692038175597          7.756098039324          1.971468995764
      0.7868272350D+01 -0.1193324198D+00  0.6899906659D-01
      0.1881288540D+01 -0.1608541517D+00  0.3164239610D+00
      0.5442492580D+00  0.1143456438D+01  0.7443082909D+00
 Atom C17      Shell    51 SP   1    bf  142 -   145          0.692038175597          7.756098039324          1.971468995764
      0.1687144782D+00  0.1000000000D+01  0.1000000000D+01
 Atom C17      Shell    52 D   1     bf  146 -   151          0.692038175597          7.756098039324          1.971468995764
      0.8000000000D+00  0.1000000000D+01
 Atom C18      Shell    53 S   6     bf  152 -   152          5.722543584348         -0.647512410659          0.237315492734
      0.3047524880D+04  0.1834737132D-02
      0.4573695180D+03  0.1403732281D-01
      0.1039486850D+03  0.6884262226D-01
      0.2921015530D+02  0.2321844432D+00
      0.9286662960D+01  0.4679413484D+00
      0.3163926960D+01  0.3623119853D+00
 Atom C18      Shell    54 SP   3    bf  153 -   156          5.722543584348         -0.647512410659          0.237315492734
      0.7868272350D+01 -0.1193324198D+00  0.6899906659D-01
      0.1881288540D+01 -0.1608541517D+00  0.3164239610D+00
      0.5442492580D+00  0.1143456438D+01  0.7443082909D+00
 Atom C18      Shell    55 SP   1    bf  157 -   160          5.722543584348         -0.647512410659          0.237315492734
      0.1687144782D+00  0.1000000000D+01  0.1000000000D+01
 Atom C18      Shell    56 D   1     bf  161 -   166          5.722543584348         -0.647512410659          0.237315492734
      0.8000000000D+00  0.1000000000D+01
 Atom H19      Shell    57 S   3     bf  167 -   167          4.706195995545         -1.458659400802         -1.365963817539
      0.1873113696D+02  0.3349460434D-01
      0.2825394365D+01  0.2347269535D+00
      0.6401216923D+00  0.8137573261D+00
 Atom H19      Shell    58 S   1     bf  168 -   168          4.706195995545         -1.458659400802         -1.365963817539
      0.1612777588D+00  0.1000000000D+01
 Atom H20      Shell    59 S   3     bf  169 -   169          4.913075804847         -1.520382467234          1.930199531309
      0.1873113696D+02  0.3349460434D-01
      0.2825394365D+01  0.2347269535D+00
      0.6401216923D+00  0.8137573261D+00
 Atom H20      Shell    60 S   1     bf  170 -   170          4.913075804847         -1.520382467234          1.930199531309
      0.1612777588D+00  0.1000000000D+01
 Atom C21      Shell    61 S   6     bf  171 -   171          5.562954889618          7.329598661920          2.463491622161
      0.3047524880D+04  0.1834737132D-02
      0.4573695180D+03  0.1403732281D-01
      0.1039486850D+03  0.6884262226D-01
      0.2921015530D+02  0.2321844432D+00
      0.9286662960D+01  0.4679413484D+00
      0.3163926960D+01  0.3623119853D+00
 Atom C21      Shell    62 SP   3    bf  172 -   175          5.562954889618          7.329598661920          2.463491622161
      0.7868272350D+01 -0.1193324198D+00  0.6899906659D-01
      0.1881288540D+01 -0.1608541517D+00  0.3164239610D+00
      0.5442492580D+00  0.1143456438D+01  0.7443082909D+00
 Atom C21      Shell    63 SP   1    bf  176 -   179          5.562954889618          7.329598661920          2.463491622161
      0.1687144782D+00  0.1000000000D+01  0.1000000000D+01
 Atom C21      Shell    64 D   1     bf  180 -   185          5.562954889618          7.329598661920          2.463491622161
      0.8000000000D+00  0.1000000000D+01
 Atom H22      Shell    65 S   3     bf  186 -   186          5.349178109054          7.088399668600          4.507880443975
      0.1873113696D+02  0.3349460434D-01
      0.2825394365D+01  0.2347269535D+00
      0.6401216923D+00  0.8137573261D+00
 Atom H22      Shell    66 S   1     bf  187 -   187          5.349178109054          7.088399668600          4.507880443975
      0.1612777588D+00  0.1000000000D+01
 Atom H23      Shell    67 S   3     bf  188 -   188          5.774008744899          9.364877699863          2.148005850495
      0.1873113696D+02  0.3349460434D-01
      0.2825394365D+01  0.2347269535D+00
      0.6401216923D+00  0.8137573261D+00
 Atom H23      Shell    68 S   1     bf  189 -   189          5.774008744899          9.364877699863          2.148005850495
      0.1612777588D+00  0.1000000000D+01
 Atom C24      Shell    69 S   6     bf  190 -   190          8.623518087937         -1.089688540322          0.094730005726
      0.3047524880D+04  0.1834737132D-02
      0.4573695180D+03  0.1403732281D-01
      0.1039486850D+03  0.6884262226D-01
      0.2921015530D+02  0.2321844432D+00
      0.9286662960D+01  0.4679413484D+00
      0.3163926960D+01  0.3623119853D+00
 Atom C24      Shell    70 SP   3    bf  191 -   194          8.623518087937         -1.089688540322          0.094730005726
      0.7868272350D+01 -0.1193324198D+00  0.6899906659D-01
      0.1881288540D+01 -0.1608541517D+00  0.3164239610D+00
      0.5442492580D+00  0.1143456438D+01  0.7443082909D+00
 Atom C24      Shell    71 SP   1    bf  195 -   198          8.623518087937         -1.089688540322          0.094730005726
      0.1687144782D+00  0.1000000000D+01  0.1000000000D+01
 Atom C24      Shell    72 D   1     bf  199 -   204          8.623518087937         -1.089688540322          0.094730005726
      0.8000000000D+00  0.1000000000D+01
 Atom H25      Shell    73 S   3     bf  205 -   205          9.230762097664         -2.438661074309          1.541411339641
      0.1873113696D+02  0.3349460434D-01
      0.2825394365D+01  0.2347269535D+00
      0.6401216923D+00  0.8137573261D+00
 Atom H25      Shell    74 S   1     bf  206 -   206          9.230762097664         -2.438661074309          1.541411339641
      0.1612777588D+00  0.1000000000D+01
 Atom H26      Shell    75 S   3     bf  207 -   207          9.193049645812         -1.900285809133         -1.723594903927
      0.1873113696D+02  0.3349460434D-01
      0.2825394365D+01  0.2347269535D+00
      0.6401216923D+00  0.8137573261D+00
 Atom H26      Shell    76 S   1     bf  208 -   208          9.193049645812         -1.900285809133         -1.723594903927
      0.1612777588D+00  0.1000000000D+01
 Atom C27      Shell    77 S   6     bf  209 -   209          0.755586755267          2.562402533573         -0.531732840025
      0.3047524880D+04  0.1834737132D-02
      0.4573695180D+03  0.1403732281D-01
      0.1039486850D+03  0.6884262226D-01
      0.2921015530D+02  0.2321844432D+00
      0.9286662960D+01  0.4679413484D+00
      0.3163926960D+01  0.3623119853D+00
 Atom C27      Shell    78 SP   3    bf  210 -   213          0.755586755267          2.562402533573         -0.531732840025
      0.7868272350D+01 -0.1193324198D+00  0.6899906659D-01
      0.1881288540D+01 -0.1608541517D+00  0.3164239610D+00
      0.5442492580D+00  0.1143456438D+01  0.7443082909D+00
 Atom C27      Shell    79 SP   1    bf  214 -   217          0.755586755267          2.562402533573         -0.531732840025
      0.1687144782D+00  0.1000000000D+01  0.1000000000D+01
 Atom C27      Shell    80 D   1     bf  218 -   223          0.755586755267          2.562402533573         -0.531732840025
      0.8000000000D+00  0.1000000000D+01
 Atom H28      Shell    81 S   3     bf  224 -   224          1.432917400242          2.462652243607         -2.493058768565
      0.1873113696D+02  0.3349460434D-01
      0.2825394365D+01  0.2347269535D+00
      0.6401216923D+00  0.8137573261D+00
 Atom H28      Shell    82 S   1     bf  225 -   225          1.432917400242          2.462652243607         -2.493058768565
      0.1612777588D+00  0.1000000000D+01
 Atom C29      Shell    83 S   6     bf  226 -   226         12.701329990966          1.335985712393          1.357773007485
      0.3047524880D+04  0.1834737132D-02
      0.4573695180D+03  0.1403732281D-01
      0.1039486850D+03  0.6884262226D-01
      0.2921015530D+02  0.2321844432D+00
      0.9286662960D+01  0.4679413484D+00
      0.3163926960D+01  0.3623119853D+00
 Atom C29      Shell    84 SP   3    bf  227 -   230         12.701329990966          1.335985712393          1.357773007485
      0.7868272350D+01 -0.1193324198D+00  0.6899906659D-01
      0.1881288540D+01 -0.1608541517D+00  0.3164239610D+00
      0.5442492580D+00  0.1143456438D+01  0.7443082909D+00
 Atom C29      Shell    85 SP   1    bf  231 -   234         12.701329990966          1.335985712393          1.357773007485
      0.1687144782D+00  0.1000000000D+01  0.1000000000D+01
 Atom C29      Shell    86 D   1     bf  235 -   240         12.701329990966          1.335985712393          1.357773007485
      0.8000000000D+00  0.1000000000D+01
 Atom H30      Shell    87 S   3     bf  241 -   241         13.536646786219          0.000000000000          0.000000000000
      0.1873113696D+02  0.3349460434D-01
      0.2825394365D+01  0.2347269535D+00
      0.6401216923D+00  0.8137573261D+00
 Atom H30      Shell    88 S   1     bf  242 -   242         13.536646786219          0.000000000000          0.000000000000
      0.1612777588D+00  0.1000000000D+01
 Atom C31      Shell    89 S   6     bf  243 -   243          7.603287452082          2.387156531866          4.714881913845
      0.3047524880D+04  0.1834737132D-02
      0.4573695180D+03  0.1403732281D-01
      0.1039486850D+03  0.6884262226D-01
      0.2921015530D+02  0.2321844432D+00
      0.9286662960D+01  0.4679413484D+00
      0.3163926960D+01  0.3623119853D+00
 Atom C31      Shell    90 SP   3    bf  244 -   247          7.603287452082          2.387156531866          4.714881913845
      0.7868272350D+01 -0.1193324198D+00  0.6899906659D-01
      0.1881288540D+01 -0.1608541517D+00  0.3164239610D+00
      0.5442492580D+00  0.1143456438D+01  0.7443082909D+00
 Atom C31      Shell    91 SP   1    bf  248 -   251          7.603287452082          2.387156531866          4.714881913845
      0.1687144782D+00  0.1000000000D+01  0.1000000000D+01
 Atom C31      Shell    92 D   1     bf  252 -   257          7.603287452082          2.387156531866          4.714881913845
      0.8000000000D+00  0.1000000000D+01
 Atom H32      Shell    93 S   3     bf  258 -   258          5.810050452082          3.002901304525          5.535061190191
      0.1873113696D+02  0.3349460434D-01
      0.2825394365D+01  0.2347269535D+00
      0.6401216923D+00  0.8137573261D+00
 Atom H32      Shell    94 S   1     bf  259 -   259          5.810050452082          3.002901304525          5.535061190191
      0.1612777588D+00  0.1000000000D+01
 Atom H33      Shell    95 S   3     bf  260 -   260          7.735017123860          0.347371404165          5.007996975269
      0.1873113696D+02  0.3349460434D-01
      0.2825394365D+01  0.2347269535D+00
      0.6401216923D+00  0.8137573261D+00
 Atom H33      Shell    96 S   1     bf  261 -   261          7.735017123860          0.347371404165          5.007996975269
      0.1612777588D+00  0.1000000000D+01
 Atom H34      Shell    97 S   3     bf  262 -   262          9.108422248273          3.274093142856          5.819666814838
      0.1873113696D+02  0.3349460434D-01
      0.2825394365D+01  0.2347269535D+00
      0.6401216923D+00  0.8137573261D+00
 Atom H34      Shell    98 S   1     bf  263 -   263          9.108422248273          3.274093142856          5.819666814838
      0.1612777588D+00  0.1000000000D+01
 Atom C35      Shell    99 S   6     bf  264 -   264         -1.618406473480          6.524892538740          0.732312396886
      0.3047524880D+04  0.1834737132D-02
      0.4573695180D+03  0.1403732281D-01
      0.1039486850D+03  0.6884262226D-01
      0.2921015530D+02  0.2321844432D+00
      0.9286662960D+01  0.4679413484D+00
      0.3163926960D+01  0.3623119853D+00
 Atom C35      Shell   100 SP   3    bf  265 -   268         -1.618406473480          6.524892538740          0.732312396886
      0.7868272350D+01 -0.1193324198D+00  0.6899906659D-01
      0.1881288540D+01 -0.1608541517D+00  0.3164239610D+00
      0.5442492580D+00  0.1143456438D+01  0.7443082909D+00
 Atom C35      Shell   101 SP   1    bf  269 -   272         -1.618406473480          6.524892538740          0.732312396886
      0.1687144782D+00  0.1000000000D+01  0.1000000000D+01
 Atom C35      Shell   102 D   1     bf  273 -   278         -1.618406473480          6.524892538740          0.732312396886
      0.8000000000D+00  0.1000000000D+01
 Atom C36      Shell   103 S   6     bf  279 -   279          0.819374687650         10.567485370166          1.086956884505
      0.3047524880D+04  0.1834737132D-02
      0.4573695180D+03  0.1403732281D-01
      0.1039486850D+03  0.6884262226D-01
      0.2921015530D+02  0.2321844432D+00
      0.9286662960D+01  0.4679413484D+00
      0.3163926960D+01  0.3623119853D+00
 Atom C36      Shell   104 SP   3    bf  280 -   283          0.819374687650         10.567485370166          1.086956884505
      0.7868272350D+01 -0.1193324198D+00  0.6899906659D-01
      0.1881288540D+01 -0.1608541517D+00  0.3164239610D+00
      0.5442492580D+00  0.1143456438D+01  0.7443082909D+00
 Atom C36      Shell   105 SP   1    bf  284 -   287          0.819374687650         10.567485370166          1.086956884505
      0.1687144782D+00  0.1000000000D+01  0.1000000000D+01
 Atom C36      Shell   106 D   1     bf  288 -   293          0.819374687650         10.567485370166          1.086956884505
      0.8000000000D+00  0.1000000000D+01
 Atom H37      Shell   107 S   3     bf  294 -   294          1.414379564823         10.595276174005         -0.902136679832
      0.1873113696D+02  0.3349460434D-01
      0.2825394365D+01  0.2347269535D+00
      0.6401216923D+00  0.8137573261D+00
 Atom H37      Shell   108 S   1     bf  295 -   295          1.414379564823         10.595276174005         -0.902136679832
      0.1612777588D+00  0.1000000000D+01
 Atom H38      Shell   109 S   3     bf  296 -   296          2.289677484842         11.559641176344          2.152891397261
      0.1873113696D+02  0.3349460434D-01
      0.2825394365D+01  0.2347269535D+00
      0.6401216923D+00  0.8137573261D+00
 Atom H38      Shell   110 S   1     bf  297 -   297          2.289677484842         11.559641176344          2.152891397261
      0.1612777588D+00  0.1000000000D+01
 Atom C39      Shell   111 S   6     bf  298 -   298         -1.513728269088          4.266222719636         -0.412195189927
      0.3047524880D+04  0.1834737132D-02
[...]
 **** Fit       0.000169
 **** Fit      -0.000094
 **** Fit      -0.000477
 **** Fit      -0.000979
 **** Fit      -0.001536
 **** Fit      -0.001988
 **** Fit      -0.002036
 **** Fit      -0.001267
 **** Fit       0.000667
 **** Fit       0.003600
 **** Fit       0.007476
 **** Fit       0.005998
 **** Fit       0.004442
 **** Fit       0.003255
 **** Fit       0.002469
 **** Fit       0.001975
 **** Fit       0.001666
 **** Fit       0.000241
 **** Fit      -0.000028
 **** Fit      -0.000442
 **** Fit      -0.001013
 **** Fit      -0.001687
 **** Fit      -0.002296
 **** Fit      -0.002504
 **** Fit      -0.001831
 **** Fit       0.000141
 **** Fit       0.007379
 **** Fit       0.005770
 **** Fit       0.004141
 **** Fit       0.002948
 **** Fit       0.002193
 **** Fit       0.001742
 **** Fit       0.001474
 **** Fit       0.000334
 **** Fit       0.000080
 **** Fit      -0.000332
 **** Fit      -0.000927
 **** Fit      -0.001672
 **** Fit      -0.002410
 **** Fit      -0.002814
 **** Fit      -0.002422
 **** Fit      -0.000844
 **** Fit       0.001801
 **** Fit       0.005714
 **** Fit       0.004516
 **** Fit       0.003258
 **** Fit       0.002337
 **** Fit       0.001765
 **** Fit       0.001436
 **** Fit       0.001250
 **** Fit       0.000537
 **** Fit       0.000423
 **** Fit       0.000197
 **** Fit      -0.000187
 **** Fit      -0.000765
 **** Fit      -0.001521
 **** Fit      -0.002326
 **** Fit      -0.002901
 **** Fit      -0.002859
 **** Fit      -0.001899
 **** Fit      -0.000107
 **** Fit       0.001847
 **** Fit       0.003074
 **** Fit       0.003233
 **** Fit       0.002713
 **** Fit       0.002062
 **** Fit       0.001566
 **** Fit       0.001263
 **** Fit       0.001099
 **** Fit       0.001018
 **** Fit       0.000482
 **** Fit       0.000286
 **** Fit      -0.000059
 **** Fit      -0.000592
 **** Fit      -0.001308
 **** Fit      -0.002109
 **** Fit      -0.002772
 **** Fit      -0.003006
 **** Fit      -0.002597
 **** Fit      -0.001594
 **** Fit      -0.000371
 **** Fit       0.000579
 **** Fit       0.001012
 **** Fit       0.001048
 **** Fit       0.000936
 **** Fit       0.000834
 **** Fit       0.000787
 **** Fit       0.000785
 **** Fit       0.000805
 **** Fit       0.000498
 **** Fit       0.000325
 **** Fit       0.000017
 **** Fit      -0.000459
 **** Fit      -0.001104
 **** Fit      -0.001840
 **** Fit      -0.002499
 **** Fit      -0.002871
 **** Fit      -0.002809
 **** Fit      -0.002330
 **** Fit      -0.001619
 **** Fit      -0.000927
 **** Fit      -0.000415
 **** Fit      -0.000089
 **** Fit       0.000122
 **** Fit       0.000281
 **** Fit       0.000416
 **** Fit       0.000534
 **** Fit       0.000470
 **** Fit       0.000311
 **** Fit       0.000037
 **** Fit      -0.000381
 **** Fit      -0.000938
 **** Fit      -0.001573
 **** Fit      -0.002162
 **** Fit      -0.002559
 **** Fit      -0.002661
 **** Fit      -0.002463
 **** Fit      -0.002055
 **** Fit      -0.001563
 **** Fit      -0.001089
 **** Fit      -0.000679
 **** Fit      -0.000338
 **** Fit      -0.000055
 **** Fit       0.000177
 **** Fit       0.000264
 **** Fit       0.000018
 **** Fit      -0.000341
 **** Fit      -0.000806
 **** Fit      -0.001328
 **** Fit      -0.001819
 **** Fit      -0.002176
 **** Fit      -0.002328
 **** Fit      -0.002262
 **** Fit      -0.002018
 **** Fit      -0.001666
 **** Fit      -0.001270
 **** Fit      -0.000879
 **** Fit      -0.000520
 **** Fit      -0.000206
 **** Fit      -0.000014
 **** Fit      -0.000316
 **** Fit      -0.000693
 **** Fit      -0.001108
 **** Fit      -0.001496
 **** Fit      -0.001789
 **** Fit      -0.001936
 **** Fit      -0.001921
 **** Fit      -0.001765
 **** Fit      -0.001507
 **** Fit      -0.001189
 **** Fit      -0.000851
 **** Fit      -0.000524
 **** Fit      -0.000289
 **** Fit      -0.000588
 **** Fit      -0.000908
 **** Fit      -0.001204
 **** Fit      -0.001430
 **** Fit      -0.001549
 **** Fit      -0.001550
 **** Fit      -0.001441
 **** Fit      -0.001244
 **** Fit       0.000665
 **** Fit       0.000899
 **** Fit       0.001150
 **** Fit       0.001386
 **** Fit       0.001580
 **** Fit       0.001717
 **** Fit       0.000208
 **** Fit       0.000390
 **** Fit       0.000655
 **** Fit       0.000982
 **** Fit       0.001323
 **** Fit       0.001626
 **** Fit       0.001849
 **** Fit       0.001978
 **** Fit       0.002021
 **** Fit      -0.000087
 **** Fit       0.000025
 **** Fit       0.000263
 **** Fit       0.000632
 **** Fit       0.001091
 **** Fit       0.001561
 **** Fit       0.001952
 **** Fit       0.002201
 **** Fit       0.002299
 **** Fit       0.002278
 **** Fit       0.002180
 **** Fit      -0.000338
 **** Fit      -0.000218
 **** Fit       0.000090
 **** Fit       0.000598
 **** Fit       0.001244
 **** Fit       0.001896
 **** Fit       0.002398
 **** Fit       0.002661
 **** Fit       0.002692
 **** Fit       0.002565
 **** Fit       0.002363
 **** Fit       0.002145
 **** Fit      -0.000568
 **** Fit      -0.000633
 **** Fit      -0.000517
 **** Fit      -0.000134
 **** Fit       0.000546
 **** Fit       0.001437
 **** Fit       0.002325
 **** Fit       0.002960
 **** Fit       0.003213
 **** Fit       0.003131
 **** Fit       0.002855
 **** Fit       0.002521
 **** Fit       0.002207
 **** Fit       0.001943
 **** Fit      -0.000575
 **** Fit      -0.000814
 **** Fit      -0.000950
 **** Fit      -0.000860
 **** Fit      -0.000417
 **** Fit       0.000439
 **** Fit       0.001600
 **** Fit       0.002750
 **** Fit       0.003521
 **** Fit       0.003740
 **** Fit       0.003513
 **** Fit       0.003071
 **** Fit       0.002605
 **** Fit       0.002205
 **** Fit       0.001894
 **** Fit      -0.000379
 **** Fit      -0.000702
 **** Fit      -0.001026
 **** Fit      -0.001249
 **** Fit      -0.001219
 **** Fit      -0.000766
 **** Fit       0.000205
 **** Fit       0.001571
 **** Fit       0.002932
 **** Fit       0.003810
 **** Fit       0.003997
 **** Fit       0.003655
 **** Fit       0.003096
 **** Fit       0.002548
 **** Fit       0.002106
 **** Fit       0.001780
 **** Fit      -0.000090
 **** Fit      -0.000391
 **** Fit      -0.000767
 **** Fit      -0.001167
 **** Fit      -0.001484
 **** Fit      -0.001549
 **** Fit      -0.001165
 **** Fit      -0.000216
 **** Fit       0.001181
 **** Fit       0.002599
 **** Fit       0.003521
 **** Fit       0.003722
 **** Fit       0.003381
 **** Fit       0.002830
 **** Fit       0.002303
 **** Fit       0.001890
 **** Fit       0.001597
 **** Fit      -0.000043
 **** Fit      -0.000356
 **** Fit      -0.000761
 **** Fit      -0.001215
 **** Fit      -0.001615
 **** Fit      -0.001794
 **** Fit      -0.001556
 **** Fit      -0.000781
 **** Fit       0.000432
 **** Fit       0.001712
 **** Fit       0.002597
 **** Fit       0.002872
 **** Fit       0.002672
 **** Fit       0.002274
 **** Fit       0.001880
 **** Fit       0.001571
 **** Fit       0.001356
 **** Fit       0.000016
 **** Fit      -0.000290
 **** Fit      -0.000699
 **** Fit      -0.001176
 **** Fit      -0.001630
 **** Fit      -0.001911
 **** Fit      -0.001847
 **** Fit      -0.001334
 **** Fit      -0.000437
 **** Fit       0.000572
 **** Fit       0.001349
 **** Fit       0.001712
 **** Fit       0.001722
 **** Fit       0.001556
 **** Fit       0.001359
 **** Fit       0.001198
 **** Fit       0.001087
 **** Fit       0.000070
 **** Fit      -0.000217
 **** Fit      -0.000608
 **** Fit      -0.001076
 **** Fit      -0.001545
 **** Fit      -0.001892
 **** Fit      -0.001976
 **** Fit      -0.001714
 **** Fit      -0.001139
 **** Fit      -0.000424
 **** Fit       0.000208
 **** Fit       0.000618
 **** Fit       0.000807
 **** Fit       0.000856
 **** Fit       0.000849
 **** Fit       0.000834
 **** Fit       0.000828
 **** Fit       0.000105
 **** Fit      -0.000158
 **** Fit      -0.000517
 **** Fit      -0.000951
 **** Fit      -0.001399
 **** Fit      -0.001765
 **** Fit      -0.001940
 **** Fit      -0.001858
 **** Fit      -0.001532
 **** Fit      -0.001059
 **** Fit      -0.000572
 **** Fit      -0.000170
 **** Fit       0.000115
 **** Fit       0.000304
 **** Fit       0.000435
 **** Fit       0.000532
 **** Fit      -0.000120
 **** Fit      -0.000439
 **** Fit      -0.000824
 **** Fit      -0.001228
 **** Fit      -0.001574
 **** Fit      -0.001785
 **** Fit      -0.001806
 **** Fit      -0.001639
 **** Fit      -0.001335
 **** Fit      -0.000970
 **** Fit      -0.000615
 **** Fit      -0.000306
 **** Fit      -0.000052
 **** Fit       0.000153
 **** Fit       0.000318
 **** Fit      -0.000101
 **** Fit      -0.000378
 **** Fit      -0.000708
 **** Fit      -0.001053
 **** Fit      -0.001358
 **** Fit      -0.001564
 **** Fit      -0.001632
 **** Fit      -0.001554
 **** Fit      -0.001357
 **** Fit      -0.001086
 **** Fit      -0.000788
 **** Fit      -0.000497
 **** Fit      -0.000233
 **** Fit      -0.000601
 **** Fit      -0.000886
 **** Fit      -0.001140
 **** Fit      -0.001321
 **** Fit      -0.001399
 **** Fit      -0.001366
 **** Fit      -0.001233
 **** Fit      -0.001029
 **** Fit      -0.000786
 **** Fit      -0.000530
 **** Fit       0.000644
 **** Fit       0.000897
 **** Fit       0.001158
 **** Fit       0.001389
 **** Fit       0.001565
 **** Fit       0.001673
 **** Fit       0.000347
 **** Fit       0.000627
 **** Fit       0.000961
 **** Fit       0.001299
 **** Fit       0.001587
 **** Fit       0.001786
 **** Fit       0.001884
 **** Fit       0.001895
 **** Fit      -0.000009
 **** Fit       0.000231
 **** Fit       0.000589
 **** Fit       0.001024
 **** Fit       0.001460
 **** Fit       0.001814
 **** Fit       0.002033
 **** Fit       0.002109
 **** Fit       0.002073
 **** Fit       0.001968
 **** Fit      -0.000324
 **** Fit      -0.000205
 **** Fit       0.000075
 **** Fit       0.000517
 **** Fit       0.001066
 **** Fit       0.001615
 **** Fit       0.002043
 **** Fit       0.002277
 **** Fit       0.002320
 **** Fit       0.002224
 **** Fit       0.002058
 **** Fit       0.001873
 **** Fit      -0.000534
 **** Fit      -0.000431
 **** Fit      -0.000126
 **** Fit       0.000389
 **** Fit       0.001047
 **** Fit       0.001706
 **** Fit       0.002204
 **** Fit       0.002450
 **** Fit       0.002456
 **** Fit       0.002304
 **** Fit       0.002084
 **** Fit       0.001858
 **** Fit      -0.000644
 **** Fit      -0.000737
 **** Fit      -0.000670
 **** Fit      -0.000371
 **** Fit       0.000179
 **** Fit       0.000907
 **** Fit       0.001643
 **** Fit       0.002194
 **** Fit       0.002451
 **** Fit       0.002438
 **** Fit       0.002256
 **** Fit       0.002011
 **** Fit       0.001771
 **** Fit      -0.000758
 **** Fit      -0.000908
 **** Fit      -0.000897
 **** Fit      -0.000644
 **** Fit      -0.000119
 **** Fit       0.000607
 **** Fit       0.001356
 **** Fit       0.001927
 **** Fit       0.002203
 **** Fit       0.002207
 **** Fit       0.002043
 **** Fit       0.001820
 **** Fit       0.001604
 **** Fit       0.001424
 **** Fit      -0.000556
 **** Fit      -0.000821
 **** Fit      -0.001024
 **** Fit      -0.001081
 **** Fit      -0.000908
 **** Fit      -0.000471
 **** Fit       0.000172
 **** Fit       0.000862
 **** Fit       0.001412
 **** Fit       0.001712
 **** Fit       0.001772
 **** Fit       0.001678
 **** Fit       0.001523
 **** Fit       0.001367
 **** Fit      -0.000542
 **** Fit      -0.000829
 **** Fit      -0.001073
 **** Fit      -0.001195
 **** Fit      -0.001118
 **** Fit      -0.000805
 **** Fit      -0.000300
 **** Fit       0.000276
 **** Fit       0.000771
 **** Fit       0.001088
 **** Fit       0.001221
 **** Fit       0.001225
 **** Fit       0.001166
 **** Fit       0.001093
 **** Fit      -0.000502
 **** Fit      -0.000794
 **** Fit      -0.001059
 **** Fit      -0.001229
 **** Fit      -0.001238
 **** Fit      -0.001051
 **** Fit      -0.000695
 **** Fit      -0.000253
 **** Fit       0.000166
 **** Fit       0.000483
 **** Fit       0.000677
 **** Fit       0.000772
 **** Fit       0.000809
 **** Fit       0.000820
 **** Fit      -0.000449
 **** Fit      -0.000729
 **** Fit      -0.000995
 **** Fit      -0.001191
 **** Fit      -0.001261
 **** Fit      -0.001175
 **** Fit      -0.000946
 **** Fit      -0.000626
 **** Fit      -0.000289
 **** Fit       0.000007
 **** Fit       0.000234
 **** Fit       0.000394
 **** Fit       0.000504
 **** Fit      -0.000651
 **** Fit      -0.000901
 **** Fit      -0.001100
 **** Fit      -0.001203
 **** Fit      -0.001185
 **** Fit      -0.001048
 **** Fit      -0.000824
 **** Fit      -0.000560
 **** Fit      -0.000298
 **** Fit      -0.000067
 **** Fit       0.000125
 **** Fit      -0.001109
 **** Fit      -0.001032
 **** Fit      -0.000876
 **** Fit      -0.000671
 **** Fit      -0.000448
 **** Fit      -0.000231
 **** Fit       0.000842
 **** Fit       0.001087
 **** Fit       0.001301
 **** Fit       0.001457
 **** Fit       0.000306
 **** Fit       0.000562
 **** Fit       0.000862
 **** Fit       0.001162
 **** Fit       0.001415
 **** Fit       0.001589
 **** Fit       0.001675
 **** Fit       0.001683
 **** Fit      -0.000010
 **** Fit       0.000196
 **** Fit       0.000495
 **** Fit       0.000852
 **** Fit       0.001209
 **** Fit       0.001504
 **** Fit       0.001694
 **** Fit       0.001772
 **** Fit       0.001758
 **** Fit      -0.000162
 **** Fit       0.000055
 **** Fit       0.000386
 **** Fit       0.000791
 **** Fit       0.001199
 **** Fit       0.001530
 **** Fit       0.001736
 **** Fit       0.001808
 **** Fit       0.001775
 **** Fit       0.001681
 **** Fit      -0.000325
 **** Fit      -0.000116
 **** Fit       0.000226
 **** Fit       0.000657
 **** Fit       0.001096
 **** Fit       0.001453
 **** Fit       0.001672
 **** Fit       0.001746
 **** Fit       0.001709
 **** Fit       0.001609
 **** Fit      -0.000527
 **** Fit      -0.000484
 **** Fit      -0.000304
 **** Fit       0.000018
 **** Fit       0.000442
 **** Fit       0.000882
 **** Fit       0.001249
 **** Fit       0.001480
 **** Fit       0.001568
 **** Fit       0.001546
 **** Fit       0.001462
 **** Fit      -0.000622
 **** Fit      -0.000489
 **** Fit      -0.000214
 **** Fit       0.000166
 **** Fit       0.000577
 **** Fit       0.000931
 **** Fit       0.001171
 **** Fit       0.001284
 **** Fit       0.001297
 **** Fit       0.001251
 **** Fit      -0.000722
 **** Fit      -0.000644
 **** Fit      -0.000436
 **** Fit      -0.000123
 **** Fit       0.000232
 **** Fit       0.000557
 **** Fit       0.000798
 **** Fit       0.000940
 **** Fit       0.000998
 **** Fit       0.001002
 **** Fit      -0.000774
 **** Fit      -0.000749
 **** Fit      -0.000610
 **** Fit      -0.000374
 **** Fit      -0.000086
 **** Fit       0.000197
 **** Fit       0.000430
 **** Fit       0.000595
 **** Fit       0.000695
 **** Fit      -0.000796
 **** Fit      -0.000717
 **** Fit      -0.000551
 **** Fit      -0.000329
 **** Fit      -0.000092
 **** Fit       0.000125
 **** Fit       0.000300
 **** Fit       0.000432
 **** Fit      -0.000643
 **** Fit      -0.000477
 **** Fit      -0.000284
 **** Fit      -0.000090
 **** Fit       0.000711
 **** Fit       0.000954
 **** Fit       0.001162
 **** Fit       0.001311
 **** Fit       0.000383
 **** Fit       0.000648
 **** Fit       0.000915
 **** Fit       0.001143
 **** Fit       0.001304
 **** Fit       0.001388
 **** Fit       0.000038
 **** Fit       0.000264
 **** Fit       0.000539
 **** Fit       0.000819
 **** Fit       0.001061
 **** Fit       0.001232
 **** Fit       0.001321
 **** Fit      -0.000095
 **** Fit       0.000118
 **** Fit       0.000385
 **** Fit       0.000664
 **** Fit       0.000910
 **** Fit       0.001087
 **** Fit       0.001186
 **** Fit       0.001216
 **** Fit      -0.000227
 **** Fit      -0.000043
 **** Fit       0.000200
 **** Fit       0.000463
 **** Fit       0.000701
 **** Fit       0.000882
 **** Fit       0.000993
 **** Fit      -0.000197
 **** Fit       0.000009
 **** Fit       0.000242
 **** Fit       0.000463
 **** Fit       0.000642
 **** Fit       0.000766
 **** Fit      -0.000161
 **** Fit       0.000035
 **** Fit       0.000232
 **** Fit       0.000404
 -----------------------------------------------------------------
 Leave Link  602 at Wed May 17 12:29:40 2017, MaxMem=    33554432 cpu:        37.7
 (Enter /home/michal/g09/l9999.exe)

 Test job not archived.
 1\1\GINC-LINUX\SP\RHF\6-31G(d)\C27H46O2\MICHAL\17-May-2017\0\\#P HF/6-
 31G* SCF(Conver=6) NoSymm Test Pop=chelpg IOp(6/33=2) GFInput GFPrint\
 \MEP - Input generated by R.E.D.-III.x MOLECULE\\0,1\O,0,0.,0.,0.\H,0,
 -0.4820302,-0.00004145,0.83902528\O,0,-3.24708549,6.38607028,0.\H,0,-3
 .51657304,6.45520426,0.92669305\C,0,4.14065657,1.64830312,1.00164005\C
 ,0,2.89215981,1.19069382,0.18902277\H,0,3.06546847,1.56242647,-0.83538
 695\C,0,1.55726156,1.82192181,0.62322136\H,0,1.31074111,1.50312262,1.6
 4643692\C,0,1.6741134,3.37250279,0.57957937\H,0,1.7946557,3.63039606,-
 0.48559739\C,0,5.24002258,0.81536739,0.25490696\H,0,5.29292937,1.27380
 749,-0.74244665\C,0,4.24031389,3.17776318,0.85546858\H,0,4.4400184,3.4
 2415611,-0.19680018\H,0,5.07817072,3.58053227,1.43677806\C,0,0.3662108
 3,4.10435031,1.04325646\C,0,3.02823964,-0.34264881,0.12558195\H,0,2.49
 041166,-0.77188931,-0.72283692\H,0,2.59988774,-0.80455175,1.0214176\C,
 0,2.94378894,3.87865656,1.30362362\H,0,2.83066314,3.75101955,2.3854675
 9\H,0,3.05547383,4.95567984,1.13667574\C,0,4.56336923,-0.57663834,0.05
 012896\H,0,4.88470892,-1.29048386,0.81567975\H,0,4.86475235,-1.0055879
 4,-0.91208714\C,0,0.39983929,1.35596502,-0.2813809\H,0,0.75826723,1.30
 317944,-1.31926988\C,0,6.72125435,0.70697319,0.71850253\H,0,7.16328496
 ,0.,0.\C,0,4.02348643,1.26322883,2.49500805\H,0,3.07454628,1.58906693,
 2.92902823\H,0,4.09319477,0.18382103,2.65011786\H,0,4.81996946,1.73257
 547,3.07963504\C,0,-0.85642382,3.45282442,0.38752303\C,0,0.43359441,5.
 59207241,0.57519281\H,0,0.74845743,5.60677867,-0.47739017\H,0,1.211645
 14,6.11709865,1.13926106\C,0,-0.8010305,2.25758783,-0.2181243\H,0,-1.6
 936612,1.85630349,-0.69796617\C,0,0.19459835,4.05323421,2.58512457\H,0
 ,0.95249139,4.65928203,3.09094463\H,0,-0.78189897,4.43529149,2.893853\
 H,0,0.27196597,3.02770479,2.95904264\C,0,-2.16149351,4.22508476,0.4340
 4509\H,0,-2.92836878,3.70877436,-0.15163817\H,0,-2.53153434,4.26852796
 ,1.47125951\C,0,-0.88561899,6.37084472,0.69435109\H,0,-1.17696282,6.47
 536453,1.75009511\H,0,-0.75697532,7.38639588,0.30300618\C,0,7.53340102
 ,2.02057858,0.6036314\H,0,7.12653389,2.75583717,1.30969075\H,0,8.55302
 338,1.8074741,0.95643688\C,0,-2.01114629,5.66963289,-0.06551603\H,0,-1
 .76734073,5.65284964,-1.13477621\C,0,6.97238828,0.09027439,2.10956678\
 H,0,6.76837577,0.79892874,2.91771413\H,0,8.02482948,-0.20310531,2.1960
 9191\H,0,6.3702007,-0.80495281,2.28970211\C,0,7.64382012,2.67519634,-0
 .78737364\H,0,6.64974897,2.96250976,-1.14814695\H,0,8.1993763,3.613489
 46,-0.66357222\C,0,8.34923245,1.80119491,-1.83787841\H,0,7.75441643,0.
 89567386,-2.01692194\H,0,9.30723569,1.45657645,-1.42113845\C,0,8.62732
 901,2.46568457,-3.20742218\H,0,9.11139525,1.69336911,-3.82336359\C,0,9
 .61100669,3.6437332,-3.10995167\H,0,9.17935671,4.48946928,-2.56243056\
 H,0,9.88270217,4.0067682,-4.10776962\H,0,10.53531178,3.35040028,-2.598
 43179\C,0,7.33854894,2.88150544,-3.93599985\H,0,6.82532434,3.69770057,
 -3.4144641\H,0,7.55975926,3.23080543,-4.9510155\H,0,6.63732933,2.04259
 783,-4.01745655\\Version=EM64L-G09RevD.01\HF=-1198.9194764\RMSD=5.133e
 -07\Dipole=0.3436747,0.3789535,0.9110263\Quadrupole=-1.3066271,-2.3636
 266,3.6702537,6.1539089,-5.4708018,7.579389\PG=C01 [X(C27H46O2)]\\@


 THE POLHOLDE ROLLS WITHOUT SLIPPING ON THE HERPOLHOLDE LYING IN
 THE INVARIABLE PLANE.
 H.GOLDSTEIN, "CLASSICAL MECHANICS", PG 161
 Job cpu time:       0 days  0 hours 12 minutes 14.2 seconds.
 File lengths (MBytes):  RWF=    150 Int=      0 D2E=      0 Chk=     11 Scr=      1
 Normal termination of Gaussian 09 at Wed May 17 12:29:40 2017.
