 Entering Gaussian System, Link 0=/home/michal/g09/g09
 Input=JOB2-gau_m1-17-3.com
 Output=JOB2-gau_m1-17-3.log
 Initial command:
 /home/michal/g09/l1.exe "/home/michal/gauss_scratch/Gau-5527.inp" -scrdir="/home/michal/gauss_scratch/"
 Entering Link 1 = /home/michal/g09/l1.exe PID=      5528.
  
 Copyright (c) 1988,1990,1992,1993,1995,1998,2003,2009,2013,
            Gaussian, Inc.  All Rights Reserved.
  
 This is part of the Gaussian(R) 09 program.  It is based on
 the Gaussian(R) 03 system (copyright 2003, Gaussian, Inc.),
 the Gaussian(R) 98 system (copyright 1998, Gaussian, Inc.),
 the Gaussian(R) 94 system (copyright 1995, Gaussian, Inc.),
 the Gaussian 92(TM) system (copyright 1992, Gaussian, Inc.),
 the Gaussian 90(TM) system (copyright 1990, Gaussian, Inc.),
 the Gaussian 88(TM) system (copyright 1988, Gaussian, Inc.),
 the Gaussian 86(TM) system (copyright 1986, Carnegie Mellon
 University), and the Gaussian 82(TM) system (copyright 1983,
 Carnegie Mellon University). Gaussian is a federally registered
 trademark of Gaussian, Inc.
  
 This software contains proprietary and confidential information,
 including trade secrets, belonging to Gaussian, Inc.
  
 This software is provided under written license and may be
 used, copied, transmitted, or stored only in accord with that
 written license.
  
 The following legend is applicable only to US Government
 contracts under FAR:
  
                    RESTRICTED RIGHTS LEGEND
  
 Use, reproduction and disclosure by the US Government is
 subject to restrictions as set forth in subparagraphs (a)
 and (c) of the Commercial Computer Software - Restricted
 Rights clause in FAR 52.227-19.
  
 Gaussian, Inc.
 340 Quinnipiac St., Bldg. 40, Wallingford CT 06492
  
  
 ---------------------------------------------------------------
 Warning -- This program may not be used in any manner that
 competes with the business of Gaussian, Inc. or will provide
 assistance to any competitor of Gaussian, Inc.  The licensee
 of this program is prohibited from giving any competitor of
 Gaussian, Inc. access to this program.  By using this program,
 the user acknowledges that Gaussian, Inc. is engaged in the
 business of creating and licensing software in the field of
 computational chemistry and represents and warrants to the
 licensee that it is not a competitor of Gaussian, Inc. and that
 it will not use this program in any manner prohibited above.
 ---------------------------------------------------------------
  

 Cite this work as:
 Gaussian 09, Revision D.01,
 M. J. Frisch, G. W. Trucks, H. B. Schlegel, G. E. Scuseria, 
 M. A. Robb, J. R. Cheeseman, G. Scalmani, V. Barone, B. Mennucci, 
 G. A. Petersson, H. Nakatsuji, M. Caricato, X. Li, H. P. Hratchian, 
 A. F. Izmaylov, J. Bloino, G. Zheng, J. L. Sonnenberg, M. Hada, 
 M. Ehara, K. Toyota, R. Fukuda, J. Hasegawa, M. Ishida, T. Nakajima, 
 Y. Honda, O. Kitao, H. Nakai, T. Vreven, J. A. Montgomery, Jr., 
 J. E. Peralta, F. Ogliaro, M. Bearpark, J. J. Heyd, E. Brothers, 
 K. N. Kudin, V. N. Staroverov, T. Keith, R. Kobayashi, J. Normand, 
 K. Raghavachari, A. Rendell, J. C. Burant, S. S. Iyengar, J. Tomasi, 
 M. Cossi, N. Rega, J. M. Millam, M. Klene, J. E. Knox, J. B. Cross, 
 V. Bakken, C. Adamo, J. Jaramillo, R. Gomperts, R. E. Stratmann, 
 O. Yazyev, A. J. Austin, R. Cammi, C. Pomelli, J. W. Ochterski, 
 R. L. Martin, K. Morokuma, V. G. Zakrzewski, G. A. Voth, 
 P. Salvador, J. J. Dannenberg, S. Dapprich, A. D. Daniels, 
 O. Farkas, J. B. Foresman, J. V. Ortiz, J. Cioslowski, 
 and D. J. Fox, Gaussian, Inc., Wallingford CT, 2013.
 
 ******************************************
 Gaussian 09:  EM64L-G09RevD.01 24-Apr-2013
                17-May-2017 
 ******************************************
 %Mem=256MB
 %NProc=12
 Will use up to   12 processors via shared memory.
 ----------------------------------------------------------------------
 #P HF/6-31G* SCF(Conver=6) NoSymm Test Pop=chelpg IOp(6/33=2) GFInput 
 GFPrint
 ----------------------------------------------------------------------
 1/38=1/1;
 2/12=2,15=1,17=6,18=5,40=1/2;
 3/5=1,6=6,7=1,11=9,16=1,24=110,25=1,30=1/1,2,3;
 4//1;
 5/5=2,6=6,38=5/2;
 6/7=2,8=2,9=2,10=2,15=8,20=3,28=1,33=2/1,2;
 99/5=1,9=1/99;
 Leave Link    1 at Wed May 17 12:35:58 2017, MaxMem=    33554432 cpu:         0.6
 (Enter /home/michal/g09/l101.exe)
 ----------------------------------------------
 MEP - Input generated by R.E.D.-III.x MOLECULE
 ----------------------------------------------
 Symbolic Z-matrix:
 Charge =  0 Multiplicity = 1
 O                     6.10715   3.74589   0. 
 H                     5.69579   3.99813  -0.83874 
 O                     0.        0.        0. 
 H                    -0.2658    0.0817   -0.92674 
 C                     8.7748    0.17576  -1.00106 
 C                     7.94974   1.21883  -0.18863 
 H                     7.90319   0.81153   0.83591 
 C                     6.48177   1.37855  -0.6229 
 H                     6.43839   1.779    -1.6462 
 C                     5.77059  -0.00417  -0.57903 
 H                     5.73832  -0.28687   0.48619 
 C                     10.1476   0.31109  -0.25463 
 H                     9.95371  -0.10879   0.74234 
 C                     8.05995  -1.17999  -0.85438 
 H                     8.10129  -1.49413   0.19798 
 H                     8.56358  -1.96167  -1.43531 
 C                     4.27312   0.05585  -1.04282 
 C                     8.86739   2.45465  -0.1252 
 H                     8.63253   3.10248   0.72241 
 H                     8.74482   3.07163  -1.02169 
 C                     6.58835  -1.09971  -1.30269 
 H                     6.55875  -0.93219  -2.38461 
 H                     6.12051  -2.07617  -1.13545 
 C                     10.29809   1.85136  -0.04777 
 H                     10.94672   2.29292  -0.81141 
 H                     10.77727   2.05823   0.91569 
 C                     5.73885   2.38106   0.28154 
 H                     6.07198   2.23873   1.31945 
 C                     11.46716  -0.36959  -0.71985 
 H                     12.21321   0.        0. 
 C                     8.87638   0.5648   -2.49452 
 H                     7.89714   0.78228  -2.92905 
 H                     9.49955   1.44887  -2.64977 
 H                     9.31082  -0.25167  -3.07857 
 C                     3.57153   1.25048  -0.38709 
 C                     3.55271  -1.24759  -0.57498 
 H                     3.81339  -1.42495   0.47757 
 H                     3.94138  -2.10187  -1.13921 
 C                     4.24374   2.24044   0.21839 
 H                     3.69271   3.04929   0.69816 
 C                     4.15363   0.18935  -2.58466 
 H                     4.4839   -0.72304  -3.09062 
 H                     3.12131   0.37309  -2.89351 
 H                     4.75487   1.02389  -2.95826 
 C                     2.05531   1.27451  -0.43379 
 H                     1.67146   2.11557   0.15186 
 H                     1.71732   1.43099  -1.47104 
 C                     2.02099  -1.22169  -0.69414 
 H                     1.71799  -1.15852  -1.74989 
 H                     1.59969  -2.15465  -0.3028 
 C                     11.47242  -1.91445  -0.61074 
 H                     10.74073  -2.32521  -1.31817 
 H                     12.45236  -2.26528  -0.96581 
 C                     1.42811  -0.03549   0.06567 
 H                     1.64458  -0.14867   1.13496 
 C                     12.00475   0.02939  -2.10923 
 H                     11.46137  -0.46559  -2.91956 
 H                     13.05546  -0.27016  -2.19564 
 H                     11.95942   1.1079   -2.28596 
 C                     11.22463  -2.53727   0.77679 
 H                     10.23263  -2.25448   1.15193 
 H                     11.19331  -3.62597   0.64518 
 C                     12.28203  -2.18175   1.83333 
 H                     12.30943  -1.09227   1.96565 
 H                     13.2782  -2.46729   1.46065 
 C                     12.06664  -2.825     3.21958 
 H                     11.04434  -2.57725   3.54531 
 C                     13.04187  -2.22865   4.24716 
 H                     14.08172  -2.44138   3.96747 
 H                     12.87487  -2.64876   5.24556 
 H                     12.93247  -1.14042   4.31809 
 C                     12.19305  -4.35699   3.18893 
 H                     13.19257  -4.65671   2.84769 
 H                     12.04337  -4.78138   4.18825 
 H                     11.45936  -4.82081   2.52221 
 
 NAtoms=     75 NQM=       75 NQMF=       0 NMMI=      0 NMMIF=      0
                NMic=       0 NMicF=      0.
                    Isotopes and Nuclear Properties:
 (Nuclear quadrupole moments (NQMom) in fm**2, nuclear magnetic moments (NMagM)
  in nuclear magnetons)

  Atom         1           2           3           4           5           6           7           8           9          10
 IAtWgt=          16           1          16           1          12          12           1          12           1          12
 AtmWgt=  15.9949146   1.0078250  15.9949146   1.0078250  12.0000000  12.0000000   1.0078250  12.0000000   1.0078250  12.0000000
 NucSpn=           0           1           0           1           0           0           1           0           1           0
 AtZEff=   0.0000000   0.0000000   0.0000000   0.0000000   0.0000000   0.0000000   0.0000000   0.0000000   0.0000000   0.0000000
 NQMom=    0.0000000   0.0000000   0.0000000   0.0000000   0.0000000   0.0000000   0.0000000   0.0000000   0.0000000   0.0000000
 NMagM=    0.0000000   2.7928460   0.0000000   2.7928460   0.0000000   0.0000000   2.7928460   0.0000000   2.7928460   0.0000000
 AtZNuc=   8.0000000   1.0000000   8.0000000   1.0000000   6.0000000   6.0000000   1.0000000   6.0000000   1.0000000   6.0000000

  Atom        11          12          13          14          15          16          17          18          19          20
 IAtWgt=           1          12           1          12           1           1          12          12           1           1
 AtmWgt=   1.0078250  12.0000000   1.0078250  12.0000000   1.0078250   1.0078250  12.0000000  12.0000000   1.0078250   1.0078250
 NucSpn=           1           0           1           0           1           1           0           0           1           1
 AtZEff=   0.0000000   0.0000000   0.0000000   0.0000000   0.0000000   0.0000000   0.0000000   0.0000000   0.0000000   0.0000000
 NQMom=    0.0000000   0.0000000   0.0000000   0.0000000   0.0000000   0.0000000   0.0000000   0.0000000   0.0000000   0.0000000
 NMagM=    2.7928460   0.0000000   2.7928460   0.0000000   2.7928460   2.7928460   0.0000000   0.0000000   2.7928460   2.7928460
 AtZNuc=   1.0000000   6.0000000   1.0000000   6.0000000   1.0000000   1.0000000   6.0000000   6.0000000   1.0000000   1.0000000

  Atom        21          22          23          24          25          26          27          28          29          30
 IAtWgt=          12           1           1          12           1           1          12           1          12           1
 AtmWgt=  12.0000000   1.0078250   1.0078250  12.0000000   1.0078250   1.0078250  12.0000000   1.0078250  12.0000000   1.0078250
 NucSpn=           0           1           1           0           1           1           0           1           0           1
 AtZEff=   0.0000000   0.0000000   0.0000000   0.0000000   0.0000000   0.0000000   0.0000000   0.0000000   0.0000000   0.0000000
 NQMom=    0.0000000   0.0000000   0.0000000   0.0000000   0.0000000   0.0000000   0.0000000   0.0000000   0.0000000   0.0000000
 NMagM=    0.0000000   2.7928460   2.7928460   0.0000000   2.7928460   2.7928460   0.0000000   2.7928460   0.0000000   2.7928460
 AtZNuc=   6.0000000   1.0000000   1.0000000   6.0000000   1.0000000   1.0000000   6.0000000   1.0000000   6.0000000   1.0000000

  Atom        31          32          33          34          35          36          37          38          39          40
 IAtWgt=          12           1           1           1          12          12           1           1          12           1
 AtmWgt=  12.0000000   1.0078250   1.0078250   1.0078250  12.0000000  12.0000000   1.0078250   1.0078250  12.0000000   1.0078250
 NucSpn=           0           1           1           1           0           0           1           1           0           1
 AtZEff=   0.0000000   0.0000000   0.0000000   0.0000000   0.0000000   0.0000000   0.0000000   0.0000000   0.0000000   0.0000000
 NQMom=    0.0000000   0.0000000   0.0000000   0.0000000   0.0000000   0.0000000   0.0000000   0.0000000   0.0000000   0.0000000
 NMagM=    0.0000000   2.7928460   2.7928460   2.7928460   0.0000000   0.0000000   2.7928460   2.7928460   0.0000000   2.7928460
 AtZNuc=   6.0000000   1.0000000   1.0000000   1.0000000   6.0000000   6.0000000   1.0000000   1.0000000   6.0000000   1.0000000

  Atom        41          42          43          44          45          46          47          48          49          50
 IAtWgt=          12           1           1           1          12           1           1          12           1           1
 AtmWgt=  12.0000000   1.0078250   1.0078250   1.0078250  12.0000000   1.0078250   1.0078250  12.0000000   1.0078250   1.0078250
 NucSpn=           0           1           1           1           0           1           1           0           1           1
 AtZEff=   0.0000000   0.0000000   0.0000000   0.0000000   0.0000000   0.0000000   0.0000000   0.0000000   0.0000000   0.0000000
 NQMom=    0.0000000   0.0000000   0.0000000   0.0000000   0.0000000   0.0000000   0.0000000   0.0000000   0.0000000   0.0000000
 NMagM=    0.0000000   2.7928460   2.7928460   2.7928460   0.0000000   2.7928460   2.7928460   0.0000000   2.7928460   2.7928460
 AtZNuc=   6.0000000   1.0000000   1.0000000   1.0000000   6.0000000   1.0000000   1.0000000   6.0000000   1.0000000   1.0000000

  Atom        51          52          53          54          55          56          57          58          59          60
 IAtWgt=          12           1           1          12           1          12           1           1           1          12
 AtmWgt=  12.0000000   1.0078250   1.0078250  12.0000000   1.0078250  12.0000000   1.0078250   1.0078250   1.0078250  12.0000000
 NucSpn=           0           1           1           0           1           0           1           1           1           0
 AtZEff=   0.0000000   0.0000000   0.0000000   0.0000000   0.0000000   0.0000000   0.0000000   0.0000000   0.0000000   0.0000000
 NQMom=    0.0000000   0.0000000   0.0000000   0.0000000   0.0000000   0.0000000   0.0000000   0.0000000   0.0000000   0.0000000
 NMagM=    0.0000000   2.7928460   2.7928460   0.0000000   2.7928460   0.0000000   2.7928460   2.7928460   2.7928460   0.0000000
 AtZNuc=   6.0000000   1.0000000   1.0000000   6.0000000   1.0000000   6.0000000   1.0000000   1.0000000   1.0000000   6.0000000

  Atom        61          62          63          64          65          66          67          68          69          70
 IAtWgt=           1           1          12           1           1          12           1          12           1           1
 AtmWgt=   1.0078250   1.0078250  12.0000000   1.0078250   1.0078250  12.0000000   1.0078250  12.0000000   1.0078250   1.0078250
 NucSpn=           1           1           0           1           1           0           1           0           1           1
 AtZEff=   0.0000000   0.0000000   0.0000000   0.0000000   0.0000000   0.0000000   0.0000000   0.0000000   0.0000000   0.0000000
 NQMom=    0.0000000   0.0000000   0.0000000   0.0000000   0.0000000   0.0000000   0.0000000   0.0000000   0.0000000   0.0000000
 NMagM=    2.7928460   2.7928460   0.0000000   2.7928460   2.7928460   0.0000000   2.7928460   0.0000000   2.7928460   2.7928460
 AtZNuc=   1.0000000   1.0000000   6.0000000   1.0000000   1.0000000   6.0000000   1.0000000   6.0000000   1.0000000   1.0000000

  Atom        71          72          73          74          75
 IAtWgt=           1          12           1           1           1
 AtmWgt=   1.0078250  12.0000000   1.0078250   1.0078250   1.0078250
 NucSpn=           1           0           1           1           1
 AtZEff=   0.0000000   0.0000000   0.0000000   0.0000000   0.0000000
 NQMom=    0.0000000   0.0000000   0.0000000   0.0000000   0.0000000
 NMagM=    2.7928460   0.0000000   2.7928460   2.7928460   2.7928460
 AtZNuc=   1.0000000   6.0000000   1.0000000   1.0000000   1.0000000
 Leave Link  101 at Wed May 17 12:35:58 2017, MaxMem=    33554432 cpu:         1.1
 (Enter /home/michal/g09/l202.exe)
 Symmetry turned off by external request.
 Stoichiometry    C27H46O2
 Framework group  C1[X(C27H46O2)]
 Deg. of freedom   219
 Full point group                 C1      NOp   1
                          Input orientation:                          
 ---------------------------------------------------------------------
 Center     Atomic      Atomic             Coordinates (Angstroms)
 Number     Number       Type             X           Y           Z
 ---------------------------------------------------------------------
      1          8           0        6.107150    3.745888    0.000000
      2          1           0        5.695794    3.998127   -0.838735
      3          8           0        0.000000    0.000000    0.000000
      4          1           0       -0.265798    0.081703   -0.926735
      5          6           0        8.774799    0.175763   -1.001061
      6          6           0        7.949740    1.218833   -0.188629
      7          1           0        7.903189    0.811529    0.835906
      8          6           0        6.481771    1.378553   -0.622898
      9          1           0        6.438388    1.778999   -1.646202
     10          6           0        5.770589   -0.004167   -0.579028
     11          1           0        5.738318   -0.286870    0.486194
     12          6           0       10.147604    0.311086   -0.254633
     13          1           0        9.953705   -0.108785    0.742338
     14          6           0        8.059953   -1.179989   -0.854377
     15          1           0        8.101286   -1.494128    0.197984
     16          1           0        8.563577   -1.961665   -1.435309
     17          6           0        4.273115    0.055847   -1.042825
     18          6           0        8.867386    2.454646   -0.125205
     19          1           0        8.632526    3.102485    0.722412
     20          1           0        8.744824    3.071629   -1.021686
     21          6           0        6.588354   -1.099710   -1.302688
     22          1           0        6.558749   -0.932191   -2.384606
     23          1           0        6.120514   -2.076173   -1.135455
     24          6           0       10.298089    1.851355   -0.047771
     25          1           0       10.946717    2.292920   -0.811409
     26          1           0       10.777271    2.058233    0.915693
     27          6           0        5.738848    2.381060    0.281541
     28          1           0        6.071981    2.238729    1.319446
     29          6           0       11.467158   -0.369586   -0.719847
     30          1           0       12.213210    0.000000    0.000000
     31          6           0        8.876377    0.564802   -2.494523
     32          1           0        7.897136    0.782277   -2.929046
     33          1           0        9.499554    1.448872   -2.649772
     34          1           0        9.310824   -0.251669   -3.078566
     35          6           0        3.571528    1.250480   -0.387093
     36          6           0        3.552707   -1.247592   -0.574982
     37          1           0        3.813391   -1.424952    0.477575
     38          1           0        3.941378   -2.101867   -1.139207
     39          6           0        4.243736    2.240440    0.218386
     40          1           0        3.692707    3.049294    0.698163
     41          6           0        4.153635    0.189353   -2.584664
     42          1           0        4.483905   -0.723040   -3.090623
     43          1           0        3.121313    0.373085   -2.893505
     44          1           0        4.754872    1.023891   -2.958257
     45          6           0        2.055306    1.274514   -0.433786
     46          1           0        1.671459    2.115572    0.151859
     47          1           0        1.717323    1.430994   -1.471044
     48          6           0        2.020986   -1.221692   -0.694144
     49          1           0        1.717992   -1.158519   -1.749889
     50          1           0        1.599687   -2.154645   -0.302799
     51          6           0       11.472417   -1.914448   -0.610738
     52          1           0       10.740731   -2.325215   -1.318165
     53          1           0       12.452362   -2.265282   -0.965812
     54          6           0        1.428112   -0.035486    0.065670
     55          1           0        1.644582   -0.148670    1.134961
     56          6           0       12.004746    0.029385   -2.109233
     57          1           0       11.461374   -0.465586   -2.919564
     58          1           0       13.055457   -0.270164   -2.195644
     59          1           0       11.959423    1.107897   -2.285957
     60          6           0       11.224625   -2.537273    0.776789
     61          1           0       10.232626   -2.254485    1.151934
     62          1           0       11.193306   -3.625971    0.645180
     63          6           0       12.282025   -2.181747    1.833327
     64          1           0       12.309430   -1.092270    1.965649
     65          1           0       13.278200   -2.467287    1.460651
     66          6           0       12.066643   -2.825001    3.219580
     67          1           0       11.044335   -2.577250    3.545313
     68          6           0       13.041867   -2.228655    4.247163
     69          1           0       14.081720   -2.441383    3.967474
     70          1           0       12.874869   -2.648761    5.245560
     71          1           0       12.932469   -1.140421    4.318086
     72          6           0       12.193046   -4.356989    3.188930
     73          1           0       13.192574   -4.656713    2.847689
     74          1           0       12.043375   -4.781377    4.188253
     75          1           0       11.459356   -4.820807    2.522214
 ---------------------------------------------------------------------
 Rotational constants (GHZ):      0.2617338      0.0719267      0.0659178
 Leave Link  202 at Wed May 17 12:35:59 2017, MaxMem=    33554432 cpu:         0.0
 (Enter /home/michal/g09/l301.exe)
 Standard basis: 6-31G(d) (6D, 7F)
 Ernie: Thresh=  0.10000D-02 Tol=  0.10000D-05 Strict=F.
 AO basis set in the form of general basis input (Overlap normalization):
      1 0
 S   6 1.00       0.000000000000
      0.5484671660D+04  0.1831074430D-02
      0.8252349460D+03  0.1395017220D-01
      0.1880469580D+03  0.6844507810D-01
      0.5296450000D+02  0.2327143360D+00
      0.1689757040D+02  0.4701928980D+00
      0.5799635340D+01  0.3585208530D+00
 SP   3 1.00       0.000000000000
      0.1553961625D+02 -0.1107775495D+00  0.7087426823D-01
      0.3599933586D+01 -0.1480262627D+00  0.3397528391D+00
      0.1013761750D+01  0.1130767015D+01  0.7271585773D+00
 SP   1 1.00       0.000000000000
      0.2700058226D+00  0.1000000000D+01  0.1000000000D+01
 D   1 1.00       0.000000000000
      0.8000000000D+00  0.1000000000D+01
 ****
      2 0
 S   3 1.00       0.000000000000
      0.1873113696D+02  0.3349460434D-01
      0.2825394365D+01  0.2347269535D+00
      0.6401216923D+00  0.8137573261D+00
 S   1 1.00       0.000000000000
      0.1612777588D+00  0.1000000000D+01
 ****
      3 0
 S   6 1.00       0.000000000000
      0.5484671660D+04  0.1831074430D-02
      0.8252349460D+03  0.1395017220D-01
      0.1880469580D+03  0.6844507810D-01
      0.5296450000D+02  0.2327143360D+00
      0.1689757040D+02  0.4701928980D+00
      0.5799635340D+01  0.3585208530D+00
 SP   3 1.00       0.000000000000
      0.1553961625D+02 -0.1107775495D+00  0.7087426823D-01
      0.3599933586D+01 -0.1480262627D+00  0.3397528391D+00
      0.1013761750D+01  0.1130767015D+01  0.7271585773D+00
 SP   1 1.00       0.000000000000
      0.2700058226D+00  0.1000000000D+01  0.1000000000D+01
 D   1 1.00       0.000000000000
      0.8000000000D+00  0.1000000000D+01
 ****
      4 0
 S   3 1.00       0.000000000000
      0.1873113696D+02  0.3349460434D-01
      0.2825394365D+01  0.2347269535D+00
      0.6401216923D+00  0.8137573261D+00
 S   1 1.00       0.000000000000
      0.1612777588D+00  0.1000000000D+01
 ****
      5 0
 S   6 1.00       0.000000000000
      0.3047524880D+04  0.1834737132D-02
      0.4573695180D+03  0.1403732281D-01
      0.1039486850D+03  0.6884262226D-01
      0.2921015530D+02  0.2321844432D+00
      0.9286662960D+01  0.4679413484D+00
      0.3163926960D+01  0.3623119853D+00
 SP   3 1.00       0.000000000000
      0.7868272350D+01 -0.1193324198D+00  0.6899906659D-01
      0.1881288540D+01 -0.1608541517D+00  0.3164239610D+00
      0.5442492580D+00  0.1143456438D+01  0.7443082909D+00
 SP   1 1.00       0.000000000000
      0.1687144782D+00  0.1000000000D+01  0.1000000000D+01
 D   1 1.00       0.000000000000
      0.8000000000D+00  0.1000000000D+01
 ****
      6 0
 S   6 1.00       0.000000000000
      0.3047524880D+04  0.1834737132D-02
      0.4573695180D+03  0.1403732281D-01
      0.1039486850D+03  0.6884262226D-01
      0.2921015530D+02  0.2321844432D+00
      0.9286662960D+01  0.4679413484D+00
      0.3163926960D+01  0.3623119853D+00
 SP   3 1.00       0.000000000000
      0.7868272350D+01 -0.1193324198D+00  0.6899906659D-01
      0.1881288540D+01 -0.1608541517D+00  0.3164239610D+00
      0.5442492580D+00  0.1143456438D+01  0.7443082909D+00
 SP   1 1.00       0.000000000000
      0.1687144782D+00  0.1000000000D+01  0.1000000000D+01
 D   1 1.00       0.000000000000
      0.8000000000D+00  0.1000000000D+01
 ****
      7 0
 S   3 1.00       0.000000000000
      0.1873113696D+02  0.3349460434D-01
      0.2825394365D+01  0.2347269535D+00
      0.6401216923D+00  0.8137573261D+00
 S   1 1.00       0.000000000000
      0.1612777588D+00  0.1000000000D+01
 ****
      8 0
 S   6 1.00       0.000000000000
      0.3047524880D+04  0.1834737132D-02
      0.4573695180D+03  0.1403732281D-01
      0.1039486850D+03  0.6884262226D-01
      0.2921015530D+02  0.2321844432D+00
      0.9286662960D+01  0.4679413484D+00
      0.3163926960D+01  0.3623119853D+00
 SP   3 1.00       0.000000000000
      0.7868272350D+01 -0.1193324198D+00  0.6899906659D-01
      0.1881288540D+01 -0.1608541517D+00  0.3164239610D+00
      0.5442492580D+00  0.1143456438D+01  0.7443082909D+00
 SP   1 1.00       0.000000000000
      0.1687144782D+00  0.1000000000D+01  0.1000000000D+01
 D   1 1.00       0.000000000000
      0.8000000000D+00  0.1000000000D+01
 ****
      9 0
 S   3 1.00       0.000000000000
      0.1873113696D+02  0.3349460434D-01
      0.2825394365D+01  0.2347269535D+00
      0.6401216923D+00  0.8137573261D+00
 S   1 1.00       0.000000000000
      0.1612777588D+00  0.1000000000D+01
 ****
     10 0
 S   6 1.00       0.000000000000
      0.3047524880D+04  0.1834737132D-02
      0.4573695180D+03  0.1403732281D-01
      0.1039486850D+03  0.6884262226D-01
      0.2921015530D+02  0.2321844432D+00
      0.9286662960D+01  0.4679413484D+00
      0.3163926960D+01  0.3623119853D+00
 SP   3 1.00       0.000000000000
      0.7868272350D+01 -0.1193324198D+00  0.6899906659D-01
      0.1881288540D+01 -0.1608541517D+00  0.3164239610D+00
      0.5442492580D+00  0.1143456438D+01  0.7443082909D+00
 SP   1 1.00       0.000000000000
      0.1687144782D+00  0.1000000000D+01  0.1000000000D+01
 D   1 1.00       0.000000000000
      0.8000000000D+00  0.1000000000D+01
 ****
     11 0
 S   3 1.00       0.000000000000
      0.1873113696D+02  0.3349460434D-01
      0.2825394365D+01  0.2347269535D+00
      0.6401216923D+00  0.8137573261D+00
 S   1 1.00       0.000000000000
      0.1612777588D+00  0.1000000000D+01
 ****
     12 0
 S   6 1.00       0.000000000000
      0.3047524880D+04  0.1834737132D-02
      0.4573695180D+03  0.1403732281D-01
      0.1039486850D+03  0.6884262226D-01
      0.2921015530D+02  0.2321844432D+00
      0.9286662960D+01  0.4679413484D+00
      0.3163926960D+01  0.3623119853D+00
 SP   3 1.00       0.000000000000
      0.7868272350D+01 -0.1193324198D+00  0.6899906659D-01
      0.1881288540D+01 -0.1608541517D+00  0.3164239610D+00
      0.5442492580D+00  0.1143456438D+01  0.7443082909D+00
 SP   1 1.00       0.000000000000
      0.1687144782D+00  0.1000000000D+01  0.1000000000D+01
 D   1 1.00       0.000000000000
      0.8000000000D+00  0.1000000000D+01
 ****
     13 0
 S   3 1.00       0.000000000000
      0.1873113696D+02  0.3349460434D-01
      0.2825394365D+01  0.2347269535D+00
      0.6401216923D+00  0.8137573261D+00
 S   1 1.00       0.000000000000
      0.1612777588D+00  0.1000000000D+01
 ****
     14 0
 S   6 1.00       0.000000000000
      0.3047524880D+04  0.1834737132D-02
      0.4573695180D+03  0.1403732281D-01
      0.1039486850D+03  0.6884262226D-01
      0.2921015530D+02  0.2321844432D+00
      0.9286662960D+01  0.4679413484D+00
      0.3163926960D+01  0.3623119853D+00
 SP   3 1.00       0.000000000000
      0.7868272350D+01 -0.1193324198D+00  0.6899906659D-01
      0.1881288540D+01 -0.1608541517D+00  0.3164239610D+00
      0.5442492580D+00  0.1143456438D+01  0.7443082909D+00
 SP   1 1.00       0.000000000000
      0.1687144782D+00  0.1000000000D+01  0.1000000000D+01
 D   1 1.00       0.000000000000
      0.8000000000D+00  0.1000000000D+01
 ****
     15 0
 S   3 1.00       0.000000000000
      0.1873113696D+02  0.3349460434D-01
      0.2825394365D+01  0.2347269535D+00
      0.6401216923D+00  0.8137573261D+00
 S   1 1.00       0.000000000000
      0.1612777588D+00  0.1000000000D+01
 ****
     16 0
 S   3 1.00       0.000000000000
      0.1873113696D+02  0.3349460434D-01
      0.2825394365D+01  0.2347269535D+00
      0.6401216923D+00  0.8137573261D+00
 S   1 1.00       0.000000000000
      0.1612777588D+00  0.1000000000D+01
 ****
     17 0
 S   6 1.00       0.000000000000
      0.3047524880D+04  0.1834737132D-02
      0.4573695180D+03  0.1403732281D-01
      0.1039486850D+03  0.6884262226D-01
      0.2921015530D+02  0.2321844432D+00
      0.9286662960D+01  0.4679413484D+00
      0.3163926960D+01  0.3623119853D+00
 SP   3 1.00       0.000000000000
      0.7868272350D+01 -0.1193324198D+00  0.6899906659D-01
      0.1881288540D+01 -0.1608541517D+00  0.3164239610D+00
      0.5442492580D+00  0.1143456438D+01  0.7443082909D+00
 SP   1 1.00       0.000000000000
      0.1687144782D+00  0.1000000000D+01  0.1000000000D+01
 D   1 1.00       0.000000000000
      0.8000000000D+00  0.1000000000D+01
 ****
     18 0
 S   6 1.00       0.000000000000
      0.3047524880D+04  0.1834737132D-02
      0.4573695180D+03  0.1403732281D-01
      0.1039486850D+03  0.6884262226D-01
      0.2921015530D+02  0.2321844432D+00
      0.9286662960D+01  0.4679413484D+00
      0.3163926960D+01  0.3623119853D+00
 SP   3 1.00       0.000000000000
      0.7868272350D+01 -0.1193324198D+00  0.6899906659D-01
      0.1881288540D+01 -0.1608541517D+00  0.3164239610D+00
      0.5442492580D+00  0.1143456438D+01  0.7443082909D+00
 SP   1 1.00       0.000000000000
      0.1687144782D+00  0.1000000000D+01  0.1000000000D+01
 D   1 1.00       0.000000000000
      0.8000000000D+00  0.1000000000D+01
 ****
     19 0
 S   3 1.00       0.000000000000
      0.1873113696D+02  0.3349460434D-01
      0.2825394365D+01  0.2347269535D+00
      0.6401216923D+00  0.8137573261D+00
 S   1 1.00       0.000000000000
      0.1612777588D+00  0.1000000000D+01
 ****
     20 0
 S   3 1.00       0.000000000000
      0.1873113696D+02  0.3349460434D-01
      0.2825394365D+01  0.2347269535D+00
      0.6401216923D+00  0.8137573261D+00
 S   1 1.00       0.000000000000
      0.1612777588D+00  0.1000000000D+01
 ****
     21 0
 S   6 1.00       0.000000000000
      0.3047524880D+04  0.1834737132D-02
      0.4573695180D+03  0.1403732281D-01
      0.1039486850D+03  0.6884262226D-01
      0.2921015530D+02  0.2321844432D+00
      0.9286662960D+01  0.4679413484D+00
      0.3163926960D+01  0.3623119853D+00
 SP   3 1.00       0.000000000000
      0.7868272350D+01 -0.1193324198D+00  0.6899906659D-01
      0.1881288540D+01 -0.1608541517D+00  0.3164239610D+00
      0.5442492580D+00  0.1143456438D+01  0.7443082909D+00
 SP   1 1.00       0.000000000000
      0.1687144782D+00  0.1000000000D+01  0.1000000000D+01
 D   1 1.00       0.000000000000
      0.8000000000D+00  0.1000000000D+01
 ****
     22 0
 S   3 1.00       0.000000000000
      0.1873113696D+02  0.3349460434D-01
      0.2825394365D+01  0.2347269535D+00
      0.6401216923D+00  0.8137573261D+00
 S   1 1.00       0.000000000000
      0.1612777588D+00  0.1000000000D+01
 ****
     23 0
 S   3 1.00       0.000000000000
      0.1873113696D+02  0.3349460434D-01
      0.2825394365D+01  0.2347269535D+00
      0.6401216923D+00  0.8137573261D+00
 S   1 1.00       0.000000000000
      0.1612777588D+00  0.1000000000D+01
 ****
     24 0
 S   6 1.00       0.000000000000
      0.3047524880D+04  0.1834737132D-02
      0.4573695180D+03  0.1403732281D-01
      0.1039486850D+03  0.6884262226D-01
      0.2921015530D+02  0.2321844432D+00
      0.9286662960D+01  0.4679413484D+00
      0.3163926960D+01  0.3623119853D+00
 SP   3 1.00       0.000000000000
      0.7868272350D+01 -0.1193324198D+00  0.6899906659D-01
      0.1881288540D+01 -0.1608541517D+00  0.3164239610D+00
      0.5442492580D+00  0.1143456438D+01  0.7443082909D+00
 SP   1 1.00       0.000000000000
      0.1687144782D+00  0.1000000000D+01  0.1000000000D+01
 D   1 1.00       0.000000000000
      0.8000000000D+00  0.1000000000D+01
 ****
     25 0
 S   3 1.00       0.000000000000
      0.1873113696D+02  0.3349460434D-01
      0.2825394365D+01  0.2347269535D+00
      0.6401216923D+00  0.8137573261D+00
 S   1 1.00       0.000000000000
      0.1612777588D+00  0.1000000000D+01
 ****
     26 0
 S   3 1.00       0.000000000000
      0.1873113696D+02  0.3349460434D-01
      0.2825394365D+01  0.2347269535D+00
      0.6401216923D+00  0.8137573261D+00
 S   1 1.00       0.000000000000
      0.1612777588D+00  0.1000000000D+01
 ****
     27 0
 S   6 1.00       0.000000000000
      0.3047524880D+04  0.1834737132D-02
      0.4573695180D+03  0.1403732281D-01
      0.1039486850D+03  0.6884262226D-01
      0.2921015530D+02  0.2321844432D+00
      0.9286662960D+01  0.4679413484D+00
      0.3163926960D+01  0.3623119853D+00
 SP   3 1.00       0.000000000000
      0.7868272350D+01 -0.1193324198D+00  0.6899906659D-01
      0.1881288540D+01 -0.1608541517D+00  0.3164239610D+00
      0.5442492580D+00  0.1143456438D+01  0.7443082909D+00
 SP   1 1.00       0.000000000000
      0.1687144782D+00  0.1000000000D+01  0.1000000000D+01
 D   1 1.00       0.000000000000
      0.8000000000D+00  0.1000000000D+01
 ****
     28 0
 S   3 1.00       0.000000000000
      0.1873113696D+02  0.3349460434D-01
      0.2825394365D+01  0.2347269535D+00
      0.6401216923D+00  0.8137573261D+00
 S   1 1.00       0.000000000000
      0.1612777588D+00  0.1000000000D+01
 ****
     29 0
 S   6 1.00       0.000000000000
      0.3047524880D+04  0.1834737132D-02
      0.4573695180D+03  0.1403732281D-01
      0.1039486850D+03  0.6884262226D-01
      0.2921015530D+02  0.2321844432D+00
      0.9286662960D+01  0.4679413484D+00
      0.3163926960D+01  0.3623119853D+00
 SP   3 1.00       0.000000000000
      0.7868272350D+01 -0.1193324198D+00  0.6899906659D-01
      0.1881288540D+01 -0.1608541517D+00  0.3164239610D+00
      0.5442492580D+00  0.1143456438D+01  0.7443082909D+00
 SP   1 1.00       0.000000000000
      0.1687144782D+00  0.1000000000D+01  0.1000000000D+01
 D   1 1.00       0.000000000000
      0.8000000000D+00  0.1000000000D+01
 ****
     30 0
 S   3 1.00       0.000000000000
      0.1873113696D+02  0.3349460434D-01
      0.2825394365D+01  0.2347269535D+00
      0.6401216923D+00  0.8137573261D+00
 S   1 1.00       0.000000000000
      0.1612777588D+00  0.1000000000D+01
 ****
     31 0
 S   6 1.00       0.000000000000
      0.3047524880D+04  0.1834737132D-02
      0.4573695180D+03  0.1403732281D-01
      0.1039486850D+03  0.6884262226D-01
      0.2921015530D+02  0.2321844432D+00
      0.9286662960D+01  0.4679413484D+00
      0.3163926960D+01  0.3623119853D+00
 SP   3 1.00       0.000000000000
      0.7868272350D+01 -0.1193324198D+00  0.6899906659D-01
      0.1881288540D+01 -0.1608541517D+00  0.3164239610D+00
      0.5442492580D+00  0.1143456438D+01  0.7443082909D+00
 SP   1 1.00       0.000000000000
      0.1687144782D+00  0.1000000000D+01  0.1000000000D+01
 D   1 1.00       0.000000000000
      0.8000000000D+00  0.1000000000D+01
 ****
     32 0
 S   3 1.00       0.000000000000
      0.1873113696D+02  0.3349460434D-01
      0.2825394365D+01  0.2347269535D+00
      0.6401216923D+00  0.8137573261D+00
 S   1 1.00       0.000000000000
      0.1612777588D+00  0.1000000000D+01
 ****
     33 0
 S   3 1.00       0.000000000000
      0.1873113696D+02  0.3349460434D-01
      0.2825394365D+01  0.2347269535D+00
      0.6401216923D+00  0.8137573261D+00
 S   1 1.00       0.000000000000
      0.1612777588D+00  0.1000000000D+01
 ****
     34 0
 S   3 1.00       0.000000000000
      0.1873113696D+02  0.3349460434D-01
      0.2825394365D+01  0.2347269535D+00
      0.6401216923D+00  0.8137573261D+00
 S   1 1.00       0.000000000000
      0.1612777588D+00  0.1000000000D+01
 ****
     35 0
 S   6 1.00       0.000000000000
      0.3047524880D+04  0.1834737132D-02
      0.4573695180D+03  0.1403732281D-01
      0.1039486850D+03  0.6884262226D-01
      0.2921015530D+02  0.2321844432D+00
      0.9286662960D+01  0.4679413484D+00
      0.3163926960D+01  0.3623119853D+00
 SP   3 1.00       0.000000000000
      0.7868272350D+01 -0.1193324198D+00  0.6899906659D-01
      0.1881288540D+01 -0.1608541517D+00  0.3164239610D+00
      0.5442492580D+00  0.1143456438D+01  0.7443082909D+00
 SP   1 1.00       0.000000000000
      0.1687144782D+00  0.1000000000D+01  0.1000000000D+01
 D   1 1.00       0.000000000000
      0.8000000000D+00  0.1000000000D+01
 ****
     36 0
 S   6 1.00       0.000000000000
      0.3047524880D+04  0.1834737132D-02
      0.4573695180D+03  0.1403732281D-01
      0.1039486850D+03  0.6884262226D-01
      0.2921015530D+02  0.2321844432D+00
      0.9286662960D+01  0.4679413484D+00
      0.3163926960D+01  0.3623119853D+00
 SP   3 1.00       0.000000000000
      0.7868272350D+01 -0.1193324198D+00  0.6899906659D-01
      0.1881288540D+01 -0.1608541517D+00  0.3164239610D+00
      0.5442492580D+00  0.1143456438D+01  0.7443082909D+00
 SP   1 1.00       0.000000000000
      0.1687144782D+00  0.1000000000D+01  0.1000000000D+01
 D   1 1.00       0.000000000000
      0.8000000000D+00  0.1000000000D+01
 ****
     37 0
 S   3 1.00       0.000000000000
      0.1873113696D+02  0.3349460434D-01
      0.2825394365D+01  0.2347269535D+00
      0.6401216923D+00  0.8137573261D+00
 S   1 1.00       0.000000000000
      0.1612777588D+00  0.1000000000D+01
 ****
     38 0
 S   3 1.00       0.000000000000
      0.1873113696D+02  0.3349460434D-01
      0.2825394365D+01  0.2347269535D+00
      0.6401216923D+00  0.8137573261D+00
 S   1 1.00       0.000000000000
      0.1612777588D+00  0.1000000000D+01
 ****
     39 0
 S   6 1.00       0.000000000000
      0.3047524880D+04  0.1834737132D-02
      0.4573695180D+03  0.1403732281D-01
      0.1039486850D+03  0.6884262226D-01
      0.2921015530D+02  0.2321844432D+00
      0.9286662960D+01  0.4679413484D+00
      0.3163926960D+01  0.3623119853D+00
 SP   3 1.00       0.000000000000
      0.7868272350D+01 -0.1193324198D+00  0.6899906659D-01
      0.1881288540D+01 -0.1608541517D+00  0.3164239610D+00
      0.5442492580D+00  0.1143456438D+01  0.7443082909D+00
 SP   1 1.00       0.000000000000
      0.1687144782D+00  0.1000000000D+01  0.1000000000D+01
 D   1 1.00       0.000000000000
      0.8000000000D+00  0.1000000000D+01
 ****
     40 0
 S   3 1.00       0.000000000000
      0.1873113696D+02  0.3349460434D-01
      0.2825394365D+01  0.2347269535D+00
      0.6401216923D+00  0.8137573261D+00
 S   1 1.00       0.000000000000
      0.1612777588D+00  0.1000000000D+01
 ****
     41 0
 S   6 1.00       0.000000000000
      0.3047524880D+04  0.1834737132D-02
      0.4573695180D+03  0.1403732281D-01
      0.1039486850D+03  0.6884262226D-01
      0.2921015530D+02  0.2321844432D+00
      0.9286662960D+01  0.4679413484D+00
      0.3163926960D+01  0.3623119853D+00
 SP   3 1.00       0.000000000000
      0.7868272350D+01 -0.1193324198D+00  0.6899906659D-01
      0.1881288540D+01 -0.1608541517D+00  0.3164239610D+00
      0.5442492580D+00  0.1143456438D+01  0.7443082909D+00
 SP   1 1.00       0.000000000000
      0.1687144782D+00  0.1000000000D+01  0.1000000000D+01
 D   1 1.00       0.000000000000
      0.8000000000D+00  0.1000000000D+01
 ****
     42 0
 S   3 1.00       0.000000000000
      0.1873113696D+02  0.3349460434D-01
      0.2825394365D+01  0.2347269535D+00
      0.6401216923D+00  0.8137573261D+00
 S   1 1.00       0.000000000000
      0.1612777588D+00  0.1000000000D+01
 ****
     43 0
 S   3 1.00       0.000000000000
      0.1873113696D+02  0.3349460434D-01
      0.2825394365D+01  0.2347269535D+00
      0.6401216923D+00  0.8137573261D+00
 S   1 1.00       0.000000000000
      0.1612777588D+00  0.1000000000D+01
 ****
     44 0
 S   3 1.00       0.000000000000
      0.1873113696D+02  0.3349460434D-01
      0.2825394365D+01  0.2347269535D+00
      0.6401216923D+00  0.8137573261D+00
 S   1 1.00       0.000000000000
      0.1612777588D+00  0.1000000000D+01
 ****
     45 0
 S   6 1.00       0.000000000000
      0.3047524880D+04  0.1834737132D-02
      0.4573695180D+03  0.1403732281D-01
      0.1039486850D+03  0.6884262226D-01
      0.2921015530D+02  0.2321844432D+00
      0.9286662960D+01  0.4679413484D+00
      0.3163926960D+01  0.3623119853D+00
 SP   3 1.00       0.000000000000
      0.7868272350D+01 -0.1193324198D+00  0.6899906659D-01
      0.1881288540D+01 -0.1608541517D+00  0.3164239610D+00
      0.5442492580D+00  0.1143456438D+01  0.7443082909D+00
 SP   1 1.00       0.000000000000
      0.1687144782D+00  0.1000000000D+01  0.1000000000D+01
 D   1 1.00       0.000000000000
      0.8000000000D+00  0.1000000000D+01
 ****
     46 0
 S   3 1.00       0.000000000000
      0.1873113696D+02  0.3349460434D-01
      0.2825394365D+01  0.2347269535D+00
      0.6401216923D+00  0.8137573261D+00
 S   1 1.00       0.000000000000
      0.1612777588D+00  0.1000000000D+01
 ****
     47 0
 S   3 1.00       0.000000000000
      0.1873113696D+02  0.3349460434D-01
      0.2825394365D+01  0.2347269535D+00
      0.6401216923D+00  0.8137573261D+00
 S   1 1.00       0.000000000000
      0.1612777588D+00  0.1000000000D+01
 ****
     48 0
 S   6 1.00       0.000000000000
      0.3047524880D+04  0.1834737132D-02
      0.4573695180D+03  0.1403732281D-01
      0.1039486850D+03  0.6884262226D-01
      0.2921015530D+02  0.2321844432D+00
      0.9286662960D+01  0.4679413484D+00
      0.3163926960D+01  0.3623119853D+00
 SP   3 1.00       0.000000000000
      0.7868272350D+01 -0.1193324198D+00  0.6899906659D-01
      0.1881288540D+01 -0.1608541517D+00  0.3164239610D+00
      0.5442492580D+00  0.1143456438D+01  0.7443082909D+00
 SP   1 1.00       0.000000000000
      0.1687144782D+00  0.1000000000D+01  0.1000000000D+01
 D   1 1.00       0.000000000000
      0.8000000000D+00  0.1000000000D+01
 ****
     49 0
 S   3 1.00       0.000000000000
      0.1873113696D+02  0.3349460434D-01
      0.2825394365D+01  0.2347269535D+00
      0.6401216923D+00  0.8137573261D+00
 S   1 1.00       0.000000000000
      0.1612777588D+00  0.1000000000D+01
 ****
     50 0
 S   3 1.00       0.000000000000
      0.1873113696D+02  0.3349460434D-01
      0.2825394365D+01  0.2347269535D+00
      0.6401216923D+00  0.8137573261D+00
 S   1 1.00       0.000000000000
      0.1612777588D+00  0.1000000000D+01
 ****
     51 0
 S   6 1.00       0.000000000000
      0.3047524880D+04  0.1834737132D-02
      0.4573695180D+03  0.1403732281D-01
      0.1039486850D+03  0.6884262226D-01
      0.2921015530D+02  0.2321844432D+00
      0.9286662960D+01  0.4679413484D+00
      0.3163926960D+01  0.3623119853D+00
 SP   3 1.00       0.000000000000
      0.7868272350D+01 -0.1193324198D+00  0.6899906659D-01
      0.1881288540D+01 -0.1608541517D+00  0.3164239610D+00
      0.5442492580D+00  0.1143456438D+01  0.7443082909D+00
 SP   1 1.00       0.000000000000
      0.1687144782D+00  0.1000000000D+01  0.1000000000D+01
 D   1 1.00       0.000000000000
      0.8000000000D+00  0.1000000000D+01
 ****
     52 0
 S   3 1.00       0.000000000000
      0.1873113696D+02  0.3349460434D-01
      0.2825394365D+01  0.2347269535D+00
      0.6401216923D+00  0.8137573261D+00
 S   1 1.00       0.000000000000
      0.1612777588D+00  0.1000000000D+01
 ****
     53 0
 S   3 1.00       0.000000000000
      0.1873113696D+02  0.3349460434D-01
      0.2825394365D+01  0.2347269535D+00
      0.6401216923D+00  0.8137573261D+00
 S   1 1.00       0.000000000000
      0.1612777588D+00  0.1000000000D+01
 ****
     54 0
 S   6 1.00       0.000000000000
      0.3047524880D+04  0.1834737132D-02
      0.4573695180D+03  0.1403732281D-01
      0.1039486850D+03  0.6884262226D-01
      0.2921015530D+02  0.2321844432D+00
      0.9286662960D+01  0.4679413484D+00
      0.3163926960D+01  0.3623119853D+00
 SP   3 1.00       0.000000000000
      0.7868272350D+01 -0.1193324198D+00  0.6899906659D-01
      0.1881288540D+01 -0.1608541517D+00  0.3164239610D+00
      0.5442492580D+00  0.1143456438D+01  0.7443082909D+00
 SP   1 1.00       0.000000000000
      0.1687144782D+00  0.1000000000D+01  0.1000000000D+01
 D   1 1.00       0.000000000000
      0.8000000000D+00  0.1000000000D+01
 ****
     55 0
 S   3 1.00       0.000000000000
      0.1873113696D+02  0.3349460434D-01
      0.2825394365D+01  0.2347269535D+00
      0.6401216923D+00  0.8137573261D+00
 S   1 1.00       0.000000000000
      0.1612777588D+00  0.1000000000D+01
 ****
     56 0
 S   6 1.00       0.000000000000
      0.3047524880D+04  0.1834737132D-02
      0.4573695180D+03  0.1403732281D-01
      0.1039486850D+03  0.6884262226D-01
      0.2921015530D+02  0.2321844432D+00
      0.9286662960D+01  0.4679413484D+00
      0.3163926960D+01  0.3623119853D+00
 SP   3 1.00       0.000000000000
      0.7868272350D+01 -0.1193324198D+00  0.6899906659D-01
      0.1881288540D+01 -0.1608541517D+00  0.3164239610D+00
      0.5442492580D+00  0.1143456438D+01  0.7443082909D+00
 SP   1 1.00       0.000000000000
      0.1687144782D+00  0.1000000000D+01  0.1000000000D+01
 D   1 1.00       0.000000000000
      0.8000000000D+00  0.1000000000D+01
 ****
     57 0
 S   3 1.00       0.000000000000
      0.1873113696D+02  0.3349460434D-01
      0.2825394365D+01  0.2347269535D+00
      0.6401216923D+00  0.8137573261D+00
 S   1 1.00       0.000000000000
      0.1612777588D+00  0.1000000000D+01
 ****
     58 0
 S   3 1.00       0.000000000000
      0.1873113696D+02  0.3349460434D-01
      0.2825394365D+01  0.2347269535D+00
      0.6401216923D+00  0.8137573261D+00
 S   1 1.00       0.000000000000
      0.1612777588D+00  0.1000000000D+01
 ****
     59 0
 S   3 1.00       0.000000000000
      0.1873113696D+02  0.3349460434D-01
      0.2825394365D+01  0.2347269535D+00
      0.6401216923D+00  0.8137573261D+00
 S   1 1.00       0.000000000000
      0.1612777588D+00  0.1000000000D+01
 ****
     60 0
 S   6 1.00       0.000000000000
      0.3047524880D+04  0.1834737132D-02
      0.4573695180D+03  0.1403732281D-01
      0.1039486850D+03  0.6884262226D-01
      0.2921015530D+02  0.2321844432D+00
      0.9286662960D+01  0.4679413484D+00
      0.3163926960D+01  0.3623119853D+00
 SP   3 1.00       0.000000000000
      0.7868272350D+01 -0.1193324198D+00  0.6899906659D-01
      0.1881288540D+01 -0.1608541517D+00  0.3164239610D+00
      0.5442492580D+00  0.1143456438D+01  0.7443082909D+00
 SP   1 1.00       0.000000000000
      0.1687144782D+00  0.1000000000D+01  0.1000000000D+01
 D   1 1.00       0.000000000000
      0.8000000000D+00  0.1000000000D+01
 ****
     61 0
 S   3 1.00       0.000000000000
      0.1873113696D+02  0.3349460434D-01
      0.2825394365D+01  0.2347269535D+00
      0.6401216923D+00  0.8137573261D+00
 S   1 1.00       0.000000000000
      0.1612777588D+00  0.1000000000D+01
 ****
     62 0
 S   3 1.00       0.000000000000
      0.1873113696D+02  0.3349460434D-01
      0.2825394365D+01  0.2347269535D+00
      0.6401216923D+00  0.8137573261D+00
 S   1 1.00       0.000000000000
      0.1612777588D+00  0.1000000000D+01
 ****
     63 0
 S   6 1.00       0.000000000000
      0.3047524880D+04  0.1834737132D-02
      0.4573695180D+03  0.1403732281D-01
      0.1039486850D+03  0.6884262226D-01
      0.2921015530D+02  0.2321844432D+00
      0.9286662960D+01  0.4679413484D+00
      0.3163926960D+01  0.3623119853D+00
 SP   3 1.00       0.000000000000
      0.7868272350D+01 -0.1193324198D+00  0.6899906659D-01
      0.1881288540D+01 -0.1608541517D+00  0.3164239610D+00
      0.5442492580D+00  0.1143456438D+01  0.7443082909D+00
 SP   1 1.00       0.000000000000
      0.1687144782D+00  0.1000000000D+01  0.1000000000D+01
 D   1 1.00       0.000000000000
      0.8000000000D+00  0.1000000000D+01
 ****
     64 0
 S   3 1.00       0.000000000000
      0.1873113696D+02  0.3349460434D-01
      0.2825394365D+01  0.2347269535D+00
      0.6401216923D+00  0.8137573261D+00
 S   1 1.00       0.000000000000
      0.1612777588D+00  0.1000000000D+01
 ****
     65 0
 S   3 1.00       0.000000000000
      0.1873113696D+02  0.3349460434D-01
      0.2825394365D+01  0.2347269535D+00
      0.6401216923D+00  0.8137573261D+00
 S   1 1.00       0.000000000000
      0.1612777588D+00  0.1000000000D+01
 ****
     66 0
 S   6 1.00       0.000000000000
      0.3047524880D+04  0.1834737132D-02
      0.4573695180D+03  0.1403732281D-01
      0.1039486850D+03  0.6884262226D-01
      0.2921015530D+02  0.2321844432D+00
      0.9286662960D+01  0.4679413484D+00
      0.3163926960D+01  0.3623119853D+00
 SP   3 1.00       0.000000000000
      0.7868272350D+01 -0.1193324198D+00  0.6899906659D-01
      0.1881288540D+01 -0.1608541517D+00  0.3164239610D+00
      0.5442492580D+00  0.1143456438D+01  0.7443082909D+00
 SP   1 1.00       0.000000000000
      0.1687144782D+00  0.1000000000D+01  0.1000000000D+01
 D   1 1.00       0.000000000000
      0.8000000000D+00  0.1000000000D+01
 ****
     67 0
 S   3 1.00       0.000000000000
      0.1873113696D+02  0.3349460434D-01
      0.2825394365D+01  0.2347269535D+00
      0.6401216923D+00  0.8137573261D+00
 S   1 1.00       0.000000000000
      0.1612777588D+00  0.1000000000D+01
 ****
     68 0
 S   6 1.00       0.000000000000
      0.3047524880D+04  0.1834737132D-02
      0.4573695180D+03  0.1403732281D-01
      0.1039486850D+03  0.6884262226D-01
      0.2921015530D+02  0.2321844432D+00
      0.9286662960D+01  0.4679413484D+00
      0.3163926960D+01  0.3623119853D+00
 SP   3 1.00       0.000000000000
      0.7868272350D+01 -0.1193324198D+00  0.6899906659D-01
      0.1881288540D+01 -0.1608541517D+00  0.3164239610D+00
      0.5442492580D+00  0.1143456438D+01  0.7443082909D+00
 SP   1 1.00       0.000000000000
      0.1687144782D+00  0.1000000000D+01  0.1000000000D+01
 D   1 1.00       0.000000000000
      0.8000000000D+00  0.1000000000D+01
 ****
     69 0
 S   3 1.00       0.000000000000
      0.1873113696D+02  0.3349460434D-01
      0.2825394365D+01  0.2347269535D+00
      0.6401216923D+00  0.8137573261D+00
 S   1 1.00       0.000000000000
      0.1612777588D+00  0.1000000000D+01
 ****
     70 0
 S   3 1.00       0.000000000000
      0.1873113696D+02  0.3349460434D-01
      0.2825394365D+01  0.2347269535D+00
      0.6401216923D+00  0.8137573261D+00
 S   1 1.00       0.000000000000
      0.1612777588D+00  0.1000000000D+01
 ****
     71 0
 S   3 1.00       0.000000000000
      0.1873113696D+02  0.3349460434D-01
      0.2825394365D+01  0.2347269535D+00
      0.6401216923D+00  0.8137573261D+00
 S   1 1.00       0.000000000000
      0.1612777588D+00  0.1000000000D+01
 ****
     72 0
 S   6 1.00       0.000000000000
      0.3047524880D+04  0.1834737132D-02
      0.4573695180D+03  0.1403732281D-01
      0.1039486850D+03  0.6884262226D-01
      0.2921015530D+02  0.2321844432D+00
      0.9286662960D+01  0.4679413484D+00
      0.3163926960D+01  0.3623119853D+00
 SP   3 1.00       0.000000000000
      0.7868272350D+01 -0.1193324198D+00  0.6899906659D-01
      0.1881288540D+01 -0.1608541517D+00  0.3164239610D+00
      0.5442492580D+00  0.1143456438D+01  0.7443082909D+00
 SP   1 1.00       0.000000000000
      0.1687144782D+00  0.1000000000D+01  0.1000000000D+01
 D   1 1.00       0.000000000000
      0.8000000000D+00  0.1000000000D+01
 ****
     73 0
 S   3 1.00       0.000000000000
      0.1873113696D+02  0.3349460434D-01
      0.2825394365D+01  0.2347269535D+00
      0.6401216923D+00  0.8137573261D+00
 S   1 1.00       0.000000000000
      0.1612777588D+00  0.1000000000D+01
 ****
     74 0
 S   3 1.00       0.000000000000
      0.1873113696D+02  0.3349460434D-01
      0.2825394365D+01  0.2347269535D+00
      0.6401216923D+00  0.8137573261D+00
 S   1 1.00       0.000000000000
      0.1612777588D+00  0.1000000000D+01
 ****
     75 0
 S   3 1.00       0.000000000000
      0.1873113696D+02  0.3349460434D-01
      0.2825394365D+01  0.2347269535D+00
      0.6401216923D+00  0.8137573261D+00
 S   1 1.00       0.000000000000
      0.1612777588D+00  0.1000000000D+01
 ****

 AO basis set (Overlap normalization):
 Atom O1       Shell     1 S   6     bf    1 -     1         11.540840914658          7.078702104312          0.000000000000
      0.5484671660D+04  0.1831074430D-02
      0.8252349460D+03  0.1395017220D-01
      0.1880469580D+03  0.6844507810D-01
      0.5296450000D+02  0.2327143360D+00
      0.1689757040D+02  0.4701928980D+00
      0.5799635340D+01  0.3585208530D+00
 Atom O1       Shell     2 SP   3    bf    2 -     5         11.540840914658          7.078702104312          0.000000000000
      0.1553961625D+02 -0.1107775495D+00  0.7087426823D-01
      0.3599933586D+01 -0.1480262627D+00  0.3397528391D+00
      0.1013761750D+01  0.1130767015D+01  0.7271585773D+00
 Atom O1       Shell     3 SP   1    bf    6 -     9         11.540840914658          7.078702104312          0.000000000000
      0.2700058226D+00  0.1000000000D+01  0.1000000000D+01
 Atom O1       Shell     4 D   1     bf   10 -    15         11.540840914658          7.078702104312          0.000000000000
      0.8000000000D+00  0.1000000000D+01
 Atom H2       Shell     5 S   3     bf   16 -    16         10.763490826025          7.555364866626         -1.584979958292
      0.1873113696D+02  0.3349460434D-01
      0.2825394365D+01  0.2347269535D+00
      0.6401216923D+00  0.8137573261D+00
 Atom H2       Shell     6 S   1     bf   17 -    17         10.763490826025          7.555364866626         -1.584979958292
      0.1612777588D+00  0.1000000000D+01
 Atom O3       Shell     7 S   6     bf   18 -    18          0.000000000000          0.000000000000          0.000000000000
      0.5484671660D+04  0.1831074430D-02
      0.8252349460D+03  0.1395017220D-01
      0.1880469580D+03  0.6844507810D-01
      0.5296450000D+02  0.2327143360D+00
      0.1689757040D+02  0.4701928980D+00
      0.5799635340D+01  0.3585208530D+00
 Atom O3       Shell     8 SP   3    bf   19 -    22          0.000000000000          0.000000000000          0.000000000000
      0.1553961625D+02 -0.1107775495D+00  0.7087426823D-01
      0.3599933586D+01 -0.1480262627D+00  0.3397528391D+00
      0.1013761750D+01  0.1130767015D+01  0.7271585773D+00
 Atom O3       Shell     9 SP   1    bf   23 -    26          0.000000000000          0.000000000000          0.000000000000
      0.2700058226D+00  0.1000000000D+01  0.1000000000D+01
 Atom O3       Shell    10 D   1     bf   27 -    32          0.000000000000          0.000000000000          0.000000000000
      0.8000000000D+00  0.1000000000D+01
 Atom H4       Shell    11 S   3     bf   33 -    33         -0.502285502258          0.154396577694         -1.751276028061
      0.1873113696D+02  0.3349460434D-01
      0.2825394365D+01  0.2347269535D+00
      0.6401216923D+00  0.8137573261D+00
 Atom H4       Shell    12 S   1     bf   34 -    34         -0.502285502258          0.154396577694         -1.751276028061
      0.1612777588D+00  0.1000000000D+01
 Atom C5       Shell    13 S   6     bf   35 -    35         16.581967548037          0.332144520109         -1.891731340183
      0.3047524880D+04  0.1834737132D-02
      0.4573695180D+03  0.1403732281D-01
      0.1039486850D+03  0.6884262226D-01
      0.2921015530D+02  0.2321844432D+00
      0.9286662960D+01  0.4679413484D+00
      0.3163926960D+01  0.3623119853D+00
 Atom C5       Shell    14 SP   3    bf   36 -    39         16.581967548037          0.332144520109         -1.891731340183
      0.7868272350D+01 -0.1193324198D+00  0.6899906659D-01
      0.1881288540D+01 -0.1608541517D+00  0.3164239610D+00
      0.5442492580D+00  0.1143456438D+01  0.7443082909D+00
 Atom C5       Shell    15 SP   1    bf   40 -    43         16.581967548037          0.332144520109         -1.891731340183
      0.1687144782D+00  0.1000000000D+01  0.1000000000D+01
 Atom C5       Shell    16 D   1     bf   44 -    49         16.581967548037          0.332144520109         -1.891731340183
      0.8000000000D+00  0.1000000000D+01
 Atom C6       Shell    17 S   6     bf   50 -    50         15.022830822934          2.303261100847         -0.356456640494
      0.3047524880D+04  0.1834737132D-02
      0.4573695180D+03  0.1403732281D-01
      0.1039486850D+03  0.6884262226D-01
      0.2921015530D+02  0.2321844432D+00
      0.9286662960D+01  0.4679413484D+00
      0.3163926960D+01  0.3623119853D+00
 Atom C6       Shell    18 SP   3    bf   51 -    54         15.022830822934          2.303261100847         -0.356456640494
      0.7868272350D+01 -0.1193324198D+00  0.6899906659D-01
      0.1881288540D+01 -0.1608541517D+00  0.3164239610D+00
      0.5442492580D+00  0.1143456438D+01  0.7443082909D+00
 Atom C6       Shell    19 SP   1    bf   55 -    58         15.022830822934          2.303261100847         -0.356456640494
      0.1687144782D+00  0.1000000000D+01  0.1000000000D+01
 Atom C6       Shell    20 D   1     bf   59 -    64         15.022830822934          2.303261100847         -0.356456640494
      0.8000000000D+00  0.1000000000D+01
 Atom H7       Shell    21 S   3     bf   65 -    65         14.934862635256          1.533568125812          1.579633696295
      0.1873113696D+02  0.3349460434D-01
      0.2825394365D+01  0.2347269535D+00
      0.6401216923D+00  0.8137573261D+00
 Atom H7       Shell    22 S   1     bf   66 -    66         14.934862635256          1.533568125812          1.579633696295
      0.1612777588D+00  0.1000000000D+01
 Atom C8       Shell    23 S   6     bf   67 -    67         12.248772272847          2.605087950921         -1.177107082256
      0.3047524880D+04  0.1834737132D-02
      0.4573695180D+03  0.1403732281D-01
      0.1039486850D+03  0.6884262226D-01
      0.2921015530D+02  0.2321844432D+00
      0.9286662960D+01  0.4679413484D+00
      0.3163926960D+01  0.3623119853D+00
 Atom C8       Shell    24 SP   3    bf   68 -    71         12.248772272847          2.605087950921         -1.177107082256
      0.7868272350D+01 -0.1193324198D+00  0.6899906659D-01
      0.1881288540D+01 -0.1608541517D+00  0.3164239610D+00
      0.5442492580D+00  0.1143456438D+01  0.7443082909D+00
 Atom C8       Shell    25 SP   1    bf   72 -    75         12.248772272847          2.605087950921         -1.177107082256
      0.1687144782D+00  0.1000000000D+01  0.1000000000D+01
 Atom C8       Shell    26 D   1     bf   76 -    81         12.248772272847          2.605087950921         -1.177107082256
      0.8000000000D+00  0.1000000000D+01
 Atom H9       Shell    27 S   3     bf   82 -    82         12.166790983223          3.361819974712         -3.110870429183
      0.1873113696D+02  0.3349460434D-01
      0.2825394365D+01  0.2347269535D+00
      0.6401216923D+00  0.8137573261D+00
 Atom H9       Shell    28 S   1     bf   83 -    83         12.166790983223          3.361819974712         -3.110870429183
      0.1612777588D+00  0.1000000000D+01
 Atom C10      Shell    29 S   6     bf   84 -    84         10.904831928374         -0.007874035261         -1.094203776355
      0.3047524880D+04  0.1834737132D-02
      0.4573695180D+03  0.1403732281D-01
      0.1039486850D+03  0.6884262226D-01
      0.2921015530D+02  0.2321844432D+00
      0.9286662960D+01  0.4679413484D+00
      0.3163926960D+01  0.3623119853D+00
 Atom C10      Shell    30 SP   3    bf   85 -    88         10.904831928374         -0.007874035261         -1.094203776355
      0.7868272350D+01 -0.1193324198D+00  0.6899906659D-01
      0.1881288540D+01 -0.1608541517D+00  0.3164239610D+00
      0.5442492580D+00  0.1143456438D+01  0.7443082909D+00
 Atom C10      Shell    31 SP   1    bf   89 -    92         10.904831928374         -0.007874035261         -1.094203776355
      0.1687144782D+00  0.1000000000D+01  0.1000000000D+01
 Atom C10      Shell    32 D   1     bf   93 -    98         10.904831928374         -0.007874035261         -1.094203776355
      0.8000000000D+00  0.1000000000D+01
 Atom H11      Shell    33 S   3     bf   99 -    99         10.843849993634         -0.542106453837          0.918774320034
      0.1873113696D+02  0.3349460434D-01
      0.2825394365D+01  0.2347269535D+00
      0.6401216923D+00  0.8137573261D+00
 Atom H11      Shell    34 S   1     bf  100 -   100         10.843849993634         -0.542106453837          0.918774320034
      0.1612777588D+00  0.1000000000D+01
 Atom C12      Shell    35 S   6     bf  101 -   101         19.176192446078          0.587866720165         -0.481186615498
      0.3047524880D+04  0.1834737132D-02
      0.4573695180D+03  0.1403732281D-01
      0.1039486850D+03  0.6884262226D-01
      0.2921015530D+02  0.2321844432D+00
      0.9286662960D+01  0.4679413484D+00
      0.3163926960D+01  0.3623119853D+00
 Atom C12      Shell    36 SP   3    bf  102 -   105         19.176192446078          0.587866720165         -0.481186615498
      0.7868272350D+01 -0.1193324198D+00  0.6899906659D-01
      0.1881288540D+01 -0.1608541517D+00  0.3164239610D+00
      0.5442492580D+00  0.1143456438D+01  0.7443082909D+00
 Atom C12      Shell    37 SP   1    bf  106 -   109         19.176192446078          0.587866720165         -0.481186615498
      0.1687144782D+00  0.1000000000D+01  0.1000000000D+01
 Atom C12      Shell    38 D   1     bf  110 -   115         19.176192446078          0.587866720165         -0.481186615498
      0.8000000000D+00  0.1000000000D+01
 Atom H13      Shell    39 S   3     bf  116 -   116         18.809776627610         -0.205574216414          1.402815423548
      0.1873113696D+02  0.3349460434D-01
      0.2825394365D+01  0.2347269535D+00
      0.6401216923D+00  0.8137573261D+00
 Atom H13      Shell    40 S   1     bf  117 -   117         18.809776627610         -0.205574216414          1.402815423548
      0.1612777588D+00  0.1000000000D+01
 Atom C14      Shell    41 S   6     bf  118 -   118         15.231104305259         -2.229856616735         -1.614539337921
      0.3047524880D+04  0.1834737132D-02
      0.4573695180D+03  0.1403732281D-01
      0.1039486850D+03  0.6884262226D-01
      0.2921015530D+02  0.2321844432D+00
      0.9286662960D+01  0.4679413484D+00
      0.3163926960D+01  0.3623119853D+00
 Atom C14      Shell    42 SP   3    bf  119 -   122         15.231104305259         -2.229856616735         -1.614539337921
      0.7868272350D+01 -0.1193324198D+00  0.6899906659D-01
      0.1881288540D+01 -0.1608541517D+00  0.3164239610D+00
      0.5442492580D+00  0.1143456438D+01  0.7443082909D+00
 Atom C14      Shell    43 SP   1    bf  123 -   126         15.231104305259         -2.229856616735         -1.614539337921
      0.1687144782D+00  0.1000000000D+01  0.1000000000D+01
 Atom C14      Shell    44 D   1     bf  127 -   132         15.231104305259         -2.229856616735         -1.614539337921
      0.8000000000D+00  0.1000000000D+01
 Atom H15      Shell    45 S   3     bf  133 -   133         15.309211353955         -2.823493162113          0.374135122953
      0.1873113696D+02  0.3349460434D-01
      0.2825394365D+01  0.2347269535D+00
      0.6401216923D+00  0.8137573261D+00
 Atom H15      Shell    46 S   1     bf  134 -   134         15.309211353955         -2.823493162113          0.374135122953
      0.1612777588D+00  0.1000000000D+01
 Atom H16      Shell    47 S   3     bf  135 -   135         16.182815361262         -3.707009708953         -2.712340151278
      0.1873113696D+02  0.3349460434D-01
      0.2825394365D+01  0.2347269535D+00
      0.6401216923D+00  0.8137573261D+00
 Atom H16      Shell    48 S   1     bf  136 -   136         16.182815361262         -3.707009708953         -2.712340151278
      0.1612777588D+00  0.1000000000D+01
 Atom C17      Shell    49 S   6     bf  137 -   137          8.075017915805          0.105536442412         -1.970652823047
      0.3047524880D+04  0.1834737132D-02
      0.4573695180D+03  0.1403732281D-01
      0.1039486850D+03  0.6884262226D-01
      0.2921015530D+02  0.2321844432D+00
      0.9286662960D+01  0.4679413484D+00
      0.3163926960D+01  0.3623119853D+00
 Atom C17      Shell    50 SP   3    bf  138 -   141          8.075017915805          0.105536442412         -1.970652823047
      0.7868272350D+01 -0.1193324198D+00  0.6899906659D-01
      0.1881288540D+01 -0.1608541517D+00  0.3164239610D+00
      0.5442492580D+00  0.1143456438D+01  0.7443082909D+00
 Atom C17      Shell    51 SP   1    bf  142 -   145          8.075017915805          0.105536442412         -1.970652823047
      0.1687144782D+00  0.1000000000D+01  0.1000000000D+01
 Atom C17      Shell    52 D   1     bf  146 -   151          8.075017915805          0.105536442412         -1.970652823047
      0.8000000000D+00  0.1000000000D+01
 Atom C18      Shell    53 S   6     bf  152 -   152         16.756931734886          4.638608768772         -0.236602499064
      0.3047524880D+04  0.1834737132D-02
      0.4573695180D+03  0.1403732281D-01
      0.1039486850D+03  0.6884262226D-01
      0.2921015530D+02  0.2321844432D+00
      0.9286662960D+01  0.4679413484D+00
      0.3163926960D+01  0.3623119853D+00
 Atom C18      Shell    54 SP   3    bf  153 -   156         16.756931734886          4.638608768772         -0.236602499064
      0.7868272350D+01 -0.1193324198D+00  0.6899906659D-01
      0.1881288540D+01 -0.1608541517D+00  0.3164239610D+00
      0.5442492580D+00  0.1143456438D+01  0.7443082909D+00
 Atom C18      Shell    55 SP   1    bf  157 -   160         16.756931734886          4.638608768772         -0.236602499064
      0.1687144782D+00  0.1000000000D+01  0.1000000000D+01
 Atom C18      Shell    56 D   1     bf  161 -   166         16.756931734886          4.638608768772         -0.236602499064
      0.8000000000D+00  0.1000000000D+01
 Atom H19      Shell    57 S   3     bf  167 -   167         16.313110863186          5.862846527851          1.365161042980
      0.1873113696D+02  0.3349460434D-01
      0.2825394365D+01  0.2347269535D+00
      0.6401216923D+00  0.8137573261D+00
 Atom H19      Shell    58 S   1     bf  168 -   168         16.313110863186          5.862846527851          1.365161042980
      0.1612777588D+00  0.1000000000D+01
 Atom H20      Shell    59 S   3     bf  169 -   169         16.525322119032          5.804537346165         -1.930707357413
      0.1873113696D+02  0.3349460434D-01
      0.2825394365D+01  0.2347269535D+00
      0.6401216923D+00  0.8137573261D+00
 Atom H20      Shell    60 S   1     bf  170 -   170         16.525322119032          5.804537346165         -1.930707357413
      0.1612777588D+00  0.1000000000D+01
 Atom C21      Shell    61 S   6     bf  171 -   171         12.450184688707         -2.078149988602         -2.461724104617
      0.3047524880D+04  0.1834737132D-02
      0.4573695180D+03  0.1403732281D-01
      0.1039486850D+03  0.6884262226D-01
      0.2921015530D+02  0.2321844432D+00
      0.9286662960D+01  0.4679413484D+00
      0.3163926960D+01  0.3623119853D+00
 Atom C21      Shell    62 SP   3    bf  172 -   175         12.450184688707         -2.078149988602         -2.461724104617
      0.7868272350D+01 -0.1193324198D+00  0.6899906659D-01
      0.1881288540D+01 -0.1608541517D+00  0.3164239610D+00
      0.5442492580D+00  0.1143456438D+01  0.7443082909D+00
 Atom C21      Shell    63 SP   1    bf  176 -   179         12.450184688707         -2.078149988602         -2.461724104617
      0.1687144782D+00  0.1000000000D+01  0.1000000000D+01
 Atom C21      Shell    64 D   1     bf  180 -   185         12.450184688707         -2.078149988602         -2.461724104617
      0.8000000000D+00  0.1000000000D+01
 Atom H22      Shell    65 S   3     bf  186 -   186         12.394239875666         -1.761585599054         -4.506251405562
      0.1873113696D+02  0.3349460434D-01
      0.2825394365D+01  0.2347269535D+00
      0.6401216923D+00  0.8137573261D+00
 Atom H22      Shell    66 S   1     bf  187 -   187         12.394239875666         -1.761585599054         -4.506251405562
      0.1612777588D+00  0.1000000000D+01
 Atom H23      Shell    67 S   3     bf  188 -   188         11.566095403671         -3.923397713087         -2.145698948421
      0.1873113696D+02  0.3349460434D-01
      0.2825394365D+01  0.2347269535D+00
      0.6401216923D+00  0.8137573261D+00
 Atom H23      Shell    68 S   1     bf  189 -   189         11.566095403671         -3.923397713087         -2.145698948421
      0.1612777588D+00  0.1000000000D+01
 Atom C24      Shell    69 S   6     bf  190 -   190         19.460567183986          3.498554321591         -0.090274088197
      0.3047524880D+04  0.1834737132D-02
      0.4573695180D+03  0.1403732281D-01
      0.1039486850D+03  0.6884262226D-01
      0.2921015530D+02  0.2321844432D+00
      0.9286662960D+01  0.4679413484D+00
      0.3163926960D+01  0.3623119853D+00
 Atom C24      Shell    70 SP   3    bf  191 -   194         19.460567183986          3.498554321591         -0.090274088197
      0.7868272350D+01 -0.1193324198D+00  0.6899906659D-01
      0.1881288540D+01 -0.1608541517D+00  0.3164239610D+00
      0.5442492580D+00  0.1143456438D+01  0.7443082909D+00
 Atom C24      Shell    71 SP   1    bf  195 -   198         19.460567183986          3.498554321591         -0.090274088197
      0.1687144782D+00  0.1000000000D+01  0.1000000000D+01
 Atom C24      Shell    72 D   1     bf  199 -   204         19.460567183986          3.498554321591         -0.090274088197
      0.8000000000D+00  0.1000000000D+01
 Atom H25      Shell    73 S   3     bf  205 -   205         20.686297940094          4.332990013137         -1.533341566546
      0.1873113696D+02  0.3349460434D-01
      0.2825394365D+01  0.2347269535D+00
      0.6401216923D+00  0.8137573261D+00
 Atom H25      Shell    74 S   1     bf  206 -   206         20.686297940094          4.332990013137         -1.533341566546
      0.1612777588D+00  0.1000000000D+01
 Atom H26      Shell    75 S   3     bf  207 -   207         20.366091065630          3.889496517592          1.730409142979
      0.1873113696D+02  0.3349460434D-01
      0.2825394365D+01  0.2347269535D+00
      0.6401216923D+00  0.8137573261D+00
 Atom H26      Shell    76 S   1     bf  208 -   208         20.366091065630          3.889496517592          1.730409142979
      0.1612777588D+00  0.1000000000D+01
 Atom C27      Shell    77 S   6     bf  209 -   209         10.844851888635          4.499551948476          0.532035234001
      0.3047524880D+04  0.1834737132D-02
      0.4573695180D+03  0.1403732281D-01
      0.1039486850D+03  0.6884262226D-01
      0.2921015530D+02  0.2321844432D+00
      0.9286662960D+01  0.4679413484D+00
      0.3163926960D+01  0.3623119853D+00
 Atom C27      Shell    78 SP   3    bf  210 -   213         10.844851888635          4.499551948476          0.532035234001
      0.7868272350D+01 -0.1193324198D+00  0.6899906659D-01
      0.1881288540D+01 -0.1608541517D+00  0.3164239610D+00
      0.5442492580D+00  0.1143456438D+01  0.7443082909D+00
 Atom C27      Shell    79 SP   1    bf  214 -   217         10.844851888635          4.499551948476          0.532035234001
      0.1687144782D+00  0.1000000000D+01  0.1000000000D+01
 Atom C27      Shell    80 D   1     bf  218 -   223         10.844851888635          4.499551948476          0.532035234001
      0.8000000000D+00  0.1000000000D+01
 Atom H28      Shell    81 S   3     bf  224 -   224         11.474381287469          4.230584242215          2.493392305227
      0.1873113696D+02  0.3349460434D-01
      0.2825394365D+01  0.2347269535D+00
      0.6401216923D+00  0.8137573261D+00
 Atom H28      Shell    82 S   1     bf  225 -   225         11.474381287469          4.230584242215          2.493392305227
      0.1612777588D+00  0.1000000000D+01
 Atom C29      Shell    83 S   6     bf  226 -   226         21.669788255912         -0.698415547761         -1.360312893894
      0.3047524880D+04  0.1834737132D-02
      0.4573695180D+03  0.1403732281D-01
      0.1039486850D+03  0.6884262226D-01
      0.2921015530D+02  0.2321844432D+00
      0.9286662960D+01  0.4679413484D+00
      0.3163926960D+01  0.3623119853D+00
 Atom C29      Shell    84 SP   3    bf  227 -   230         21.669788255912         -0.698415547761         -1.360312893894
      0.7868272350D+01 -0.1193324198D+00  0.6899906659D-01
      0.1881288540D+01 -0.1608541517D+00  0.3164239610D+00
      0.5442492580D+00  0.1143456438D+01  0.7443082909D+00
 Atom C29      Shell    85 SP   1    bf  231 -   234         21.669788255912         -0.698415547761         -1.360312893894
      0.1687144782D+00  0.1000000000D+01  0.1000000000D+01
 Atom C29      Shell    86 D   1     bf  235 -   240         21.669788255912         -0.698415547761         -1.360312893894
      0.8000000000D+00  0.1000000000D+01
 Atom H30      Shell    87 S   3     bf  241 -   241         23.079621819961          0.000000000000          0.000000000000
      0.1873113696D+02  0.3349460434D-01
      0.2825394365D+01  0.2347269535D+00
      0.6401216923D+00  0.8137573261D+00
 Atom H30      Shell    88 S   1     bf  242 -   242         23.079621819961          0.000000000000          0.000000000000
      0.1612777588D+00  0.1000000000D+01
 Atom C31      Shell    89 S   6     bf  243 -   243         16.773922413725          1.067320437902         -4.713966039177
      0.3047524880D+04  0.1834737132D-02
      0.4573695180D+03  0.1403732281D-01
      0.1039486850D+03  0.6884262226D-01
      0.2921015530D+02  0.2321844432D+00
      0.9286662960D+01  0.4679413484D+00
      0.3163926960D+01  0.3623119853D+00
 Atom C31      Shell    90 SP   3    bf  244 -   247         16.773922413725          1.067320437902         -4.713966039177
      0.7868272350D+01 -0.1193324198D+00  0.6899906659D-01
      0.1881288540D+01 -0.1608541517D+00  0.3164239610D+00
      0.5442492580D+00  0.1143456438D+01  0.7443082909D+00
 Atom C31      Shell    91 SP   1    bf  248 -   251         16.773922413725          1.067320437902         -4.713966039177
      0.1687144782D+00  0.1000000000D+01  0.1000000000D+01
 Atom C31      Shell    92 D   1     bf  252 -   257         16.773922413725          1.067320437902         -4.713966039177
      0.8000000000D+00  0.1000000000D+01
 Atom H32      Shell    93 S   3     bf  258 -   258         14.923424104077          1.478289781384         -5.535095016289
      0.1873113696D+02  0.3349460434D-01
      0.2825394365D+01  0.2347269535D+00
      0.6401216923D+00  0.8137573261D+00
 Atom H32      Shell    94 S   1     bf  259 -   259         14.923424104077          1.478289781384         -5.535095016289
      0.1612777588D+00  0.1000000000D+01
 Atom H33      Shell    95 S   3     bf  260 -   260         17.951556030373          2.737971961908         -5.007343337897
      0.1873113696D+02  0.3349460434D-01
      0.2825394365D+01  0.2347269535D+00
      0.6401216923D+00  0.8137573261D+00
 Atom H33      Shell    96 S   1     bf  261 -   261         17.951556030373          2.737971961908         -5.007343337897
      0.1612777588D+00  0.1000000000D+01
 Atom H34      Shell    97 S   3     bf  262 -   262         17.594907374807         -0.475585505034         -5.817645828328
      0.1873113696D+02  0.3349460434D-01
      0.2825394365D+01  0.2347269535D+00
      0.6401216923D+00  0.8137573261D+00
 Atom H34      Shell    98 S   1     bf  263 -   263         17.594907374807         -0.475585505034         -5.817645828328
      0.1612777588D+00  0.1000000000D+01
 Atom C35      Shell    99 S   6     bf  264 -   264          6.749210325056          2.363064167733         -0.731500098108
      0.3047524880D+04  0.1834737132D-02
      0.4573695180D+03  0.1403732281D-01
      0.1039486850D+03  0.6884262226D-01
      0.2921015530D+02  0.2321844432D+00
      0.9286662960D+01  0.4679413484D+00
      0.3163926960D+01  0.3623119853D+00
 Atom C35      Shell   100 SP   3    bf  265 -   268          6.749210325056          2.363064167733         -0.731500098108
      0.7868272350D+01 -0.1193324198D+00  0.6899906659D-01
      0.1881288540D+01 -0.1608541517D+00  0.3164239610D+00
      0.5442492580D+00  0.1143456438D+01  0.7443082909D+00
 Atom C35      Shell   101 SP   1    bf  269 -   272          6.749210325056          2.363064167733         -0.731500098108
      0.1687144782D+00  0.1000000000D+01  0.1000000000D+01
 Atom C35      Shell   102 D   1     bf  273 -   278          6.749210325056          2.363064167733         -0.731500098108
      0.8000000000D+00  0.1000000000D+01
 Atom C36      Shell   103 S   6     bf  279 -   279          6.713644167454         -2.357607999264         -1.086558001113
      0.3047524880D+04  0.1834737132D-02
      0.4573695180D+03  0.1403732281D-01
      0.1039486850D+03  0.6884262226D-01
      0.2921015530D+02  0.2321844432D+00
      0.9286662960D+01  0.4679413484D+00
      0.3163926960D+01  0.3623119853D+00
 Atom C36      Shell   104 SP   3    bf  280 -   283          6.713644167454         -2.357607999264         -1.086558001113
      0.7868272350D+01 -0.1193324198D+00  0.6899906659D-01
      0.1881288540D+01 -0.1608541517D+00  0.3164239610D+00
      0.5442492580D+00  0.1143456438D+01  0.7443082909D+00
 Atom C36      Shell   105 SP   1    bf  284 -   287          6.713644167454         -2.357607999264         -1.086558001113
      0.1687144782D+00  0.1000000000D+01  0.1000000000D+01
 Atom C36      Shell   106 D   1     bf  288 -   293          6.713644167454         -2.357607999264         -1.086558001113
      0.8000000000D+00  0.1000000000D+01
 Atom H37      Shell   107 S   3     bf  294 -   294          7.206264759892         -2.692768390001          0.902485712248
      0.1873113696D+02  0.3349460434D-01
      0.2825394365D+01  0.2347269535D+00
      0.6401216923D+00  0.8137573261D+00
 Atom H37      Shell   108 S   1     bf  295 -   295          7.206264759892         -2.692768390001          0.902485712248
      0.1612777588D+00  0.1000000000D+01
 Atom H38      Shell   109 S   3     bf  296 -   296          7.448124231393         -3.971952600907         -2.152789295358
      0.1873113696D+02  0.3349460434D-01
      0.2825394365D+01  0.2347269535D+00
      0.6401216923D+00  0.8137573261D+00
 Atom H38      Shell   110 S   1     bf  297 -   297          7.448124231393         -3.971952600907         -2.152789295358
      0.1612777588D+00  0.1000000000D+01
 Atom C39      Shell   111 S   6     bf  298 -   298          8.019499670644          4.233817979368          0.412690203688
      0.3047524880D+04  0.1834737132D-02
[...]
 **** Fit      -0.002568
 **** Fit      -0.002690
 **** Fit      -0.002646
 **** Fit      -0.002485
 **** Fit      -0.002258
 **** Fit       0.000721
 **** Fit       0.000971
 **** Fit       0.001204
 **** Fit       0.001377
 **** Fit       0.001455
 **** Fit       0.001430
 **** Fit       0.001320
 **** Fit       0.001154
 **** Fit      -0.000147
 **** Fit      -0.000328
 **** Fit      -0.000501
 **** Fit      -0.000662
 **** Fit      -0.000809
 **** Fit      -0.000950
 **** Fit      -0.001098
 **** Fit      -0.001267
 **** Fit      -0.001468
 **** Fit      -0.001706
 **** Fit      -0.001970
 **** Fit      -0.002230
 **** Fit      -0.002437
 **** Fit      -0.002549
 **** Fit      -0.002552
 **** Fit      -0.002460
 **** Fit      -0.002300
 **** Fit       0.000387
 **** Fit       0.000616
 **** Fit       0.000867
 **** Fit       0.001101
 **** Fit       0.001270
 **** Fit       0.001337
 **** Fit       0.001296
 **** Fit       0.001168
 **** Fit       0.000990
 **** Fit       0.000794
 **** Fit      -0.001039
 **** Fit      -0.001198
 **** Fit      -0.001378
 **** Fit      -0.001579
 **** Fit      -0.001792
 **** Fit      -0.001996
 **** Fit      -0.002165
 **** Fit      -0.002277
 **** Fit      -0.002317
 **** Fit      -0.002287
 **** Fit      -0.002198
 **** Fit       0.000242
 **** Fit       0.000450
 **** Fit       0.000682
 **** Fit       0.000898
 **** Fit       0.001051
 **** Fit       0.001107
 **** Fit       0.001061
 **** Fit       0.000936
 **** Fit       0.000768
 **** Fit       0.000589
 **** Fit      -0.001309
 **** Fit      -0.001475
 **** Fit      -0.001641
 **** Fit      -0.001789
 **** Fit      -0.001904
 **** Fit      -0.001975
 **** Fit      -0.001996
 **** Fit      -0.001972
 **** Fit       0.000065
 **** Fit       0.000235
 **** Fit       0.000426
 **** Fit       0.000605
 **** Fit       0.000732
 **** Fit       0.000778
 **** Fit       0.000738
 **** Fit       0.000634
 **** Fit       0.000496
 **** Fit       0.000353
 **** Fit      -0.001597
 **** Fit      -0.001650
 **** Fit      -0.000004
 **** Fit       0.000134
 **** Fit       0.000266
 **** Fit       0.000360
 **** Fit       0.000395
 **** Fit       0.000368
 **** Fit       0.000295
 **** Fit       0.000200
 **** Fit      -0.000232
 **** Fit      -0.000148
 **** Fit      -0.000066
 **** Fit      -0.000006
 **** Fit       0.000018
 **** Fit       0.000005
 **** Fit      -0.000035
 **** Fit      -0.000088
 **** Fit      -0.000384
 **** Fit      -0.000345
 **** Fit      -0.000315
 **** Fit      -0.000301
 **** Fit      -0.000304
 **** Fit      -0.000318
 **** Fit       0.001202
 **** Fit       0.001083
 **** Fit       0.000900
 **** Fit       0.000669
 **** Fit       0.001479
 **** Fit       0.001435
 **** Fit       0.001311
 **** Fit       0.001107
 **** Fit       0.000840
 **** Fit       0.000545
 **** Fit       0.001648
 **** Fit       0.001684
 **** Fit       0.001651
 **** Fit       0.001527
 **** Fit       0.001309
 **** Fit       0.001015
 **** Fit       0.000682
 **** Fit       0.001807
 **** Fit       0.001856
 **** Fit       0.001834
 **** Fit       0.001716
 **** Fit       0.001496
 **** Fit       0.001191
 **** Fit       0.000832
 **** Fit       0.000462
 **** Fit       0.001930
 **** Fit       0.001987
 **** Fit       0.001977
 **** Fit       0.001877
 **** Fit       0.001675
 **** Fit       0.001379
 **** Fit       0.001015
 **** Fit       0.000618
 **** Fit       0.000225
 **** Fit      -0.000127
 **** Fit      -0.000406
 **** Fit       0.002080
 **** Fit       0.002088
 **** Fit       0.002022
 **** Fit       0.001866
 **** Fit       0.001613
 **** Fit       0.001269
 **** Fit       0.000853
 **** Fit       0.000403
 **** Fit      -0.000031
 **** Fit      -0.000396
 **** Fit      -0.000658
 **** Fit       0.002141
 **** Fit       0.002179
 **** Fit       0.002173
 **** Fit       0.002099
 **** Fit       0.001932
 **** Fit       0.001644
 **** Fit       0.001222
 **** Fit       0.000698
 **** Fit       0.000145
 **** Fit      -0.000345
 **** Fit      -0.000705
 **** Fit      -0.000916
 **** Fit       0.001824
 **** Fit       0.001923
 **** Fit       0.002010
 **** Fit       0.002089
 **** Fit       0.002167
 **** Fit       0.002249
 **** Fit       0.002330
 **** Fit       0.002386
 **** Fit       0.002361
 **** Fit       0.002178
 **** Fit       0.001770
 **** Fit       0.001150
 **** Fit       0.000428
 **** Fit      -0.000239
 **** Fit      -0.000737
 **** Fit      -0.001030
 **** Fit      -0.001143
 **** Fit       0.001726
 **** Fit       0.001824
 **** Fit       0.001910
 **** Fit       0.001981
 **** Fit       0.002050
 **** Fit       0.002140
 **** Fit       0.002274
 **** Fit       0.002463
 **** Fit       0.002688
 **** Fit       0.002865
 **** Fit       0.002846
 **** Fit       0.002480
 **** Fit       0.001745
 **** Fit       0.000804
 **** Fit      -0.000092
 **** Fit      -0.000760
 **** Fit      -0.001148
 **** Fit      -0.001300
 **** Fit      -0.001291
 **** Fit       0.001585
 **** Fit       0.001674
 **** Fit       0.001757
 **** Fit       0.001823
 **** Fit       0.001874
 **** Fit       0.001929
 **** Fit       0.002025
 **** Fit       0.002205
 **** Fit       0.002500
 **** Fit       0.002900
 **** Fit       0.003301
 **** Fit       0.003479
 **** Fit       0.003182
 **** Fit       0.002337
 **** Fit       0.001166
 **** Fit       0.000034
 **** Fit      -0.000801
 **** Fit      -0.001277
 **** Fit      -0.001460
 **** Fit      -0.001452
 **** Fit       0.001484
 **** Fit       0.001549
 **** Fit       0.001606
 **** Fit       0.001645
 **** Fit       0.001668
 **** Fit       0.001702
 **** Fit       0.001791
 **** Fit       0.001992
 **** Fit       0.002351
 **** Fit       0.002868
 **** Fit       0.003430
 **** Fit       0.003764
 **** Fit       0.003534
 **** Fit       0.002625
 **** Fit       0.001304
 **** Fit       0.000023
 **** Fit      -0.000909
 **** Fit      -0.001429
 **** Fit      -0.001620
 **** Fit      -0.001604
 **** Fit       0.001321
 **** Fit       0.001349
 **** Fit       0.001369
 **** Fit       0.001373
 **** Fit       0.001364
 **** Fit       0.001369
 **** Fit       0.001434
 **** Fit       0.001616
 **** Fit       0.001963
 **** Fit       0.002478
 **** Fit       0.003052
 **** Fit       0.003410
 **** Fit       0.003209
 **** Fit       0.002326
 **** Fit       0.001031
 **** Fit      -0.000219
 **** Fit      -0.001117
 **** Fit      -0.001605
 **** Fit      -0.001771
 **** Fit      -0.001735
 **** Fit       0.001110
 **** Fit       0.001094
 **** Fit       0.001070
 **** Fit       0.001033
 **** Fit       0.000988
 **** Fit       0.000960
 **** Fit       0.000986
 **** Fit       0.001111
 **** Fit       0.001371
 **** Fit       0.001762
 **** Fit       0.002190
 **** Fit       0.002429
 **** Fit       0.002210
 **** Fit       0.001444
 **** Fit       0.000359
 **** Fit      -0.000674
 **** Fit      -0.001405
 **** Fit      -0.001788
 **** Fit      -0.001898
 **** Fit      -0.001833
 **** Fit       0.000815
 **** Fit       0.000747
 **** Fit       0.000671
 **** Fit       0.000593
 **** Fit       0.000530
 **** Fit       0.000510
 **** Fit       0.000558
 **** Fit       0.000692
 **** Fit       0.000900
 **** Fit       0.001107
 **** Fit       0.001167
 **** Fit       0.000915
 **** Fit       0.000316
 **** Fit      -0.000470
 **** Fit      -0.001197
 **** Fit      -0.001699
 **** Fit      -0.001943
 **** Fit      -0.001982
 **** Fit      -0.001889
 **** Fit       0.000443
 **** Fit       0.000336
 **** Fit       0.000230
 **** Fit       0.000138
 **** Fit       0.000075
 **** Fit       0.000050
 **** Fit       0.000066
 **** Fit       0.000105
 **** Fit       0.000119
 **** Fit       0.000031
 **** Fit      -0.000231
 **** Fit      -0.000668
 **** Fit      -0.001178
 **** Fit      -0.001624
 **** Fit      -0.001914
 **** Fit      -0.002032
 **** Fit      -0.002009
 **** Fit      -0.000268
 **** Fit      -0.000347
 **** Fit      -0.000414
 **** Fit      -0.000486
 **** Fit      -0.000589
 **** Fit      -0.000753
 **** Fit      -0.000997
 **** Fit      -0.001303
 **** Fit      -0.001614
 **** Fit      -0.001862
 **** Fit      -0.002003
 **** Fit      -0.002033
 **** Fit      -0.001971
 **** Fit       0.001025
 **** Fit       0.001082
 **** Fit       0.001077
 **** Fit      -0.000607
 **** Fit      -0.000718
 **** Fit      -0.000843
 **** Fit      -0.000992
 **** Fit      -0.001172
 **** Fit      -0.001378
 **** Fit      -0.001592
 **** Fit      -0.001780
 **** Fit      -0.001910
 **** Fit      -0.001967
 **** Fit      -0.001951
 **** Fit       0.000809
 **** Fit       0.000914
 **** Fit       0.000962
 **** Fit       0.000948
 **** Fit      -0.001002
 **** Fit      -0.001153
 **** Fit      -0.001316
 **** Fit      -0.001480
 **** Fit      -0.001631
 **** Fit      -0.001748
 **** Fit      -0.001819
 **** Fit      -0.001838
 **** Fit       0.000647
 **** Fit       0.000741
 **** Fit       0.000781
 **** Fit       0.000762
 **** Fit       0.000695
 **** Fit      -0.001292
 **** Fit      -0.001419
 **** Fit      -0.001527
 **** Fit       0.000436
 **** Fit       0.000514
 **** Fit       0.000546
 **** Fit       0.000528
 **** Fit       0.000258
 **** Fit       0.000282
 **** Fit       0.001525
 **** Fit       0.001334
 **** Fit       0.001077
 **** Fit       0.000767
 **** Fit       0.000428
 **** Fit       0.000094
 **** Fit      -0.000200
 **** Fit       0.001765
 **** Fit       0.001689
 **** Fit       0.001543
 **** Fit       0.001311
 **** Fit       0.000992
 **** Fit       0.000609
 **** Fit       0.000206
 **** Fit      -0.000162
 **** Fit      -0.000454
 **** Fit       0.001839
 **** Fit       0.001867
 **** Fit       0.001859
 **** Fit       0.001780
 **** Fit       0.001593
 **** Fit       0.001274
 **** Fit       0.000841
 **** Fit       0.000354
 **** Fit      -0.000107
 **** Fit      -0.000476
 **** Fit      -0.000724
 **** Fit       0.001842
 **** Fit       0.001929
 **** Fit       0.002002
 **** Fit       0.002009
 **** Fit       0.001885
 **** Fit       0.001577
 **** Fit       0.001093
 **** Fit       0.000512
 **** Fit      -0.000052
 **** Fit      -0.000506
 **** Fit      -0.000808
 **** Fit      -0.000964
 **** Fit       0.001666
 **** Fit       0.001770
 **** Fit       0.001910
 **** Fit       0.002058
 **** Fit       0.002153
 **** Fit       0.002097
 **** Fit       0.001809
 **** Fit       0.001284
 **** Fit       0.000619
 **** Fit      -0.000036
 **** Fit      -0.000561
 **** Fit      -0.000906
 **** Fit      -0.001082
 **** Fit       0.001358
 **** Fit       0.001382
 **** Fit       0.001483
 **** Fit       0.001597
 **** Fit       0.001765
 **** Fit       0.001961
 **** Fit       0.002113
 **** Fit       0.002109
 **** Fit       0.001843
 **** Fit       0.001301
 **** Fit       0.000593
 **** Fit      -0.000108
 **** Fit      -0.000666
 **** Fit      -0.001027
 **** Fit      -0.001205
 **** Fit       0.001151
 **** Fit       0.001152
 **** Fit       0.001215
 **** Fit       0.001316
 **** Fit       0.001476
 **** Fit       0.001669
 **** Fit       0.001826
 **** Fit       0.001832
 **** Fit       0.001583
 **** Fit       0.001061
 **** Fit       0.000377
 **** Fit      -0.000298
 **** Fit      -0.000830
 **** Fit      -0.001168
 **** Fit      -0.001327
 **** Fit       0.000885
 **** Fit       0.000951
 **** Fit       0.001066
 **** Fit       0.001208
 **** Fit       0.001314
 **** Fit       0.001290
 **** Fit       0.001050
 **** Fit       0.000585
 **** Fit      -0.000010
 **** Fit      -0.000589
 **** Fit      -0.001039
 **** Fit      -0.001317
 **** Fit      -0.001437
 **** Fit       0.000530
 **** Fit       0.000549
 **** Fit       0.000601
 **** Fit       0.000663
 **** Fit       0.000691
 **** Fit       0.000616
 **** Fit       0.000384
 **** Fit      -0.000002
 **** Fit      -0.000470
 **** Fit      -0.000913
 **** Fit      -0.001250
 **** Fit      -0.001450
 **** Fit      -0.001523
 **** Fit       0.000167
 **** Fit       0.000155
 **** Fit       0.000141
 **** Fit       0.000094
 **** Fit      -0.000025
 **** Fit      -0.000241
 **** Fit      -0.000545
 **** Fit      -0.000885
 **** Fit      -0.001194
 **** Fit      -0.001419
 **** Fit      -0.001542
 **** Fit      -0.000212
 **** Fit      -0.000281
 **** Fit      -0.000377
 **** Fit      -0.000518
 **** Fit      -0.000711
 **** Fit      -0.000942
 **** Fit      -0.001178
 **** Fit      -0.001378
 **** Fit      -0.001515
 **** Fit      -0.001578
 **** Fit      -0.000572
 **** Fit      -0.000689
 **** Fit      -0.000831
 **** Fit      -0.000995
 **** Fit      -0.001168
 **** Fit      -0.001328
 **** Fit      -0.001455
 **** Fit      -0.001532
 **** Fit      -0.000984
 **** Fit      -0.001119
 **** Fit      -0.001248
 **** Fit      -0.001359
 **** Fit       0.001224
 **** Fit       0.001037
 **** Fit       0.000793
 **** Fit       0.000508
 **** Fit       0.000209
 **** Fit       0.001448
 **** Fit       0.001352
 **** Fit       0.001185
 **** Fit       0.000937
 **** Fit       0.000625
 **** Fit       0.000282
 **** Fit      -0.000046
 **** Fit      -0.000323
 **** Fit       0.001509
 **** Fit       0.001508
 **** Fit       0.001452
 **** Fit       0.001310
 **** Fit       0.001065
 **** Fit       0.000729
 **** Fit       0.000342
 **** Fit      -0.000037
 **** Fit      -0.000357
 **** Fit       0.001413
 **** Fit       0.001466
 **** Fit       0.001500
 **** Fit       0.001481
 **** Fit       0.001366
 **** Fit       0.001129
 **** Fit       0.000776
 **** Fit       0.000356
 **** Fit      -0.000061
 **** Fit      -0.000414
 **** Fit      -0.000669
 **** Fit       0.001273
 **** Fit       0.001338
 **** Fit       0.001393
 **** Fit       0.001398
 **** Fit       0.001304
 **** Fit       0.001077
 **** Fit       0.000721
 **** Fit       0.000289
 **** Fit      -0.000143
 **** Fit      -0.000506
 **** Fit      -0.000767
 **** Fit       0.001060
 **** Fit       0.001120
 **** Fit       0.001174
 **** Fit       0.001182
 **** Fit       0.001096
 **** Fit       0.000880
 **** Fit       0.000538
 **** Fit       0.000123
 **** Fit      -0.000290
 **** Fit      -0.000636
 **** Fit      -0.000880
 **** Fit       0.000791
 **** Fit       0.000829
 **** Fit       0.000860
 **** Fit       0.000850
 **** Fit       0.000757
 **** Fit       0.000553
 **** Fit       0.000244
 **** Fit      -0.000126
 **** Fit      -0.000490
 **** Fit      -0.000791
 **** Fit      -0.001000
 **** Fit       0.000499
 **** Fit       0.000495
 **** Fit       0.000456
 **** Fit       0.000351
 **** Fit       0.000160
 **** Fit      -0.000107
 **** Fit      -0.000414
 **** Fit      -0.000710
 **** Fit      -0.000950
 **** Fit      -0.001111
 **** Fit       0.000176
 **** Fit       0.000136
 **** Fit       0.000067
 **** Fit      -0.000049
 **** Fit      -0.000222
 **** Fit      -0.000443
 **** Fit      -0.000684
 **** Fit      -0.000908
 **** Fit      -0.001084
 **** Fit      -0.000172
 **** Fit      -0.000261
 **** Fit      -0.000381
 **** Fit      -0.000534
 **** Fit      -0.000711
 **** Fit      -0.000893
 **** Fit      -0.001054
 **** Fit      -0.000617
 **** Fit      -0.000749
 **** Fit      -0.000889
 **** Fit       0.001070
 **** Fit       0.000938
 **** Fit       0.000745
 **** Fit       0.000501
 **** Fit       0.000230
 **** Fit       0.001114
 **** Fit       0.001054
 **** Fit       0.000933
 **** Fit       0.000744
 **** Fit       0.000493
 **** Fit       0.000208
 **** Fit      -0.000076
 **** Fit       0.001015
 **** Fit       0.000966
 **** Fit       0.000856
 **** Fit       0.000672
 **** Fit       0.000423
 **** Fit       0.000135
 **** Fit      -0.000152
 **** Fit       0.000848
 **** Fit       0.000802
 **** Fit       0.000697
 **** Fit       0.000522
 **** Fit       0.000283
 **** Fit       0.000007
 **** Fit      -0.000268
 **** Fit       0.000624
 **** Fit       0.000572
 **** Fit       0.000468
 **** Fit       0.000303
 **** Fit       0.000083
 **** Fit      -0.000167
 **** Fit      -0.000414
 **** Fit       0.000305
 **** Fit       0.000201
 **** Fit       0.000048
 **** Fit      -0.000147
 **** Fit      -0.000362
 **** Fit      -0.000571
 **** Fit      -0.000067
 **** Fit      -0.000206
 **** Fit      -0.000372
 -----------------------------------------------------------------
 Leave Link  602 at Wed May 17 12:37:00 2017, MaxMem=    33554432 cpu:        37.9
 (Enter /home/michal/g09/l9999.exe)

 Test job not archived.
 1\1\GINC-LINUX\SP\RHF\6-31G(d)\C27H46O2\MICHAL\17-May-2017\0\\#P HF/6-
 31G* SCF(Conver=6) NoSymm Test Pop=chelpg IOp(6/33=2) GFInput GFPrint\
 \MEP - Input generated by R.E.D.-III.x MOLECULE\\0,1\O,0,6.10714998,3.
 74588782,0.\H,0,5.69579403,3.99812689,-0.83873527\O,0,0.,0.,0.\H,0,-0.
 26579804,0.08170315,-0.92673536\C,0,8.7747993,0.17576331,-1.00106111\C
 ,0,7.94973968,1.21883328,-0.18862873\H,0,7.90318892,0.8115293,0.835906
 15\C,0,6.48177112,1.37855317,-0.62289824\H,0,6.43838849,1.77899851,-1.
 64620173\C,0,5.77058852,-0.00416676,-0.5790277\H,0,5.73831827,-0.28687
 038,0.48619443\C,0,10.14760399,0.31108567,-0.25463299\H,0,9.95370509,-
 0.10878519,0.74233795\C,0,8.05995326,-1.1799893,-0.85437742\H,0,8.1012
 8573,-1.49412823,0.19798378\H,0,8.56357706,-1.96166505,-1.43530859\C,0
 ,4.27311544,0.05584748,-1.04282456\C,0,8.86738636,2.45464604,-0.125204
 65\H,0,8.63252647,3.10248476,0.72241211\H,0,8.74482383,3.07162887,-1.0
 2168633\C,0,6.58835398,-1.09970961,-1.30268829\H,0,6.55874926,-0.93219
 095,-2.38460554\H,0,6.12051408,-2.07617265,-1.13545498\C,0,10.29808862
 ,1.85135521,-0.04777099\H,0,10.9467174,2.29291956,-0.81140941\H,0,10.7
 7727122,2.05823291,0.91569308\C,0,5.73884845,2.38106034,0.28154092\H,0
 ,6.07198106,2.23872876,1.31944638\C,0,11.46715806,-0.36958559,-0.71984
 658\H,0,12.21320985,0.,0.\C,0,8.87637744,0.56480165,-2.49452339\H,0,7.
 89713591,0.78227726,-2.92904613\H,0,9.49955431,1.44887236,-2.64977197\
 H,0,9.31082397,-0.25166901,-3.07856558\C,0,3.57152828,1.2504797,-0.387
 09318\C,0,3.55270748,-1.24759242,-0.57498173\H,0,3.81339107,-1.4249516
 6,0.47757487\H,0,3.94137759,-2.10186679,-1.13920703\C,0,4.24373645,2.2
 4043998,0.21838625\H,0,3.69270695,3.04929395,0.69816338\C,0,4.15363486
 ,0.18935279,-2.58466446\H,0,4.48390486,-0.72303983,-3.09062301\H,0,3.1
 2131263,0.37308503,-2.89350521\H,0,4.75487227,1.0238913,-2.95825742\C,
 0,2.05530596,1.27451403,-0.43378574\H,0,1.67145933,2.11557187,0.151859
 37\H,0,1.71732271,1.43099377,-1.47104424\C,0,2.02098566,-1.22169243,-0
 .69414369\H,0,1.71799209,-1.15851938,-1.749889\H,0,1.59968706,-2.15464
 535,-0.30279871\C,0,11.4724171,-1.91444811,-0.61073826\H,0,10.74073098
 ,-2.32521455,-1.31816539\H,0,12.45236181,-2.26528198,-0.9658122\C,0,1.
 42811243,-0.03548599,0.06567012\H,0,1.64458185,-0.14867043,1.13496146\
 C,0,12.00474618,0.02938523,-2.10923258\H,0,11.46137449,-0.46558561,-2.
 91956449\H,0,13.05545686,-0.27016378,-2.19564446\H,0,11.95942282,1.107
 8966,-2.28595721\C,0,11.22462533,-2.53727295,0.77678948\H,0,10.2326255
 ,-2.25448475,1.15193444\H,0,11.19330634,-3.6259705,0.64517994\C,0,12.2
 8202539,-2.18174741,1.83332682\H,0,12.3094303,-1.09227024,1.9656489\H,
 0,13.27820002,-2.46728695,1.46065106\C,0,12.06664314,-2.8250011,3.2195
 802\H,0,11.04433533,-2.5772502,3.54531275\C,0,13.04186718,-2.22865497,
 4.24716314\H,0,14.08171995,-2.44138257,3.96747397\H,0,12.874869,-2.648
 76103,5.24555955\H,0,12.93246865,-1.14042079,4.31808622\C,0,12.1930461
 2,-4.35698895,3.18892995\H,0,13.19257432,-4.65671274,2.84768854\H,0,12
 .04337474,-4.78137684,4.18825265\H,0,11.45935619,-4.82080692,2.5222140
 6\\Version=EM64L-G09RevD.01\HF=-1198.9208813\RMSD=5.130e-07\Dipole=0.0
 405268,-0.5047315,-0.9293732\Quadrupole=-4.7778663,-1.1588078,5.936674
 1,-8.334144,-2.9367154,-2.824084\PG=C01 [X(C27H46O2)]\\@


 ONE OF THE BENEFITS OF A COLLEGE EDUCATION
 IS TO SHOW THE BOY ITS LITTLE AVAIL 
                                    EMERSON IN 'CULTURE'
 Job cpu time:       0 days  0 hours 11 minutes 55.5 seconds.
 File lengths (MBytes):  RWF=    150 Int=      0 D2E=      0 Chk=     11 Scr=      1
 Normal termination of Gaussian 09 at Wed May 17 12:37:00 2017.
