 Entering Gaussian System, Link 0=/home/michal/g09/g09
 Input=JOB2-gau_m1-19-2.com
 Output=JOB2-gau_m1-19-2.log
 Initial command:
 /home/michal/g09/l1.exe "/home/michal/gauss_scratch/Gau-23928.inp" -scrdir="/home/michal/gauss_scratch/"
 Entering Link 1 = /home/michal/g09/l1.exe PID=     23929.
  
 Copyright (c) 1988,1990,1992,1993,1995,1998,2003,2009,2013,
            Gaussian, Inc.  All Rights Reserved.
  
 This is part of the Gaussian(R) 09 program.  It is based on
 the Gaussian(R) 03 system (copyright 2003, Gaussian, Inc.),
 the Gaussian(R) 98 system (copyright 1998, Gaussian, Inc.),
 the Gaussian(R) 94 system (copyright 1995, Gaussian, Inc.),
 the Gaussian 92(TM) system (copyright 1992, Gaussian, Inc.),
 the Gaussian 90(TM) system (copyright 1990, Gaussian, Inc.),
 the Gaussian 88(TM) system (copyright 1988, Gaussian, Inc.),
 the Gaussian 86(TM) system (copyright 1986, Carnegie Mellon
 University), and the Gaussian 82(TM) system (copyright 1983,
 Carnegie Mellon University). Gaussian is a federally registered
 trademark of Gaussian, Inc.
  
 This software contains proprietary and confidential information,
 including trade secrets, belonging to Gaussian, Inc.
  
 This software is provided under written license and may be
 used, copied, transmitted, or stored only in accord with that
 written license.
  
 The following legend is applicable only to US Government
 contracts under FAR:
  
                    RESTRICTED RIGHTS LEGEND
  
 Use, reproduction and disclosure by the US Government is
 subject to restrictions as set forth in subparagraphs (a)
 and (c) of the Commercial Computer Software - Restricted
 Rights clause in FAR 52.227-19.
  
 Gaussian, Inc.
 340 Quinnipiac St., Bldg. 40, Wallingford CT 06492
  
  
 ---------------------------------------------------------------
 Warning -- This program may not be used in any manner that
 competes with the business of Gaussian, Inc. or will provide
 assistance to any competitor of Gaussian, Inc.  The licensee
 of this program is prohibited from giving any competitor of
 Gaussian, Inc. access to this program.  By using this program,
 the user acknowledges that Gaussian, Inc. is engaged in the
 business of creating and licensing software in the field of
 computational chemistry and represents and warrants to the
 licensee that it is not a competitor of Gaussian, Inc. and that
 it will not use this program in any manner prohibited above.
 ---------------------------------------------------------------
  

 Cite this work as:
 Gaussian 09, Revision D.01,
 M. J. Frisch, G. W. Trucks, H. B. Schlegel, G. E. Scuseria, 
 M. A. Robb, J. R. Cheeseman, G. Scalmani, V. Barone, B. Mennucci, 
 G. A. Petersson, H. Nakatsuji, M. Caricato, X. Li, H. P. Hratchian, 
 A. F. Izmaylov, J. Bloino, G. Zheng, J. L. Sonnenberg, M. Hada, 
 M. Ehara, K. Toyota, R. Fukuda, J. Hasegawa, M. Ishida, T. Nakajima, 
 Y. Honda, O. Kitao, H. Nakai, T. Vreven, J. A. Montgomery, Jr., 
 J. E. Peralta, F. Ogliaro, M. Bearpark, J. J. Heyd, E. Brothers, 
 K. N. Kudin, V. N. Staroverov, T. Keith, R. Kobayashi, J. Normand, 
 K. Raghavachari, A. Rendell, J. C. Burant, S. S. Iyengar, J. Tomasi, 
 M. Cossi, N. Rega, J. M. Millam, M. Klene, J. E. Knox, J. B. Cross, 
 V. Bakken, C. Adamo, J. Jaramillo, R. Gomperts, R. E. Stratmann, 
 O. Yazyev, A. J. Austin, R. Cammi, C. Pomelli, J. W. Ochterski, 
 R. L. Martin, K. Morokuma, V. G. Zakrzewski, G. A. Voth, 
 P. Salvador, J. J. Dannenberg, S. Dapprich, A. D. Daniels, 
 O. Farkas, J. B. Foresman, J. V. Ortiz, J. Cioslowski, 
 and D. J. Fox, Gaussian, Inc., Wallingford CT, 2013.
 
 ******************************************
 Gaussian 09:  EM64L-G09RevD.01 24-Apr-2013
                20-Mar-2017 
 ******************************************
 %Mem=256MB
 %NProc=12
 Will use up to   12 processors via shared memory.
 ----------------------------------------------------------------------
 #P HF/6-31G* SCF(Conver=6) NoSymm Test Pop=chelpg IOp(6/33=2) GFInput 
 GFPrint
 ----------------------------------------------------------------------
 1/38=1/1;
 2/12=2,15=1,17=6,18=5,40=1/2;
 3/5=1,6=6,7=1,11=9,16=1,24=110,25=1,30=1/1,2,3;
 4//1;
 5/5=2,6=6,38=5/2;
 6/7=2,8=2,9=2,10=2,15=8,20=3,28=1,33=2/1,2;
 99/5=1,9=1/99;
 Leave Link    1 at Mon Mar 20 12:48:50 2017, MaxMem=    33554432 cpu:         0.6
 (Enter /home/michal/g09/l101.exe)
 ----------------------------------------------
 MEP - Input generated by R.E.D.-III.x MOLECULE
 ----------------------------------------------
 Symbolic Z-matrix:
 Charge =  0 Multiplicity = 1
 O                     0.42476  -3.38141   7.25471 
 H                     0.26317  -4.32294   7.10854 
 C                     1.50632   1.50149   0. 
 C                     1.10379   0.        0. 
 H                     0.        0.        0. 
 C                     1.516    -0.79197   1.24759 
 H                     2.61283  -0.8093    1.31899 
 C                     0.93368  -0.11541   2.5163 
 H                    -0.15904  -0.24356   2.4422 
 C                     0.95279   1.92726  -1.40445 
 H                    -0.14113   1.95876  -1.29361 
 C                     0.8244    2.13509   1.22992 
 H                    -0.26539   2.09117   1.08915 
 H                     1.08165   3.19405   1.33556 
 C                     1.35736  -0.84416   3.83995 
 C                     1.53577  -0.51305  -1.38262 
 H                     0.96278  -1.39     -1.70005 
 H                     2.59119  -0.81264  -1.37288 
 C                     1.20389   1.40715   2.5365 
 H                     2.26292   1.59386   2.74377 
 H                     0.65083   1.86863   3.36241 
 C                     1.31078   0.70805  -2.31736 
 H                     2.21467   0.92144  -2.90002 
 H                     0.51546   0.51676  -3.04483 
 C                     1.02767  -2.24706   1.1615 
 H                     1.6338   -2.8061    0.43623 
 H                     0.00112  -2.26673   0.75897 
 C                     1.39473   3.2778   -2.02086 
 H                     2.48824   3.24251  -2.133 
 C                     3.03715   1.70684   0.05959 
 H                     3.2813    2.77344   0.10897 
 H                     3.48653   1.23312   0.93576 
 H                     3.54095   1.29819  -0.82171 
 C                     1.21277  -2.36397   3.67704 
 C                     0.40375  -0.38582   4.98717 
 H                    -0.6296   -0.44537   4.61787 
 H                     0.59099   0.66864   5.21735 
 C                     1.05145  -2.95743   2.48515 
 H                     0.9297   -4.04083   2.4551 
 C                     2.82565  -0.52162   4.22688 
 H                     2.93911   0.52361   4.53135 
 H                     3.16476  -1.13784   5.06325 
 H                     3.50546  -0.71121   3.39043 
 C                     1.25877  -3.19083   4.94855 
 H                     1.05366  -4.24217   4.7088 
 H                     2.26101  -3.159     5.39892 
 C                     0.50712  -1.20522   6.28176 
 H                     1.49413  -1.08977   6.74678 
 H                    -0.22734  -0.84631   7.01171 
 C                     0.83956   3.48281  -3.45708 
 H                     1.2933    4.40176  -3.85092 
 H                     1.19822   2.67293  -4.10527 
 C                     0.27234  -2.68558   6.01132 
 H                    -0.75624  -2.82222   5.63832 
 C                     1.06548   4.49861  -1.14138 
 H                     0.01093   4.51604  -0.84416 
 H                     1.27287   5.42849  -1.68422 
 H                     1.66411   4.51741  -0.22731 
 C                    -0.68966   3.57651  -3.59169 
 H                    -1.14997   2.67766  -3.16212 
 H                    -1.06897   4.41777  -2.99894 
 C                    -1.18419   3.70111  -5.04562 
 H                    -2.28307   3.6464   -5.04781 
 H                    -0.83681   2.82235  -5.60824 
 C                    -0.76735   4.96987  -5.81998 
 H                     0.33072   5.02003  -5.83645 
 C                    -1.28867   6.25689  -5.16125 
 H                    -0.90006   6.38871  -4.14631 
 H                    -0.99771   7.13937  -5.74239 
 H                    -2.38481   6.24625  -5.10002 
 C                    -1.24451   4.88014  -7.27853 
 H                    -0.84891   3.9861   -7.77415 
 H                    -0.92378   5.75409  -7.85699 
 H                    -2.33996   4.83177  -7.3294 
 
 NAtoms=     74 NQM=       74 NQMF=       0 NMMI=      0 NMMIF=      0
                NMic=       0 NMicF=      0.
                    Isotopes and Nuclear Properties:
 (Nuclear quadrupole moments (NQMom) in fm**2, nuclear magnetic moments (NMagM)
  in nuclear magnetons)

  Atom         1           2           3           4           5           6           7           8           9          10
 IAtWgt=          16           1          12          12           1          12           1          12           1          12
 AtmWgt=  15.9949146   1.0078250  12.0000000  12.0000000   1.0078250  12.0000000   1.0078250  12.0000000   1.0078250  12.0000000
 NucSpn=           0           1           0           0           1           0           1           0           1           0
 AtZEff=   0.0000000   0.0000000   0.0000000   0.0000000   0.0000000   0.0000000   0.0000000   0.0000000   0.0000000   0.0000000
 NQMom=    0.0000000   0.0000000   0.0000000   0.0000000   0.0000000   0.0000000   0.0000000   0.0000000   0.0000000   0.0000000
 NMagM=    0.0000000   2.7928460   0.0000000   0.0000000   2.7928460   0.0000000   2.7928460   0.0000000   2.7928460   0.0000000
 AtZNuc=   8.0000000   1.0000000   6.0000000   6.0000000   1.0000000   6.0000000   1.0000000   6.0000000   1.0000000   6.0000000

  Atom        11          12          13          14          15          16          17          18          19          20
 IAtWgt=           1          12           1           1          12          12           1           1          12           1
 AtmWgt=   1.0078250  12.0000000   1.0078250   1.0078250  12.0000000  12.0000000   1.0078250   1.0078250  12.0000000   1.0078250
 NucSpn=           1           0           1           1           0           0           1           1           0           1
 AtZEff=   0.0000000   0.0000000   0.0000000   0.0000000   0.0000000   0.0000000   0.0000000   0.0000000   0.0000000   0.0000000
 NQMom=    0.0000000   0.0000000   0.0000000   0.0000000   0.0000000   0.0000000   0.0000000   0.0000000   0.0000000   0.0000000
 NMagM=    2.7928460   0.0000000   2.7928460   2.7928460   0.0000000   0.0000000   2.7928460   2.7928460   0.0000000   2.7928460
 AtZNuc=   1.0000000   6.0000000   1.0000000   1.0000000   6.0000000   6.0000000   1.0000000   1.0000000   6.0000000   1.0000000

  Atom        21          22          23          24          25          26          27          28          29          30
 IAtWgt=           1          12           1           1          12           1           1          12           1          12
 AtmWgt=   1.0078250  12.0000000   1.0078250   1.0078250  12.0000000   1.0078250   1.0078250  12.0000000   1.0078250  12.0000000
 NucSpn=           1           0           1           1           0           1           1           0           1           0
 AtZEff=   0.0000000   0.0000000   0.0000000   0.0000000   0.0000000   0.0000000   0.0000000   0.0000000   0.0000000   0.0000000
 NQMom=    0.0000000   0.0000000   0.0000000   0.0000000   0.0000000   0.0000000   0.0000000   0.0000000   0.0000000   0.0000000
 NMagM=    2.7928460   0.0000000   2.7928460   2.7928460   0.0000000   2.7928460   2.7928460   0.0000000   2.7928460   0.0000000
 AtZNuc=   1.0000000   6.0000000   1.0000000   1.0000000   6.0000000   1.0000000   1.0000000   6.0000000   1.0000000   6.0000000

  Atom        31          32          33          34          35          36          37          38          39          40
 IAtWgt=           1           1           1          12          12           1           1          12           1          12
 AtmWgt=   1.0078250   1.0078250   1.0078250  12.0000000  12.0000000   1.0078250   1.0078250  12.0000000   1.0078250  12.0000000
 NucSpn=           1           1           1           0           0           1           1           0           1           0
 AtZEff=   0.0000000   0.0000000   0.0000000   0.0000000   0.0000000   0.0000000   0.0000000   0.0000000   0.0000000   0.0000000
 NQMom=    0.0000000   0.0000000   0.0000000   0.0000000   0.0000000   0.0000000   0.0000000   0.0000000   0.0000000   0.0000000
 NMagM=    2.7928460   2.7928460   2.7928460   0.0000000   0.0000000   2.7928460   2.7928460   0.0000000   2.7928460   0.0000000
 AtZNuc=   1.0000000   1.0000000   1.0000000   6.0000000   6.0000000   1.0000000   1.0000000   6.0000000   1.0000000   6.0000000

  Atom        41          42          43          44          45          46          47          48          49          50
 IAtWgt=           1           1           1          12           1           1          12           1           1          12
 AtmWgt=   1.0078250   1.0078250   1.0078250  12.0000000   1.0078250   1.0078250  12.0000000   1.0078250   1.0078250  12.0000000
 NucSpn=           1           1           1           0           1           1           0           1           1           0
 AtZEff=   0.0000000   0.0000000   0.0000000   0.0000000   0.0000000   0.0000000   0.0000000   0.0000000   0.0000000   0.0000000
 NQMom=    0.0000000   0.0000000   0.0000000   0.0000000   0.0000000   0.0000000   0.0000000   0.0000000   0.0000000   0.0000000
 NMagM=    2.7928460   2.7928460   2.7928460   0.0000000   2.7928460   2.7928460   0.0000000   2.7928460   2.7928460   0.0000000
 AtZNuc=   1.0000000   1.0000000   1.0000000   6.0000000   1.0000000   1.0000000   6.0000000   1.0000000   1.0000000   6.0000000

  Atom        51          52          53          54          55          56          57          58          59          60
 IAtWgt=           1           1          12           1          12           1           1           1          12           1
 AtmWgt=   1.0078250   1.0078250  12.0000000   1.0078250  12.0000000   1.0078250   1.0078250   1.0078250  12.0000000   1.0078250
 NucSpn=           1           1           0           1           0           1           1           1           0           1
 AtZEff=   0.0000000   0.0000000   0.0000000   0.0000000   0.0000000   0.0000000   0.0000000   0.0000000   0.0000000   0.0000000
 NQMom=    0.0000000   0.0000000   0.0000000   0.0000000   0.0000000   0.0000000   0.0000000   0.0000000   0.0000000   0.0000000
 NMagM=    2.7928460   2.7928460   0.0000000   2.7928460   0.0000000   2.7928460   2.7928460   2.7928460   0.0000000   2.7928460
 AtZNuc=   1.0000000   1.0000000   6.0000000   1.0000000   6.0000000   1.0000000   1.0000000   1.0000000   6.0000000   1.0000000

  Atom        61          62          63          64          65          66          67          68          69          70
 IAtWgt=           1          12           1           1          12           1          12           1           1           1
 AtmWgt=   1.0078250  12.0000000   1.0078250   1.0078250  12.0000000   1.0078250  12.0000000   1.0078250   1.0078250   1.0078250
 NucSpn=           1           0           1           1           0           1           0           1           1           1
 AtZEff=   0.0000000   0.0000000   0.0000000   0.0000000   0.0000000   0.0000000   0.0000000   0.0000000   0.0000000   0.0000000
 NQMom=    0.0000000   0.0000000   0.0000000   0.0000000   0.0000000   0.0000000   0.0000000   0.0000000   0.0000000   0.0000000
 NMagM=    2.7928460   0.0000000   2.7928460   2.7928460   0.0000000   2.7928460   0.0000000   2.7928460   2.7928460   2.7928460
 AtZNuc=   1.0000000   6.0000000   1.0000000   1.0000000   6.0000000   1.0000000   6.0000000   1.0000000   1.0000000   1.0000000

  Atom        71          72          73          74
 IAtWgt=          12           1           1           1
 AtmWgt=  12.0000000   1.0078250   1.0078250   1.0078250
 NucSpn=           0           1           1           1
 AtZEff=   0.0000000   0.0000000   0.0000000   0.0000000
 NQMom=    0.0000000   0.0000000   0.0000000   0.0000000
 NMagM=    0.0000000   2.7928460   2.7928460   2.7928460
 AtZNuc=   6.0000000   1.0000000   1.0000000   1.0000000
 Leave Link  101 at Mon Mar 20 12:48:50 2017, MaxMem=    33554432 cpu:         1.0
 (Enter /home/michal/g09/l202.exe)
 Symmetry turned off by external request.
 Stoichiometry    C27H46O
 Framework group  C1[X(C27H46O)]
 Deg. of freedom   216
 Full point group                 C1      NOp   1
                          Input orientation:                          
 ---------------------------------------------------------------------
 Center     Atomic      Atomic             Coordinates (Angstroms)
 Number     Number       Type             X           Y           Z
 ---------------------------------------------------------------------
      1          8           0        0.424758   -3.381412    7.254710
      2          1           0        0.263167   -4.322937    7.108539
      3          6           0        1.506322    1.501495    0.000000
      4          6           0        1.103793    0.000000    0.000000
      5          1           0        0.000000    0.000000    0.000000
      6          6           0        1.516003   -0.791965    1.247591
      7          1           0        2.612828   -0.809302    1.318993
      8          6           0        0.933676   -0.115411    2.516299
      9          1           0       -0.159037   -0.243557    2.442195
     10          6           0        0.952786    1.927264   -1.404452
     11          1           0       -0.141125    1.958758   -1.293609
     12          6           0        0.824396    2.135094    1.229918
     13          1           0       -0.265388    2.091172    1.089150
     14          1           0        1.081647    3.194055    1.335557
     15          6           0        1.357365   -0.844163    3.839952
     16          6           0        1.535773   -0.513052   -1.382615
     17          1           0        0.962783   -1.390002   -1.700055
     18          1           0        2.591187   -0.812641   -1.372878
     19          6           0        1.203892    1.407153    2.536498
     20          1           0        2.262915    1.593859    2.743769
     21          1           0        0.650830    1.868625    3.362406
     22          6           0        1.310776    0.708048   -2.317360
     23          1           0        2.214668    0.921437   -2.900016
     24          1           0        0.515461    0.516761   -3.044835
     25          6           0        1.027667   -2.247057    1.161505
     26          1           0        1.633798   -2.806098    0.436232
     27          1           0        0.001122   -2.266727    0.758974
     28          6           0        1.394732    3.277804   -2.020862
     29          1           0        2.488242    3.242508   -2.133000
     30          6           0        3.037153    1.706842    0.059590
     31          1           0        3.281298    2.773438    0.108972
     32          1           0        3.486527    1.233115    0.935760
     33          1           0        3.540949    1.298192   -0.821711
     34          6           0        1.212774   -2.363973    3.677035
     35          6           0        0.403745   -0.385818    4.987172
     36          1           0       -0.629601   -0.445365    4.617871
     37          1           0        0.590995    0.668640    5.217346
     38          6           0        1.051455   -2.957433    2.485152
     39          1           0        0.929702   -4.040829    2.455102
     40          6           0        2.825648   -0.521619    4.226881
     41          1           0        2.939109    0.523613    4.531346
     42          1           0        3.164761   -1.137843    5.063250
     43          1           0        3.505462   -0.711207    3.390427
     44          6           0        1.258771   -3.190833    4.948548
     45          1           0        1.053657   -4.242174    4.708801
     46          1           0        2.261009   -3.159004    5.398923
     47          6           0        0.507122   -1.205221    6.281763
     48          1           0        1.494128   -1.089767    6.746782
     49          1           0       -0.227337   -0.846307    7.011711
     50          6           0        0.839561    3.482810   -3.457076
     51          1           0        1.293301    4.401764   -3.850922
     52          1           0        1.198223    2.672933   -4.105268
     53          6           0        0.272339   -2.685579    6.011321
     54          1           0       -0.756235   -2.822225    5.638320
     55          6           0        1.065484    4.498605   -1.141379
     56          1           0        0.010934    4.516042   -0.844158
     57          1           0        1.272869    5.428490   -1.684219
     58          1           0        1.664115    4.517413   -0.227306
     59          6           0       -0.689661    3.576505   -3.591687
     60          1           0       -1.149969    2.677662   -3.162118
     61          1           0       -1.068968    4.417770   -2.998936
     62          6           0       -1.184194    3.701108   -5.045622
     63          1           0       -2.283066    3.646398   -5.047807
     64          1           0       -0.836811    2.822349   -5.608242
     65          6           0       -0.767353    4.969873   -5.819983
     66          1           0        0.330718    5.020028   -5.836449
     67          6           0       -1.288672    6.256887   -5.161253
     68          1           0       -0.900055    6.388711   -4.146312
     69          1           0       -0.997715    7.139374   -5.742390
     70          1           0       -2.384811    6.246254   -5.100022
     71          6           0       -1.244506    4.880143   -7.278529
     72          1           0       -0.848912    3.986099   -7.774152
     73          1           0       -0.923781    5.754086   -7.856990
     74          1           0       -2.339957    4.831770   -7.329395
 ---------------------------------------------------------------------
 Rotational constants (GHZ):      0.5161146      0.0568150      0.0553859
 Leave Link  202 at Mon Mar 20 12:48:50 2017, MaxMem=    33554432 cpu:         0.0
 (Enter /home/michal/g09/l301.exe)
 Standard basis: 6-31G(d) (6D, 7F)
 Ernie: Thresh=  0.10000D-02 Tol=  0.10000D-05 Strict=F.
 AO basis set in the form of general basis input (Overlap normalization):
      1 0
 S   6 1.00       0.000000000000
      0.5484671660D+04  0.1831074430D-02
      0.8252349460D+03  0.1395017220D-01
      0.1880469580D+03  0.6844507810D-01
      0.5296450000D+02  0.2327143360D+00
      0.1689757040D+02  0.4701928980D+00
      0.5799635340D+01  0.3585208530D+00
 SP   3 1.00       0.000000000000
      0.1553961625D+02 -0.1107775495D+00  0.7087426823D-01
      0.3599933586D+01 -0.1480262627D+00  0.3397528391D+00
      0.1013761750D+01  0.1130767015D+01  0.7271585773D+00
 SP   1 1.00       0.000000000000
      0.2700058226D+00  0.1000000000D+01  0.1000000000D+01
 D   1 1.00       0.000000000000
      0.8000000000D+00  0.1000000000D+01
 ****
      2 0
 S   3 1.00       0.000000000000
      0.1873113696D+02  0.3349460434D-01
      0.2825394365D+01  0.2347269535D+00
      0.6401216923D+00  0.8137573261D+00
 S   1 1.00       0.000000000000
      0.1612777588D+00  0.1000000000D+01
 ****
      3 0
 S   6 1.00       0.000000000000
      0.3047524880D+04  0.1834737132D-02
      0.4573695180D+03  0.1403732281D-01
      0.1039486850D+03  0.6884262226D-01
      0.2921015530D+02  0.2321844432D+00
      0.9286662960D+01  0.4679413484D+00
      0.3163926960D+01  0.3623119853D+00
 SP   3 1.00       0.000000000000
      0.7868272350D+01 -0.1193324198D+00  0.6899906659D-01
      0.1881288540D+01 -0.1608541517D+00  0.3164239610D+00
      0.5442492580D+00  0.1143456438D+01  0.7443082909D+00
 SP   1 1.00       0.000000000000
      0.1687144782D+00  0.1000000000D+01  0.1000000000D+01
 D   1 1.00       0.000000000000
      0.8000000000D+00  0.1000000000D+01
 ****
      4 0
 S   6 1.00       0.000000000000
      0.3047524880D+04  0.1834737132D-02
      0.4573695180D+03  0.1403732281D-01
      0.1039486850D+03  0.6884262226D-01
      0.2921015530D+02  0.2321844432D+00
      0.9286662960D+01  0.4679413484D+00
      0.3163926960D+01  0.3623119853D+00
 SP   3 1.00       0.000000000000
      0.7868272350D+01 -0.1193324198D+00  0.6899906659D-01
      0.1881288540D+01 -0.1608541517D+00  0.3164239610D+00
      0.5442492580D+00  0.1143456438D+01  0.7443082909D+00
 SP   1 1.00       0.000000000000
      0.1687144782D+00  0.1000000000D+01  0.1000000000D+01
 D   1 1.00       0.000000000000
      0.8000000000D+00  0.1000000000D+01
 ****
      5 0
 S   3 1.00       0.000000000000
      0.1873113696D+02  0.3349460434D-01
      0.2825394365D+01  0.2347269535D+00
      0.6401216923D+00  0.8137573261D+00
 S   1 1.00       0.000000000000
      0.1612777588D+00  0.1000000000D+01
 ****
      6 0
 S   6 1.00       0.000000000000
      0.3047524880D+04  0.1834737132D-02
      0.4573695180D+03  0.1403732281D-01
      0.1039486850D+03  0.6884262226D-01
      0.2921015530D+02  0.2321844432D+00
      0.9286662960D+01  0.4679413484D+00
      0.3163926960D+01  0.3623119853D+00
 SP   3 1.00       0.000000000000
      0.7868272350D+01 -0.1193324198D+00  0.6899906659D-01
      0.1881288540D+01 -0.1608541517D+00  0.3164239610D+00
      0.5442492580D+00  0.1143456438D+01  0.7443082909D+00
 SP   1 1.00       0.000000000000
      0.1687144782D+00  0.1000000000D+01  0.1000000000D+01
 D   1 1.00       0.000000000000
      0.8000000000D+00  0.1000000000D+01
 ****
      7 0
 S   3 1.00       0.000000000000
      0.1873113696D+02  0.3349460434D-01
      0.2825394365D+01  0.2347269535D+00
      0.6401216923D+00  0.8137573261D+00
 S   1 1.00       0.000000000000
      0.1612777588D+00  0.1000000000D+01
 ****
      8 0
 S   6 1.00       0.000000000000
      0.3047524880D+04  0.1834737132D-02
      0.4573695180D+03  0.1403732281D-01
      0.1039486850D+03  0.6884262226D-01
      0.2921015530D+02  0.2321844432D+00
      0.9286662960D+01  0.4679413484D+00
      0.3163926960D+01  0.3623119853D+00
 SP   3 1.00       0.000000000000
      0.7868272350D+01 -0.1193324198D+00  0.6899906659D-01
      0.1881288540D+01 -0.1608541517D+00  0.3164239610D+00
      0.5442492580D+00  0.1143456438D+01  0.7443082909D+00
 SP   1 1.00       0.000000000000
      0.1687144782D+00  0.1000000000D+01  0.1000000000D+01
 D   1 1.00       0.000000000000
      0.8000000000D+00  0.1000000000D+01
 ****
      9 0
 S   3 1.00       0.000000000000
      0.1873113696D+02  0.3349460434D-01
      0.2825394365D+01  0.2347269535D+00
      0.6401216923D+00  0.8137573261D+00
 S   1 1.00       0.000000000000
      0.1612777588D+00  0.1000000000D+01
 ****
     10 0
 S   6 1.00       0.000000000000
      0.3047524880D+04  0.1834737132D-02
      0.4573695180D+03  0.1403732281D-01
      0.1039486850D+03  0.6884262226D-01
      0.2921015530D+02  0.2321844432D+00
      0.9286662960D+01  0.4679413484D+00
      0.3163926960D+01  0.3623119853D+00
 SP   3 1.00       0.000000000000
      0.7868272350D+01 -0.1193324198D+00  0.6899906659D-01
      0.1881288540D+01 -0.1608541517D+00  0.3164239610D+00
      0.5442492580D+00  0.1143456438D+01  0.7443082909D+00
 SP   1 1.00       0.000000000000
      0.1687144782D+00  0.1000000000D+01  0.1000000000D+01
 D   1 1.00       0.000000000000
      0.8000000000D+00  0.1000000000D+01
 ****
     11 0
 S   3 1.00       0.000000000000
      0.1873113696D+02  0.3349460434D-01
      0.2825394365D+01  0.2347269535D+00
      0.6401216923D+00  0.8137573261D+00
 S   1 1.00       0.000000000000
      0.1612777588D+00  0.1000000000D+01
 ****
     12 0
 S   6 1.00       0.000000000000
      0.3047524880D+04  0.1834737132D-02
      0.4573695180D+03  0.1403732281D-01
      0.1039486850D+03  0.6884262226D-01
      0.2921015530D+02  0.2321844432D+00
      0.9286662960D+01  0.4679413484D+00
      0.3163926960D+01  0.3623119853D+00
 SP   3 1.00       0.000000000000
      0.7868272350D+01 -0.1193324198D+00  0.6899906659D-01
      0.1881288540D+01 -0.1608541517D+00  0.3164239610D+00
      0.5442492580D+00  0.1143456438D+01  0.7443082909D+00
 SP   1 1.00       0.000000000000
      0.1687144782D+00  0.1000000000D+01  0.1000000000D+01
 D   1 1.00       0.000000000000
      0.8000000000D+00  0.1000000000D+01
 ****
     13 0
 S   3 1.00       0.000000000000
      0.1873113696D+02  0.3349460434D-01
      0.2825394365D+01  0.2347269535D+00
      0.6401216923D+00  0.8137573261D+00
 S   1 1.00       0.000000000000
      0.1612777588D+00  0.1000000000D+01
 ****
     14 0
 S   3 1.00       0.000000000000
      0.1873113696D+02  0.3349460434D-01
      0.2825394365D+01  0.2347269535D+00
      0.6401216923D+00  0.8137573261D+00
 S   1 1.00       0.000000000000
      0.1612777588D+00  0.1000000000D+01
 ****
     15 0
 S   6 1.00       0.000000000000
      0.3047524880D+04  0.1834737132D-02
      0.4573695180D+03  0.1403732281D-01
      0.1039486850D+03  0.6884262226D-01
      0.2921015530D+02  0.2321844432D+00
      0.9286662960D+01  0.4679413484D+00
      0.3163926960D+01  0.3623119853D+00
 SP   3 1.00       0.000000000000
      0.7868272350D+01 -0.1193324198D+00  0.6899906659D-01
      0.1881288540D+01 -0.1608541517D+00  0.3164239610D+00
      0.5442492580D+00  0.1143456438D+01  0.7443082909D+00
 SP   1 1.00       0.000000000000
      0.1687144782D+00  0.1000000000D+01  0.1000000000D+01
 D   1 1.00       0.000000000000
      0.8000000000D+00  0.1000000000D+01
 ****
     16 0
 S   6 1.00       0.000000000000
      0.3047524880D+04  0.1834737132D-02
      0.4573695180D+03  0.1403732281D-01
      0.1039486850D+03  0.6884262226D-01
      0.2921015530D+02  0.2321844432D+00
      0.9286662960D+01  0.4679413484D+00
      0.3163926960D+01  0.3623119853D+00
 SP   3 1.00       0.000000000000
      0.7868272350D+01 -0.1193324198D+00  0.6899906659D-01
      0.1881288540D+01 -0.1608541517D+00  0.3164239610D+00
      0.5442492580D+00  0.1143456438D+01  0.7443082909D+00
 SP   1 1.00       0.000000000000
      0.1687144782D+00  0.1000000000D+01  0.1000000000D+01
 D   1 1.00       0.000000000000
      0.8000000000D+00  0.1000000000D+01
 ****
     17 0
 S   3 1.00       0.000000000000
      0.1873113696D+02  0.3349460434D-01
      0.2825394365D+01  0.2347269535D+00
      0.6401216923D+00  0.8137573261D+00
 S   1 1.00       0.000000000000
      0.1612777588D+00  0.1000000000D+01
 ****
     18 0
 S   3 1.00       0.000000000000
      0.1873113696D+02  0.3349460434D-01
      0.2825394365D+01  0.2347269535D+00
      0.6401216923D+00  0.8137573261D+00
 S   1 1.00       0.000000000000
      0.1612777588D+00  0.1000000000D+01
 ****
     19 0
 S   6 1.00       0.000000000000
      0.3047524880D+04  0.1834737132D-02
      0.4573695180D+03  0.1403732281D-01
      0.1039486850D+03  0.6884262226D-01
      0.2921015530D+02  0.2321844432D+00
      0.9286662960D+01  0.4679413484D+00
      0.3163926960D+01  0.3623119853D+00
 SP   3 1.00       0.000000000000
      0.7868272350D+01 -0.1193324198D+00  0.6899906659D-01
      0.1881288540D+01 -0.1608541517D+00  0.3164239610D+00
      0.5442492580D+00  0.1143456438D+01  0.7443082909D+00
 SP   1 1.00       0.000000000000
      0.1687144782D+00  0.1000000000D+01  0.1000000000D+01
 D   1 1.00       0.000000000000
      0.8000000000D+00  0.1000000000D+01
 ****
     20 0
 S   3 1.00       0.000000000000
      0.1873113696D+02  0.3349460434D-01
      0.2825394365D+01  0.2347269535D+00
      0.6401216923D+00  0.8137573261D+00
 S   1 1.00       0.000000000000
      0.1612777588D+00  0.1000000000D+01
 ****
     21 0
 S   3 1.00       0.000000000000
      0.1873113696D+02  0.3349460434D-01
      0.2825394365D+01  0.2347269535D+00
      0.6401216923D+00  0.8137573261D+00
 S   1 1.00       0.000000000000
      0.1612777588D+00  0.1000000000D+01
 ****
     22 0
 S   6 1.00       0.000000000000
      0.3047524880D+04  0.1834737132D-02
      0.4573695180D+03  0.1403732281D-01
      0.1039486850D+03  0.6884262226D-01
      0.2921015530D+02  0.2321844432D+00
      0.9286662960D+01  0.4679413484D+00
      0.3163926960D+01  0.3623119853D+00
 SP   3 1.00       0.000000000000
      0.7868272350D+01 -0.1193324198D+00  0.6899906659D-01
      0.1881288540D+01 -0.1608541517D+00  0.3164239610D+00
      0.5442492580D+00  0.1143456438D+01  0.7443082909D+00
 SP   1 1.00       0.000000000000
      0.1687144782D+00  0.1000000000D+01  0.1000000000D+01
 D   1 1.00       0.000000000000
      0.8000000000D+00  0.1000000000D+01
 ****
     23 0
 S   3 1.00       0.000000000000
      0.1873113696D+02  0.3349460434D-01
      0.2825394365D+01  0.2347269535D+00
      0.6401216923D+00  0.8137573261D+00
 S   1 1.00       0.000000000000
      0.1612777588D+00  0.1000000000D+01
 ****
     24 0
 S   3 1.00       0.000000000000
      0.1873113696D+02  0.3349460434D-01
      0.2825394365D+01  0.2347269535D+00
      0.6401216923D+00  0.8137573261D+00
 S   1 1.00       0.000000000000
      0.1612777588D+00  0.1000000000D+01
 ****
     25 0
 S   6 1.00       0.000000000000
      0.3047524880D+04  0.1834737132D-02
      0.4573695180D+03  0.1403732281D-01
      0.1039486850D+03  0.6884262226D-01
      0.2921015530D+02  0.2321844432D+00
      0.9286662960D+01  0.4679413484D+00
      0.3163926960D+01  0.3623119853D+00
 SP   3 1.00       0.000000000000
      0.7868272350D+01 -0.1193324198D+00  0.6899906659D-01
      0.1881288540D+01 -0.1608541517D+00  0.3164239610D+00
      0.5442492580D+00  0.1143456438D+01  0.7443082909D+00
 SP   1 1.00       0.000000000000
      0.1687144782D+00  0.1000000000D+01  0.1000000000D+01
 D   1 1.00       0.000000000000
      0.8000000000D+00  0.1000000000D+01
 ****
     26 0
 S   3 1.00       0.000000000000
      0.1873113696D+02  0.3349460434D-01
      0.2825394365D+01  0.2347269535D+00
      0.6401216923D+00  0.8137573261D+00
 S   1 1.00       0.000000000000
      0.1612777588D+00  0.1000000000D+01
 ****
     27 0
 S   3 1.00       0.000000000000
      0.1873113696D+02  0.3349460434D-01
      0.2825394365D+01  0.2347269535D+00
      0.6401216923D+00  0.8137573261D+00
 S   1 1.00       0.000000000000
      0.1612777588D+00  0.1000000000D+01
 ****
     28 0
 S   6 1.00       0.000000000000
      0.3047524880D+04  0.1834737132D-02
      0.4573695180D+03  0.1403732281D-01
      0.1039486850D+03  0.6884262226D-01
      0.2921015530D+02  0.2321844432D+00
      0.9286662960D+01  0.4679413484D+00
      0.3163926960D+01  0.3623119853D+00
 SP   3 1.00       0.000000000000
      0.7868272350D+01 -0.1193324198D+00  0.6899906659D-01
      0.1881288540D+01 -0.1608541517D+00  0.3164239610D+00
      0.5442492580D+00  0.1143456438D+01  0.7443082909D+00
 SP   1 1.00       0.000000000000
      0.1687144782D+00  0.1000000000D+01  0.1000000000D+01
 D   1 1.00       0.000000000000
      0.8000000000D+00  0.1000000000D+01
 ****
     29 0
 S   3 1.00       0.000000000000
      0.1873113696D+02  0.3349460434D-01
      0.2825394365D+01  0.2347269535D+00
      0.6401216923D+00  0.8137573261D+00
 S   1 1.00       0.000000000000
      0.1612777588D+00  0.1000000000D+01
 ****
     30 0
 S   6 1.00       0.000000000000
      0.3047524880D+04  0.1834737132D-02
      0.4573695180D+03  0.1403732281D-01
      0.1039486850D+03  0.6884262226D-01
      0.2921015530D+02  0.2321844432D+00
      0.9286662960D+01  0.4679413484D+00
      0.3163926960D+01  0.3623119853D+00
 SP   3 1.00       0.000000000000
      0.7868272350D+01 -0.1193324198D+00  0.6899906659D-01
      0.1881288540D+01 -0.1608541517D+00  0.3164239610D+00
      0.5442492580D+00  0.1143456438D+01  0.7443082909D+00
 SP   1 1.00       0.000000000000
      0.1687144782D+00  0.1000000000D+01  0.1000000000D+01
 D   1 1.00       0.000000000000
      0.8000000000D+00  0.1000000000D+01
 ****
     31 0
 S   3 1.00       0.000000000000
      0.1873113696D+02  0.3349460434D-01
      0.2825394365D+01  0.2347269535D+00
      0.6401216923D+00  0.8137573261D+00
 S   1 1.00       0.000000000000
      0.1612777588D+00  0.1000000000D+01
 ****
     32 0
 S   3 1.00       0.000000000000
      0.1873113696D+02  0.3349460434D-01
      0.2825394365D+01  0.2347269535D+00
      0.6401216923D+00  0.8137573261D+00
 S   1 1.00       0.000000000000
      0.1612777588D+00  0.1000000000D+01
 ****
     33 0
 S   3 1.00       0.000000000000
      0.1873113696D+02  0.3349460434D-01
      0.2825394365D+01  0.2347269535D+00
      0.6401216923D+00  0.8137573261D+00
 S   1 1.00       0.000000000000
      0.1612777588D+00  0.1000000000D+01
 ****
     34 0
 S   6 1.00       0.000000000000
      0.3047524880D+04  0.1834737132D-02
      0.4573695180D+03  0.1403732281D-01
      0.1039486850D+03  0.6884262226D-01
      0.2921015530D+02  0.2321844432D+00
      0.9286662960D+01  0.4679413484D+00
      0.3163926960D+01  0.3623119853D+00
 SP   3 1.00       0.000000000000
      0.7868272350D+01 -0.1193324198D+00  0.6899906659D-01
      0.1881288540D+01 -0.1608541517D+00  0.3164239610D+00
      0.5442492580D+00  0.1143456438D+01  0.7443082909D+00
 SP   1 1.00       0.000000000000
      0.1687144782D+00  0.1000000000D+01  0.1000000000D+01
 D   1 1.00       0.000000000000
      0.8000000000D+00  0.1000000000D+01
 ****
     35 0
 S   6 1.00       0.000000000000
      0.3047524880D+04  0.1834737132D-02
      0.4573695180D+03  0.1403732281D-01
      0.1039486850D+03  0.6884262226D-01
      0.2921015530D+02  0.2321844432D+00
      0.9286662960D+01  0.4679413484D+00
      0.3163926960D+01  0.3623119853D+00
 SP   3 1.00       0.000000000000
      0.7868272350D+01 -0.1193324198D+00  0.6899906659D-01
      0.1881288540D+01 -0.1608541517D+00  0.3164239610D+00
      0.5442492580D+00  0.1143456438D+01  0.7443082909D+00
 SP   1 1.00       0.000000000000
      0.1687144782D+00  0.1000000000D+01  0.1000000000D+01
 D   1 1.00       0.000000000000
      0.8000000000D+00  0.1000000000D+01
 ****
     36 0
 S   3 1.00       0.000000000000
      0.1873113696D+02  0.3349460434D-01
      0.2825394365D+01  0.2347269535D+00
      0.6401216923D+00  0.8137573261D+00
 S   1 1.00       0.000000000000
      0.1612777588D+00  0.1000000000D+01
 ****
     37 0
 S   3 1.00       0.000000000000
      0.1873113696D+02  0.3349460434D-01
      0.2825394365D+01  0.2347269535D+00
      0.6401216923D+00  0.8137573261D+00
 S   1 1.00       0.000000000000
      0.1612777588D+00  0.1000000000D+01
 ****
     38 0
 S   6 1.00       0.000000000000
      0.3047524880D+04  0.1834737132D-02
      0.4573695180D+03  0.1403732281D-01
      0.1039486850D+03  0.6884262226D-01
      0.2921015530D+02  0.2321844432D+00
      0.9286662960D+01  0.4679413484D+00
      0.3163926960D+01  0.3623119853D+00
 SP   3 1.00       0.000000000000
      0.7868272350D+01 -0.1193324198D+00  0.6899906659D-01
      0.1881288540D+01 -0.1608541517D+00  0.3164239610D+00
      0.5442492580D+00  0.1143456438D+01  0.7443082909D+00
 SP   1 1.00       0.000000000000
      0.1687144782D+00  0.1000000000D+01  0.1000000000D+01
 D   1 1.00       0.000000000000
      0.8000000000D+00  0.1000000000D+01
 ****
     39 0
 S   3 1.00       0.000000000000
      0.1873113696D+02  0.3349460434D-01
      0.2825394365D+01  0.2347269535D+00
      0.6401216923D+00  0.8137573261D+00
 S   1 1.00       0.000000000000
      0.1612777588D+00  0.1000000000D+01
 ****
     40 0
 S   6 1.00       0.000000000000
      0.3047524880D+04  0.1834737132D-02
      0.4573695180D+03  0.1403732281D-01
      0.1039486850D+03  0.6884262226D-01
      0.2921015530D+02  0.2321844432D+00
      0.9286662960D+01  0.4679413484D+00
      0.3163926960D+01  0.3623119853D+00
 SP   3 1.00       0.000000000000
      0.7868272350D+01 -0.1193324198D+00  0.6899906659D-01
      0.1881288540D+01 -0.1608541517D+00  0.3164239610D+00
      0.5442492580D+00  0.1143456438D+01  0.7443082909D+00
 SP   1 1.00       0.000000000000
      0.1687144782D+00  0.1000000000D+01  0.1000000000D+01
 D   1 1.00       0.000000000000
      0.8000000000D+00  0.1000000000D+01
 ****
     41 0
 S   3 1.00       0.000000000000
      0.1873113696D+02  0.3349460434D-01
      0.2825394365D+01  0.2347269535D+00
      0.6401216923D+00  0.8137573261D+00
 S   1 1.00       0.000000000000
      0.1612777588D+00  0.1000000000D+01
 ****
     42 0
 S   3 1.00       0.000000000000
      0.1873113696D+02  0.3349460434D-01
      0.2825394365D+01  0.2347269535D+00
      0.6401216923D+00  0.8137573261D+00
 S   1 1.00       0.000000000000
      0.1612777588D+00  0.1000000000D+01
 ****
     43 0
 S   3 1.00       0.000000000000
      0.1873113696D+02  0.3349460434D-01
      0.2825394365D+01  0.2347269535D+00
      0.6401216923D+00  0.8137573261D+00
 S   1 1.00       0.000000000000
      0.1612777588D+00  0.1000000000D+01
 ****
     44 0
 S   6 1.00       0.000000000000
      0.3047524880D+04  0.1834737132D-02
      0.4573695180D+03  0.1403732281D-01
      0.1039486850D+03  0.6884262226D-01
      0.2921015530D+02  0.2321844432D+00
      0.9286662960D+01  0.4679413484D+00
      0.3163926960D+01  0.3623119853D+00
 SP   3 1.00       0.000000000000
      0.7868272350D+01 -0.1193324198D+00  0.6899906659D-01
      0.1881288540D+01 -0.1608541517D+00  0.3164239610D+00
      0.5442492580D+00  0.1143456438D+01  0.7443082909D+00
 SP   1 1.00       0.000000000000
      0.1687144782D+00  0.1000000000D+01  0.1000000000D+01
 D   1 1.00       0.000000000000
      0.8000000000D+00  0.1000000000D+01
 ****
     45 0
 S   3 1.00       0.000000000000
      0.1873113696D+02  0.3349460434D-01
      0.2825394365D+01  0.2347269535D+00
      0.6401216923D+00  0.8137573261D+00
 S   1 1.00       0.000000000000
      0.1612777588D+00  0.1000000000D+01
 ****
     46 0
 S   3 1.00       0.000000000000
      0.1873113696D+02  0.3349460434D-01
      0.2825394365D+01  0.2347269535D+00
      0.6401216923D+00  0.8137573261D+00
 S   1 1.00       0.000000000000
      0.1612777588D+00  0.1000000000D+01
 ****
     47 0
 S   6 1.00       0.000000000000
      0.3047524880D+04  0.1834737132D-02
      0.4573695180D+03  0.1403732281D-01
      0.1039486850D+03  0.6884262226D-01
      0.2921015530D+02  0.2321844432D+00
      0.9286662960D+01  0.4679413484D+00
      0.3163926960D+01  0.3623119853D+00
 SP   3 1.00       0.000000000000
      0.7868272350D+01 -0.1193324198D+00  0.6899906659D-01
      0.1881288540D+01 -0.1608541517D+00  0.3164239610D+00
      0.5442492580D+00  0.1143456438D+01  0.7443082909D+00
 SP   1 1.00       0.000000000000
      0.1687144782D+00  0.1000000000D+01  0.1000000000D+01
 D   1 1.00       0.000000000000
      0.8000000000D+00  0.1000000000D+01
 ****
     48 0
 S   3 1.00       0.000000000000
      0.1873113696D+02  0.3349460434D-01
      0.2825394365D+01  0.2347269535D+00
      0.6401216923D+00  0.8137573261D+00
 S   1 1.00       0.000000000000
      0.1612777588D+00  0.1000000000D+01
 ****
     49 0
 S   3 1.00       0.000000000000
      0.1873113696D+02  0.3349460434D-01
      0.2825394365D+01  0.2347269535D+00
      0.6401216923D+00  0.8137573261D+00
 S   1 1.00       0.000000000000
      0.1612777588D+00  0.1000000000D+01
 ****
     50 0
 S   6 1.00       0.000000000000
      0.3047524880D+04  0.1834737132D-02
      0.4573695180D+03  0.1403732281D-01
      0.1039486850D+03  0.6884262226D-01
      0.2921015530D+02  0.2321844432D+00
      0.9286662960D+01  0.4679413484D+00
      0.3163926960D+01  0.3623119853D+00
 SP   3 1.00       0.000000000000
      0.7868272350D+01 -0.1193324198D+00  0.6899906659D-01
      0.1881288540D+01 -0.1608541517D+00  0.3164239610D+00
      0.5442492580D+00  0.1143456438D+01  0.7443082909D+00
 SP   1 1.00       0.000000000000
      0.1687144782D+00  0.1000000000D+01  0.1000000000D+01
 D   1 1.00       0.000000000000
      0.8000000000D+00  0.1000000000D+01
 ****
     51 0
 S   3 1.00       0.000000000000
      0.1873113696D+02  0.3349460434D-01
      0.2825394365D+01  0.2347269535D+00
      0.6401216923D+00  0.8137573261D+00
 S   1 1.00       0.000000000000
      0.1612777588D+00  0.1000000000D+01
 ****
     52 0
 S   3 1.00       0.000000000000
      0.1873113696D+02  0.3349460434D-01
      0.2825394365D+01  0.2347269535D+00
      0.6401216923D+00  0.8137573261D+00
 S   1 1.00       0.000000000000
      0.1612777588D+00  0.1000000000D+01
 ****
     53 0
 S   6 1.00       0.000000000000
      0.3047524880D+04  0.1834737132D-02
      0.4573695180D+03  0.1403732281D-01
      0.1039486850D+03  0.6884262226D-01
      0.2921015530D+02  0.2321844432D+00
      0.9286662960D+01  0.4679413484D+00
      0.3163926960D+01  0.3623119853D+00
 SP   3 1.00       0.000000000000
      0.7868272350D+01 -0.1193324198D+00  0.6899906659D-01
      0.1881288540D+01 -0.1608541517D+00  0.3164239610D+00
      0.5442492580D+00  0.1143456438D+01  0.7443082909D+00
 SP   1 1.00       0.000000000000
      0.1687144782D+00  0.1000000000D+01  0.1000000000D+01
 D   1 1.00       0.000000000000
      0.8000000000D+00  0.1000000000D+01
 ****
     54 0
 S   3 1.00       0.000000000000
      0.1873113696D+02  0.3349460434D-01
      0.2825394365D+01  0.2347269535D+00
      0.6401216923D+00  0.8137573261D+00
 S   1 1.00       0.000000000000
      0.1612777588D+00  0.1000000000D+01
 ****
     55 0
 S   6 1.00       0.000000000000
      0.3047524880D+04  0.1834737132D-02
      0.4573695180D+03  0.1403732281D-01
      0.1039486850D+03  0.6884262226D-01
      0.2921015530D+02  0.2321844432D+00
      0.9286662960D+01  0.4679413484D+00
      0.3163926960D+01  0.3623119853D+00
 SP   3 1.00       0.000000000000
      0.7868272350D+01 -0.1193324198D+00  0.6899906659D-01
      0.1881288540D+01 -0.1608541517D+00  0.3164239610D+00
      0.5442492580D+00  0.1143456438D+01  0.7443082909D+00
 SP   1 1.00       0.000000000000
      0.1687144782D+00  0.1000000000D+01  0.1000000000D+01
 D   1 1.00       0.000000000000
      0.8000000000D+00  0.1000000000D+01
 ****
     56 0
 S   3 1.00       0.000000000000
      0.1873113696D+02  0.3349460434D-01
      0.2825394365D+01  0.2347269535D+00
      0.6401216923D+00  0.8137573261D+00
 S   1 1.00       0.000000000000
      0.1612777588D+00  0.1000000000D+01
 ****
     57 0
 S   3 1.00       0.000000000000
      0.1873113696D+02  0.3349460434D-01
      0.2825394365D+01  0.2347269535D+00
      0.6401216923D+00  0.8137573261D+00
 S   1 1.00       0.000000000000
      0.1612777588D+00  0.1000000000D+01
 ****
     58 0
 S   3 1.00       0.000000000000
      0.1873113696D+02  0.3349460434D-01
      0.2825394365D+01  0.2347269535D+00
      0.6401216923D+00  0.8137573261D+00
 S   1 1.00       0.000000000000
      0.1612777588D+00  0.1000000000D+01
 ****
     59 0
 S   6 1.00       0.000000000000
      0.3047524880D+04  0.1834737132D-02
      0.4573695180D+03  0.1403732281D-01
      0.1039486850D+03  0.6884262226D-01
      0.2921015530D+02  0.2321844432D+00
      0.9286662960D+01  0.4679413484D+00
      0.3163926960D+01  0.3623119853D+00
 SP   3 1.00       0.000000000000
      0.7868272350D+01 -0.1193324198D+00  0.6899906659D-01
      0.1881288540D+01 -0.1608541517D+00  0.3164239610D+00
      0.5442492580D+00  0.1143456438D+01  0.7443082909D+00
 SP   1 1.00       0.000000000000
      0.1687144782D+00  0.1000000000D+01  0.1000000000D+01
 D   1 1.00       0.000000000000
      0.8000000000D+00  0.1000000000D+01
 ****
     60 0
 S   3 1.00       0.000000000000
      0.1873113696D+02  0.3349460434D-01
      0.2825394365D+01  0.2347269535D+00
      0.6401216923D+00  0.8137573261D+00
 S   1 1.00       0.000000000000
      0.1612777588D+00  0.1000000000D+01
 ****
     61 0
 S   3 1.00       0.000000000000
      0.1873113696D+02  0.3349460434D-01
      0.2825394365D+01  0.2347269535D+00
      0.6401216923D+00  0.8137573261D+00
 S   1 1.00       0.000000000000
      0.1612777588D+00  0.1000000000D+01
 ****
     62 0
 S   6 1.00       0.000000000000
      0.3047524880D+04  0.1834737132D-02
      0.4573695180D+03  0.1403732281D-01
      0.1039486850D+03  0.6884262226D-01
      0.2921015530D+02  0.2321844432D+00
      0.9286662960D+01  0.4679413484D+00
      0.3163926960D+01  0.3623119853D+00
 SP   3 1.00       0.000000000000
      0.7868272350D+01 -0.1193324198D+00  0.6899906659D-01
      0.1881288540D+01 -0.1608541517D+00  0.3164239610D+00
      0.5442492580D+00  0.1143456438D+01  0.7443082909D+00
 SP   1 1.00       0.000000000000
      0.1687144782D+00  0.1000000000D+01  0.1000000000D+01
 D   1 1.00       0.000000000000
      0.8000000000D+00  0.1000000000D+01
 ****
     63 0
 S   3 1.00       0.000000000000
      0.1873113696D+02  0.3349460434D-01
      0.2825394365D+01  0.2347269535D+00
      0.6401216923D+00  0.8137573261D+00
 S   1 1.00       0.000000000000
      0.1612777588D+00  0.1000000000D+01
 ****
     64 0
 S   3 1.00       0.000000000000
      0.1873113696D+02  0.3349460434D-01
      0.2825394365D+01  0.2347269535D+00
      0.6401216923D+00  0.8137573261D+00
 S   1 1.00       0.000000000000
      0.1612777588D+00  0.1000000000D+01
 ****
     65 0
 S   6 1.00       0.000000000000
      0.3047524880D+04  0.1834737132D-02
      0.4573695180D+03  0.1403732281D-01
      0.1039486850D+03  0.6884262226D-01
      0.2921015530D+02  0.2321844432D+00
      0.9286662960D+01  0.4679413484D+00
      0.3163926960D+01  0.3623119853D+00
 SP   3 1.00       0.000000000000
      0.7868272350D+01 -0.1193324198D+00  0.6899906659D-01
      0.1881288540D+01 -0.1608541517D+00  0.3164239610D+00
      0.5442492580D+00  0.1143456438D+01  0.7443082909D+00
 SP   1 1.00       0.000000000000
      0.1687144782D+00  0.1000000000D+01  0.1000000000D+01
 D   1 1.00       0.000000000000
      0.8000000000D+00  0.1000000000D+01
 ****
     66 0
 S   3 1.00       0.000000000000
      0.1873113696D+02  0.3349460434D-01
      0.2825394365D+01  0.2347269535D+00
      0.6401216923D+00  0.8137573261D+00
 S   1 1.00       0.000000000000
      0.1612777588D+00  0.1000000000D+01
 ****
     67 0
 S   6 1.00       0.000000000000
      0.3047524880D+04  0.1834737132D-02
      0.4573695180D+03  0.1403732281D-01
      0.1039486850D+03  0.6884262226D-01
      0.2921015530D+02  0.2321844432D+00
      0.9286662960D+01  0.4679413484D+00
      0.3163926960D+01  0.3623119853D+00
 SP   3 1.00       0.000000000000
      0.7868272350D+01 -0.1193324198D+00  0.6899906659D-01
      0.1881288540D+01 -0.1608541517D+00  0.3164239610D+00
      0.5442492580D+00  0.1143456438D+01  0.7443082909D+00
 SP   1 1.00       0.000000000000
      0.1687144782D+00  0.1000000000D+01  0.1000000000D+01
 D   1 1.00       0.000000000000
      0.8000000000D+00  0.1000000000D+01
 ****
     68 0
 S   3 1.00       0.000000000000
      0.1873113696D+02  0.3349460434D-01
      0.2825394365D+01  0.2347269535D+00
      0.6401216923D+00  0.8137573261D+00
 S   1 1.00       0.000000000000
      0.1612777588D+00  0.1000000000D+01
 ****
     69 0
 S   3 1.00       0.000000000000
      0.1873113696D+02  0.3349460434D-01
      0.2825394365D+01  0.2347269535D+00
      0.6401216923D+00  0.8137573261D+00
 S   1 1.00       0.000000000000
      0.1612777588D+00  0.1000000000D+01
 ****
     70 0
 S   3 1.00       0.000000000000
      0.1873113696D+02  0.3349460434D-01
      0.2825394365D+01  0.2347269535D+00
      0.6401216923D+00  0.8137573261D+00
 S   1 1.00       0.000000000000
      0.1612777588D+00  0.1000000000D+01
 ****
     71 0
 S   6 1.00       0.000000000000
      0.3047524880D+04  0.1834737132D-02
      0.4573695180D+03  0.1403732281D-01
      0.1039486850D+03  0.6884262226D-01
      0.2921015530D+02  0.2321844432D+00
      0.9286662960D+01  0.4679413484D+00
      0.3163926960D+01  0.3623119853D+00
 SP   3 1.00       0.000000000000
      0.7868272350D+01 -0.1193324198D+00  0.6899906659D-01
      0.1881288540D+01 -0.1608541517D+00  0.3164239610D+00
      0.5442492580D+00  0.1143456438D+01  0.7443082909D+00
 SP   1 1.00       0.000000000000
      0.1687144782D+00  0.1000000000D+01  0.1000000000D+01
 D   1 1.00       0.000000000000
      0.8000000000D+00  0.1000000000D+01
 ****
     72 0
 S   3 1.00       0.000000000000
      0.1873113696D+02  0.3349460434D-01
      0.2825394365D+01  0.2347269535D+00
      0.6401216923D+00  0.8137573261D+00
 S   1 1.00       0.000000000000
      0.1612777588D+00  0.1000000000D+01
 ****
     73 0
 S   3 1.00       0.000000000000
      0.1873113696D+02  0.3349460434D-01
      0.2825394365D+01  0.2347269535D+00
      0.6401216923D+00  0.8137573261D+00
 S   1 1.00       0.000000000000
      0.1612777588D+00  0.1000000000D+01
 ****
     74 0
 S   3 1.00       0.000000000000
      0.1873113696D+02  0.3349460434D-01
      0.2825394365D+01  0.2347269535D+00
      0.6401216923D+00  0.8137573261D+00
 S   1 1.00       0.000000000000
      0.1612777588D+00  0.1000000000D+01
 ****

 AO basis set (Overlap normalization):
 Atom O1       Shell     1 S   6     bf    1 -     1          0.802676614006         -6.389942225611         13.709415243582
      0.5484671660D+04  0.1831074430D-02
      0.8252349460D+03  0.1395017220D-01
      0.1880469580D+03  0.6844507810D-01
      0.5296450000D+02  0.2327143360D+00
      0.1689757040D+02  0.4701928980D+00
      0.5799635340D+01  0.3585208530D+00
 Atom O1       Shell     2 SP   3    bf    2 -     5          0.802676614006         -6.389942225611         13.709415243582
      0.1553961625D+02 -0.1107775495D+00  0.7087426823D-01
      0.3599933586D+01 -0.1480262627D+00  0.3397528391D+00
      0.1013761750D+01  0.1130767015D+01  0.7271585773D+00
 Atom O1       Shell     3 SP   1    bf    6 -     9          0.802676614006         -6.389942225611         13.709415243582
      0.2700058226D+00  0.1000000000D+01  0.1000000000D+01
 Atom O1       Shell     4 D   1     bf   10 -    15          0.802676614006         -6.389942225611         13.709415243582
      0.8000000000D+00  0.1000000000D+01
 Atom H2       Shell     5 S   3     bf   16 -    16          0.497314332001         -8.169166811848         13.433191045663
      0.1873113696D+02  0.3349460434D-01
      0.2825394365D+01  0.2347269535D+00
      0.6401216923D+00  0.8137573261D+00
 Atom H2       Shell     6 S   1     bf   17 -    17          0.497314332001         -8.169166811848         13.433191045663
      0.1612777588D+00  0.1000000000D+01
 Atom C3       Shell     7 S   6     bf   18 -    18          2.846536312502          2.837414264308          0.000000000000
      0.3047524880D+04  0.1834737132D-02
      0.4573695180D+03  0.1403732281D-01
      0.1039486850D+03  0.6884262226D-01
      0.2921015530D+02  0.2321844432D+00
      0.9286662960D+01  0.4679413484D+00
      0.3163926960D+01  0.3623119853D+00
 Atom C3       Shell     8 SP   3    bf   19 -    22          2.846536312502          2.837414264308          0.000000000000
      0.7868272350D+01 -0.1193324198D+00  0.6899906659D-01
      0.1881288540D+01 -0.1608541517D+00  0.3164239610D+00
      0.5442492580D+00  0.1143456438D+01  0.7443082909D+00
 Atom C3       Shell     9 SP   1    bf   23 -    26          2.846536312502          2.837414264308          0.000000000000
      0.1687144782D+00  0.1000000000D+01  0.1000000000D+01
 Atom C3       Shell    10 D   1     bf   27 -    32          2.846536312502          2.837414264308          0.000000000000
      0.8000000000D+00  0.1000000000D+01
 Atom C4       Shell    11 S   6     bf   33 -    33          2.085866515191          0.000000000000          0.000000000000
      0.3047524880D+04  0.1834737132D-02
      0.4573695180D+03  0.1403732281D-01
      0.1039486850D+03  0.6884262226D-01
      0.2921015530D+02  0.2321844432D+00
      0.9286662960D+01  0.4679413484D+00
      0.3163926960D+01  0.3623119853D+00
 Atom C4       Shell    12 SP   3    bf   34 -    37          2.085866515191          0.000000000000          0.000000000000
      0.7868272350D+01 -0.1193324198D+00  0.6899906659D-01
      0.1881288540D+01 -0.1608541517D+00  0.3164239610D+00
      0.5442492580D+00  0.1143456438D+01  0.7443082909D+00
 Atom C4       Shell    13 SP   1    bf   38 -    41          2.085866515191          0.000000000000          0.000000000000
      0.1687144782D+00  0.1000000000D+01  0.1000000000D+01
 Atom C4       Shell    14 D   1     bf   42 -    47          2.085866515191          0.000000000000          0.000000000000
      0.8000000000D+00  0.1000000000D+01
 Atom H5       Shell    15 S   3     bf   48 -    48          0.000000000000          0.000000000000          0.000000000000
      0.1873113696D+02  0.3349460434D-01
      0.2825394365D+01  0.2347269535D+00
      0.6401216923D+00  0.8137573261D+00
 Atom H5       Shell    16 S   1     bf   49 -    49          0.000000000000          0.000000000000          0.000000000000
      0.1612777588D+00  0.1000000000D+01
 Atom C6       Shell    17 S   6     bf   50 -    50          2.864829976407         -1.496597618235          2.357606033949
      0.3047524880D+04  0.1834737132D-02
      0.4573695180D+03  0.1403732281D-01
      0.1039486850D+03  0.6884262226D-01
      0.2921015530D+02  0.2321844432D+00
      0.9286662960D+01  0.4679413484D+00
      0.3163926960D+01  0.3623119853D+00
 Atom C6       Shell    18 SP   3    bf   51 -    54          2.864829976407         -1.496597618235          2.357606033949
      0.7868272350D+01 -0.1193324198D+00  0.6899906659D-01
      0.1881288540D+01 -0.1608541517D+00  0.3164239610D+00
      0.5442492580D+00  0.1143456438D+01  0.7443082909D+00
 Atom C6       Shell    19 SP   1    bf   55 -    58          2.864829976407         -1.496597618235          2.357606033949
      0.1687144782D+00  0.1000000000D+01  0.1000000000D+01
 Atom C6       Shell    20 D   1     bf   59 -    64          2.864829976407         -1.496597618235          2.357606033949
      0.8000000000D+00  0.1000000000D+01
 Atom H7       Shell    21 S   3     bf   65 -    65          4.937529295644         -1.529358231728          2.492535333323
      0.1873113696D+02  0.3349460434D-01
      0.2825394365D+01  0.2347269535D+00
      0.6401216923D+00  0.8137573261D+00
 Atom H7       Shell    22 S   1     bf   66 -    66          4.937529295644         -1.529358231728          2.492535333323
      0.1612777588D+00  0.1000000000D+01
 Atom C8       Shell    23 S   6     bf   67 -    67          1.764391577800         -0.218094237859          4.755116205221
      0.3047524880D+04  0.1834737132D-02
      0.4573695180D+03  0.1403732281D-01
      0.1039486850D+03  0.6884262226D-01
      0.2921015530D+02  0.2321844432D+00
      0.9286662960D+01  0.4679413484D+00
      0.3163926960D+01  0.3623119853D+00
 Atom C8       Shell    24 SP   3    bf   68 -    71          1.764391577800         -0.218094237859          4.755116205221
      0.7868272350D+01 -0.1193324198D+00  0.6899906659D-01
      0.1881288540D+01 -0.1608541517D+00  0.3164239610D+00
      0.5442492580D+00  0.1143456438D+01  0.7443082909D+00
 Atom C8       Shell    25 SP   1    bf   72 -    75          1.764391577800         -0.218094237859          4.755116205221
      0.1687144782D+00  0.1000000000D+01  0.1000000000D+01
 Atom C8       Shell    26 D   1     bf   76 -    81          1.764391577800         -0.218094237859          4.755116205221
      0.8000000000D+00  0.1000000000D+01
 Atom H9       Shell    27 S   3     bf   82 -    82         -0.300535486824         -0.460255082884          4.615080261123
      0.1873113696D+02  0.3349460434D-01
      0.2825394365D+01  0.2347269535D+00
      0.6401216923D+00  0.8137573261D+00
 Atom H9       Shell    28 S   1     bf   83 -    83         -0.300535486824         -0.460255082884          4.615080261123
      0.1612777588D+00  0.1000000000D+01
 Atom C10      Shell    29 S   6     bf   84 -    84          1.800504848912          3.642000881208         -2.654029382222
      0.3047524880D+04  0.1834737132D-02
      0.4573695180D+03  0.1403732281D-01
      0.1039486850D+03  0.6884262226D-01
      0.2921015530D+02  0.2321844432D+00
      0.9286662960D+01  0.4679413484D+00
      0.3163926960D+01  0.3623119853D+00
 Atom C10      Shell    30 SP   3    bf   85 -    88          1.800504848912          3.642000881208         -2.654029382222
      0.7868272350D+01 -0.1193324198D+00  0.6899906659D-01
      0.1881288540D+01 -0.1608541517D+00  0.3164239610D+00
      0.5442492580D+00  0.1143456438D+01  0.7443082909D+00
 Atom C10      Shell    31 SP   1    bf   89 -    92          1.800504848912          3.642000881208         -2.654029382222
      0.1687144782D+00  0.1000000000D+01  0.1000000000D+01
 Atom C10      Shell    32 D   1     bf   93 -    98          1.800504848912          3.642000881208         -2.654029382222
      0.8000000000D+00  0.1000000000D+01
 Atom H11      Shell    33 S   3     bf   99 -    99         -0.266688469778          3.701515500297         -2.444566676344
      0.1873113696D+02  0.3349460434D-01
      0.2825394365D+01  0.2347269535D+00
      0.6401216923D+00  0.8137573261D+00
 Atom H11      Shell    34 S   1     bf  100 -   100         -0.266688469778          3.701515500297         -2.444566676344
      0.1612777588D+00  0.1000000000D+01
 Atom C12      Shell    35 S   6     bf  101 -   101          1.557883194170          4.034743041351          2.324207618989
      0.3047524880D+04  0.1834737132D-02
      0.4573695180D+03  0.1403732281D-01
      0.1039486850D+03  0.6884262226D-01
      0.2921015530D+02  0.2321844432D+00
      0.9286662960D+01  0.4679413484D+00
      0.3163926960D+01  0.3623119853D+00
 Atom C12      Shell    36 SP   3    bf  102 -   105          1.557883194170          4.034743041351          2.324207618989
      0.7868272350D+01 -0.1193324198D+00  0.6899906659D-01
      0.1881288540D+01 -0.1608541517D+00  0.3164239610D+00
      0.5442492580D+00  0.1143456438D+01  0.7443082909D+00
 Atom C12      Shell    37 SP   1    bf  106 -   109          1.557883194170          4.034743041351          2.324207618989
      0.1687144782D+00  0.1000000000D+01  0.1000000000D+01
 Atom C12      Shell    38 D   1     bf  110 -   115          1.557883194170          4.034743041351          2.324207618989
      0.8000000000D+00  0.1000000000D+01
 Atom H13      Shell    39 S   3     bf  116 -   116         -0.501510657852          3.951741639766          2.058194518434
      0.1873113696D+02  0.3349460434D-01
      0.2825394365D+01  0.2347269535D+00
      0.6401216923D+00  0.8137573261D+00
 Atom H13      Shell    40 S   1     bf  117 -   117         -0.501510657852          3.951741639766          2.058194518434
      0.1612777588D+00  0.1000000000D+01
 Atom H14      Shell    41 S   3     bf  118 -   118          2.044016205615          6.035888296306          2.523837267215
      0.1873113696D+02  0.3349460434D-01
      0.2825394365D+01  0.2347269535D+00
      0.6401216923D+00  0.8137573261D+00
 Atom H14      Shell    42 S   1     bf  119 -   119          2.044016205615          6.035888296306          2.523837267215
      0.1612777588D+00  0.1000000000D+01
 Atom C15      Shell    43 S   6     bf  120 -   120          2.565047224193         -1.595235936652          7.256457794605
      0.3047524880D+04  0.1834737132D-02
      0.4573695180D+03  0.1403732281D-01
      0.1039486850D+03  0.6884262226D-01
      0.2921015530D+02  0.2321844432D+00
      0.9286662960D+01  0.4679413484D+00
      0.3163926960D+01  0.3623119853D+00
 Atom C15      Shell    44 SP   3    bf  121 -   124          2.565047224193         -1.595235936652          7.256457794605
      0.7868272350D+01 -0.1193324198D+00  0.6899906659D-01
      0.1881288540D+01 -0.1608541517D+00  0.3164239610D+00
      0.5442492580D+00  0.1143456438D+01  0.7443082909D+00
 Atom C15      Shell    45 SP   1    bf  125 -   128          2.565047224193         -1.595235936652          7.256457794605
      0.1687144782D+00  0.1000000000D+01  0.1000000000D+01
 Atom C15      Shell    46 D   1     bf  129 -   134          2.565047224193         -1.595235936652          7.256457794605
      0.8000000000D+00  0.1000000000D+01
 Atom C16      Shell    47 S   6     bf  135 -   135          2.902189521903         -0.969527771929         -2.612764018473
      0.3047524880D+04  0.1834737132D-02
      0.4573695180D+03  0.1403732281D-01
      0.1039486850D+03  0.6884262226D-01
      0.2921015530D+02  0.2321844432D+00
      0.9286662960D+01  0.4679413484D+00
      0.3163926960D+01  0.3623119853D+00
 Atom C16      Shell    48 SP   3    bf  136 -   139          2.902189521903         -0.969527771929         -2.612764018473
      0.7868272350D+01 -0.1193324198D+00  0.6899906659D-01
      0.1881288540D+01 -0.1608541517D+00  0.3164239610D+00
      0.5442492580D+00  0.1143456438D+01  0.7443082909D+00
 Atom C16      Shell    49 SP   1    bf  140 -   143          2.902189521903         -0.969527771929         -2.612764018473
      0.1687144782D+00  0.1000000000D+01  0.1000000000D+01
 Atom C16      Shell    50 D   1     bf  144 -   149          2.902189521903         -0.969527771929         -2.612764018473
      0.8000000000D+00  0.1000000000D+01
 Atom H17      Shell    51 S   3     bf  150 -   150          1.819395760761         -2.626723274239         -3.212637869514
      0.1873113696D+02  0.3349460434D-01
      0.2825394365D+01  0.2347269535D+00
      0.6401216923D+00  0.8137573261D+00
 Atom H17      Shell    52 S   1     bf  151 -   151          1.819395760761         -2.626723274239         -3.212637869514
      0.1612777588D+00  0.1000000000D+01
 Atom H18      Shell    53 S   3     bf  152 -   152          4.896633826888         -1.535668858765         -2.594364095268
      0.1873113696D+02  0.3349460434D-01
      0.2825394365D+01  0.2347269535D+00
      0.6401216923D+00  0.8137573261D+00
 Atom H18      Shell    54 S   1     bf  153 -   153          4.896633826888         -1.535668858765         -2.594364095268
      0.1612777588D+00  0.1000000000D+01
 Atom C19      Shell    55 S   6     bf  154 -   154          2.275025625551          2.659133135664          4.793286159770
      0.3047524880D+04  0.1834737132D-02
      0.4573695180D+03  0.1403732281D-01
      0.1039486850D+03  0.6884262226D-01
      0.2921015530D+02  0.2321844432D+00
      0.9286662960D+01  0.4679413484D+00
      0.3163926960D+01  0.3623119853D+00
 Atom C19      Shell    56 SP   3    bf  155 -   158          2.275025625551          2.659133135664          4.793286159770
      0.7868272350D+01 -0.1193324198D+00  0.6899906659D-01
      0.1881288540D+01 -0.1608541517D+00  0.3164239610D+00
      0.5442492580D+00  0.1143456438D+01  0.7443082909D+00
 Atom C19      Shell    57 SP   1    bf  159 -   162          2.275025625551          2.659133135664          4.793286159770
      0.1687144782D+00  0.1000000000D+01  0.1000000000D+01
 Atom C19      Shell    58 D   1     bf  163 -   168          2.275025625551          2.659133135664          4.793286159770
      0.8000000000D+00  0.1000000000D+01
 Atom H20      Shell    59 S   3     bf  169 -   169          4.276290084430          3.011957193408          5.184971320497
      0.1873113696D+02  0.3349460434D-01
      0.2825394365D+01  0.2347269535D+00
      0.6401216923D+00  0.8137573261D+00
 Atom H20      Shell    60 S   1     bf  170 -   170          4.276290084430          3.011957193408          5.184971320497
      0.1612777588D+00  0.1000000000D+01
 Atom H21      Shell    61 S   3     bf  171 -   171          1.229890118915          3.531190043084          6.354026109626
      0.1873113696D+02  0.3349460434D-01
      0.2825394365D+01  0.2347269535D+00
      0.6401216923D+00  0.8137573261D+00
 Atom H21      Shell    62 S   1     bf  172 -   172          1.229890118915          3.531190043084          6.354026109626
      0.1612777588D+00  0.1000000000D+01
 Atom C22      Shell    63 S   6     bf  173 -   173          2.477007963915          1.338017602622         -4.379175392256
      0.3047524880D+04  0.1834737132D-02
      0.4573695180D+03  0.1403732281D-01
      0.1039486850D+03  0.6884262226D-01
      0.2921015530D+02  0.2321844432D+00
      0.9286662960D+01  0.4679413484D+00
      0.3163926960D+01  0.3623119853D+00
 Atom C22      Shell    64 SP   3    bf  174 -   177          2.477007963915          1.338017602622         -4.379175392256
      0.7868272350D+01 -0.1193324198D+00  0.6899906659D-01
      0.1881288540D+01 -0.1608541517D+00  0.3164239610D+00
      0.5442492580D+00  0.1143456438D+01  0.7443082909D+00
 Atom C22      Shell    65 SP   1    bf  178 -   181          2.477007963915          1.338017602622         -4.379175392256
      0.1687144782D+00  0.1000000000D+01  0.1000000000D+01
 Atom C22      Shell    66 D   1     bf  182 -   187          2.477007963915          1.338017602622         -4.379175392256
      0.8000000000D+00  0.1000000000D+01
 Atom H23      Shell    67 S   3     bf  188 -   188          4.185116429903          1.741263862167         -5.480235113918
      0.1873113696D+02  0.3349460434D-01
      0.2825394365D+01  0.2347269535D+00
      0.6401216923D+00  0.8137573261D+00
 Atom H23      Shell    68 S   1     bf  189 -   189          4.185116429903          1.741263862167         -5.480235113918
      0.1612777588D+00  0.1000000000D+01
 Atom H24      Shell    69 S   3     bf  190 -   190          0.974080405642          0.976536652773         -5.753903816291
      0.1873113696D+02  0.3349460434D-01
      0.2825394365D+01  0.2347269535D+00
      0.6401216923D+00  0.8137573261D+00
 Atom H24      Shell    70 S   1     bf  191 -   191          0.974080405642          0.976536652773         -5.753903816291
      0.1612777588D+00  0.1000000000D+01
 Atom C25      Shell    71 S   6     bf  192 -   192          1.942009752722         -4.246321579093          2.194926219697
      0.3047524880D+04  0.1834737132D-02
      0.4573695180D+03  0.1403732281D-01
      0.1039486850D+03  0.6884262226D-01
      0.2921015530D+02  0.2321844432D+00
      0.9286662960D+01  0.4679413484D+00
      0.3163926960D+01  0.3623119853D+00
 Atom C25      Shell    72 SP   3    bf  193 -   196          1.942009752722         -4.246321579093          2.194926219697
      0.7868272350D+01 -0.1193324198D+00  0.6899906659D-01
      0.1881288540D+01 -0.1608541517D+00  0.3164239610D+00
      0.5442492580D+00  0.1143456438D+01  0.7443082909D+00
 Atom C25      Shell    73 SP   1    bf  197 -   200          1.942009752722         -4.246321579093          2.194926219697
      0.1687144782D+00  0.1000000000D+01  0.1000000000D+01
 Atom C25      Shell    74 D   1     bf  201 -   206          1.942009752722         -4.246321579093          2.194926219697
      0.8000000000D+00  0.1000000000D+01
 Atom H26      Shell    75 S   3     bf  207 -   207          3.087430681970         -5.302755814970          0.824358556867
      0.1873113696D+02  0.3349460434D-01
      0.2825394365D+01  0.2347269535D+00
      0.6401216923D+00  0.8137573261D+00
 Atom H26      Shell    76 S   1     bf  208 -   208          3.087430681970         -5.302755814970          0.824358556867
      0.1612777588D+00  0.1000000000D+01
 Atom H27      Shell    77 S   3     bf  209 -   209          0.002120178235         -4.283493966113          1.434252472857
      0.1873113696D+02  0.3349460434D-01
      0.2825394365D+01  0.2347269535D+00
      0.6401216923D+00  0.8137573261D+00
 Atom H27      Shell    78 S   1     bf  210 -   210          0.002120178235         -4.283493966113          1.434252472857
      0.1612777588D+00  0.1000000000D+01
 Atom C28      Shell    79 S   6     bf  211 -   211          2.635662378046          6.194151612715         -3.818875902431
      0.3047524880D+04  0.1834737132D-02
      0.4573695180D+03  0.1403732281D-01
      0.1039486850D+03  0.6884262226D-01
      0.2921015530D+02  0.2321844432D+00
      0.9286662960D+01  0.4679413484D+00
      0.3163926960D+01  0.3623119853D+00
 Atom C28      Shell    80 SP   3    bf  212 -   215          2.635662378046          6.194151612715         -3.818875902431
      0.7868272350D+01 -0.1193324198D+00  0.6899906659D-01
      0.1881288540D+01 -0.1608541517D+00  0.3164239610D+00
      0.5442492580D+00  0.1143456438D+01  0.7443082909D+00
 Atom C28      Shell    81 SP   1    bf  216 -   219          2.635662378046          6.194151612715         -3.818875902431
      0.1687144782D+00  0.1000000000D+01  0.1000000000D+01
 Atom C28      Shell    82 D   1     bf  220 -   225          2.635662378046          6.194151612715         -3.818875902431
      0.8000000000D+00  0.1000000000D+01
 Atom H29      Shell    83 S   3     bf  226 -   226          4.702095422118          6.127452765095         -4.030785236733
      0.1873113696D+02  0.3349460434D-01
      0.2825394365D+01  0.2347269535D+00
      0.6401216923D+00  0.8137573261D+00
 Atom H29      Shell    84 S   1     bf  227 -   227          4.702095422118          6.127452765095         -4.030785236733
      0.1612777588D+00  0.1000000000D+01
 Atom C30      Shell    85 S   6     bf  228 -   228          5.739387355878          3.225463799826          0.112608459005
      0.3047524880D+04  0.1834737132D-02
      0.4573695180D+03  0.1403732281D-01
      0.1039486850D+03  0.6884262226D-01
      0.2921015530D+02  0.2321844432D+00
      0.9286662960D+01  0.4679413484D+00
      0.3163926960D+01  0.3623119853D+00
 Atom C30      Shell    86 SP   3    bf  229 -   232          5.739387355878          3.225463799826          0.112608459005
      0.7868272350D+01 -0.1193324198D+00  0.6899906659D-01
      0.1881288540D+01 -0.1608541517D+00  0.3164239610D+00
      0.5442492580D+00  0.1143456438D+01  0.7443082909D+00
 Atom C30      Shell    87 SP   1    bf  233 -   236          5.739387355878          3.225463799826          0.112608459005
      0.1687144782D+00  0.1000000000D+01  0.1000000000D+01
 Atom C30      Shell    88 D   1     bf  237 -   242          5.739387355878          3.225463799826          0.112608459005
      0.8000000000D+00  0.1000000000D+01
 Atom H31      Shell    89 S   3     bf  243 -   243          6.200754448105          5.241037435059          0.205927614098
      0.1873113696D+02  0.3349460434D-01
      0.2825394365D+01  0.2347269535D+00
      0.6401216923D+00  0.8137573261D+00
 Atom H31      Shell    90 S   1     bf  244 -   244          6.200754448105          5.241037435059          0.205927614098
      0.1612777588D+00  0.1000000000D+01
 Atom H32      Shell    91 S   3     bf  245 -   245          6.588581184911          2.330250112785          1.768330938691
      0.1873113696D+02  0.3349460434D-01
      0.2825394365D+01  0.2347269535D+00
      0.6401216923D+00  0.8137573261D+00
 Atom H32      Shell    92 S   1     bf  246 -   246          6.588581184911          2.330250112785          1.768330938691
      0.1612777588D+00  0.1000000000D+01
 Atom H33      Shell    93 S   3     bf  247 -   247          6.691423161317          2.453227499081         -1.552808504715
      0.1873113696D+02  0.3349460434D-01
      0.2825394365D+01  0.2347269535D+00
      0.6401216923D+00  0.8137573261D+00
 Atom H33      Shell    94 S   1     bf  248 -   248          6.691423161317          2.453227499081         -1.552808504715
      0.1612777588D+00  0.1000000000D+01
 Atom C34      Shell    95 S   6     bf  249 -   249          2.291811155721         -4.467262141351          6.948589905823
      0.3047524880D+04  0.1834737132D-02
      0.4573695180D+03  0.1403732281D-01
      0.1039486850D+03  0.6884262226D-01
      0.2921015530D+02  0.2321844432D+00
      0.9286662960D+01  0.4679413484D+00
      0.3163926960D+01  0.3623119853D+00
 Atom C34      Shell    96 SP   3    bf  250 -   253          2.291811155721         -4.467262141351          6.948589905823
      0.7868272350D+01 -0.1193324198D+00  0.6899906659D-01
      0.1881288540D+01 -0.1608541517D+00  0.3164239610D+00
      0.5442492580D+00  0.1143456438D+01  0.7443082909D+00
 Atom C34      Shell    97 SP   1    bf  254 -   257          2.291811155721         -4.467262141351          6.948589905823
      0.1687144782D+00  0.1000000000D+01  0.1000000000D+01
 Atom C34      Shell    98 D   1     bf  258 -   263          2.291811155721         -4.467262141351          6.948589905823
      0.8000000000D+00  0.1000000000D+01
 Atom C35      Shell    99 S   6     bf  264 -   264          0.762968120029         -0.729090016987          9.424389484363
      0.3047524880D+04  0.1834737132D-02
      0.4573695180D+03  0.1403732281D-01
      0.1039486850D+03  0.6884262226D-01
      0.2921015530D+02  0.2321844432D+00
      0.9286662960D+01  0.4679413484D+00
      0.3163926960D+01  0.3623119853D+00
 Atom C35      Shell   100 SP   3    bf  265 -   268          0.762968120029         -0.729090016987          9.424389484363
      0.7868272350D+01 -0.1193324198D+00  0.6899906659D-01
      0.1881288540D+01 -0.1608541517D+00  0.3164239610D+00
      0.5442492580D+00  0.1143456438D+01  0.7443082909D+00
 Atom C35      Shell   101 SP   1    bf  269 -   272          0.762968120029         -0.729090016987          9.424389484363
      0.1687144782D+00  0.1000000000D+01  0.1000000000D+01
 Atom C35      Shell   102 D   1     bf  273 -   278          0.762968120029         -0.729090016987          9.424389484363
      0.8000000000D+00  0.1000000000D+01
 Atom H36      Shell   103 S   3     bf  279 -   279         -1.189773595272         -0.841618559474          8.726510618823
      0.1873113696D+02  0.3349460434D-01
      0.2825394365D+01  0.2347269535D+00
      0.6401216923D+00  0.8137573261D+00
 Atom H36      Shell   104 S   1     bf  280 -   280         -1.189773595272         -0.841618559474          8.726510618823
      0.1612777588D+00  0.1000000000D+01
 Atom H37      Shell   105 S   3     bf  281 -   281          1.116818431343          1.263546235828          9.859354740356
      0.1873113696D+02  0.3349460434D-01
      0.2825394365D+01  0.2347269535D+00
      0.6401216923D+00  0.8137573261D+00
 Atom H37      Shell   106 S   1     bf  282 -   282          1.116818431343          1.263546235828          9.859354740356
      0.1612777588D+00  0.1000000000D+01
 Atom C38      Shell   107 S   6     bf  283 -   283          1.986961159574         -5.588738445256          4.696256281751
      0.3047524880D+04  0.1834737132D-02
      0.4573695180D+03  0.1403732281D-01
      0.1039486850D+03  0.6884262226D-01
      0.2921015530D+02  0.2321844432D+00
      0.9286662960D+01  0.4679413484D+00
      0.3163926960D+01  0.3623119853D+00
 Atom C38      Shell   108 SP   3    bf  284 -   287          1.986961159574         -5.588738445256          4.696256281751
      0.7868272350D+01 -0.1193324198D+00  0.6899906659D-01
      0.1881288540D+01 -0.1608541517D+00  0.3164239610D+00
      0.5442492580D+00  0.1143456438D+01  0.7443082909D+00
 Atom C38      Shell   109 SP   1    bf  288 -   291          1.986961159574         -5.588738445256          4.696256281751
      0.1687144782D+00  0.1000000000D+01  0.1000000000D+01
 Atom C38      Shell   110 D   1     bf  292 -   297          1.986961159574         -5.588738445256          4.696256281751
      0.8000000000D+00  0.1000000000D+01
 Atom H39      Shell   111 S   3     bf  298 -   298          1.756881409306         -7.636060726740          4.639471145293
      0.1873113696D+02  0.3349460434D-01
      0.2825394365D+01  0.2347269535D+00
      0.6401216923D+00  0.8137573261D+00
 Atom H39      Shell   112 S   1     bf  299 -   299          1.756881409306         -7.636060726740          4.639471145293
      0.1612777588D+00  0.1000000000D+01
 Atom C40      Shell   113 S   6     bf  300 -   300          5.339700187635         -0.985717981675          7.987647127250
      0.3047524880D+04  0.1834737132D-02
      0.4573695180D+03  0.1403732281D-01
      0.1039486850D+03  0.6884262226D-01
      0.2921015530D+02  0.2321844432D+00
      0.9286662960D+01  0.4679413484D+00
      0.3163926960D+01  0.3623119853D+00
 Atom C40      Shell   114 SP   3    bf  301 -   304          5.339700187635         -0.985717981675          7.987647127250
      0.7868272350D+01 -0.1193324198D+00  0.6899906659D-01
      0.1881288540D+01 -0.1608541517D+00  0.3164239610D+00
      0.5442492580D+00  0.1143456438D+01  0.7443082909D+00
[...]
 **** Fit       0.002647
 **** Fit       0.002257
 **** Fit       0.001638
 **** Fit       0.000821
 **** Fit      -0.000085
 **** Fit      -0.000920
 **** Fit      -0.001546
 **** Fit      -0.001905
 **** Fit      -0.002024
 **** Fit      -0.001975
 **** Fit      -0.001835
 **** Fit      -0.001676
 **** Fit      -0.001552
 **** Fit       0.002889
 **** Fit       0.002857
 **** Fit       0.002690
 **** Fit       0.002376
 **** Fit       0.001945
 **** Fit       0.001483
 **** Fit       0.001109
 **** Fit       0.000931
 **** Fit       0.001006
 **** Fit       0.001310
 **** Fit       0.001750
 **** Fit       0.002205
 **** Fit       0.002565
 **** Fit       0.002759
 **** Fit       0.002757
 **** Fit       0.002549
 **** Fit       0.002129
 **** Fit       0.001508
 **** Fit       0.000737
 **** Fit      -0.000084
 **** Fit      -0.000822
 **** Fit      -0.001374
 **** Fit      -0.001703
 **** Fit      -0.001834
 **** Fit      -0.001822
 **** Fit      -0.001729
 **** Fit      -0.001611
 **** Fit       0.002909
 **** Fit       0.002968
 **** Fit       0.002916
 **** Fit       0.002703
 **** Fit       0.002306
 **** Fit       0.001754
 **** Fit       0.001151
 **** Fit       0.000654
 **** Fit       0.000408
 **** Fit       0.000488
 **** Fit       0.000861
 **** Fit       0.001406
 **** Fit       0.001963
 **** Fit       0.002394
 **** Fit       0.002620
 **** Fit       0.002618
 **** Fit       0.002398
 **** Fit       0.001977
 **** Fit       0.001391
 **** Fit       0.000697
 **** Fit      -0.000012
 **** Fit      -0.000638
 **** Fit      -0.001106
 **** Fit      -0.001397
 **** Fit      -0.001532
 **** Fit      -0.001553
 **** Fit      -0.001509
 **** Fit       0.002936
 **** Fit       0.002981
 **** Fit       0.002904
 **** Fit       0.002646
 **** Fit       0.002169
 **** Fit       0.001500
 **** Fit       0.000760
 **** Fit       0.000142
 **** Fit      -0.000174
 **** Fit      -0.000098
 **** Fit       0.000332
 **** Fit       0.000970
 **** Fit       0.001623
 **** Fit       0.002127
 **** Fit       0.002398
 **** Fit       0.002423
 **** Fit       0.002226
 **** Fit       0.001846
 **** Fit       0.001329
 **** Fit       0.000738
 **** Fit       0.000148
 **** Fit      -0.000365
 **** Fit      -0.000755
 **** Fit      -0.001009
 **** Fit      -0.001146
 **** Fit      -0.001200
 **** Fit      -0.001206
 **** Fit       0.002784
 **** Fit       0.002878
 **** Fit       0.002894
 **** Fit       0.002779
 **** Fit       0.002469
 **** Fit       0.001920
 **** Fit       0.001158
 **** Fit       0.000316
 **** Fit      -0.000390
 **** Fit      -0.000758
 **** Fit      -0.000693
 **** Fit      -0.000235
 **** Fit       0.000459
 **** Fit       0.001180
 **** Fit       0.001752
 **** Fit       0.002084
 **** Fit       0.002167
 **** Fit       0.002034
 **** Fit       0.001733
 **** Fit       0.001315
 **** Fit       0.000840
 **** Fit       0.000370
 **** Fit      -0.000041
 **** Fit      -0.000360
 **** Fit      -0.000583
 **** Fit      -0.000725
 **** Fit      -0.000810
 **** Fit      -0.000862
 **** Fit       0.002674
 **** Fit       0.002727
 **** Fit       0.002692
 **** Fit       0.002518
 **** Fit       0.002144
 **** Fit       0.001532
 **** Fit       0.000715
 **** Fit      -0.000166
 **** Fit      -0.000894
 **** Fit      -0.001277
 **** Fit      -0.001229
 **** Fit      -0.000787
 **** Fit      -0.000093
 **** Fit       0.000654
 **** Fit       0.001278
 **** Fit       0.001682
 **** Fit       0.001850
 **** Fit       0.001813
 **** Fit       0.001618
 **** Fit       0.000283
 **** Fit       0.000023
 **** Fit      -0.000175
 **** Fit      -0.000321
 **** Fit      -0.000432
 **** Fit       0.002500
 **** Fit       0.002497
 **** Fit       0.002394
 **** Fit       0.002144
 **** Fit       0.001701
 **** Fit       0.001042
 **** Fit       0.000216
 **** Fit      -0.000634
 **** Fit      -0.001315
 **** Fit      -0.001672
 **** Fit      -0.001640
 **** Fit      -0.001249
 **** Fit      -0.000610
 **** Fit       0.000114
 **** Fit       0.000762
 **** Fit       0.001232
 **** Fit       0.001494
 **** Fit       0.001566
 **** Fit       0.001487
 **** Fit       0.000173
 **** Fit       0.002287
 **** Fit       0.002226
 **** Fit       0.002054
 **** Fit       0.001732
 **** Fit       0.001232
 **** Fit       0.000556
 **** Fit      -0.000231
 **** Fit      -0.000996
 **** Fit      -0.001584
 **** Fit      -0.001886
 **** Fit      -0.001866
 **** Fit      -0.001543
 **** Fit      -0.000992
 **** Fit      -0.000331
 **** Fit       0.000304
 **** Fit       0.000812
 **** Fit       0.001150
 **** Fit       0.001318
 **** Fit       0.001344
 **** Fit       0.001960
 **** Fit       0.001737
 **** Fit       0.001371
 **** Fit       0.000851
 **** Fit       0.000201
 **** Fit      -0.000506
 **** Fit      -0.001156
 **** Fit      -0.001634
 **** Fit      -0.001874
 **** Fit      -0.001859
 **** Fit      -0.001603
 **** Fit      -0.001151
 **** Fit      -0.000583
 **** Fit      -0.000003
 **** Fit       0.000500
 **** Fit       0.000873
 **** Fit       0.001103
 **** Fit       0.001737
 **** Fit       0.001493
 **** Fit       0.001123
 **** Fit       0.000631
 **** Fit       0.000052
 **** Fit      -0.000544
 **** Fit      -0.001064
 **** Fit      -0.001432
 **** Fit      -0.001612
 **** Fit      -0.001599
 **** Fit      -0.001406
 **** Fit      -0.001056
 **** Fit      -0.000600
 **** Fit      -0.000110
 **** Fit       0.000339
 **** Fit       0.000699
 **** Fit       0.000947
 **** Fit       0.001339
 **** Fit       0.001004
 **** Fit       0.000580
 **** Fit       0.000105
 **** Fit      -0.000360
 **** Fit      -0.000747
 **** Fit      -0.001010
 **** Fit      -0.001134
 **** Fit      -0.001123
 **** Fit      -0.000989
 **** Fit      -0.000741
 **** Fit      -0.000407
 **** Fit      -0.000033
 **** Fit       0.000329
 **** Fit       0.000652
 **** Fit       0.000296
 **** Fit      -0.000035
 **** Fit      -0.000296
 **** Fit      -0.000463
 **** Fit      -0.000537
 **** Fit      -0.000530
 **** Fit      -0.000448
 **** Fit      -0.000296
 **** Fit      -0.000081
 **** Fit       0.000172
 **** Fit       0.000543
 **** Fit       0.000331
 **** Fit       0.000178
 **** Fit       0.000089
 **** Fit       0.000055
 **** Fit       0.000061
 **** Fit       0.000099
 **** Fit       0.000174
 **** Fit       0.000288
 **** Fit       0.000433
 **** Fit       0.000774
 **** Fit       0.000657
 **** Fit       0.000584
 **** Fit       0.000553
 **** Fit       0.000548
 **** Fit       0.000553
 **** Fit       0.000563
 **** Fit       0.000584
 **** Fit       0.000624
 **** Fit       0.000686
 **** Fit       0.000898
 **** Fit       0.000879
 **** Fit       0.000885
 **** Fit       0.000898
 **** Fit       0.000906
 **** Fit       0.000901
 **** Fit       0.000891
 **** Fit       0.000886
 **** Fit       0.001058
 **** Fit       0.001084
 **** Fit       0.001109
 **** Fit       0.001119
 **** Fit       0.001111
 **** Fit       0.000030
 **** Fit      -0.000275
 **** Fit      -0.000596
 **** Fit      -0.000899
 **** Fit      -0.001141
 **** Fit      -0.001291
 **** Fit       0.000697
 **** Fit       0.000416
 **** Fit       0.000068
 **** Fit      -0.000325
 **** Fit      -0.000717
 **** Fit      -0.001053
 **** Fit      -0.001281
 **** Fit      -0.001383
 **** Fit      -0.001374
 **** Fit      -0.001299
 **** Fit      -0.001216
 **** Fit       0.001291
 **** Fit       0.001093
 **** Fit       0.000802
 **** Fit       0.000416
 **** Fit      -0.000046
 **** Fit      -0.000528
 **** Fit      -0.000957
 **** Fit      -0.001268
 **** Fit      -0.001430
 **** Fit      -0.001456
 **** Fit      -0.001393
 **** Fit      -0.001304
 **** Fit      -0.001243
 **** Fit       0.001622
 **** Fit       0.001439
 **** Fit       0.001142
 **** Fit       0.000723
 **** Fit       0.000204
 **** Fit      -0.000353
 **** Fit      -0.000864
 **** Fit      -0.001248
 **** Fit      -0.001466
 **** Fit      -0.001530
 **** Fit      -0.001487
 **** Fit      -0.001401
 **** Fit      -0.001328
 **** Fit       0.001870
 **** Fit       0.001697
 **** Fit       0.001393
 **** Fit       0.000950
 **** Fit       0.000391
 **** Fit      -0.000216
 **** Fit      -0.000779
 **** Fit      -0.001213
 **** Fit      -0.001476
 **** Fit      -0.001575
 **** Fit      -0.001557
 **** Fit      -0.001483
 **** Fit      -0.001407
 **** Fit       0.002016
 **** Fit       0.001846
 **** Fit       0.001533
 **** Fit       0.001075
 **** Fit       0.000500
 **** Fit      -0.000124
 **** Fit      -0.000703
 **** Fit      -0.001156
 **** Fit      -0.001443
 **** Fit      -0.001570
 **** Fit      -0.001578
 **** Fit      -0.001522
 **** Fit       0.002030
 **** Fit       0.001805
 **** Fit       0.001574
 **** Fit       0.001449
 **** Fit       0.001643
 **** Fit       0.001851
 **** Fit       0.002063
 **** Fit       0.001891
 **** Fit       0.001572
 **** Fit       0.001111
 **** Fit       0.000544
 **** Fit      -0.000062
 **** Fit      -0.000622
 **** Fit      -0.001064
 **** Fit      -0.001354
 **** Fit      -0.001498
 **** Fit       0.002350
 **** Fit       0.002204
 **** Fit       0.001970
 **** Fit       0.001676
 **** Fit       0.001374
 **** Fit       0.001133
 **** Fit       0.001012
 **** Fit       0.001040
 **** Fit       0.001205
 **** Fit       0.001456
 **** Fit       0.001723
 **** Fit       0.001937
 **** Fit       0.002049
 **** Fit       0.002026
 **** Fit       0.001857
 **** Fit       0.001542
 **** Fit       0.001096
 **** Fit       0.000561
 **** Fit      -0.000001
 **** Fit      -0.000515
 **** Fit      -0.000924
 **** Fit      -0.001201
 **** Fit       0.002432
 **** Fit       0.002348
 **** Fit       0.002159
 **** Fit       0.001865
 **** Fit       0.001496
 **** Fit       0.001116
 **** Fit       0.000809
 **** Fit       0.000653
 **** Fit       0.000682
 **** Fit       0.000881
 **** Fit       0.001188
 **** Fit       0.001516
 **** Fit       0.001781
 **** Fit       0.001928
 **** Fit       0.001927
 **** Fit       0.001774
 **** Fit       0.001479
 **** Fit       0.001068
 **** Fit       0.000585
 **** Fit       0.000087
 **** Fit      -0.000367
 **** Fit      -0.000731
 **** Fit      -0.000987
 **** Fit       0.002405
 **** Fit       0.002291
 **** Fit       0.002059
 **** Fit       0.001706
 **** Fit       0.001264
 **** Fit       0.000809
 **** Fit       0.000440
 **** Fit       0.000248
 **** Fit       0.000274
 **** Fit       0.000501
 **** Fit       0.000856
 **** Fit       0.001239
 **** Fit       0.001556
 **** Fit       0.001745
 **** Fit       0.001778
 **** Fit       0.001406
 **** Fit       0.001050
 **** Fit       0.000635
 **** Fit       0.000210
 **** Fit      -0.000177
 **** Fit       0.002314
 **** Fit       0.002165
 **** Fit       0.001889
 **** Fit       0.001482
 **** Fit       0.000981
 **** Fit       0.000469
 **** Fit       0.000055
 **** Fit      -0.000165
 **** Fit      -0.000145
 **** Fit       0.000096
 **** Fit       0.000483
 **** Fit       0.000907
 **** Fit       0.001271
 **** Fit       0.001507
 **** Fit       0.001589
 **** Fit       0.001522
 **** Fit       0.002242
 **** Fit       0.002158
 **** Fit       0.001967
 **** Fit       0.001648
 **** Fit       0.001200
 **** Fit       0.000663
 **** Fit       0.000123
 **** Fit      -0.000309
 **** Fit      -0.000540
 **** Fit      -0.000528
 **** Fit      -0.000289
 **** Fit       0.000104
 **** Fit       0.000549
 **** Fit       0.000947
 **** Fit       0.001230
 **** Fit       0.001368
 **** Fit       0.001366
 **** Fit       0.002074
 **** Fit       0.001950
 **** Fit       0.001719
 **** Fit       0.001363
 **** Fit       0.000890
 **** Fit       0.000345
 **** Fit      -0.000188
 **** Fit      -0.000607
 **** Fit      -0.000831
 **** Fit      -0.000826
 **** Fit      -0.000605
 **** Fit      -0.000230
 **** Fit       0.000210
 **** Fit       0.000624
 **** Fit       0.000943
 **** Fit       0.001136
 **** Fit       0.001200
 **** Fit       0.001723
 **** Fit       0.001458
 **** Fit       0.001080
 **** Fit       0.000605
 **** Fit       0.000081
 **** Fit      -0.000414
 **** Fit      -0.000795
 **** Fit      -0.000998
 **** Fit      -0.000997
 **** Fit      -0.000805
 **** Fit      -0.000467
 **** Fit      -0.000056
 **** Fit       0.000349
 **** Fit       0.000686
 **** Fit       0.000919
 **** Fit       0.001510
 **** Fit       0.001230
 **** Fit       0.000852
 **** Fit       0.000401
 **** Fit      -0.000076
 **** Fit      -0.000511
 **** Fit      -0.000839
 **** Fit      -0.001012
 **** Fit      -0.001014
 **** Fit      -0.000854
 **** Fit      -0.000566
 **** Fit      -0.000204
 **** Fit       0.000170
 **** Fit       0.000499
 **** Fit       0.000748
 **** Fit       0.001067
 **** Fit       0.000715
 **** Fit       0.000312
 **** Fit      -0.000098
 **** Fit      -0.000461
 **** Fit      -0.000728
 **** Fit      -0.000868
 **** Fit      -0.000871
 **** Fit      -0.000745
 **** Fit      -0.000514
 **** Fit      -0.000214
 **** Fit       0.000106
 **** Fit       0.000402
 **** Fit       0.000673
 **** Fit       0.000337
 **** Fit       0.000005
 **** Fit      -0.000279
 **** Fit      -0.000484
 **** Fit      -0.000590
 **** Fit      -0.000594
 **** Fit      -0.000502
 **** Fit      -0.000329
 **** Fit      -0.000100
 **** Fit       0.000196
 **** Fit      -0.000011
 **** Fit      -0.000156
 **** Fit      -0.000231
 **** Fit      -0.000235
 **** Fit      -0.000175
 **** Fit      -0.000059
 **** Fit       0.000100
 **** Fit       0.000283
 **** Fit       0.000190
 **** Fit       0.000143
 **** Fit       0.000138
 **** Fit       0.000172
 **** Fit       0.000239
 **** Fit       0.000552
 **** Fit       0.000500
 **** Fit       0.000474
 **** Fit       0.000471
 **** Fit       0.000485
 **** Fit       0.000246
 **** Fit      -0.000093
 **** Fit      -0.000438
 **** Fit      -0.000747
 **** Fit       0.000779
 **** Fit       0.000455
 **** Fit       0.000081
 **** Fit      -0.000309
 **** Fit      -0.000666
 **** Fit      -0.000949
 **** Fit       0.000957
 **** Fit       0.000619
 **** Fit       0.000221
 **** Fit      -0.000198
 **** Fit      -0.000588
 **** Fit      -0.000903
 **** Fit       0.001073
 **** Fit       0.000729
 **** Fit       0.000321
 **** Fit      -0.000109
 **** Fit      -0.000511
 **** Fit      -0.000841
 **** Fit       0.001128
 **** Fit       0.000788
 **** Fit       0.000387
 **** Fit      -0.000035
 **** Fit      -0.000430
 **** Fit      -0.000757
 **** Fit       0.000813
 **** Fit       0.000434
 **** Fit       0.000037
 **** Fit      -0.000334
 **** Fit       0.001582
 **** Fit       0.001331
 **** Fit       0.001082
 **** Fit       0.001042
 **** Fit       0.001227
 **** Fit       0.001697
 **** Fit       0.001443
 **** Fit       0.001148
 **** Fit       0.000856
 **** Fit       0.000623
 **** Fit       0.000494
 **** Fit       0.000493
 **** Fit       0.000609
 **** Fit       0.000804
 **** Fit       0.001022
 **** Fit       0.001209
 **** Fit       0.001775
 **** Fit       0.001557
 **** Fit       0.001268
 **** Fit       0.000936
 **** Fit       0.000611
 **** Fit       0.000351
 **** Fit       0.000208
 **** Fit       0.000203
 **** Fit       0.000328
 **** Fit       0.000541
 **** Fit       0.000786
 **** Fit       0.001005
 **** Fit       0.001152
 **** Fit       0.001627
 **** Fit       0.001381
 **** Fit       0.001065
 **** Fit       0.000710
 **** Fit       0.000367
 **** Fit       0.000095
 **** Fit      -0.000056
 **** Fit      -0.000064
 **** Fit       0.000061
 **** Fit       0.000282
 **** Fit       0.000542
 **** Fit       0.000784
 **** Fit       0.000964
 **** Fit       0.001455
 **** Fit       0.001188
 **** Fit       0.000858
 **** Fit       0.000496
 **** Fit       0.000153
 **** Fit      -0.000116
 **** Fit      -0.000266
 **** Fit      -0.000278
 **** Fit      -0.000158
 **** Fit       0.000058
 **** Fit       0.000319
 **** Fit       0.000573
 **** Fit       0.000776
 **** Fit       0.001005
 **** Fit       0.000674
 **** Fit       0.000323
 **** Fit      -0.000003
 **** Fit      -0.000255
 **** Fit      -0.000395
 **** Fit      -0.000409
 **** Fit      -0.000301
 **** Fit      -0.000101
 **** Fit       0.000148
 **** Fit       0.000399
 **** Fit       0.000543
 **** Fit       0.000218
 **** Fit      -0.000076
 **** Fit      -0.000301
 **** Fit      -0.000173
 -----------------------------------------------------------------
 Leave Link  602 at Mon Mar 20 12:49:45 2017, MaxMem=    33554432 cpu:        36.1
 (Enter /home/michal/g09/l9999.exe)

 Test job not archived.
 1\1\GINC-LINUX\SP\RHF\6-31G(d)\C27H46O1\MICHAL\20-Mar-2017\0\\#P HF/6-
 31G* SCF(Conver=6) NoSymm Test Pop=chelpg IOp(6/33=2) GFInput GFPrint\
 \MEP - Input generated by R.E.D.-III.x MOLECULE\\0,1\O,0,0.42475817,-3
 .38141179,7.25471009\H,0,0.26316741,-4.32293689,7.10853854\C,0,1.50632
 214,1.50149496,0.\C,0,1.10379302,0.,0.\H,0,0.,0.,0.\C,0,1.51600273,-0.
 79196535,1.24759138\H,0,2.61282797,-0.80930152,1.31899289\C,0,0.933675
 81,-0.1154105,2.51629912\H,0,-0.15903653,-0.2435565,2.44219529\C,0,0.9
 5278613,1.92726386,-1.40445186\H,0,-0.14112546,1.95875764,-1.29360897\
 C,0,0.82439628,2.13509406,1.2299177\H,0,-0.26538801,2.09117161,1.08914
 963\H,0,1.08164679,3.19405452,1.33555716\C,0,1.35736453,-0.8441625,3.8
 3995208\C,0,1.53577255,-0.513052,-1.38261517\H,0,0.96278277,-1.3900020
 9,-1.70005474\H,0,2.59118702,-0.81264096,-1.37287835\C,0,1.20389171,1.
 40715265,2.53649779\H,0,2.26291525,1.5938591,2.74376865\H,0,0.65082982
 ,1.86862529,3.3624058\C,0,1.31077616,0.70804842,-2.31735981\H,0,2.2146
 6823,0.92143715,-2.90001552\H,0,0.51546115,0.51676094,-3.04483476\C,0,
 1.0276673,-2.2470566,1.16150493\H,0,1.63379795,-2.80609752,0.43623176\
 H,0,0.00112195,-2.26672738,0.75897372\C,0,1.39473246,3.27780386,-2.020
 86209\H,0,2.48824173,3.24250835,-2.13299968\C,0,3.03715298,1.70684193,
 0.05958983\H,0,3.28129793,2.77343756,0.1089722\H,0,3.486527,1.23311525
 ,0.93576043\H,0,3.54094863,1.29819208,-0.82171087\C,0,1.21277423,-2.36
 397331,3.67703541\C,0,0.40374534,-0.38581782,4.98717212\H,0,-0.6296010
 7,-0.44536536,4.61787053\H,0,0.59099486,0.66863987,5.21734582\C,0,1.05
 145456,-2.95743301,2.48515179\H,0,0.9297016,-4.0408293,2.45510239\C,0,
 2.82564764,-0.52161949,4.22688081\H,0,2.93910895,0.52361348,4.53134583
 \H,0,3.16476113,-1.13784335,5.06324986\H,0,3.50546183,-0.71120694,3.39
 042717\C,0,1.25877101,-3.19083289,4.94854805\H,0,1.05365689,-4.2421740
 1,4.70880082\H,0,2.26100935,-3.1590035,5.39892296\C,0,0.50712154,-1.20
 522109,6.28176335\H,0,1.49412754,-1.08976684,6.74678165\H,0,-0.2273369
 4,-0.84630685,7.01171096\C,0,0.83956142,3.48281005,-3.45707589\H,0,1.2
 9330057,4.40176424,-3.85092216\H,0,1.1982229,2.67293281,-4.10526773\C,
 0,0.27233921,-2.68557882,6.01132139\H,0,-0.75623526,-2.82222493,5.6383
 1952\C,0,1.06548442,4.49860546,-1.14137911\H,0,0.01093353,4.51604161,-
 0.84415849\H,0,1.27286929,5.42848963,-1.68421853\H,0,1.66411491,4.5174
 1288,-0.22730644\C,0,-0.6896609,3.57650542,-3.59168683\H,0,-1.14996918
 ,2.67766242,-3.16211802\H,0,-1.06896784,4.41776994,-2.99893641\C,0,-1.
 18419382,3.70110807,-5.04562157\H,0,-2.28306583,3.64639767,-5.04780724
 \H,0,-0.83681139,2.82234857,-5.608242\C,0,-0.76735252,4.96987325,-5.81
 998321\H,0,0.33071809,5.02002773,-5.83644915\C,0,-1.28867159,6.2568871
 4,-5.16125276\H,0,-0.90005511,6.38871109,-4.1463119\H,0,-0.99771473,7.
 13937416,-5.74239006\H,0,-2.38481111,6.24625374,-5.10002236\C,0,-1.244
 50583,4.8801429,-7.27852911\H,0,-0.84891225,3.98609884,-7.77415215\H,0
 ,-0.92378115,5.75408576,-7.85698959\H,0,-2.33995704,4.83177021,-7.3293
 9504\\Version=EM64L-G09RevD.01\HF=-1124.0783879\RMSD=4.517e-07\Dipole=
 -0.0797399,-0.1768051,-0.6246996\Quadrupole=3.8288565,8.9609803,-12.78
 98368,1.8998953,-2.72447,1.2913986\PG=C01 [X(C27H46O1)]\\@


 SACRED COWS MAKE GREAT HAMBURGERS -- ROBERT REISNER
 Job cpu time:       0 days  0 hours 10 minutes 47.3 seconds.
 File lengths (MBytes):  RWF=    142 Int=      0 D2E=      0 Chk=     10 Scr=      1
 Normal termination of Gaussian 09 at Mon Mar 20 12:49:45 2017.
