 Entering Gaussian System, Link 0=/home/michal/g09/g09
 Input=JOB2-gau_m1-2-2.com
 Output=JOB2-gau_m1-2-2.log
 Initial command:
 /home/michal/g09/l1.exe "/home/michal/gauss_scratch/Gau-15355.inp" -scrdir="/home/michal/gauss_scratch/"
 Entering Link 1 = /home/michal/g09/l1.exe PID=     15356.
  
 Copyright (c) 1988,1990,1992,1993,1995,1998,2003,2009,2013,
            Gaussian, Inc.  All Rights Reserved.
  
 This is part of the Gaussian(R) 09 program.  It is based on
 the Gaussian(R) 03 system (copyright 2003, Gaussian, Inc.),
 the Gaussian(R) 98 system (copyright 1998, Gaussian, Inc.),
 the Gaussian(R) 94 system (copyright 1995, Gaussian, Inc.),
 the Gaussian 92(TM) system (copyright 1992, Gaussian, Inc.),
 the Gaussian 90(TM) system (copyright 1990, Gaussian, Inc.),
 the Gaussian 88(TM) system (copyright 1988, Gaussian, Inc.),
 the Gaussian 86(TM) system (copyright 1986, Carnegie Mellon
 University), and the Gaussian 82(TM) system (copyright 1983,
 Carnegie Mellon University). Gaussian is a federally registered
 trademark of Gaussian, Inc.
  
 This software contains proprietary and confidential information,
 including trade secrets, belonging to Gaussian, Inc.
  
 This software is provided under written license and may be
 used, copied, transmitted, or stored only in accord with that
 written license.
  
 The following legend is applicable only to US Government
 contracts under FAR:
  
                    RESTRICTED RIGHTS LEGEND
  
 Use, reproduction and disclosure by the US Government is
 subject to restrictions as set forth in subparagraphs (a)
 and (c) of the Commercial Computer Software - Restricted
 Rights clause in FAR 52.227-19.
  
 Gaussian, Inc.
 340 Quinnipiac St., Bldg. 40, Wallingford CT 06492
  
  
 ---------------------------------------------------------------
 Warning -- This program may not be used in any manner that
 competes with the business of Gaussian, Inc. or will provide
 assistance to any competitor of Gaussian, Inc.  The licensee
 of this program is prohibited from giving any competitor of
 Gaussian, Inc. access to this program.  By using this program,
 the user acknowledges that Gaussian, Inc. is engaged in the
 business of creating and licensing software in the field of
 computational chemistry and represents and warrants to the
 licensee that it is not a competitor of Gaussian, Inc. and that
 it will not use this program in any manner prohibited above.
 ---------------------------------------------------------------
  

 Cite this work as:
 Gaussian 09, Revision D.01,
 M. J. Frisch, G. W. Trucks, H. B. Schlegel, G. E. Scuseria, 
 M. A. Robb, J. R. Cheeseman, G. Scalmani, V. Barone, B. Mennucci, 
 G. A. Petersson, H. Nakatsuji, M. Caricato, X. Li, H. P. Hratchian, 
 A. F. Izmaylov, J. Bloino, G. Zheng, J. L. Sonnenberg, M. Hada, 
 M. Ehara, K. Toyota, R. Fukuda, J. Hasegawa, M. Ishida, T. Nakajima, 
 Y. Honda, O. Kitao, H. Nakai, T. Vreven, J. A. Montgomery, Jr., 
 J. E. Peralta, F. Ogliaro, M. Bearpark, J. J. Heyd, E. Brothers, 
 K. N. Kudin, V. N. Staroverov, T. Keith, R. Kobayashi, J. Normand, 
 K. Raghavachari, A. Rendell, J. C. Burant, S. S. Iyengar, J. Tomasi, 
 M. Cossi, N. Rega, J. M. Millam, M. Klene, J. E. Knox, J. B. Cross, 
 V. Bakken, C. Adamo, J. Jaramillo, R. Gomperts, R. E. Stratmann, 
 O. Yazyev, A. J. Austin, R. Cammi, C. Pomelli, J. W. Ochterski, 
 R. L. Martin, K. Morokuma, V. G. Zakrzewski, G. A. Voth, 
 P. Salvador, J. J. Dannenberg, S. Dapprich, A. D. Daniels, 
 O. Farkas, J. B. Foresman, J. V. Ortiz, J. Cioslowski, 
 and D. J. Fox, Gaussian, Inc., Wallingford CT, 2013.
 
 ******************************************
 Gaussian 09:  EM64L-G09RevD.01 24-Apr-2013
                20-Mar-2017 
 ******************************************
 %Mem=256MB
 %NProc=12
 Will use up to   12 processors via shared memory.
 ----------------------------------------------------------------------
 #P HF/6-31G* SCF(Conver=6) NoSymm Test Pop=chelpg IOp(6/33=2) GFInput 
 GFPrint
 ----------------------------------------------------------------------
 1/38=1/1;
 2/12=2,15=1,17=6,18=5,40=1/2;
 3/5=1,6=6,7=1,11=9,16=1,24=110,25=1,30=1/1,2,3;
 4//1;
 5/5=2,6=6,38=5/2;
 6/7=2,8=2,9=2,10=2,15=8,20=3,28=1,33=2/1,2;
 99/5=1,9=1/99;
 Leave Link    1 at Mon Mar 20 11:45:21 2017, MaxMem=    33554432 cpu:         0.6
 (Enter /home/michal/g09/l101.exe)
 ----------------------------------------------
 MEP - Input generated by R.E.D.-III.x MOLECULE
 ----------------------------------------------
 Symbolic Z-matrix:
 Charge =  0 Multiplicity = 1
 O                     0.43972  -3.39448   7.25107 
 H                     0.27548  -4.33539   7.1039 
 C                     1.50747   1.50149   0. 
 C                     1.1039    0.        0. 
 H                     0.        0.        0. 
 C                     1.51738  -0.79497   1.24571 
 H                     2.61433  -0.81461   1.31458 
 C                     0.94003  -0.12019   2.5172 
 H                    -0.15327  -0.24496   2.44589 
 C                     0.9514    1.93396  -1.40208 
 H                    -0.1434    1.98874  -1.29118 
 C                     0.83081   2.13186   1.23525 
 H                    -0.25949   2.08804   1.09836 
 H                     1.08729   3.19031   1.34411 
 C                     1.36561  -0.85262   3.83822 
 C                     1.53577  -0.50999  -1.38247 
 H                     0.97583  -1.39678  -1.69575 
 H                     2.59612  -0.79157  -1.37767 
 C                     1.21501   1.40111   2.53861 
 H                     2.27568   1.58446   2.74068 
 H                     0.66746   1.86334   3.36778 
 C                     1.28283   0.70465  -2.31692 
 H                     2.16561   0.91438  -2.93278 
 H                     0.46312   0.50287  -3.01285 
 C                     1.02606  -2.249     1.15769 
 H                     1.62967  -2.80784   0.43017 
 H                    -0.00132  -2.26594   0.75718 
 C                     1.40344   3.27963  -2.02746 
 H                     2.48796   3.21863  -2.20633 
 C                     3.03963   1.70201   0.0529 
 H                     3.2884    2.76701   0.10694 
 H                     3.49188   1.22084   0.92355 
 H                     3.53685   1.29736  -0.83393 
 C                     1.21745  -2.37162   3.67256 
 C                     0.41589  -0.39486   4.98888 
 H                    -0.61856  -0.45248   4.62241 
 H                     0.60515   0.65901   5.22018 
 C                     1.05147  -2.96212   2.47985 
 H                     0.92733  -4.0452    2.44778 
 C                     2.83537  -0.53334   4.22208 
 H                     2.95142   0.51193   4.52537 
 H                     3.17456  -1.14965   5.05834 
 H                     3.51309  -0.72509   3.38442 
 C                     1.26581  -3.20121   4.94224 
 H                     1.05767  -4.25164   4.70105 
 H                     2.26968  -3.17243   5.38914 
 C                     0.52206  -1.21665   6.28176 
 H                     1.51073  -1.10352   6.7438 
 H                    -0.2095   -0.85787   7.01468 
 C                     0.72545   3.48412  -3.40532 
 H                     0.81908   2.56518  -3.99512 
 H                    -0.35388   3.63507  -3.24853 
 C                     0.28402  -2.69616   6.00946 
 H                    -0.74611  -2.83043   5.63991 
 C                     1.13972   4.49144  -1.11632 
 H                     0.07979   4.54886  -0.83795 
 H                     1.40146   5.42816  -1.61718 
 H                     1.7241    4.45017  -0.19464 
 C                     1.28203   4.64049  -4.25271 
 H                     1.12552   5.59536  -3.73843 
 H                     2.36905   4.51505  -4.35045 
 C                     0.63611   4.69949  -5.64678 
 H                    -0.45362   4.78371  -5.52497 
 H                     0.8097    3.74022  -6.15559 
 C                     1.10849   5.83696  -6.58217 
 H                     0.54815   5.70747  -7.52002 
 C                     2.60251   5.73465  -6.93135 
 H                     2.85337   4.74288  -7.32586 
 H                     2.87699   6.47525  -7.69122 
 H                     3.23564   5.91588  -6.05512 
 C                     0.76244   7.23396  -6.0404 
 H                    -0.30341   7.31477  -5.79648 
 H                     0.99477   8.00759  -6.7812 
 H                     1.3319    7.4694   -5.1339 
 
 NAtoms=     74 NQM=       74 NQMF=       0 NMMI=      0 NMMIF=      0
                NMic=       0 NMicF=      0.
                    Isotopes and Nuclear Properties:
 (Nuclear quadrupole moments (NQMom) in fm**2, nuclear magnetic moments (NMagM)
  in nuclear magnetons)

  Atom         1           2           3           4           5           6           7           8           9          10
 IAtWgt=          16           1          12          12           1          12           1          12           1          12
 AtmWgt=  15.9949146   1.0078250  12.0000000  12.0000000   1.0078250  12.0000000   1.0078250  12.0000000   1.0078250  12.0000000
 NucSpn=           0           1           0           0           1           0           1           0           1           0
 AtZEff=   0.0000000   0.0000000   0.0000000   0.0000000   0.0000000   0.0000000   0.0000000   0.0000000   0.0000000   0.0000000
 NQMom=    0.0000000   0.0000000   0.0000000   0.0000000   0.0000000   0.0000000   0.0000000   0.0000000   0.0000000   0.0000000
 NMagM=    0.0000000   2.7928460   0.0000000   0.0000000   2.7928460   0.0000000   2.7928460   0.0000000   2.7928460   0.0000000
 AtZNuc=   8.0000000   1.0000000   6.0000000   6.0000000   1.0000000   6.0000000   1.0000000   6.0000000   1.0000000   6.0000000

  Atom        11          12          13          14          15          16          17          18          19          20
 IAtWgt=           1          12           1           1          12          12           1           1          12           1
 AtmWgt=   1.0078250  12.0000000   1.0078250   1.0078250  12.0000000  12.0000000   1.0078250   1.0078250  12.0000000   1.0078250
 NucSpn=           1           0           1           1           0           0           1           1           0           1
 AtZEff=   0.0000000   0.0000000   0.0000000   0.0000000   0.0000000   0.0000000   0.0000000   0.0000000   0.0000000   0.0000000
 NQMom=    0.0000000   0.0000000   0.0000000   0.0000000   0.0000000   0.0000000   0.0000000   0.0000000   0.0000000   0.0000000
 NMagM=    2.7928460   0.0000000   2.7928460   2.7928460   0.0000000   0.0000000   2.7928460   2.7928460   0.0000000   2.7928460
 AtZNuc=   1.0000000   6.0000000   1.0000000   1.0000000   6.0000000   6.0000000   1.0000000   1.0000000   6.0000000   1.0000000

  Atom        21          22          23          24          25          26          27          28          29          30
 IAtWgt=           1          12           1           1          12           1           1          12           1          12
 AtmWgt=   1.0078250  12.0000000   1.0078250   1.0078250  12.0000000   1.0078250   1.0078250  12.0000000   1.0078250  12.0000000
 NucSpn=           1           0           1           1           0           1           1           0           1           0
 AtZEff=   0.0000000   0.0000000   0.0000000   0.0000000   0.0000000   0.0000000   0.0000000   0.0000000   0.0000000   0.0000000
 NQMom=    0.0000000   0.0000000   0.0000000   0.0000000   0.0000000   0.0000000   0.0000000   0.0000000   0.0000000   0.0000000
 NMagM=    2.7928460   0.0000000   2.7928460   2.7928460   0.0000000   2.7928460   2.7928460   0.0000000   2.7928460   0.0000000
 AtZNuc=   1.0000000   6.0000000   1.0000000   1.0000000   6.0000000   1.0000000   1.0000000   6.0000000   1.0000000   6.0000000

  Atom        31          32          33          34          35          36          37          38          39          40
 IAtWgt=           1           1           1          12          12           1           1          12           1          12
 AtmWgt=   1.0078250   1.0078250   1.0078250  12.0000000  12.0000000   1.0078250   1.0078250  12.0000000   1.0078250  12.0000000
 NucSpn=           1           1           1           0           0           1           1           0           1           0
 AtZEff=   0.0000000   0.0000000   0.0000000   0.0000000   0.0000000   0.0000000   0.0000000   0.0000000   0.0000000   0.0000000
 NQMom=    0.0000000   0.0000000   0.0000000   0.0000000   0.0000000   0.0000000   0.0000000   0.0000000   0.0000000   0.0000000
 NMagM=    2.7928460   2.7928460   2.7928460   0.0000000   0.0000000   2.7928460   2.7928460   0.0000000   2.7928460   0.0000000
 AtZNuc=   1.0000000   1.0000000   1.0000000   6.0000000   6.0000000   1.0000000   1.0000000   6.0000000   1.0000000   6.0000000

  Atom        41          42          43          44          45          46          47          48          49          50
 IAtWgt=           1           1           1          12           1           1          12           1           1          12
 AtmWgt=   1.0078250   1.0078250   1.0078250  12.0000000   1.0078250   1.0078250  12.0000000   1.0078250   1.0078250  12.0000000
 NucSpn=           1           1           1           0           1           1           0           1           1           0
 AtZEff=   0.0000000   0.0000000   0.0000000   0.0000000   0.0000000   0.0000000   0.0000000   0.0000000   0.0000000   0.0000000
 NQMom=    0.0000000   0.0000000   0.0000000   0.0000000   0.0000000   0.0000000   0.0000000   0.0000000   0.0000000   0.0000000
 NMagM=    2.7928460   2.7928460   2.7928460   0.0000000   2.7928460   2.7928460   0.0000000   2.7928460   2.7928460   0.0000000
 AtZNuc=   1.0000000   1.0000000   1.0000000   6.0000000   1.0000000   1.0000000   6.0000000   1.0000000   1.0000000   6.0000000

  Atom        51          52          53          54          55          56          57          58          59          60
 IAtWgt=           1           1          12           1          12           1           1           1          12           1
 AtmWgt=   1.0078250   1.0078250  12.0000000   1.0078250  12.0000000   1.0078250   1.0078250   1.0078250  12.0000000   1.0078250
 NucSpn=           1           1           0           1           0           1           1           1           0           1
 AtZEff=   0.0000000   0.0000000   0.0000000   0.0000000   0.0000000   0.0000000   0.0000000   0.0000000   0.0000000   0.0000000
 NQMom=    0.0000000   0.0000000   0.0000000   0.0000000   0.0000000   0.0000000   0.0000000   0.0000000   0.0000000   0.0000000
 NMagM=    2.7928460   2.7928460   0.0000000   2.7928460   0.0000000   2.7928460   2.7928460   2.7928460   0.0000000   2.7928460
 AtZNuc=   1.0000000   1.0000000   6.0000000   1.0000000   6.0000000   1.0000000   1.0000000   1.0000000   6.0000000   1.0000000

  Atom        61          62          63          64          65          66          67          68          69          70
 IAtWgt=           1          12           1           1          12           1          12           1           1           1
 AtmWgt=   1.0078250  12.0000000   1.0078250   1.0078250  12.0000000   1.0078250  12.0000000   1.0078250   1.0078250   1.0078250
 NucSpn=           1           0           1           1           0           1           0           1           1           1
 AtZEff=   0.0000000   0.0000000   0.0000000   0.0000000   0.0000000   0.0000000   0.0000000   0.0000000   0.0000000   0.0000000
 NQMom=    0.0000000   0.0000000   0.0000000   0.0000000   0.0000000   0.0000000   0.0000000   0.0000000   0.0000000   0.0000000
 NMagM=    2.7928460   0.0000000   2.7928460   2.7928460   0.0000000   2.7928460   0.0000000   2.7928460   2.7928460   2.7928460
 AtZNuc=   1.0000000   6.0000000   1.0000000   1.0000000   6.0000000   1.0000000   6.0000000   1.0000000   1.0000000   1.0000000

  Atom        71          72          73          74
 IAtWgt=          12           1           1           1
 AtmWgt=  12.0000000   1.0078250   1.0078250   1.0078250
 NucSpn=           0           1           1           1
 AtZEff=   0.0000000   0.0000000   0.0000000   0.0000000
 NQMom=    0.0000000   0.0000000   0.0000000   0.0000000
 NMagM=    0.0000000   2.7928460   2.7928460   2.7928460
 AtZNuc=   6.0000000   1.0000000   1.0000000   1.0000000
 Leave Link  101 at Mon Mar 20 11:45:21 2017, MaxMem=    33554432 cpu:         1.0
 (Enter /home/michal/g09/l202.exe)
 Symmetry turned off by external request.
 Stoichiometry    C27H46O
 Framework group  C1[X(C27H46O)]
 Deg. of freedom   216
 Full point group                 C1      NOp   1
                          Input orientation:                          
 ---------------------------------------------------------------------
 Center     Atomic      Atomic             Coordinates (Angstroms)
 Number     Number       Type             X           Y           Z
 ---------------------------------------------------------------------
      1          8           0        0.439721   -3.394480    7.251067
      2          1           0        0.275477   -4.335387    7.103902
      3          6           0        1.507470    1.501488    0.000000
      4          6           0        1.103902    0.000000    0.000000
      5          1           0        0.000000    0.000000    0.000000
      6          6           0        1.517376   -0.794969    1.245708
      7          1           0        2.614335   -0.814615    1.314575
      8          6           0        0.940029   -0.120187    2.517197
      9          1           0       -0.153274   -0.244961    2.445890
     10          6           0        0.951401    1.933963   -1.402083
     11          1           0       -0.143404    1.988735   -1.291184
     12          6           0        0.830809    2.131857    1.235249
     13          1           0       -0.259493    2.088036    1.098362
     14          1           0        1.087286    3.190308    1.344110
     15          6           0        1.365610   -0.852622    3.838220
     16          6           0        1.535772   -0.509986   -1.382469
     17          1           0        0.975827   -1.396777   -1.695752
     18          1           0        2.596120   -0.791565   -1.377670
     19          6           0        1.215007    1.401108    2.538606
     20          1           0        2.275677    1.584460    2.740676
     21          1           0        0.667456    1.863342    3.367785
     22          6           0        1.282828    0.704655   -2.316917
     23          1           0        2.165607    0.914378   -2.932785
     24          1           0        0.463119    0.502875   -3.012848
     25          6           0        1.026064   -2.249002    1.157686
     26          1           0        1.629672   -2.807839    0.430170
     27          1           0       -0.001325   -2.265939    0.757180
     28          6           0        1.403443    3.279633   -2.027463
     29          1           0        2.487957    3.218632   -2.206331
     30          6           0        3.039628    1.702015    0.052902
     31          1           0        3.288395    2.767011    0.106943
     32          1           0        3.491877    1.220839    0.923549
     33          1           0        3.536853    1.297362   -0.833929
     34          6           0        1.217446   -2.371624    3.672564
     35          6           0        0.415886   -0.394856    4.988878
     36          1           0       -0.618558   -0.452477    4.622409
     37          1           0        0.605145    0.659014    5.220177
     38          6           0        1.051465   -2.962124    2.479849
     39          1           0        0.927330   -4.045198    2.447775
     40          6           0        2.835366   -0.533341    4.222080
     41          1           0        2.951418    0.511934    4.525373
     42          1           0        3.174555   -1.149655    5.058342
     43          1           0        3.513093   -0.725095    3.384424
     44          6           0        1.265813   -3.201213    4.942244
     45          1           0        1.057674   -4.251636    4.701054
     46          1           0        2.269675   -3.172427    5.389139
     47          6           0        0.522055   -1.216645    6.281757
     48          1           0        1.510725   -1.103518    6.743802
     49          1           0       -0.209504   -0.857872    7.014680
     50          6           0        0.725446    3.484122   -3.405323
     51          1           0        0.819079    2.565181   -3.995124
     52          1           0       -0.353876    3.635066   -3.248529
     53          6           0        0.284024   -2.696163    6.009461
     54          1           0       -0.746112   -2.830429    5.639915
     55          6           0        1.139715    4.491444   -1.116325
     56          1           0        0.079787    4.548856   -0.837954
     57          1           0        1.401464    5.428161   -1.617184
     58          1           0        1.724103    4.450166   -0.194639
     59          6           0        1.282026    4.640495   -4.252709
     60          1           0        1.125522    5.595357   -3.738427
     61          1           0        2.369049    4.515051   -4.350452
     62          6           0        0.636109    4.699490   -5.646782
     63          1           0       -0.453618    4.783708   -5.524972
     64          1           0        0.809701    3.740218   -6.155587
     65          6           0        1.108489    5.836963   -6.582167
     66          1           0        0.548151    5.707472   -7.520018
     67          6           0        2.602514    5.734651   -6.931348
     68          1           0        2.853369    4.742880   -7.325856
     69          1           0        2.876989    6.475252   -7.691222
     70          1           0        3.235644    5.915878   -6.055120
     71          6           0        0.762444    7.233956   -6.040405
     72          1           0       -0.303411    7.314767   -5.796475
     73          1           0        0.994770    8.007591   -6.781202
     74          1           0        1.331902    7.469404   -5.133903
 ---------------------------------------------------------------------
 Rotational constants (GHZ):      0.6256465      0.0526175      0.0506182
 Leave Link  202 at Mon Mar 20 11:45:21 2017, MaxMem=    33554432 cpu:         0.0
 (Enter /home/michal/g09/l301.exe)
 Standard basis: 6-31G(d) (6D, 7F)
 Ernie: Thresh=  0.10000D-02 Tol=  0.10000D-05 Strict=F.
 AO basis set in the form of general basis input (Overlap normalization):
      1 0
 S   6 1.00       0.000000000000
      0.5484671660D+04  0.1831074430D-02
      0.8252349460D+03  0.1395017220D-01
      0.1880469580D+03  0.6844507810D-01
      0.5296450000D+02  0.2327143360D+00
      0.1689757040D+02  0.4701928980D+00
      0.5799635340D+01  0.3585208530D+00
 SP   3 1.00       0.000000000000
      0.1553961625D+02 -0.1107775495D+00  0.7087426823D-01
      0.3599933586D+01 -0.1480262627D+00  0.3397528391D+00
      0.1013761750D+01  0.1130767015D+01  0.7271585773D+00
 SP   1 1.00       0.000000000000
      0.2700058226D+00  0.1000000000D+01  0.1000000000D+01
 D   1 1.00       0.000000000000
      0.8000000000D+00  0.1000000000D+01
 ****
      2 0
 S   3 1.00       0.000000000000
      0.1873113696D+02  0.3349460434D-01
      0.2825394365D+01  0.2347269535D+00
      0.6401216923D+00  0.8137573261D+00
 S   1 1.00       0.000000000000
      0.1612777588D+00  0.1000000000D+01
 ****
      3 0
 S   6 1.00       0.000000000000
      0.3047524880D+04  0.1834737132D-02
      0.4573695180D+03  0.1403732281D-01
      0.1039486850D+03  0.6884262226D-01
      0.2921015530D+02  0.2321844432D+00
      0.9286662960D+01  0.4679413484D+00
      0.3163926960D+01  0.3623119853D+00
 SP   3 1.00       0.000000000000
      0.7868272350D+01 -0.1193324198D+00  0.6899906659D-01
      0.1881288540D+01 -0.1608541517D+00  0.3164239610D+00
      0.5442492580D+00  0.1143456438D+01  0.7443082909D+00
 SP   1 1.00       0.000000000000
      0.1687144782D+00  0.1000000000D+01  0.1000000000D+01
 D   1 1.00       0.000000000000
      0.8000000000D+00  0.1000000000D+01
 ****
      4 0
 S   6 1.00       0.000000000000
      0.3047524880D+04  0.1834737132D-02
      0.4573695180D+03  0.1403732281D-01
      0.1039486850D+03  0.6884262226D-01
      0.2921015530D+02  0.2321844432D+00
      0.9286662960D+01  0.4679413484D+00
      0.3163926960D+01  0.3623119853D+00
 SP   3 1.00       0.000000000000
      0.7868272350D+01 -0.1193324198D+00  0.6899906659D-01
      0.1881288540D+01 -0.1608541517D+00  0.3164239610D+00
      0.5442492580D+00  0.1143456438D+01  0.7443082909D+00
 SP   1 1.00       0.000000000000
      0.1687144782D+00  0.1000000000D+01  0.1000000000D+01
 D   1 1.00       0.000000000000
      0.8000000000D+00  0.1000000000D+01
 ****
      5 0
 S   3 1.00       0.000000000000
      0.1873113696D+02  0.3349460434D-01
      0.2825394365D+01  0.2347269535D+00
      0.6401216923D+00  0.8137573261D+00
 S   1 1.00       0.000000000000
      0.1612777588D+00  0.1000000000D+01
 ****
      6 0
 S   6 1.00       0.000000000000
      0.3047524880D+04  0.1834737132D-02
      0.4573695180D+03  0.1403732281D-01
      0.1039486850D+03  0.6884262226D-01
      0.2921015530D+02  0.2321844432D+00
      0.9286662960D+01  0.4679413484D+00
      0.3163926960D+01  0.3623119853D+00
 SP   3 1.00       0.000000000000
      0.7868272350D+01 -0.1193324198D+00  0.6899906659D-01
      0.1881288540D+01 -0.1608541517D+00  0.3164239610D+00
      0.5442492580D+00  0.1143456438D+01  0.7443082909D+00
 SP   1 1.00       0.000000000000
      0.1687144782D+00  0.1000000000D+01  0.1000000000D+01
 D   1 1.00       0.000000000000
      0.8000000000D+00  0.1000000000D+01
 ****
      7 0
 S   3 1.00       0.000000000000
      0.1873113696D+02  0.3349460434D-01
      0.2825394365D+01  0.2347269535D+00
      0.6401216923D+00  0.8137573261D+00
 S   1 1.00       0.000000000000
      0.1612777588D+00  0.1000000000D+01
 ****
      8 0
 S   6 1.00       0.000000000000
      0.3047524880D+04  0.1834737132D-02
      0.4573695180D+03  0.1403732281D-01
      0.1039486850D+03  0.6884262226D-01
      0.2921015530D+02  0.2321844432D+00
      0.9286662960D+01  0.4679413484D+00
      0.3163926960D+01  0.3623119853D+00
 SP   3 1.00       0.000000000000
      0.7868272350D+01 -0.1193324198D+00  0.6899906659D-01
      0.1881288540D+01 -0.1608541517D+00  0.3164239610D+00
      0.5442492580D+00  0.1143456438D+01  0.7443082909D+00
 SP   1 1.00       0.000000000000
      0.1687144782D+00  0.1000000000D+01  0.1000000000D+01
 D   1 1.00       0.000000000000
      0.8000000000D+00  0.1000000000D+01
 ****
      9 0
 S   3 1.00       0.000000000000
      0.1873113696D+02  0.3349460434D-01
      0.2825394365D+01  0.2347269535D+00
      0.6401216923D+00  0.8137573261D+00
 S   1 1.00       0.000000000000
      0.1612777588D+00  0.1000000000D+01
 ****
     10 0
 S   6 1.00       0.000000000000
      0.3047524880D+04  0.1834737132D-02
      0.4573695180D+03  0.1403732281D-01
      0.1039486850D+03  0.6884262226D-01
      0.2921015530D+02  0.2321844432D+00
      0.9286662960D+01  0.4679413484D+00
      0.3163926960D+01  0.3623119853D+00
 SP   3 1.00       0.000000000000
      0.7868272350D+01 -0.1193324198D+00  0.6899906659D-01
      0.1881288540D+01 -0.1608541517D+00  0.3164239610D+00
      0.5442492580D+00  0.1143456438D+01  0.7443082909D+00
 SP   1 1.00       0.000000000000
      0.1687144782D+00  0.1000000000D+01  0.1000000000D+01
 D   1 1.00       0.000000000000
      0.8000000000D+00  0.1000000000D+01
 ****
     11 0
 S   3 1.00       0.000000000000
      0.1873113696D+02  0.3349460434D-01
      0.2825394365D+01  0.2347269535D+00
      0.6401216923D+00  0.8137573261D+00
 S   1 1.00       0.000000000000
      0.1612777588D+00  0.1000000000D+01
 ****
     12 0
 S   6 1.00       0.000000000000
      0.3047524880D+04  0.1834737132D-02
      0.4573695180D+03  0.1403732281D-01
      0.1039486850D+03  0.6884262226D-01
      0.2921015530D+02  0.2321844432D+00
      0.9286662960D+01  0.4679413484D+00
      0.3163926960D+01  0.3623119853D+00
 SP   3 1.00       0.000000000000
      0.7868272350D+01 -0.1193324198D+00  0.6899906659D-01
      0.1881288540D+01 -0.1608541517D+00  0.3164239610D+00
      0.5442492580D+00  0.1143456438D+01  0.7443082909D+00
 SP   1 1.00       0.000000000000
      0.1687144782D+00  0.1000000000D+01  0.1000000000D+01
 D   1 1.00       0.000000000000
      0.8000000000D+00  0.1000000000D+01
 ****
     13 0
 S   3 1.00       0.000000000000
      0.1873113696D+02  0.3349460434D-01
      0.2825394365D+01  0.2347269535D+00
      0.6401216923D+00  0.8137573261D+00
 S   1 1.00       0.000000000000
      0.1612777588D+00  0.1000000000D+01
 ****
     14 0
 S   3 1.00       0.000000000000
      0.1873113696D+02  0.3349460434D-01
      0.2825394365D+01  0.2347269535D+00
      0.6401216923D+00  0.8137573261D+00
 S   1 1.00       0.000000000000
      0.1612777588D+00  0.1000000000D+01
 ****
     15 0
 S   6 1.00       0.000000000000
      0.3047524880D+04  0.1834737132D-02
      0.4573695180D+03  0.1403732281D-01
      0.1039486850D+03  0.6884262226D-01
      0.2921015530D+02  0.2321844432D+00
      0.9286662960D+01  0.4679413484D+00
      0.3163926960D+01  0.3623119853D+00
 SP   3 1.00       0.000000000000
      0.7868272350D+01 -0.1193324198D+00  0.6899906659D-01
      0.1881288540D+01 -0.1608541517D+00  0.3164239610D+00
      0.5442492580D+00  0.1143456438D+01  0.7443082909D+00
 SP   1 1.00       0.000000000000
      0.1687144782D+00  0.1000000000D+01  0.1000000000D+01
 D   1 1.00       0.000000000000
      0.8000000000D+00  0.1000000000D+01
 ****
     16 0
 S   6 1.00       0.000000000000
      0.3047524880D+04  0.1834737132D-02
      0.4573695180D+03  0.1403732281D-01
      0.1039486850D+03  0.6884262226D-01
      0.2921015530D+02  0.2321844432D+00
      0.9286662960D+01  0.4679413484D+00
      0.3163926960D+01  0.3623119853D+00
 SP   3 1.00       0.000000000000
      0.7868272350D+01 -0.1193324198D+00  0.6899906659D-01
      0.1881288540D+01 -0.1608541517D+00  0.3164239610D+00
      0.5442492580D+00  0.1143456438D+01  0.7443082909D+00
 SP   1 1.00       0.000000000000
      0.1687144782D+00  0.1000000000D+01  0.1000000000D+01
 D   1 1.00       0.000000000000
      0.8000000000D+00  0.1000000000D+01
 ****
     17 0
 S   3 1.00       0.000000000000
      0.1873113696D+02  0.3349460434D-01
      0.2825394365D+01  0.2347269535D+00
      0.6401216923D+00  0.8137573261D+00
 S   1 1.00       0.000000000000
      0.1612777588D+00  0.1000000000D+01
 ****
     18 0
 S   3 1.00       0.000000000000
      0.1873113696D+02  0.3349460434D-01
      0.2825394365D+01  0.2347269535D+00
      0.6401216923D+00  0.8137573261D+00
 S   1 1.00       0.000000000000
      0.1612777588D+00  0.1000000000D+01
 ****
     19 0
 S   6 1.00       0.000000000000
      0.3047524880D+04  0.1834737132D-02
      0.4573695180D+03  0.1403732281D-01
      0.1039486850D+03  0.6884262226D-01
      0.2921015530D+02  0.2321844432D+00
      0.9286662960D+01  0.4679413484D+00
      0.3163926960D+01  0.3623119853D+00
 SP   3 1.00       0.000000000000
      0.7868272350D+01 -0.1193324198D+00  0.6899906659D-01
      0.1881288540D+01 -0.1608541517D+00  0.3164239610D+00
      0.5442492580D+00  0.1143456438D+01  0.7443082909D+00
 SP   1 1.00       0.000000000000
      0.1687144782D+00  0.1000000000D+01  0.1000000000D+01
 D   1 1.00       0.000000000000
      0.8000000000D+00  0.1000000000D+01
 ****
     20 0
 S   3 1.00       0.000000000000
      0.1873113696D+02  0.3349460434D-01
      0.2825394365D+01  0.2347269535D+00
      0.6401216923D+00  0.8137573261D+00
 S   1 1.00       0.000000000000
      0.1612777588D+00  0.1000000000D+01
 ****
     21 0
 S   3 1.00       0.000000000000
      0.1873113696D+02  0.3349460434D-01
      0.2825394365D+01  0.2347269535D+00
      0.6401216923D+00  0.8137573261D+00
 S   1 1.00       0.000000000000
      0.1612777588D+00  0.1000000000D+01
 ****
     22 0
 S   6 1.00       0.000000000000
      0.3047524880D+04  0.1834737132D-02
      0.4573695180D+03  0.1403732281D-01
      0.1039486850D+03  0.6884262226D-01
      0.2921015530D+02  0.2321844432D+00
      0.9286662960D+01  0.4679413484D+00
      0.3163926960D+01  0.3623119853D+00
 SP   3 1.00       0.000000000000
      0.7868272350D+01 -0.1193324198D+00  0.6899906659D-01
      0.1881288540D+01 -0.1608541517D+00  0.3164239610D+00
      0.5442492580D+00  0.1143456438D+01  0.7443082909D+00
 SP   1 1.00       0.000000000000
      0.1687144782D+00  0.1000000000D+01  0.1000000000D+01
 D   1 1.00       0.000000000000
      0.8000000000D+00  0.1000000000D+01
 ****
     23 0
 S   3 1.00       0.000000000000
      0.1873113696D+02  0.3349460434D-01
      0.2825394365D+01  0.2347269535D+00
      0.6401216923D+00  0.8137573261D+00
 S   1 1.00       0.000000000000
      0.1612777588D+00  0.1000000000D+01
 ****
     24 0
 S   3 1.00       0.000000000000
      0.1873113696D+02  0.3349460434D-01
      0.2825394365D+01  0.2347269535D+00
      0.6401216923D+00  0.8137573261D+00
 S   1 1.00       0.000000000000
      0.1612777588D+00  0.1000000000D+01
 ****
     25 0
 S   6 1.00       0.000000000000
      0.3047524880D+04  0.1834737132D-02
      0.4573695180D+03  0.1403732281D-01
      0.1039486850D+03  0.6884262226D-01
      0.2921015530D+02  0.2321844432D+00
      0.9286662960D+01  0.4679413484D+00
      0.3163926960D+01  0.3623119853D+00
 SP   3 1.00       0.000000000000
      0.7868272350D+01 -0.1193324198D+00  0.6899906659D-01
      0.1881288540D+01 -0.1608541517D+00  0.3164239610D+00
      0.5442492580D+00  0.1143456438D+01  0.7443082909D+00
 SP   1 1.00       0.000000000000
      0.1687144782D+00  0.1000000000D+01  0.1000000000D+01
 D   1 1.00       0.000000000000
      0.8000000000D+00  0.1000000000D+01
 ****
     26 0
 S   3 1.00       0.000000000000
      0.1873113696D+02  0.3349460434D-01
      0.2825394365D+01  0.2347269535D+00
      0.6401216923D+00  0.8137573261D+00
 S   1 1.00       0.000000000000
      0.1612777588D+00  0.1000000000D+01
 ****
     27 0
 S   3 1.00       0.000000000000
      0.1873113696D+02  0.3349460434D-01
      0.2825394365D+01  0.2347269535D+00
      0.6401216923D+00  0.8137573261D+00
 S   1 1.00       0.000000000000
      0.1612777588D+00  0.1000000000D+01
 ****
     28 0
 S   6 1.00       0.000000000000
      0.3047524880D+04  0.1834737132D-02
      0.4573695180D+03  0.1403732281D-01
      0.1039486850D+03  0.6884262226D-01
      0.2921015530D+02  0.2321844432D+00
      0.9286662960D+01  0.4679413484D+00
      0.3163926960D+01  0.3623119853D+00
 SP   3 1.00       0.000000000000
      0.7868272350D+01 -0.1193324198D+00  0.6899906659D-01
      0.1881288540D+01 -0.1608541517D+00  0.3164239610D+00
      0.5442492580D+00  0.1143456438D+01  0.7443082909D+00
 SP   1 1.00       0.000000000000
      0.1687144782D+00  0.1000000000D+01  0.1000000000D+01
 D   1 1.00       0.000000000000
      0.8000000000D+00  0.1000000000D+01
 ****
     29 0
 S   3 1.00       0.000000000000
      0.1873113696D+02  0.3349460434D-01
      0.2825394365D+01  0.2347269535D+00
      0.6401216923D+00  0.8137573261D+00
 S   1 1.00       0.000000000000
      0.1612777588D+00  0.1000000000D+01
 ****
     30 0
 S   6 1.00       0.000000000000
      0.3047524880D+04  0.1834737132D-02
      0.4573695180D+03  0.1403732281D-01
      0.1039486850D+03  0.6884262226D-01
      0.2921015530D+02  0.2321844432D+00
      0.9286662960D+01  0.4679413484D+00
      0.3163926960D+01  0.3623119853D+00
 SP   3 1.00       0.000000000000
      0.7868272350D+01 -0.1193324198D+00  0.6899906659D-01
      0.1881288540D+01 -0.1608541517D+00  0.3164239610D+00
      0.5442492580D+00  0.1143456438D+01  0.7443082909D+00
 SP   1 1.00       0.000000000000
      0.1687144782D+00  0.1000000000D+01  0.1000000000D+01
 D   1 1.00       0.000000000000
      0.8000000000D+00  0.1000000000D+01
 ****
     31 0
 S   3 1.00       0.000000000000
      0.1873113696D+02  0.3349460434D-01
      0.2825394365D+01  0.2347269535D+00
      0.6401216923D+00  0.8137573261D+00
 S   1 1.00       0.000000000000
      0.1612777588D+00  0.1000000000D+01
 ****
     32 0
 S   3 1.00       0.000000000000
      0.1873113696D+02  0.3349460434D-01
      0.2825394365D+01  0.2347269535D+00
      0.6401216923D+00  0.8137573261D+00
 S   1 1.00       0.000000000000
      0.1612777588D+00  0.1000000000D+01
 ****
     33 0
 S   3 1.00       0.000000000000
      0.1873113696D+02  0.3349460434D-01
      0.2825394365D+01  0.2347269535D+00
      0.6401216923D+00  0.8137573261D+00
 S   1 1.00       0.000000000000
      0.1612777588D+00  0.1000000000D+01
 ****
     34 0
 S   6 1.00       0.000000000000
      0.3047524880D+04  0.1834737132D-02
      0.4573695180D+03  0.1403732281D-01
      0.1039486850D+03  0.6884262226D-01
      0.2921015530D+02  0.2321844432D+00
      0.9286662960D+01  0.4679413484D+00
      0.3163926960D+01  0.3623119853D+00
 SP   3 1.00       0.000000000000
      0.7868272350D+01 -0.1193324198D+00  0.6899906659D-01
      0.1881288540D+01 -0.1608541517D+00  0.3164239610D+00
      0.5442492580D+00  0.1143456438D+01  0.7443082909D+00
 SP   1 1.00       0.000000000000
      0.1687144782D+00  0.1000000000D+01  0.1000000000D+01
 D   1 1.00       0.000000000000
      0.8000000000D+00  0.1000000000D+01
 ****
     35 0
 S   6 1.00       0.000000000000
      0.3047524880D+04  0.1834737132D-02
      0.4573695180D+03  0.1403732281D-01
      0.1039486850D+03  0.6884262226D-01
      0.2921015530D+02  0.2321844432D+00
      0.9286662960D+01  0.4679413484D+00
      0.3163926960D+01  0.3623119853D+00
 SP   3 1.00       0.000000000000
      0.7868272350D+01 -0.1193324198D+00  0.6899906659D-01
      0.1881288540D+01 -0.1608541517D+00  0.3164239610D+00
      0.5442492580D+00  0.1143456438D+01  0.7443082909D+00
 SP   1 1.00       0.000000000000
      0.1687144782D+00  0.1000000000D+01  0.1000000000D+01
 D   1 1.00       0.000000000000
      0.8000000000D+00  0.1000000000D+01
 ****
     36 0
 S   3 1.00       0.000000000000
      0.1873113696D+02  0.3349460434D-01
      0.2825394365D+01  0.2347269535D+00
      0.6401216923D+00  0.8137573261D+00
 S   1 1.00       0.000000000000
      0.1612777588D+00  0.1000000000D+01
 ****
     37 0
 S   3 1.00       0.000000000000
      0.1873113696D+02  0.3349460434D-01
      0.2825394365D+01  0.2347269535D+00
      0.6401216923D+00  0.8137573261D+00
 S   1 1.00       0.000000000000
      0.1612777588D+00  0.1000000000D+01
 ****
     38 0
 S   6 1.00       0.000000000000
      0.3047524880D+04  0.1834737132D-02
      0.4573695180D+03  0.1403732281D-01
      0.1039486850D+03  0.6884262226D-01
      0.2921015530D+02  0.2321844432D+00
      0.9286662960D+01  0.4679413484D+00
      0.3163926960D+01  0.3623119853D+00
 SP   3 1.00       0.000000000000
      0.7868272350D+01 -0.1193324198D+00  0.6899906659D-01
      0.1881288540D+01 -0.1608541517D+00  0.3164239610D+00
      0.5442492580D+00  0.1143456438D+01  0.7443082909D+00
 SP   1 1.00       0.000000000000
      0.1687144782D+00  0.1000000000D+01  0.1000000000D+01
 D   1 1.00       0.000000000000
      0.8000000000D+00  0.1000000000D+01
 ****
     39 0
 S   3 1.00       0.000000000000
      0.1873113696D+02  0.3349460434D-01
      0.2825394365D+01  0.2347269535D+00
      0.6401216923D+00  0.8137573261D+00
 S   1 1.00       0.000000000000
      0.1612777588D+00  0.1000000000D+01
 ****
     40 0
 S   6 1.00       0.000000000000
      0.3047524880D+04  0.1834737132D-02
      0.4573695180D+03  0.1403732281D-01
      0.1039486850D+03  0.6884262226D-01
      0.2921015530D+02  0.2321844432D+00
      0.9286662960D+01  0.4679413484D+00
      0.3163926960D+01  0.3623119853D+00
 SP   3 1.00       0.000000000000
      0.7868272350D+01 -0.1193324198D+00  0.6899906659D-01
      0.1881288540D+01 -0.1608541517D+00  0.3164239610D+00
      0.5442492580D+00  0.1143456438D+01  0.7443082909D+00
 SP   1 1.00       0.000000000000
      0.1687144782D+00  0.1000000000D+01  0.1000000000D+01
 D   1 1.00       0.000000000000
      0.8000000000D+00  0.1000000000D+01
 ****
     41 0
 S   3 1.00       0.000000000000
      0.1873113696D+02  0.3349460434D-01
      0.2825394365D+01  0.2347269535D+00
      0.6401216923D+00  0.8137573261D+00
 S   1 1.00       0.000000000000
      0.1612777588D+00  0.1000000000D+01
 ****
     42 0
 S   3 1.00       0.000000000000
      0.1873113696D+02  0.3349460434D-01
      0.2825394365D+01  0.2347269535D+00
      0.6401216923D+00  0.8137573261D+00
 S   1 1.00       0.000000000000
      0.1612777588D+00  0.1000000000D+01
 ****
     43 0
 S   3 1.00       0.000000000000
      0.1873113696D+02  0.3349460434D-01
      0.2825394365D+01  0.2347269535D+00
      0.6401216923D+00  0.8137573261D+00
 S   1 1.00       0.000000000000
      0.1612777588D+00  0.1000000000D+01
 ****
     44 0
 S   6 1.00       0.000000000000
      0.3047524880D+04  0.1834737132D-02
      0.4573695180D+03  0.1403732281D-01
      0.1039486850D+03  0.6884262226D-01
      0.2921015530D+02  0.2321844432D+00
      0.9286662960D+01  0.4679413484D+00
      0.3163926960D+01  0.3623119853D+00
 SP   3 1.00       0.000000000000
      0.7868272350D+01 -0.1193324198D+00  0.6899906659D-01
      0.1881288540D+01 -0.1608541517D+00  0.3164239610D+00
      0.5442492580D+00  0.1143456438D+01  0.7443082909D+00
 SP   1 1.00       0.000000000000
      0.1687144782D+00  0.1000000000D+01  0.1000000000D+01
 D   1 1.00       0.000000000000
      0.8000000000D+00  0.1000000000D+01
 ****
     45 0
 S   3 1.00       0.000000000000
      0.1873113696D+02  0.3349460434D-01
      0.2825394365D+01  0.2347269535D+00
      0.6401216923D+00  0.8137573261D+00
 S   1 1.00       0.000000000000
      0.1612777588D+00  0.1000000000D+01
 ****
     46 0
 S   3 1.00       0.000000000000
      0.1873113696D+02  0.3349460434D-01
      0.2825394365D+01  0.2347269535D+00
      0.6401216923D+00  0.8137573261D+00
 S   1 1.00       0.000000000000
      0.1612777588D+00  0.1000000000D+01
 ****
     47 0
 S   6 1.00       0.000000000000
      0.3047524880D+04  0.1834737132D-02
      0.4573695180D+03  0.1403732281D-01
      0.1039486850D+03  0.6884262226D-01
      0.2921015530D+02  0.2321844432D+00
      0.9286662960D+01  0.4679413484D+00
      0.3163926960D+01  0.3623119853D+00
 SP   3 1.00       0.000000000000
      0.7868272350D+01 -0.1193324198D+00  0.6899906659D-01
      0.1881288540D+01 -0.1608541517D+00  0.3164239610D+00
      0.5442492580D+00  0.1143456438D+01  0.7443082909D+00
 SP   1 1.00       0.000000000000
      0.1687144782D+00  0.1000000000D+01  0.1000000000D+01
 D   1 1.00       0.000000000000
      0.8000000000D+00  0.1000000000D+01
 ****
     48 0
 S   3 1.00       0.000000000000
      0.1873113696D+02  0.3349460434D-01
      0.2825394365D+01  0.2347269535D+00
      0.6401216923D+00  0.8137573261D+00
 S   1 1.00       0.000000000000
      0.1612777588D+00  0.1000000000D+01
 ****
     49 0
 S   3 1.00       0.000000000000
      0.1873113696D+02  0.3349460434D-01
      0.2825394365D+01  0.2347269535D+00
      0.6401216923D+00  0.8137573261D+00
 S   1 1.00       0.000000000000
      0.1612777588D+00  0.1000000000D+01
 ****
     50 0
 S   6 1.00       0.000000000000
      0.3047524880D+04  0.1834737132D-02
      0.4573695180D+03  0.1403732281D-01
      0.1039486850D+03  0.6884262226D-01
      0.2921015530D+02  0.2321844432D+00
      0.9286662960D+01  0.4679413484D+00
      0.3163926960D+01  0.3623119853D+00
 SP   3 1.00       0.000000000000
      0.7868272350D+01 -0.1193324198D+00  0.6899906659D-01
      0.1881288540D+01 -0.1608541517D+00  0.3164239610D+00
      0.5442492580D+00  0.1143456438D+01  0.7443082909D+00
 SP   1 1.00       0.000000000000
      0.1687144782D+00  0.1000000000D+01  0.1000000000D+01
 D   1 1.00       0.000000000000
      0.8000000000D+00  0.1000000000D+01
 ****
     51 0
 S   3 1.00       0.000000000000
      0.1873113696D+02  0.3349460434D-01
      0.2825394365D+01  0.2347269535D+00
      0.6401216923D+00  0.8137573261D+00
 S   1 1.00       0.000000000000
      0.1612777588D+00  0.1000000000D+01
 ****
     52 0
 S   3 1.00       0.000000000000
      0.1873113696D+02  0.3349460434D-01
      0.2825394365D+01  0.2347269535D+00
      0.6401216923D+00  0.8137573261D+00
 S   1 1.00       0.000000000000
      0.1612777588D+00  0.1000000000D+01
 ****
     53 0
 S   6 1.00       0.000000000000
      0.3047524880D+04  0.1834737132D-02
      0.4573695180D+03  0.1403732281D-01
      0.1039486850D+03  0.6884262226D-01
      0.2921015530D+02  0.2321844432D+00
      0.9286662960D+01  0.4679413484D+00
      0.3163926960D+01  0.3623119853D+00
 SP   3 1.00       0.000000000000
      0.7868272350D+01 -0.1193324198D+00  0.6899906659D-01
      0.1881288540D+01 -0.1608541517D+00  0.3164239610D+00
      0.5442492580D+00  0.1143456438D+01  0.7443082909D+00
 SP   1 1.00       0.000000000000
      0.1687144782D+00  0.1000000000D+01  0.1000000000D+01
 D   1 1.00       0.000000000000
      0.8000000000D+00  0.1000000000D+01
 ****
     54 0
 S   3 1.00       0.000000000000
      0.1873113696D+02  0.3349460434D-01
      0.2825394365D+01  0.2347269535D+00
      0.6401216923D+00  0.8137573261D+00
 S   1 1.00       0.000000000000
      0.1612777588D+00  0.1000000000D+01
 ****
     55 0
 S   6 1.00       0.000000000000
      0.3047524880D+04  0.1834737132D-02
      0.4573695180D+03  0.1403732281D-01
      0.1039486850D+03  0.6884262226D-01
      0.2921015530D+02  0.2321844432D+00
      0.9286662960D+01  0.4679413484D+00
      0.3163926960D+01  0.3623119853D+00
 SP   3 1.00       0.000000000000
      0.7868272350D+01 -0.1193324198D+00  0.6899906659D-01
      0.1881288540D+01 -0.1608541517D+00  0.3164239610D+00
      0.5442492580D+00  0.1143456438D+01  0.7443082909D+00
 SP   1 1.00       0.000000000000
      0.1687144782D+00  0.1000000000D+01  0.1000000000D+01
 D   1 1.00       0.000000000000
      0.8000000000D+00  0.1000000000D+01
 ****
     56 0
 S   3 1.00       0.000000000000
      0.1873113696D+02  0.3349460434D-01
      0.2825394365D+01  0.2347269535D+00
      0.6401216923D+00  0.8137573261D+00
 S   1 1.00       0.000000000000
      0.1612777588D+00  0.1000000000D+01
 ****
     57 0
 S   3 1.00       0.000000000000
      0.1873113696D+02  0.3349460434D-01
      0.2825394365D+01  0.2347269535D+00
      0.6401216923D+00  0.8137573261D+00
 S   1 1.00       0.000000000000
      0.1612777588D+00  0.1000000000D+01
 ****
     58 0
 S   3 1.00       0.000000000000
      0.1873113696D+02  0.3349460434D-01
      0.2825394365D+01  0.2347269535D+00
      0.6401216923D+00  0.8137573261D+00
 S   1 1.00       0.000000000000
      0.1612777588D+00  0.1000000000D+01
 ****
     59 0
 S   6 1.00       0.000000000000
      0.3047524880D+04  0.1834737132D-02
      0.4573695180D+03  0.1403732281D-01
      0.1039486850D+03  0.6884262226D-01
      0.2921015530D+02  0.2321844432D+00
      0.9286662960D+01  0.4679413484D+00
      0.3163926960D+01  0.3623119853D+00
 SP   3 1.00       0.000000000000
      0.7868272350D+01 -0.1193324198D+00  0.6899906659D-01
      0.1881288540D+01 -0.1608541517D+00  0.3164239610D+00
      0.5442492580D+00  0.1143456438D+01  0.7443082909D+00
 SP   1 1.00       0.000000000000
      0.1687144782D+00  0.1000000000D+01  0.1000000000D+01
 D   1 1.00       0.000000000000
      0.8000000000D+00  0.1000000000D+01
 ****
     60 0
 S   3 1.00       0.000000000000
      0.1873113696D+02  0.3349460434D-01
      0.2825394365D+01  0.2347269535D+00
      0.6401216923D+00  0.8137573261D+00
 S   1 1.00       0.000000000000
      0.1612777588D+00  0.1000000000D+01
 ****
     61 0
 S   3 1.00       0.000000000000
      0.1873113696D+02  0.3349460434D-01
      0.2825394365D+01  0.2347269535D+00
      0.6401216923D+00  0.8137573261D+00
 S   1 1.00       0.000000000000
      0.1612777588D+00  0.1000000000D+01
 ****
     62 0
 S   6 1.00       0.000000000000
      0.3047524880D+04  0.1834737132D-02
      0.4573695180D+03  0.1403732281D-01
      0.1039486850D+03  0.6884262226D-01
      0.2921015530D+02  0.2321844432D+00
      0.9286662960D+01  0.4679413484D+00
      0.3163926960D+01  0.3623119853D+00
 SP   3 1.00       0.000000000000
      0.7868272350D+01 -0.1193324198D+00  0.6899906659D-01
      0.1881288540D+01 -0.1608541517D+00  0.3164239610D+00
      0.5442492580D+00  0.1143456438D+01  0.7443082909D+00
 SP   1 1.00       0.000000000000
      0.1687144782D+00  0.1000000000D+01  0.1000000000D+01
 D   1 1.00       0.000000000000
      0.8000000000D+00  0.1000000000D+01
 ****
     63 0
 S   3 1.00       0.000000000000
      0.1873113696D+02  0.3349460434D-01
      0.2825394365D+01  0.2347269535D+00
      0.6401216923D+00  0.8137573261D+00
 S   1 1.00       0.000000000000
      0.1612777588D+00  0.1000000000D+01
 ****
     64 0
 S   3 1.00       0.000000000000
      0.1873113696D+02  0.3349460434D-01
      0.2825394365D+01  0.2347269535D+00
      0.6401216923D+00  0.8137573261D+00
 S   1 1.00       0.000000000000
      0.1612777588D+00  0.1000000000D+01
 ****
     65 0
 S   6 1.00       0.000000000000
      0.3047524880D+04  0.1834737132D-02
      0.4573695180D+03  0.1403732281D-01
      0.1039486850D+03  0.6884262226D-01
      0.2921015530D+02  0.2321844432D+00
      0.9286662960D+01  0.4679413484D+00
      0.3163926960D+01  0.3623119853D+00
 SP   3 1.00       0.000000000000
      0.7868272350D+01 -0.1193324198D+00  0.6899906659D-01
      0.1881288540D+01 -0.1608541517D+00  0.3164239610D+00
      0.5442492580D+00  0.1143456438D+01  0.7443082909D+00
 SP   1 1.00       0.000000000000
      0.1687144782D+00  0.1000000000D+01  0.1000000000D+01
 D   1 1.00       0.000000000000
      0.8000000000D+00  0.1000000000D+01
 ****
     66 0
 S   3 1.00       0.000000000000
      0.1873113696D+02  0.3349460434D-01
      0.2825394365D+01  0.2347269535D+00
      0.6401216923D+00  0.8137573261D+00
 S   1 1.00       0.000000000000
      0.1612777588D+00  0.1000000000D+01
 ****
     67 0
 S   6 1.00       0.000000000000
      0.3047524880D+04  0.1834737132D-02
      0.4573695180D+03  0.1403732281D-01
      0.1039486850D+03  0.6884262226D-01
      0.2921015530D+02  0.2321844432D+00
      0.9286662960D+01  0.4679413484D+00
      0.3163926960D+01  0.3623119853D+00
 SP   3 1.00       0.000000000000
      0.7868272350D+01 -0.1193324198D+00  0.6899906659D-01
      0.1881288540D+01 -0.1608541517D+00  0.3164239610D+00
      0.5442492580D+00  0.1143456438D+01  0.7443082909D+00
 SP   1 1.00       0.000000000000
      0.1687144782D+00  0.1000000000D+01  0.1000000000D+01
 D   1 1.00       0.000000000000
      0.8000000000D+00  0.1000000000D+01
 ****
     68 0
 S   3 1.00       0.000000000000
      0.1873113696D+02  0.3349460434D-01
      0.2825394365D+01  0.2347269535D+00
      0.6401216923D+00  0.8137573261D+00
 S   1 1.00       0.000000000000
      0.1612777588D+00  0.1000000000D+01
 ****
     69 0
 S   3 1.00       0.000000000000
      0.1873113696D+02  0.3349460434D-01
      0.2825394365D+01  0.2347269535D+00
      0.6401216923D+00  0.8137573261D+00
 S   1 1.00       0.000000000000
      0.1612777588D+00  0.1000000000D+01
 ****
     70 0
 S   3 1.00       0.000000000000
      0.1873113696D+02  0.3349460434D-01
      0.2825394365D+01  0.2347269535D+00
      0.6401216923D+00  0.8137573261D+00
 S   1 1.00       0.000000000000
      0.1612777588D+00  0.1000000000D+01
 ****
     71 0
 S   6 1.00       0.000000000000
      0.3047524880D+04  0.1834737132D-02
      0.4573695180D+03  0.1403732281D-01
      0.1039486850D+03  0.6884262226D-01
      0.2921015530D+02  0.2321844432D+00
      0.9286662960D+01  0.4679413484D+00
      0.3163926960D+01  0.3623119853D+00
 SP   3 1.00       0.000000000000
      0.7868272350D+01 -0.1193324198D+00  0.6899906659D-01
      0.1881288540D+01 -0.1608541517D+00  0.3164239610D+00
      0.5442492580D+00  0.1143456438D+01  0.7443082909D+00
 SP   1 1.00       0.000000000000
      0.1687144782D+00  0.1000000000D+01  0.1000000000D+01
 D   1 1.00       0.000000000000
      0.8000000000D+00  0.1000000000D+01
 ****
     72 0
 S   3 1.00       0.000000000000
      0.1873113696D+02  0.3349460434D-01
      0.2825394365D+01  0.2347269535D+00
      0.6401216923D+00  0.8137573261D+00
 S   1 1.00       0.000000000000
      0.1612777588D+00  0.1000000000D+01
 ****
     73 0
 S   3 1.00       0.000000000000
      0.1873113696D+02  0.3349460434D-01
      0.2825394365D+01  0.2347269535D+00
      0.6401216923D+00  0.8137573261D+00
 S   1 1.00       0.000000000000
      0.1612777588D+00  0.1000000000D+01
 ****
     74 0
 S   3 1.00       0.000000000000
      0.1873113696D+02  0.3349460434D-01
      0.2825394365D+01  0.2347269535D+00
      0.6401216923D+00  0.8137573261D+00
 S   1 1.00       0.000000000000
      0.1612777588D+00  0.1000000000D+01
 ****

 AO basis set (Overlap normalization):
 Atom O1       Shell     1 S   6     bf    1 -     1          0.830951641269         -6.414638243859         13.702529969725
      0.5484671660D+04  0.1831074430D-02
      0.8252349460D+03  0.1395017220D-01
      0.1880469580D+03  0.6844507810D-01
      0.5296450000D+02  0.2327143360D+00
      0.1689757040D+02  0.4701928980D+00
      0.5799635340D+01  0.3585208530D+00
 Atom O1       Shell     2 SP   3    bf    2 -     5          0.830951641269         -6.414638243859         13.702529969725
      0.1553961625D+02 -0.1107775495D+00  0.7087426823D-01
      0.3599933586D+01 -0.1480262627D+00  0.3397528391D+00
      0.1013761750D+01  0.1130767015D+01  0.7271585773D+00
 Atom O1       Shell     3 SP   1    bf    6 -     9          0.830951641269         -6.414638243859         13.702529969725
      0.2700058226D+00  0.1000000000D+01  0.1000000000D+01
 Atom O1       Shell     4 D   1     bf   10 -    15          0.830951641269         -6.414638243859         13.702529969725
      0.8000000000D+00  0.1000000000D+01
 Atom H2       Shell     5 S   3     bf   16 -    16          0.520576652827         -8.192693996689         13.424429972955
      0.1873113696D+02  0.3349460434D-01
      0.2825394365D+01  0.2347269535D+00
      0.6401216923D+00  0.8137573261D+00
 Atom H2       Shell     6 S   1     bf   17 -    17          0.520576652827         -8.192693996689         13.424429972955
      0.1612777588D+00  0.1000000000D+01
 Atom C3       Shell     7 S   6     bf   18 -    18          2.848705774795          2.837401905499          0.000000000000
      0.3047524880D+04  0.1834737132D-02
      0.4573695180D+03  0.1403732281D-01
      0.1039486850D+03  0.6884262226D-01
      0.2921015530D+02  0.2321844432D+00
      0.9286662960D+01  0.4679413484D+00
      0.3163926960D+01  0.3623119853D+00
 Atom C3       Shell     8 SP   3    bf   19 -    22          2.848705774795          2.837401905499          0.000000000000
      0.7868272350D+01 -0.1193324198D+00  0.6899906659D-01
      0.1881288540D+01 -0.1608541517D+00  0.3164239610D+00
      0.5442492580D+00  0.1143456438D+01  0.7443082909D+00
 Atom C3       Shell     9 SP   1    bf   23 -    26          2.848705774795          2.837401905499          0.000000000000
      0.1687144782D+00  0.1000000000D+01  0.1000000000D+01
 Atom C3       Shell    10 D   1     bf   27 -    32          2.848705774795          2.837401905499          0.000000000000
      0.8000000000D+00  0.1000000000D+01
 Atom C4       Shell    11 S   6     bf   33 -    33          2.086071966216          0.000000000000          0.000000000000
      0.3047524880D+04  0.1834737132D-02
      0.4573695180D+03  0.1403732281D-01
      0.1039486850D+03  0.6884262226D-01
      0.2921015530D+02  0.2321844432D+00
      0.9286662960D+01  0.4679413484D+00
      0.3163926960D+01  0.3623119853D+00
 Atom C4       Shell    12 SP   3    bf   34 -    37          2.086071966216          0.000000000000          0.000000000000
      0.7868272350D+01 -0.1193324198D+00  0.6899906659D-01
      0.1881288540D+01 -0.1608541517D+00  0.3164239610D+00
      0.5442492580D+00  0.1143456438D+01  0.7443082909D+00
 Atom C4       Shell    13 SP   1    bf   38 -    41          2.086071966216          0.000000000000          0.000000000000
      0.1687144782D+00  0.1000000000D+01  0.1000000000D+01
 Atom C4       Shell    14 D   1     bf   42 -    47          2.086071966216          0.000000000000          0.000000000000
      0.8000000000D+00  0.1000000000D+01
 Atom H5       Shell    15 S   3     bf   48 -    48          0.000000000000          0.000000000000          0.000000000000
      0.1873113696D+02  0.3349460434D-01
      0.2825394365D+01  0.2347269535D+00
      0.6401216923D+00  0.8137573261D+00
 Atom H5       Shell    16 S   1     bf   49 -    49          0.000000000000          0.000000000000          0.000000000000
      0.1612777588D+00  0.1000000000D+01
 Atom C6       Shell    17 S   6     bf   50 -    50          2.867425874298         -1.502273202805          2.354047585154
      0.3047524880D+04  0.1834737132D-02
      0.4573695180D+03  0.1403732281D-01
      0.1039486850D+03  0.6884262226D-01
      0.2921015530D+02  0.2321844432D+00
      0.9286662960D+01  0.4679413484D+00
      0.3163926960D+01  0.3623119853D+00
 Atom C6       Shell    18 SP   3    bf   51 -    54          2.867425874298         -1.502273202805          2.354047585154
      0.7868272350D+01 -0.1193324198D+00  0.6899906659D-01
      0.1881288540D+01 -0.1608541517D+00  0.3164239610D+00
      0.5442492580D+00  0.1143456438D+01  0.7443082909D+00
 Atom C6       Shell    19 SP   1    bf   55 -    58          2.867425874298         -1.502273202805          2.354047585154
      0.1687144782D+00  0.1000000000D+01  0.1000000000D+01
 Atom C6       Shell    20 D   1     bf   59 -    64          2.867425874298         -1.502273202805          2.354047585154
      0.8000000000D+00  0.1000000000D+01
 Atom H7       Shell    21 S   3     bf   65 -    65          4.940376300344         -1.539399197049          2.484187222467
      0.1873113696D+02  0.3349460434D-01
      0.2825394365D+01  0.2347269535D+00
      0.6401216923D+00  0.8137573261D+00
 Atom H7       Shell    22 S   1     bf   66 -    66          4.940376300344         -1.539399197049          2.484187222467
      0.1612777588D+00  0.1000000000D+01
 Atom C8       Shell    23 S   6     bf   67 -    67          1.776396762258         -0.227119758843          4.756813387158
      0.3047524880D+04  0.1834737132D-02
      0.4573695180D+03  0.1403732281D-01
      0.1039486850D+03  0.6884262226D-01
      0.2921015530D+02  0.2321844432D+00
      0.9286662960D+01  0.4679413484D+00
      0.3163926960D+01  0.3623119853D+00
 Atom C8       Shell    24 SP   3    bf   68 -    71          1.776396762258         -0.227119758843          4.756813387158
      0.7868272350D+01 -0.1193324198D+00  0.6899906659D-01
      0.1881288540D+01 -0.1608541517D+00  0.3164239610D+00
      0.5442492580D+00  0.1143456438D+01  0.7443082909D+00
 Atom C8       Shell    25 SP   1    bf   72 -    75          1.776396762258         -0.227119758843          4.756813387158
      0.1687144782D+00  0.1000000000D+01  0.1000000000D+01
 Atom C8       Shell    26 D   1     bf   76 -    81          1.776396762258         -0.227119758843          4.756813387158
      0.8000000000D+00  0.1000000000D+01
 Atom H9       Shell    27 S   3     bf   82 -    82         -0.289645146299         -0.462909978026          4.622062175575
      0.1873113696D+02  0.3349460434D-01
      0.2825394365D+01  0.2347269535D+00
      0.6401216923D+00  0.8137573261D+00
 Atom H9       Shell    28 S   1     bf   83 -    83         -0.289645146299         -0.462909978026          4.622062175575
      0.1612777588D+00  0.1000000000D+01
 Atom C10      Shell    29 S   6     bf   84 -    84          1.797887105786          3.654660666798         -2.649553773746
      0.3047524880D+04  0.1834737132D-02
      0.4573695180D+03  0.1403732281D-01
      0.1039486850D+03  0.6884262226D-01
      0.2921015530D+02  0.2321844432D+00
      0.9286662960D+01  0.4679413484D+00
      0.3163926960D+01  0.3623119853D+00
 Atom C10      Shell    30 SP   3    bf   85 -    88          1.797887105786          3.654660666798         -2.649553773746
      0.7868272350D+01 -0.1193324198D+00  0.6899906659D-01
      0.1881288540D+01 -0.1608541517D+00  0.3164239610D+00
      0.5442492580D+00  0.1143456438D+01  0.7443082909D+00
 Atom C10      Shell    31 SP   1    bf   89 -    92          1.797887105786          3.654660666798         -2.649553773746
      0.1687144782D+00  0.1000000000D+01  0.1000000000D+01
 Atom C10      Shell    32 D   1     bf   93 -    98          1.797887105786          3.654660666798         -2.649553773746
      0.8000000000D+00  0.1000000000D+01
 Atom H11      Shell    33 S   3     bf   99 -    99         -0.270993681648          3.758165105597         -2.439984657390
      0.1873113696D+02  0.3349460434D-01
      0.2825394365D+01  0.2347269535D+00
      0.6401216923D+00  0.8137573261D+00
 Atom H11      Shell    34 S   1     bf  100 -   100         -0.270993681648          3.758165105597         -2.439984657390
      0.1612777588D+00  0.1000000000D+01
 Atom C12      Shell    35 S   6     bf  101 -   101          1.570001006305          4.028625695503          2.334283185195
      0.3047524880D+04  0.1834737132D-02
      0.4573695180D+03  0.1403732281D-01
      0.1039486850D+03  0.6884262226D-01
      0.2921015530D+02  0.2321844432D+00
      0.9286662960D+01  0.4679413484D+00
      0.3163926960D+01  0.3623119853D+00
 Atom C12      Shell    36 SP   3    bf  102 -   105          1.570001006305          4.028625695503          2.334283185195
      0.7868272350D+01 -0.1193324198D+00  0.6899906659D-01
      0.1881288540D+01 -0.1608541517D+00  0.3164239610D+00
      0.5442492580D+00  0.1143456438D+01  0.7443082909D+00
 Atom C12      Shell    37 SP   1    bf  106 -   109          1.570001006305          4.028625695503          2.334283185195
      0.1687144782D+00  0.1000000000D+01  0.1000000000D+01
 Atom C12      Shell    38 D   1     bf  110 -   115          1.570001006305          4.028625695503          2.334283185195
      0.8000000000D+00  0.1000000000D+01
 Atom H13      Shell    39 S   3     bf  116 -   116         -0.490371308113          3.945815931044          2.075603374769
      0.1873113696D+02  0.3349460434D-01
      0.2825394365D+01  0.2347269535D+00
      0.6401216923D+00  0.8137573261D+00
 Atom H13      Shell    40 S   1     bf  117 -   117         -0.490371308113          3.945815931044          2.075603374769
      0.1612777588D+00  0.1000000000D+01
 Atom H14      Shell    41 S   3     bf  118 -   118          2.054672805915          6.028807568075          2.540000510569
      0.1873113696D+02  0.3349460434D-01
      0.2825394365D+01  0.2347269535D+00
      0.6401216923D+00  0.8137573261D+00
 Atom H14      Shell    42 S   1     bf  119 -   119          2.054672805915          6.028807568075          2.540000510569
      0.1612777588D+00  0.1000000000D+01
 Atom C15      Shell    43 S   6     bf  120 -   120          2.580628035056         -1.611221526853          7.253184051949
      0.3047524880D+04  0.1834737132D-02
      0.4573695180D+03  0.1403732281D-01
      0.1039486850D+03  0.6884262226D-01
      0.2921015530D+02  0.2321844432D+00
      0.9286662960D+01  0.4679413484D+00
      0.3163926960D+01  0.3623119853D+00
 Atom C15      Shell    44 SP   3    bf  121 -   124          2.580628035056         -1.611221526853          7.253184051949
      0.7868272350D+01 -0.1193324198D+00  0.6899906659D-01
      0.1881288540D+01 -0.1608541517D+00  0.3164239610D+00
      0.5442492580D+00  0.1143456438D+01  0.7443082909D+00
 Atom C15      Shell    45 SP   1    bf  125 -   128          2.580628035056         -1.611221526853          7.253184051949
      0.1687144782D+00  0.1000000000D+01  0.1000000000D+01
 Atom C15      Shell    46 D   1     bf  129 -   134          2.580628035056         -1.611221526853          7.253184051949
      0.8000000000D+00  0.1000000000D+01
 Atom C16      Shell    47 S   6     bf  135 -   135          2.902189011677         -0.963734797572         -2.612487740512
      0.3047524880D+04  0.1834737132D-02
      0.4573695180D+03  0.1403732281D-01
      0.1039486850D+03  0.6884262226D-01
      0.2921015530D+02  0.2321844432D+00
      0.9286662960D+01  0.4679413484D+00
      0.3163926960D+01  0.3623119853D+00
 Atom C16      Shell    48 SP   3    bf  136 -   139          2.902189011677         -0.963734797572         -2.612487740512
      0.7868272350D+01 -0.1193324198D+00  0.6899906659D-01
      0.1881288540D+01 -0.1608541517D+00  0.3164239610D+00
      0.5442492580D+00  0.1143456438D+01  0.7443082909D+00
 Atom C16      Shell    49 SP   1    bf  140 -   143          2.902189011677         -0.963734797572         -2.612487740512
      0.1687144782D+00  0.1000000000D+01  0.1000000000D+01
 Atom C16      Shell    50 D   1     bf  144 -   149          2.902189011677         -0.963734797572         -2.612487740512
      0.8000000000D+00  0.1000000000D+01
 Atom H17      Shell    51 S   3     bf  150 -   150          1.844045707486         -2.639526093200         -3.204506302375
      0.1873113696D+02  0.3349460434D-01
      0.2825394365D+01  0.2347269535D+00
      0.6401216923D+00  0.8137573261D+00
 Atom H17      Shell    52 S   1     bf  151 -   151          1.844045707486         -2.639526093200         -3.204506302375
      0.1612777588D+00  0.1000000000D+01
 Atom H18      Shell    53 S   3     bf  152 -   152          4.905956261641         -1.495841425426         -2.603419360541
      0.1873113696D+02  0.3349460434D-01
      0.2825394365D+01  0.2347269535D+00
      0.6401216923D+00  0.8137573261D+00
 Atom H18      Shell    54 S   1     bf  153 -   153          4.905956261641         -1.495841425426         -2.603419360541
      0.1612777588D+00  0.1000000000D+01
 Atom C19      Shell    55 S   6     bf  154 -   154          2.296031140943          2.647710270314          4.797270515040
      0.3047524880D+04  0.1834737132D-02
      0.4573695180D+03  0.1403732281D-01
      0.1039486850D+03  0.6884262226D-01
      0.2921015530D+02  0.2321844432D+00
      0.9286662960D+01  0.4679413484D+00
      0.3163926960D+01  0.3623119853D+00
 Atom C19      Shell    56 SP   3    bf  155 -   158          2.296031140943          2.647710270314          4.797270515040
      0.7868272350D+01 -0.1193324198D+00  0.6899906659D-01
      0.1881288540D+01 -0.1608541517D+00  0.3164239610D+00
      0.5442492580D+00  0.1143456438D+01  0.7443082909D+00
 Atom C19      Shell    57 SP   1    bf  159 -   162          2.296031140943          2.647710270314          4.797270515040
      0.1687144782D+00  0.1000000000D+01  0.1000000000D+01
 Atom C19      Shell    58 D   1     bf  163 -   168          2.296031140943          2.647710270314          4.797270515040
      0.8000000000D+00  0.1000000000D+01
 Atom H20      Shell    59 S   3     bf  169 -   169          4.300405578811          2.994195940944          5.179127304637
      0.1873113696D+02  0.3349460434D-01
      0.2825394365D+01  0.2347269535D+00
      0.6401216923D+00  0.8137573261D+00
 Atom H20      Shell    60 S   1     bf  170 -   170          4.300405578811          2.994195940944          5.179127304637
      0.1612777588D+00  0.1000000000D+01
 Atom H21      Shell    61 S   3     bf  171 -   171          1.261309064649          3.521206298671          6.364190852009
      0.1873113696D+02  0.3349460434D-01
      0.2825394365D+01  0.2347269535D+00
      0.6401216923D+00  0.8137573261D+00
 Atom H21      Shell    62 S   1     bf  172 -   172          1.261309064649          3.521206298671          6.364190852009
      0.1612777588D+00  0.1000000000D+01
 Atom C22      Shell    63 S   6     bf  173 -   173          2.424194219207          1.331604684710         -4.378338432552
      0.3047524880D+04  0.1834737132D-02
      0.4573695180D+03  0.1403732281D-01
      0.1039486850D+03  0.6884262226D-01
      0.2921015530D+02  0.2321844432D+00
      0.9286662960D+01  0.4679413484D+00
      0.3163926960D+01  0.3623119853D+00
 Atom C22      Shell    64 SP   3    bf  174 -   177          2.424194219207          1.331604684710         -4.378338432552
      0.7868272350D+01 -0.1193324198D+00  0.6899906659D-01
      0.1881288540D+01 -0.1608541517D+00  0.3164239610D+00
      0.5442492580D+00  0.1143456438D+01  0.7443082909D+00
 Atom C22      Shell    65 SP   1    bf  178 -   181          2.424194219207          1.331604684710         -4.378338432552
      0.1687144782D+00  0.1000000000D+01  0.1000000000D+01
 Atom C22      Shell    66 D   1     bf  182 -   187          2.424194219207          1.331604684710         -4.378338432552
      0.8000000000D+00  0.1000000000D+01
 Atom H23      Shell    67 S   3     bf  188 -   188          4.092404954042          1.727923529504         -5.542159644053
      0.1873113696D+02  0.3349460434D-01
      0.2825394365D+01  0.2347269535D+00
      0.6401216923D+00  0.8137573261D+00
 Atom H23      Shell    68 S   1     bf  189 -   189          4.092404954042          1.727923529504         -5.542159644053
      0.1612777588D+00  0.1000000000D+01
 Atom H24      Shell    69 S   3     bf  190 -   190          0.875167453326          0.950295216493         -5.693457524423
      0.1873113696D+02  0.3349460434D-01
      0.2825394365D+01  0.2347269535D+00
      0.6401216923D+00  0.8137573261D+00
 Atom H24      Shell    70 S   1     bf  191 -   191          0.875167453326          0.950295216493         -5.693457524423
      0.1612777588D+00  0.1000000000D+01
 Atom C25      Shell    71 S   6     bf  192 -   192          1.938980238272         -4.249997153113          2.187709733540
      0.3047524880D+04  0.1834737132D-02
      0.4573695180D+03  0.1403732281D-01
      0.1039486850D+03  0.6884262226D-01
      0.2921015530D+02  0.2321844432D+00
      0.9286662960D+01  0.4679413484D+00
      0.3163926960D+01  0.3623119853D+00
 Atom C25      Shell    72 SP   3    bf  193 -   196          1.938980238272         -4.249997153113          2.187709733540
      0.7868272350D+01 -0.1193324198D+00  0.6899906659D-01
      0.1881288540D+01 -0.1608541517D+00  0.3164239610D+00
      0.5442492580D+00  0.1143456438D+01  0.7443082909D+00
 Atom C25      Shell    73 SP   1    bf  197 -   200          1.938980238272         -4.249997153113          2.187709733540
      0.1687144782D+00  0.1000000000D+01  0.1000000000D+01
 Atom C25      Shell    74 D   1     bf  201 -   206          1.938980238272         -4.249997153113          2.187709733540
      0.8000000000D+00  0.1000000000D+01
 Atom H26      Shell    75 S   3     bf  207 -   207          3.079633256206         -5.306047283256          0.812903547275
      0.1873113696D+02  0.3349460434D-01
      0.2825394365D+01  0.2347269535D+00
      0.6401216923D+00  0.8137573261D+00
 Atom H26      Shell    76 S   1     bf  208 -   208          3.079633256206         -5.306047283256          0.812903547275
      0.1612777588D+00  0.1000000000D+01
 Atom H27      Shell    77 S   3     bf  209 -   209         -0.002503622564         -4.282003236756          1.430863116757
      0.1873113696D+02  0.3349460434D-01
      0.2825394365D+01  0.2347269535D+00
      0.6401216923D+00  0.8137573261D+00
 Atom H27      Shell    78 S   1     bf  210 -   210         -0.002503622564         -4.282003236756          1.430863116757
      0.1612777588D+00  0.1000000000D+01
 Atom C28      Shell    79 S   6     bf  211 -   211          2.652123536725          6.197608961162         -3.831349814559
      0.3047524880D+04  0.1834737132D-02
      0.4573695180D+03  0.1403732281D-01
      0.1039486850D+03  0.6884262226D-01
      0.2921015530D+02  0.2321844432D+00
      0.9286662960D+01  0.4679413484D+00
      0.3163926960D+01  0.3623119853D+00
 Atom C28      Shell    80 SP   3    bf  212 -   215          2.652123536725          6.197608961162         -3.831349814559
      0.7868272350D+01 -0.1193324198D+00  0.6899906659D-01
      0.1881288540D+01 -0.1608541517D+00  0.3164239610D+00
      0.5442492580D+00  0.1143456438D+01  0.7443082909D+00
 Atom C28      Shell    81 SP   1    bf  216 -   219          2.652123536725          6.197608961162         -3.831349814559
      0.1687144782D+00  0.1000000000D+01  0.1000000000D+01
 Atom C28      Shell    82 D   1     bf  220 -   225          2.652123536725          6.197608961162         -3.831349814559
      0.8000000000D+00  0.1000000000D+01
 Atom H29      Shell    83 S   3     bf  226 -   226          4.701557435985          6.082333512768         -4.169361991003
      0.1873113696D+02  0.3349460434D-01
      0.2825394365D+01  0.2347269535D+00
      0.6401216923D+00  0.8137573261D+00
 Atom H29      Shell    84 S   1     bf  227 -   227          4.701557435985          6.082333512768         -4.169361991003
      0.1612777588D+00  0.1000000000D+01
 Atom C30      Shell    85 S   6     bf  228 -   228          5.744063596577          3.216341676043          0.099970934389
      0.3047524880D+04  0.1834737132D-02
      0.4573695180D+03  0.1403732281D-01
      0.1039486850D+03  0.6884262226D-01
      0.2921015530D+02  0.2321844432D+00
      0.9286662960D+01  0.4679413484D+00
      0.3163926960D+01  0.3623119853D+00
 Atom C30      Shell    86 SP   3    bf  229 -   232          5.744063596577          3.216341676043          0.099970934389
      0.7868272350D+01 -0.1193324198D+00  0.6899906659D-01
      0.1881288540D+01 -0.1608541517D+00  0.3164239610D+00
      0.5442492580D+00  0.1143456438D+01  0.7443082909D+00
 Atom C30      Shell    87 SP   1    bf  233 -   236          5.744063596577          3.216341676043          0.099970934389
      0.1687144782D+00  0.1000000000D+01  0.1000000000D+01
 Atom C30      Shell    88 D   1     bf  237 -   242          5.744063596577          3.216341676043          0.099970934389
      0.8000000000D+00  0.1000000000D+01
 Atom H31      Shell    89 S   3     bf  243 -   243          6.214166439182          5.228892373072          0.202092679473
      0.1873113696D+02  0.3349460434D-01
      0.2825394365D+01  0.2347269535D+00
      0.6401216923D+00  0.8137573261D+00
 Atom H31      Shell    90 S   1     bf  244 -   244          6.214166439182          5.228892373072          0.202092679473
      0.1612777588D+00  0.1000000000D+01
 Atom H32      Shell    91 S   3     bf  245 -   245          6.598691843332          2.307051248962          1.745253754335
      0.1873113696D+02  0.3349460434D-01
      0.2825394365D+01  0.2347269535D+00
      0.6401216923D+00  0.8137573261D+00
 Atom H32      Shell    92 S   1     bf  246 -   246          6.598691843332          2.307051248962          1.745253754335
      0.1612777588D+00  0.1000000000D+01
 Atom H33      Shell    93 S   3     bf  247 -   247          6.683683221022          2.451658535062         -1.575897745525
      0.1873113696D+02  0.3349460434D-01
      0.2825394365D+01  0.2347269535D+00
      0.6401216923D+00  0.8137573261D+00
 Atom H33      Shell    94 S   1     bf  248 -   248          6.683683221022          2.451658535062         -1.575897745525
      0.1612777588D+00  0.1000000000D+01
 Atom C34      Shell    95 S   6     bf  249 -   249          2.300639483783         -4.481720341508          6.940140619029
      0.3047524880D+04  0.1834737132D-02
      0.4573695180D+03  0.1403732281D-01
      0.1039486850D+03  0.6884262226D-01
      0.2921015530D+02  0.2321844432D+00
      0.9286662960D+01  0.4679413484D+00
      0.3163926960D+01  0.3623119853D+00
 Atom C34      Shell    96 SP   3    bf  250 -   253          2.300639483783         -4.481720341508          6.940140619029
      0.7868272350D+01 -0.1193324198D+00  0.6899906659D-01
      0.1881288540D+01 -0.1608541517D+00  0.3164239610D+00
      0.5442492580D+00  0.1143456438D+01  0.7443082909D+00
 Atom C34      Shell    97 SP   1    bf  254 -   257          2.300639483783         -4.481720341508          6.940140619029
      0.1687144782D+00  0.1000000000D+01  0.1000000000D+01
 Atom C34      Shell    98 D   1     bf  258 -   263          2.300639483783         -4.481720341508          6.940140619029
      0.8000000000D+00  0.1000000000D+01
 Atom C35      Shell    99 S   6     bf  264 -   264          0.785910396837         -0.746169928694          9.427613829577
      0.3047524880D+04  0.1834737132D-02
      0.4573695180D+03  0.1403732281D-01
      0.1039486850D+03  0.6884262226D-01
      0.2921015530D+02  0.2321844432D+00
      0.9286662960D+01  0.4679413484D+00
      0.3163926960D+01  0.3623119853D+00
 Atom C35      Shell   100 SP   3    bf  265 -   268          0.785910396837         -0.746169928694          9.427613829577
      0.7868272350D+01 -0.1193324198D+00  0.6899906659D-01
      0.1881288540D+01 -0.1608541517D+00  0.3164239610D+00
      0.5442492580D+00  0.1143456438D+01  0.7443082909D+00
 Atom C35      Shell   101 SP   1    bf  269 -   272          0.785910396837         -0.746169928694          9.427613829577
      0.1687144782D+00  0.1000000000D+01  0.1000000000D+01
 Atom C35      Shell   102 D   1     bf  273 -   278          0.785910396837         -0.746169928694          9.427613829577
      0.8000000000D+00  0.1000000000D+01
 Atom H36      Shell   103 S   3     bf  279 -   279         -1.168905519662         -0.855057063409          8.735086158220
      0.1873113696D+02  0.3349460434D-01
      0.2825394365D+01  0.2347269535D+00
      0.6401216923D+00  0.8137573261D+00
 Atom H36      Shell   104 S   1     bf  280 -   280         -1.168905519662         -0.855057063409          8.735086158220
      0.1612777588D+00  0.1000000000D+01
 Atom H37      Shell   105 S   3     bf  281 -   281          1.143558925397          1.245355694279          9.864705140853
      0.1873113696D+02  0.3349460434D-01
      0.2825394365D+01  0.2347269535D+00
      0.6401216923D+00  0.8137573261D+00
 Atom H37      Shell   106 S   1     bf  282 -   282          1.143558925397          1.245355694279          9.864705140853
      0.1612777588D+00  0.1000000000D+01
 Atom C38      Shell   107 S   6     bf  283 -   283          1.986981001698         -5.597602564730          4.686234912890
      0.3047524880D+04  0.1834737132D-02
      0.4573695180D+03  0.1403732281D-01
      0.1039486850D+03  0.6884262226D-01
      0.2921015530D+02  0.2321844432D+00
      0.9286662960D+01  0.4679413484D+00
      0.3163926960D+01  0.3623119853D+00
 Atom C38      Shell   108 SP   3    bf  284 -   287          1.986981001698         -5.597602564730          4.686234912890
      0.7868272350D+01 -0.1193324198D+00  0.6899906659D-01
      0.1881288540D+01 -0.1608541517D+00  0.3164239610D+00
      0.5442492580D+00  0.1143456438D+01  0.7443082909D+00
 Atom C38      Shell   109 SP   1    bf  288 -   291          1.986981001698         -5.597602564730          4.686234912890
      0.1687144782D+00  0.1000000000D+01  0.1000000000D+01
 Atom C38      Shell   110 D   1     bf  292 -   297          1.986981001698         -5.597602564730          4.686234912890
      0.8000000000D+00  0.1000000000D+01
 Atom H39      Shell   111 S   3     bf  298 -   298          1.752399489144         -7.644316070941          4.625625310890
      0.1873113696D+02  0.3349460434D-01
      0.2825394365D+01  0.2347269535D+00
      0.6401216923D+00  0.8137573261D+00
 Atom H39      Shell   112 S   1     bf  299 -   299          1.752399489144         -7.644316070941          4.625625310890
      0.1612777588D+00  0.1000000000D+01
 Atom C40      Shell   113 S   6     bf  300 -   300          5.358064961934         -1.007868217569          7.978574476497
      0.3047524880D+04  0.1834737132D-02
      0.4573695180D+03  0.1403732281D-01
      0.1039486850D+03  0.6884262226D-01
      0.2921015530D+02  0.2321844432D+00
      0.9286662960D+01  0.4679413484D+00
      0.3163926960D+01  0.3623119853D+00
 Atom C40      Shell   114 SP   3    bf  301 -   304          5.358064961934         -1.007868217569          7.978574476497
      0.7868272350D+01 -0.1193324198D+00  0.6899906659D-01
      0.1881288540D+01 -0.1608541517D+00  0.3164239610D+00
      0.5442492580D+00  0.1143456438D+01  0.7443082909D+00
[...]
 **** Fit       0.000084
 **** Fit       0.000508
 **** Fit       0.000883
 **** Fit       0.001074
 **** Fit       0.001109
 **** Fit      -0.001215
 **** Fit      -0.001394
 **** Fit      -0.001527
 **** Fit      -0.001580
 **** Fit      -0.001518
 **** Fit      -0.001313
 **** Fit      -0.000963
 **** Fit      -0.000503
 **** Fit       0.000002
 **** Fit       0.000484
 **** Fit       0.000889
 **** Fit       0.001192
 **** Fit      -0.001483
 **** Fit      -0.001700
 **** Fit      -0.001855
 **** Fit      -0.001907
 **** Fit      -0.001815
 **** Fit      -0.001553
 **** Fit      -0.001124
 **** Fit      -0.000580
 **** Fit      -0.000005
 **** Fit       0.000519
 **** Fit       0.000935
 **** Fit       0.001227
 **** Fit       0.001400
 **** Fit      -0.001894
 **** Fit      -0.002067
 **** Fit      -0.002118
 **** Fit      -0.002001
 **** Fit      -0.001689
 **** Fit      -0.001193
 **** Fit      -0.000580
 **** Fit       0.000046
 **** Fit       0.000591
 **** Fit       0.001001
 **** Fit       0.001267
 **** Fit       0.001410
 **** Fit      -0.001384
 **** Fit      -0.001686
 **** Fit      -0.001956
 **** Fit      -0.002145
 **** Fit      -0.002201
 **** Fit      -0.002071
 **** Fit      -0.001728
 **** Fit      -0.001191
 **** Fit      -0.000539
 **** Fit       0.000110
 **** Fit       0.000656
 **** Fit       0.001048
 **** Fit       0.001286
 **** Fit       0.001400
 **** Fit      -0.001294
 **** Fit      -0.001602
 **** Fit      -0.001885
 **** Fit      -0.002091
 **** Fit      -0.002160
 **** Fit      -0.002037
 **** Fit      -0.001693
 **** Fit      -0.001152
 **** Fit      -0.000501
 **** Fit       0.000139
 **** Fit       0.000668
 **** Fit       0.001039
 **** Fit       0.001256
 **** Fit       0.001352
 **** Fit      -0.000839
 **** Fit      -0.001118
 **** Fit      -0.001417
 **** Fit      -0.001703
 **** Fit      -0.001921
 **** Fit      -0.002010
 **** Fit      -0.001913
 **** Fit      -0.001600
 **** Fit      -0.001098
 **** Fit      -0.000490
 **** Fit       0.000111
 **** Fit       0.000609
 **** Fit       0.000959
 **** Fit       0.001166
 **** Fit       0.001260
 **** Fit      -0.000640
 **** Fit      -0.000891
 **** Fit      -0.001169
 **** Fit      -0.001445
 **** Fit      -0.001668
 **** Fit      -0.001778
 **** Fit      -0.001718
 **** Fit      -0.001462
 **** Fit      -0.001031
 **** Fit      -0.000498
 **** Fit       0.000037
 **** Fit       0.000492
 **** Fit       0.000822
 **** Fit       0.001026
 **** Fit       0.001129
 **** Fit      -0.000650
 **** Fit      -0.000899
 **** Fit      -0.001155
 **** Fit      -0.001373
 **** Fit      -0.001497
 **** Fit      -0.001477
 **** Fit      -0.001286
 **** Fit      -0.000943
 **** Fit      -0.000504
 **** Fit      -0.000049
 **** Fit       0.000351
 **** Fit       0.000657
 **** Fit       0.000860
 **** Fit      -0.000429
 **** Fit      -0.000644
 **** Fit      -0.000871
 **** Fit      -0.001074
 **** Fit      -0.001203
 **** Fit      -0.001215
 **** Fit      -0.001088
 **** Fit      -0.000832
 **** Fit      -0.000489
 **** Fit      -0.000119
 **** Fit       0.000221
 **** Fit       0.000496
 **** Fit      -0.000620
 **** Fit      -0.000800
 **** Fit      -0.000705
 **** Fit      -0.000448
 **** Fit      -0.000159
 **** Fit      -0.000947
 **** Fit      -0.001188
 **** Fit      -0.000014
 **** Fit      -0.000330
 **** Fit      -0.000672
 **** Fit      -0.001004
 **** Fit      -0.001278
 **** Fit      -0.001451
 **** Fit      -0.001505
 **** Fit      -0.001456
 **** Fit      -0.001349
 **** Fit      -0.001242
 **** Fit      -0.001186
 **** Fit       0.000699
 **** Fit       0.000421
 **** Fit       0.000065
 **** Fit      -0.000352
 **** Fit      -0.000786
 **** Fit      -0.001170
 **** Fit      -0.001439
 **** Fit      -0.001560
 **** Fit      -0.001546
 **** Fit      -0.001444
 **** Fit      -0.001322
 **** Fit      -0.001241
 **** Fit      -0.001241
 **** Fit       0.001318
 **** Fit       0.001139
 **** Fit       0.000860
 **** Fit       0.000469
 **** Fit      -0.000021
 **** Fit      -0.000557
 **** Fit      -0.001052
 **** Fit      -0.001422
 **** Fit      -0.001618
 **** Fit      -0.001648
 **** Fit      -0.001562
 **** Fit      -0.001434
 **** Fit      -0.001332
 **** Fit      -0.001302
 **** Fit       0.001682
 **** Fit       0.001526
 **** Fit       0.001248
 **** Fit       0.000827
 **** Fit       0.000276
 **** Fit      -0.000346
 **** Fit      -0.000938
 **** Fit      -0.001398
 **** Fit      -0.001665
 **** Fit      -0.001741
 **** Fit      -0.001681
 **** Fit      -0.001558
 **** Fit      -0.001444
 **** Fit      -0.001388
 **** Fit       0.001984
 **** Fit       0.001954
 **** Fit       0.001813
 **** Fit       0.001530
 **** Fit       0.001085
 **** Fit       0.000491
 **** Fit      -0.000188
 **** Fit      -0.000843
 **** Fit      -0.001362
 **** Fit      -0.001681
 **** Fit      -0.001801
 **** Fit      -0.001772
 **** Fit      -0.001665
 **** Fit      -0.001550
 **** Fit      -0.001478
 **** Fit       0.002124
 **** Fit       0.002114
 **** Fit       0.001975
 **** Fit       0.001681
 **** Fit       0.001217
 **** Fit       0.000602
 **** Fit      -0.000096
 **** Fit      -0.000768
 **** Fit      -0.001307
 **** Fit      -0.001652
 **** Fit      -0.001803
 **** Fit      -0.001806
 **** Fit      -0.001723
 **** Fit      -0.001619
 **** Fit      -0.001541
 **** Fit       0.002037
 **** Fit       0.001798
 **** Fit       0.001542
 **** Fit       0.001330
 **** Fit       0.001225
 **** Fit       0.001361
 **** Fit       0.001581
 **** Fit       0.001827
 **** Fit       0.002037
 **** Fit       0.002162
 **** Fit       0.002018
 **** Fit       0.001711
 **** Fit       0.001238
 **** Fit       0.000627
 **** Fit      -0.000052
 **** Fit      -0.000698
 **** Fit      -0.001219
 **** Fit      -0.001562
 **** Fit      -0.001729
 **** Fit      -0.001760
 **** Fit      -0.001706
 **** Fit      -0.001623
 **** Fit       0.002369
 **** Fit       0.002230
 **** Fit       0.001991
 **** Fit       0.001675
 **** Fit       0.001337
 **** Fit       0.001054
 **** Fit       0.000897
 **** Fit       0.000909
 **** Fit       0.001083
 **** Fit       0.001367
 **** Fit       0.001682
 **** Fit       0.001948
 **** Fit       0.002106
 **** Fit       0.002119
 **** Fit       0.001971
 **** Fit       0.001659
 **** Fit       0.001194
 **** Fit       0.000614
 **** Fit      -0.000014
 **** Fit      -0.000604
 **** Fit      -0.001078
 **** Fit      -0.001400
 **** Fit      -0.001572
 **** Fit       0.002456
 **** Fit       0.002385
 **** Fit       0.002203
 **** Fit       0.001901
 **** Fit       0.001501
 **** Fit       0.001071
 **** Fit       0.000707
 **** Fit       0.000500
 **** Fit       0.000506
 **** Fit       0.000716
 **** Fit       0.001064
 **** Fit       0.001449
 **** Fit       0.001776
 **** Fit       0.001972
 **** Fit       0.002005
 **** Fit       0.001868
 **** Fit       0.001571
 **** Fit       0.001137
 **** Fit       0.000611
 **** Fit       0.000055
 **** Fit      -0.000460
 **** Fit      -0.000876
 **** Fit      -0.001166
 **** Fit       0.002445
 **** Fit       0.002344
 **** Fit       0.002118
 **** Fit       0.001752
 **** Fit       0.001271
 **** Fit       0.000752
 **** Fit       0.000308
 **** Fit       0.000052
 **** Fit       0.000047
 **** Fit       0.000285
 **** Fit       0.000687
 **** Fit       0.001138
 **** Fit       0.001524
 **** Fit       0.001767
 **** Fit       0.001836
 **** Fit       0.001730
 **** Fit       0.001472
 **** Fit       0.001094
 **** Fit       0.000642
 **** Fit       0.000171
 **** Fit      -0.000263
 **** Fit      -0.000618
 **** Fit      -0.000874
 **** Fit       0.002404
 **** Fit       0.002367
 **** Fit       0.002229
 **** Fit       0.001956
 **** Fit       0.001531
 **** Fit       0.000981
 **** Fit       0.000392
 **** Fit      -0.000111
 **** Fit      -0.000406
 **** Fit      -0.000423
 **** Fit      -0.000173
 **** Fit       0.000263
 **** Fit       0.000762
 **** Fit       0.001200
 **** Fit       0.001495
 **** Fit       0.001615
 **** Fit       0.001565
 **** Fit       0.000703
 **** Fit       0.000321
 **** Fit       0.002294
 **** Fit       0.002217
 **** Fit       0.002033
 **** Fit       0.001709
 **** Fit       0.001234
 **** Fit       0.000639
 **** Fit       0.000014
 **** Fit      -0.000514
 **** Fit      -0.000824
 **** Fit      -0.000853
 **** Fit      -0.000609
 **** Fit      -0.000169
 **** Fit       0.000350
 **** Fit       0.000825
 **** Fit       0.001172
 **** Fit       0.001354
 **** Fit       0.001375
 **** Fit       0.002134
 **** Fit       0.002009
 **** Fit       0.001773
 **** Fit       0.001401
 **** Fit       0.000891
 **** Fit       0.000281
 **** Fit      -0.000339
 **** Fit      -0.000852
 **** Fit      -0.001152
 **** Fit      -0.001188
 **** Fit      -0.000967
 **** Fit      -0.000552
 **** Fit      -0.000045
 **** Fit       0.000444
 **** Fit       0.000831
 **** Fit       0.001075
 **** Fit       0.001171
 **** Fit       0.001773
 **** Fit       0.001492
 **** Fit       0.001086
 **** Fit       0.000563
 **** Fit      -0.000030
 **** Fit      -0.000610
 **** Fit      -0.001074
 **** Fit      -0.001344
 **** Fit      -0.001380
 **** Fit      -0.001191
 **** Fit      -0.000823
 **** Fit      -0.000355
 **** Fit       0.000120
 **** Fit       0.000525
 **** Fit       0.000813
 **** Fit       0.000974
 **** Fit       0.001550
 **** Fit       0.001240
 **** Fit       0.000823
 **** Fit       0.000317
 **** Fit      -0.000230
 **** Fit      -0.000741
 **** Fit      -0.001139
 **** Fit      -0.001366
 **** Fit      -0.001398
 **** Fit      -0.001243
 **** Fit      -0.000932
 **** Fit      -0.000523
 **** Fit      -0.000089
 **** Fit       0.000302
 **** Fit       0.000607
 **** Fit       0.001055
 **** Fit       0.000656
 **** Fit       0.000195
 **** Fit      -0.000279
 **** Fit      -0.000707
 **** Fit      -0.001029
 **** Fit      -0.001208
 **** Fit      -0.001234
 **** Fit      -0.001111
 **** Fit      -0.000862
 **** Fit      -0.000527
 **** Fit      -0.000157
 **** Fit       0.000192
 **** Fit       0.000482
 **** Fit       0.000594
 **** Fit       0.000202
 **** Fit      -0.000185
 **** Fit      -0.000519
 **** Fit      -0.000764
 **** Fit      -0.000896
 **** Fit      -0.000913
 **** Fit      -0.000821
 **** Fit      -0.000636
 **** Fit      -0.000381
 **** Fit      -0.000092
 **** Fit       0.000011
 **** Fit      -0.000232
 **** Fit      -0.000402
 **** Fit      -0.000490
 **** Fit      -0.000499
 **** Fit      -0.000437
 **** Fit      -0.000311
 **** Fit      -0.000136
 **** Fit       0.000249
 **** Fit       0.000087
 **** Fit      -0.000018
 **** Fit      -0.000068
 **** Fit      -0.000071
 **** Fit      -0.000032
 **** Fit       0.000042
 **** Fit       0.000148
 **** Fit       0.000379
 **** Fit       0.000323
 **** Fit       0.000302
 **** Fit       0.000306
 **** Fit       0.000326
 **** Fit       0.000363
 **** Fit       0.000416
 **** Fit       0.000585
 **** Fit       0.000584
 **** Fit       0.000592
 **** Fit       0.000603
 **** Fit      -0.000585
 **** Fit      -0.000257
 **** Fit       0.000101
 **** Fit       0.000448
 **** Fit      -0.001221
 **** Fit      -0.001021
 **** Fit      -0.000718
 **** Fit      -0.000344
 **** Fit       0.000055
 **** Fit       0.000430
 **** Fit       0.000745
 **** Fit      -0.001358
 **** Fit      -0.001132
 **** Fit      -0.000795
 **** Fit      -0.000385
 **** Fit       0.000043
 **** Fit       0.000434
 **** Fit       0.000751
 **** Fit      -0.001525
 **** Fit      -0.001417
 **** Fit      -0.001178
 **** Fit      -0.000822
 **** Fit      -0.000394
 **** Fit       0.000046
 **** Fit       0.000439
 **** Fit       0.000751
 **** Fit       0.000968
 **** Fit      -0.001506
 **** Fit      -0.001404
 **** Fit      -0.001167
 **** Fit      -0.000813
 **** Fit      -0.000389
 **** Fit       0.000044
 **** Fit       0.000427
 **** Fit       0.000726
 **** Fit       0.000932
 **** Fit      -0.001328
 **** Fit      -0.001111
 **** Fit      -0.000781
 **** Fit      -0.000382
 **** Fit       0.000026
 **** Fit       0.000388
 **** Fit       0.000671
 **** Fit      -0.001204
 **** Fit      -0.001020
 **** Fit      -0.000730
 **** Fit      -0.000375
 **** Fit      -0.000007
 **** Fit       0.000324
 **** Fit       0.000588
 **** Fit      -0.000903
 **** Fit      -0.000664
 **** Fit      -0.000363
 **** Fit      -0.000045
 **** Fit       0.000249
 **** Fit      -0.000015
 **** Fit      -0.000331
 **** Fit      -0.000650
 **** Fit      -0.000933
 **** Fit       0.000561
 **** Fit       0.000251
 **** Fit      -0.000110
 **** Fit      -0.000489
 **** Fit      -0.000838
 **** Fit      -0.001112
 **** Fit       0.001067
 **** Fit       0.000820
 **** Fit       0.000489
 **** Fit       0.000089
 **** Fit      -0.000341
 **** Fit      -0.000745
 **** Fit      -0.001072
 **** Fit      -0.001290
 **** Fit       0.001267
 **** Fit       0.001018
 **** Fit       0.000671
 **** Fit       0.000245
 **** Fit      -0.000219
 **** Fit      -0.000661
 **** Fit      -0.001024
 **** Fit      -0.001275
 **** Fit       0.001392
 **** Fit       0.001141
 **** Fit       0.000787
 **** Fit       0.000349
 **** Fit      -0.000127
 **** Fit      -0.000583
 **** Fit      -0.000963
 **** Fit      -0.001232
 **** Fit       0.001441
 **** Fit       0.001193
 **** Fit       0.000841
 **** Fit       0.000409
 **** Fit      -0.000058
 **** Fit      -0.000505
 **** Fit      -0.000879
 **** Fit      -0.001151
 **** Fit       0.001190
 **** Fit       0.000853
 **** Fit       0.000444
 **** Fit       0.000005
 **** Fit      -0.000412
 **** Fit      -0.000765
 **** Fit       0.001803
 **** Fit       0.001578
 **** Fit       0.001303
 **** Fit       0.001021
 **** Fit       0.000787
 **** Fit       0.000649
 **** Fit       0.000635
 **** Fit       0.000742
 **** Fit       0.000933
 **** Fit       0.001153
 **** Fit       0.001344
 **** Fit       0.000845
 **** Fit       0.000474
 **** Fit       0.000079
 **** Fit      -0.000296
 **** Fit       0.001901
 **** Fit       0.001710
 **** Fit       0.001440
 **** Fit       0.001114
 **** Fit       0.000781
 **** Fit       0.000504
 **** Fit       0.000339
 **** Fit       0.000319
 **** Fit       0.000440
 **** Fit       0.000661
 **** Fit       0.000919
 **** Fit       0.001150
 **** Fit       0.001302
 **** Fit       0.001797
 **** Fit       0.001570
 **** Fit       0.001260
 **** Fit       0.000891
 **** Fit       0.000517
 **** Fit       0.000205
 **** Fit       0.000019
 **** Fit      -0.000007
 **** Fit       0.000121
 **** Fit       0.000362
 **** Fit       0.000649
 **** Fit       0.000915
 **** Fit       0.001104
 **** Fit       0.001188
 **** Fit       0.001648
 **** Fit       0.001388
 **** Fit       0.001045
 **** Fit       0.000646
 **** Fit       0.000249
 **** Fit      -0.000079
 **** Fit      -0.000276
 **** Fit      -0.000309
 **** Fit      -0.000182
 **** Fit       0.000065
 **** Fit       0.000368
 **** Fit       0.000659
 **** Fit       0.000882
 **** Fit       0.001008
 **** Fit       0.001469
 **** Fit       0.001181
 **** Fit       0.000817
 **** Fit       0.000408
 **** Fit       0.000008
 **** Fit      -0.000318
 **** Fit      -0.000513
 **** Fit      -0.000550
 **** Fit      -0.000430
 **** Fit      -0.000191
 **** Fit       0.000111
 **** Fit       0.000412
 **** Fit       0.000661
 **** Fit       0.001283
 **** Fit       0.000979
 **** Fit       0.000610
 **** Fit       0.000209
 **** Fit      -0.000173
 **** Fit      -0.000478
 **** Fit      -0.000661
 **** Fit      -0.000697
 **** Fit      -0.000591
 **** Fit      -0.000372
 **** Fit      -0.000087
 **** Fit       0.000209
 **** Fit       0.000468
 **** Fit       0.000811
 **** Fit       0.000455
 **** Fit       0.000082
 **** Fit      -0.000264
 **** Fit      -0.000536
 **** Fit      -0.000698
 **** Fit      -0.000732
 **** Fit      -0.000642
 **** Fit      -0.000451
 **** Fit      -0.000196
 **** Fit       0.000078
 **** Fit       0.000375
 **** Fit       0.000044
 **** Fit      -0.000254
 **** Fit      -0.000484
 **** Fit      -0.000620
 **** Fit      -0.000649
 **** Fit      -0.000336
 **** Fit      -0.000443
 **** Fit      -0.000467
 **** Fit      -0.000412
 **** Fit      -0.000201
 **** Fit      -0.000220
 -----------------------------------------------------------------
 Leave Link  602 at Mon Mar 20 11:46:14 2017, MaxMem=    33554432 cpu:        36.4
 (Enter /home/michal/g09/l9999.exe)

 Test job not archived.
 1\1\GINC-LINUX\SP\RHF\6-31G(d)\C27H46O1\MICHAL\20-Mar-2017\0\\#P HF/6-
 31G* SCF(Conver=6) NoSymm Test Pop=chelpg IOp(6/33=2) GFInput GFPrint\
 \MEP - Input generated by R.E.D.-III.x MOLECULE\\0,1\O,0,0.43972067,-3
 .39448036,7.25106656\H,0,0.2754773,-4.33538694,7.10390238\C,0,1.507470
 17,1.50148842,0.\C,0,1.10390174,0.,0.\H,0,0.,0.,0.\C,0,1.51737642,-0.7
 9496874,1.24570833\H,0,2.61433454,-0.81461497,1.31457526\C,0,0.9400286
 8,-0.1201866,2.51719723\H,0,-0.15327361,-0.24496141,2.44588996\C,0,0.9
 5140088,1.93396313,-1.40208347\H,0,-0.14340368,1.98873532,-1.29118427\
 C,0,0.83080875,2.1318569,1.23524946\H,0,-0.25949332,2.08803586,1.09836
 2\H,0,1.08728602,3.19030756,1.34411038\C,0,1.36560954,-0.85262171,3.83
 821969\C,0,1.53577228,-0.50998649,-1.38246897\H,0,0.97582696,-1.396777
 05,-1.6957517\H,0,2.59612024,-0.79156519,-1.37767019\C,0,1.21500735,1.
 40110793,2.53860622\H,0,2.27567662,1.58446025,2.74067613\H,0,0.6674560
 1,1.86334212,3.36778475\C,0,1.28282833,0.70465485,-2.31691691\H,0,2.16
 560743,0.91437775,-2.93278457\H,0,0.46311867,0.50287457,-3.01284796\C,
 0,1.02606415,-2.24900163,1.15768613\H,0,1.62967173,-2.80783929,0.43017
 003\H,0,-0.00132486,-2.26593852,0.75718015\C,0,1.40344333,3.27963341,-
 2.027463\H,0,2.48795704,3.21863227,-2.20633134\C,0,3.03962754,1.702014
 71,0.05290234\H,0,3.28839525,2.76701067,0.10694284\H,0,3.49187733,1.22
 083894,0.92354851\H,0,3.53685283,1.29736182,-0.83392917\C,0,1.21744598
 ,-2.37162426,3.67256424\C,0,0.41588587,-0.39485612,4.98887837\H,0,-0.6
 1855816,-0.45247671,4.62240851\H,0,0.60514532,0.65901385,5.22017713\C,
 0,1.05146506,-2.9621237,2.47984871\H,0,0.92732987,-4.04519784,2.447775
 49\C,0,2.83536586,-0.53334089,4.22207977\H,0,2.95141827,0.51193403,4.5
 2537306\H,0,3.17455534,-1.14965481,5.05834165\H,0,3.51309343,-0.725094
 94,3.38442429\C,0,1.26581348,-3.20121277,4.94224444\H,0,1.0576742,-4.2
 5163623,4.70105353\H,0,2.26967503,-3.17242706,5.38913889\C,0,0.5220551
 3,-1.21664537,6.28175742\H,0,1.51072513,-1.1035183,6.74380204\H,0,-0.2
 095039,-0.85787202,7.01468028\C,0,0.72544606,3.48412176,-3.40532329\H,
 0,0.81907896,2.56518145,-3.99512426\H,0,-0.35387606,3.63506605,-3.2485
 2903\C,0,0.28402383,-2.69616302,6.00946062\H,0,-0.7461118,-2.83042869,
 5.63991474\C,0,1.13971521,4.49144449,-1.11632494\H,0,0.0797868,4.54885
 636,-0.83795407\H,0,1.40146427,5.42816136,-1.61718406\H,0,1.7241031,4.
 45016604,-0.19463884\C,0,1.28202552,4.64049498,-4.252709\H,0,1.1255221
 8,5.5953567,-3.73842665\H,0,2.36904891,4.5150507,-4.35045177\C,0,0.636
 10948,4.69948957,-5.6467816\H,0,-0.45361778,4.78370813,-5.52497157\H,0
 ,0.80970109,3.74021794,-6.15558656\C,0,1.108489,5.83696293,-6.58216662
 \H,0,0.54815098,5.70747215,-7.52001847\C,0,2.60251396,5.73465086,-6.93
 134785\H,0,2.85336851,4.74288015,-7.3258557\H,0,2.87698912,6.47525179,
 -7.69122206\H,0,3.23564358,5.91587783,-6.05511978\C,0,0.76244354,7.233
 95554,-6.04040463\H,0,-0.30341145,7.31476663,-5.7964752\H,0,0.99476983
 ,8.00759088,-6.78120174\H,0,1.3319024,7.46940388,-5.1339028\\Version=E
 M64L-G09RevD.01\HF=-1124.0788983\RMSD=4.584e-07\Dipole=-0.1342635,-0.1
 704206,-0.6738683\Quadrupole=3.3606828,8.5106091,-11.8712919,1.1836484
 ,-1.9799972,1.0401391\PG=C01 [X(C27H46O1)]\\@


 A true friend is someone who is there for
 you when he'd rather be anywhere else.
                               -- Len Wein
 Job cpu time:       0 days  0 hours 10 minutes 34.7 seconds.
 File lengths (MBytes):  RWF=    142 Int=      0 D2E=      0 Chk=     10 Scr=      1
 Normal termination of Gaussian 09 at Mon Mar 20 11:46:14 2017.
