 Entering Gaussian System, Link 0=/home/michal/g09/g09
 Input=JOB2-gau_m1-19-4.com
 Output=JOB2-gau_m1-19-4.log
 Initial command:
 /home/michal/g09/l1.exe "/home/michal/gauss_scratch/Gau-24186.inp" -scrdir="/home/michal/gauss_scratch/"
 Entering Link 1 = /home/michal/g09/l1.exe PID=     24187.
  
 Copyright (c) 1988,1990,1992,1993,1995,1998,2003,2009,2013,
            Gaussian, Inc.  All Rights Reserved.
  
 This is part of the Gaussian(R) 09 program.  It is based on
 the Gaussian(R) 03 system (copyright 2003, Gaussian, Inc.),
 the Gaussian(R) 98 system (copyright 1998, Gaussian, Inc.),
 the Gaussian(R) 94 system (copyright 1995, Gaussian, Inc.),
 the Gaussian 92(TM) system (copyright 1992, Gaussian, Inc.),
 the Gaussian 90(TM) system (copyright 1990, Gaussian, Inc.),
 the Gaussian 88(TM) system (copyright 1988, Gaussian, Inc.),
 the Gaussian 86(TM) system (copyright 1986, Carnegie Mellon
 University), and the Gaussian 82(TM) system (copyright 1983,
 Carnegie Mellon University). Gaussian is a federally registered
 trademark of Gaussian, Inc.
  
 This software contains proprietary and confidential information,
 including trade secrets, belonging to Gaussian, Inc.
  
 This software is provided under written license and may be
 used, copied, transmitted, or stored only in accord with that
 written license.
  
 The following legend is applicable only to US Government
 contracts under FAR:
  
                    RESTRICTED RIGHTS LEGEND
  
 Use, reproduction and disclosure by the US Government is
 subject to restrictions as set forth in subparagraphs (a)
 and (c) of the Commercial Computer Software - Restricted
 Rights clause in FAR 52.227-19.
  
 Gaussian, Inc.
 340 Quinnipiac St., Bldg. 40, Wallingford CT 06492
  
  
 ---------------------------------------------------------------
 Warning -- This program may not be used in any manner that
 competes with the business of Gaussian, Inc. or will provide
 assistance to any competitor of Gaussian, Inc.  The licensee
 of this program is prohibited from giving any competitor of
 Gaussian, Inc. access to this program.  By using this program,
 the user acknowledges that Gaussian, Inc. is engaged in the
 business of creating and licensing software in the field of
 computational chemistry and represents and warrants to the
 licensee that it is not a competitor of Gaussian, Inc. and that
 it will not use this program in any manner prohibited above.
 ---------------------------------------------------------------
  

 Cite this work as:
 Gaussian 09, Revision D.01,
 M. J. Frisch, G. W. Trucks, H. B. Schlegel, G. E. Scuseria, 
 M. A. Robb, J. R. Cheeseman, G. Scalmani, V. Barone, B. Mennucci, 
 G. A. Petersson, H. Nakatsuji, M. Caricato, X. Li, H. P. Hratchian, 
 A. F. Izmaylov, J. Bloino, G. Zheng, J. L. Sonnenberg, M. Hada, 
 M. Ehara, K. Toyota, R. Fukuda, J. Hasegawa, M. Ishida, T. Nakajima, 
 Y. Honda, O. Kitao, H. Nakai, T. Vreven, J. A. Montgomery, Jr., 
 J. E. Peralta, F. Ogliaro, M. Bearpark, J. J. Heyd, E. Brothers, 
 K. N. Kudin, V. N. Staroverov, T. Keith, R. Kobayashi, J. Normand, 
 K. Raghavachari, A. Rendell, J. C. Burant, S. S. Iyengar, J. Tomasi, 
 M. Cossi, N. Rega, J. M. Millam, M. Klene, J. E. Knox, J. B. Cross, 
 V. Bakken, C. Adamo, J. Jaramillo, R. Gomperts, R. E. Stratmann, 
 O. Yazyev, A. J. Austin, R. Cammi, C. Pomelli, J. W. Ochterski, 
 R. L. Martin, K. Morokuma, V. G. Zakrzewski, G. A. Voth, 
 P. Salvador, J. J. Dannenberg, S. Dapprich, A. D. Daniels, 
 O. Farkas, J. B. Foresman, J. V. Ortiz, J. Cioslowski, 
 and D. J. Fox, Gaussian, Inc., Wallingford CT, 2013.
 
 ******************************************
 Gaussian 09:  EM64L-G09RevD.01 24-Apr-2013
                20-Mar-2017 
 ******************************************
 %Mem=256MB
 %NProc=12
 Will use up to   12 processors via shared memory.
 ----------------------------------------------------------------------
 #P HF/6-31G* SCF(Conver=6) NoSymm Test Pop=chelpg IOp(6/33=2) GFInput 
 GFPrint
 ----------------------------------------------------------------------
 1/38=1/1;
 2/12=2,15=1,17=6,18=5,40=1/2;
 3/5=1,6=6,7=1,11=9,16=1,24=110,25=1,30=1/1,2,3;
 4//1;
 5/5=2,6=6,38=5/2;
 6/7=2,8=2,9=2,10=2,15=8,20=3,28=1,33=2/1,2;
 99/5=1,9=1/99;
 Leave Link    1 at Mon Mar 20 12:50:42 2017, MaxMem=    33554432 cpu:         0.6
 (Enter /home/michal/g09/l101.exe)
 ----------------------------------------------
 MEP - Input generated by R.E.D.-III.x MOLECULE
 ----------------------------------------------
 Symbolic Z-matrix:
 Charge =  0 Multiplicity = 1
 O                     4.2132    6.54782   4.12533 
 H                     4.99233   6.89807   3.67342 
 C                     0.        0.        0. 
 C                     1.3451    0.61896  -0.47341 
 H                     2.12685   0.        0. 
 C                     1.61226   2.05357   0. 
 H                     0.84768   2.72175  -0.42117 
 C                     1.54706   2.1172    1.5486 
 H                     2.41143   1.53152   1.90326 
 C                     0.09146  -1.40315  -0.69495 
 H                     0.84398  -1.96695  -0.12419 
 C                     0.03567   0.00837   1.54202 
 H                     0.8385   -0.66354   1.87871 
 H                    -0.89413  -0.37892   1.97124 
 C                     1.76146   3.5689    2.1047 
 C                     1.40135   0.30984  -1.97765 
 H                     2.42627   0.28902  -2.36137 
 H                     0.86537   1.07612  -2.55148 
 C                     0.2808    1.42446   2.10386 
 H                    -0.60106   2.0392    1.89463 
 H                     0.34671   1.35649   3.19565 
 C                     0.69864  -1.07114  -2.09821 
 H                    -0.09218  -1.0383   -2.85688 
 H                     1.39696  -1.85147  -2.41725 
 C                     2.98537   2.54601  -0.48502 
 H                     2.95075   2.75977  -1.56161 
 H                     3.7263    1.73689  -0.37294 
 C                    -1.17499  -2.28957  -0.79302 
 H                    -1.92454  -1.72465  -1.36628 
 C                    -1.22917   0.7791   -0.52088 
 H                    -2.15506   0.34599  -0.12744 
 H                    -1.21299   1.82988  -0.2215 
 H                    -1.29748   0.75609  -1.6128 
 C                     2.93681   4.24382   1.38337 
 C                     2.11328   3.47327   3.62215 
 H                     2.88717   2.70295   3.74639 
 H                     1.23624   3.12491   4.17837 
 C                     3.47003   3.76312   0.2505 
 H                     4.32111   4.28606  -0.18731 
 C                     0.49386   4.44586   1.92108 
 H                    -0.3244    4.10645   2.56399 
 H                     0.68872   5.4908    2.17482 
 H                     0.14623   4.42556   0.88354 
 C                     3.48797   5.50724   2.01784 
 H                     4.37546   5.83801   1.46301 
 H                     2.75568   6.32496   1.95941 
 C                     2.61854   4.77869   4.25354 
 H                     1.83799   5.54972   4.24927 
 H                     2.88533   4.60839   5.30278 
 C                    -0.92652  -3.58874  -1.60749 
 H                    -1.89664  -4.09054  -1.71953 
 H                    -0.60879  -3.32581  -2.62464 
 C                     3.82991   5.31552   3.50247 
 H                     4.65486   4.58901   3.58855 
 C                    -1.80365  -2.62666   0.57205 
 H                    -1.06909  -3.04725   1.26792 
 H                    -2.607    -3.36327   0.45203 
 H                    -2.24091  -1.74624   1.04944 
 C                     0.09039  -4.58075  -1.01822 
 H                     1.05095  -4.07225  -0.86634 
 H                    -0.23488  -4.9066   -0.02274 
 C                     0.35267  -5.81146  -1.90737 
 H                     1.16956  -6.3982   -1.46135 
 H                     0.72702  -5.46411  -2.88136 
 C                    -0.83827  -6.76191  -2.15531 
 H                    -1.65137  -6.18438  -2.61777 
 C                    -1.37764  -7.37806  -0.85473 
 H                    -1.74594  -6.6177   -0.15851 
 H                    -2.20672  -8.06441  -1.0614 
 H                    -0.5938   -7.94955  -0.34054 
 C                    -0.43698  -7.86509  -3.1478 
 H                    -0.08599  -7.44141  -4.09583 
 H                    -1.28111  -8.52832  -3.3688 
 H                     0.37301  -8.48306  -2.73918 
 
 NAtoms=     74 NQM=       74 NQMF=       0 NMMI=      0 NMMIF=      0
                NMic=       0 NMicF=      0.
                    Isotopes and Nuclear Properties:
 (Nuclear quadrupole moments (NQMom) in fm**2, nuclear magnetic moments (NMagM)
  in nuclear magnetons)

  Atom         1           2           3           4           5           6           7           8           9          10
 IAtWgt=          16           1          12          12           1          12           1          12           1          12
 AtmWgt=  15.9949146   1.0078250  12.0000000  12.0000000   1.0078250  12.0000000   1.0078250  12.0000000   1.0078250  12.0000000
 NucSpn=           0           1           0           0           1           0           1           0           1           0
 AtZEff=   0.0000000   0.0000000   0.0000000   0.0000000   0.0000000   0.0000000   0.0000000   0.0000000   0.0000000   0.0000000
 NQMom=    0.0000000   0.0000000   0.0000000   0.0000000   0.0000000   0.0000000   0.0000000   0.0000000   0.0000000   0.0000000
 NMagM=    0.0000000   2.7928460   0.0000000   0.0000000   2.7928460   0.0000000   2.7928460   0.0000000   2.7928460   0.0000000
 AtZNuc=   8.0000000   1.0000000   6.0000000   6.0000000   1.0000000   6.0000000   1.0000000   6.0000000   1.0000000   6.0000000

  Atom        11          12          13          14          15          16          17          18          19          20
 IAtWgt=           1          12           1           1          12          12           1           1          12           1
 AtmWgt=   1.0078250  12.0000000   1.0078250   1.0078250  12.0000000  12.0000000   1.0078250   1.0078250  12.0000000   1.0078250
 NucSpn=           1           0           1           1           0           0           1           1           0           1
 AtZEff=   0.0000000   0.0000000   0.0000000   0.0000000   0.0000000   0.0000000   0.0000000   0.0000000   0.0000000   0.0000000
 NQMom=    0.0000000   0.0000000   0.0000000   0.0000000   0.0000000   0.0000000   0.0000000   0.0000000   0.0000000   0.0000000
 NMagM=    2.7928460   0.0000000   2.7928460   2.7928460   0.0000000   0.0000000   2.7928460   2.7928460   0.0000000   2.7928460
 AtZNuc=   1.0000000   6.0000000   1.0000000   1.0000000   6.0000000   6.0000000   1.0000000   1.0000000   6.0000000   1.0000000

  Atom        21          22          23          24          25          26          27          28          29          30
 IAtWgt=           1          12           1           1          12           1           1          12           1          12
 AtmWgt=   1.0078250  12.0000000   1.0078250   1.0078250  12.0000000   1.0078250   1.0078250  12.0000000   1.0078250  12.0000000
 NucSpn=           1           0           1           1           0           1           1           0           1           0
 AtZEff=   0.0000000   0.0000000   0.0000000   0.0000000   0.0000000   0.0000000   0.0000000   0.0000000   0.0000000   0.0000000
 NQMom=    0.0000000   0.0000000   0.0000000   0.0000000   0.0000000   0.0000000   0.0000000   0.0000000   0.0000000   0.0000000
 NMagM=    2.7928460   0.0000000   2.7928460   2.7928460   0.0000000   2.7928460   2.7928460   0.0000000   2.7928460   0.0000000
 AtZNuc=   1.0000000   6.0000000   1.0000000   1.0000000   6.0000000   1.0000000   1.0000000   6.0000000   1.0000000   6.0000000

  Atom        31          32          33          34          35          36          37          38          39          40
 IAtWgt=           1           1           1          12          12           1           1          12           1          12
 AtmWgt=   1.0078250   1.0078250   1.0078250  12.0000000  12.0000000   1.0078250   1.0078250  12.0000000   1.0078250  12.0000000
 NucSpn=           1           1           1           0           0           1           1           0           1           0
 AtZEff=   0.0000000   0.0000000   0.0000000   0.0000000   0.0000000   0.0000000   0.0000000   0.0000000   0.0000000   0.0000000
 NQMom=    0.0000000   0.0000000   0.0000000   0.0000000   0.0000000   0.0000000   0.0000000   0.0000000   0.0000000   0.0000000
 NMagM=    2.7928460   2.7928460   2.7928460   0.0000000   0.0000000   2.7928460   2.7928460   0.0000000   2.7928460   0.0000000
 AtZNuc=   1.0000000   1.0000000   1.0000000   6.0000000   6.0000000   1.0000000   1.0000000   6.0000000   1.0000000   6.0000000

  Atom        41          42          43          44          45          46          47          48          49          50
 IAtWgt=           1           1           1          12           1           1          12           1           1          12
 AtmWgt=   1.0078250   1.0078250   1.0078250  12.0000000   1.0078250   1.0078250  12.0000000   1.0078250   1.0078250  12.0000000
 NucSpn=           1           1           1           0           1           1           0           1           1           0
 AtZEff=   0.0000000   0.0000000   0.0000000   0.0000000   0.0000000   0.0000000   0.0000000   0.0000000   0.0000000   0.0000000
 NQMom=    0.0000000   0.0000000   0.0000000   0.0000000   0.0000000   0.0000000   0.0000000   0.0000000   0.0000000   0.0000000
 NMagM=    2.7928460   2.7928460   2.7928460   0.0000000   2.7928460   2.7928460   0.0000000   2.7928460   2.7928460   0.0000000
 AtZNuc=   1.0000000   1.0000000   1.0000000   6.0000000   1.0000000   1.0000000   6.0000000   1.0000000   1.0000000   6.0000000

  Atom        51          52          53          54          55          56          57          58          59          60
 IAtWgt=           1           1          12           1          12           1           1           1          12           1
 AtmWgt=   1.0078250   1.0078250  12.0000000   1.0078250  12.0000000   1.0078250   1.0078250   1.0078250  12.0000000   1.0078250
 NucSpn=           1           1           0           1           0           1           1           1           0           1
 AtZEff=   0.0000000   0.0000000   0.0000000   0.0000000   0.0000000   0.0000000   0.0000000   0.0000000   0.0000000   0.0000000
 NQMom=    0.0000000   0.0000000   0.0000000   0.0000000   0.0000000   0.0000000   0.0000000   0.0000000   0.0000000   0.0000000
 NMagM=    2.7928460   2.7928460   0.0000000   2.7928460   0.0000000   2.7928460   2.7928460   2.7928460   0.0000000   2.7928460
 AtZNuc=   1.0000000   1.0000000   6.0000000   1.0000000   6.0000000   1.0000000   1.0000000   1.0000000   6.0000000   1.0000000

  Atom        61          62          63          64          65          66          67          68          69          70
 IAtWgt=           1          12           1           1          12           1          12           1           1           1
 AtmWgt=   1.0078250  12.0000000   1.0078250   1.0078250  12.0000000   1.0078250  12.0000000   1.0078250   1.0078250   1.0078250
 NucSpn=           1           0           1           1           0           1           0           1           1           1
 AtZEff=   0.0000000   0.0000000   0.0000000   0.0000000   0.0000000   0.0000000   0.0000000   0.0000000   0.0000000   0.0000000
 NQMom=    0.0000000   0.0000000   0.0000000   0.0000000   0.0000000   0.0000000   0.0000000   0.0000000   0.0000000   0.0000000
 NMagM=    2.7928460   0.0000000   2.7928460   2.7928460   0.0000000   2.7928460   0.0000000   2.7928460   2.7928460   2.7928460
 AtZNuc=   1.0000000   6.0000000   1.0000000   1.0000000   6.0000000   1.0000000   6.0000000   1.0000000   1.0000000   1.0000000

  Atom        71          72          73          74
 IAtWgt=          12           1           1           1
 AtmWgt=  12.0000000   1.0078250   1.0078250   1.0078250
 NucSpn=           0           1           1           1
 AtZEff=   0.0000000   0.0000000   0.0000000   0.0000000
 NQMom=    0.0000000   0.0000000   0.0000000   0.0000000
 NMagM=    0.0000000   2.7928460   2.7928460   2.7928460
 AtZNuc=   6.0000000   1.0000000   1.0000000   1.0000000
 Leave Link  101 at Mon Mar 20 12:50:42 2017, MaxMem=    33554432 cpu:         1.0
 (Enter /home/michal/g09/l202.exe)
 Symmetry turned off by external request.
 Stoichiometry    C27H46O
 Framework group  C1[X(C27H46O)]
 Deg. of freedom   216
 Full point group                 C1      NOp   1
                          Input orientation:                          
 ---------------------------------------------------------------------
 Center     Atomic      Atomic             Coordinates (Angstroms)
 Number     Number       Type             X           Y           Z
 ---------------------------------------------------------------------
      1          8           0        4.213198    6.547824    4.125328
      2          1           0        4.992333    6.898071    3.673417
      3          6           0        0.000000    0.000000    0.000000
      4          6           0        1.345099    0.618957   -0.473410
      5          1           0        2.126851    0.000000    0.000000
      6          6           0        1.612260    2.053571    0.000000
      7          1           0        0.847683    2.721751   -0.421166
      8          6           0        1.547060    2.117197    1.548596
      9          1           0        2.411431    1.531523    1.903255
     10          6           0        0.091456   -1.403154   -0.694955
     11          1           0        0.843975   -1.966947   -0.124189
     12          6           0        0.035665    0.008374    1.542020
     13          1           0        0.838503   -0.663538    1.878711
     14          1           0       -0.894126   -0.378919    1.971238
     15          6           0        1.761464    3.568896    2.104698
     16          6           0        1.401354    0.309842   -1.977649
     17          1           0        2.426270    0.289018   -2.361368
     18          1           0        0.865368    1.076121   -2.551481
     19          6           0        0.280796    1.424464    2.103863
     20          1           0       -0.601056    2.039205    1.894625
     21          1           0        0.346711    1.356485    3.195648
     22          6           0        0.698644   -1.071143   -2.098214
     23          1           0       -0.092176   -1.038302   -2.856877
     24          1           0        1.396962   -1.851467   -2.417249
     25          6           0        2.985372    2.546007   -0.485020
     26          1           0        2.950752    2.759770   -1.561612
     27          1           0        3.726300    1.736887   -0.372937
     28          6           0       -1.174990   -2.289570   -0.793018
     29          1           0       -1.924540   -1.724650   -1.366275
     30          6           0       -1.229166    0.779103   -0.520876
     31          1           0       -2.155065    0.345988   -0.127437
     32          1           0       -1.212993    1.829883   -0.221497
     33          1           0       -1.297479    0.756087   -1.612801
     34          6           0        2.936811    4.243822    1.383374
     35          6           0        2.113278    3.473267    3.622151
     36          1           0        2.887175    2.702954    3.746388
     37          1           0        1.236244    3.124912    4.178373
     38          6           0        3.470030    3.763119    0.250498
     39          1           0        4.321107    4.286062   -0.187307
     40          6           0        0.493860    4.445862    1.921080
     41          1           0       -0.324402    4.106452    2.563990
     42          1           0        0.688722    5.490795    2.174822
     43          1           0        0.146231    4.425560    0.883541
     44          6           0        3.487973    5.507243    2.017837
     45          1           0        4.375460    5.838012    1.463014
     46          1           0        2.755677    6.324960    1.959412
     47          6           0        2.618538    4.778691    4.253544
     48          1           0        1.837993    5.549719    4.249265
     49          1           0        2.885328    4.608390    5.302778
     50          6           0       -0.926524   -3.588745   -1.607488
     51          1           0       -1.896636   -4.090543   -1.719527
     52          1           0       -0.608793   -3.325813   -2.624644
     53          6           0        3.829910    5.315522    3.502471
     54          1           0        4.654856    4.589008    3.588549
     55          6           0       -1.803654   -2.626661    0.572046
     56          1           0       -1.069088   -3.047246    1.267922
     57          1           0       -2.607004   -3.363270    0.452025
     58          1           0       -2.240906   -1.746237    1.049440
     59          6           0        0.090387   -4.580751   -1.018222
     60          1           0        1.050953   -4.072247   -0.866339
     61          1           0       -0.234881   -4.906599   -0.022744
     62          6           0        0.352670   -5.811457   -1.907371
     63          1           0        1.169560   -6.398204   -1.461348
     64          1           0        0.727018   -5.464113   -2.881357
     65          6           0       -0.838266   -6.761907   -2.155314
     66          1           0       -1.651372   -6.184377   -2.617768
     67          6           0       -1.377641   -7.378064   -0.854726
     68          1           0       -1.745939   -6.617704   -0.158511
     69          1           0       -2.206719   -8.064412   -1.061404
     70          1           0       -0.593803   -7.949548   -0.340538
     71          6           0       -0.436979   -7.865094   -3.147801
     72          1           0       -0.085986   -7.441415   -4.095825
     73          1           0       -1.281108   -8.528317   -3.368796
     74          1           0        0.373013   -8.483063   -2.739185
 ---------------------------------------------------------------------
 Rotational constants (GHZ):      0.5161146      0.0568150      0.0553859
 Leave Link  202 at Mon Mar 20 12:50:42 2017, MaxMem=    33554432 cpu:         0.0
 (Enter /home/michal/g09/l301.exe)
 Standard basis: 6-31G(d) (6D, 7F)
 Ernie: Thresh=  0.10000D-02 Tol=  0.10000D-05 Strict=F.
 AO basis set in the form of general basis input (Overlap normalization):
      1 0
 S   6 1.00       0.000000000000
      0.5484671660D+04  0.1831074430D-02
      0.8252349460D+03  0.1395017220D-01
      0.1880469580D+03  0.6844507810D-01
      0.5296450000D+02  0.2327143360D+00
      0.1689757040D+02  0.4701928980D+00
      0.5799635340D+01  0.3585208530D+00
 SP   3 1.00       0.000000000000
      0.1553961625D+02 -0.1107775495D+00  0.7087426823D-01
      0.3599933586D+01 -0.1480262627D+00  0.3397528391D+00
      0.1013761750D+01  0.1130767015D+01  0.7271585773D+00
 SP   1 1.00       0.000000000000
      0.2700058226D+00  0.1000000000D+01  0.1000000000D+01
 D   1 1.00       0.000000000000
      0.8000000000D+00  0.1000000000D+01
 ****
      2 0
 S   3 1.00       0.000000000000
      0.1873113696D+02  0.3349460434D-01
      0.2825394365D+01  0.2347269535D+00
      0.6401216923D+00  0.8137573261D+00
 S   1 1.00       0.000000000000
      0.1612777588D+00  0.1000000000D+01
 ****
      3 0
 S   6 1.00       0.000000000000
      0.3047524880D+04  0.1834737132D-02
      0.4573695180D+03  0.1403732281D-01
      0.1039486850D+03  0.6884262226D-01
      0.2921015530D+02  0.2321844432D+00
      0.9286662960D+01  0.4679413484D+00
      0.3163926960D+01  0.3623119853D+00
 SP   3 1.00       0.000000000000
      0.7868272350D+01 -0.1193324198D+00  0.6899906659D-01
      0.1881288540D+01 -0.1608541517D+00  0.3164239610D+00
      0.5442492580D+00  0.1143456438D+01  0.7443082909D+00
 SP   1 1.00       0.000000000000
      0.1687144782D+00  0.1000000000D+01  0.1000000000D+01
 D   1 1.00       0.000000000000
      0.8000000000D+00  0.1000000000D+01
 ****
      4 0
 S   6 1.00       0.000000000000
      0.3047524880D+04  0.1834737132D-02
      0.4573695180D+03  0.1403732281D-01
      0.1039486850D+03  0.6884262226D-01
      0.2921015530D+02  0.2321844432D+00
      0.9286662960D+01  0.4679413484D+00
      0.3163926960D+01  0.3623119853D+00
 SP   3 1.00       0.000000000000
      0.7868272350D+01 -0.1193324198D+00  0.6899906659D-01
      0.1881288540D+01 -0.1608541517D+00  0.3164239610D+00
      0.5442492580D+00  0.1143456438D+01  0.7443082909D+00
 SP   1 1.00       0.000000000000
      0.1687144782D+00  0.1000000000D+01  0.1000000000D+01
 D   1 1.00       0.000000000000
      0.8000000000D+00  0.1000000000D+01
 ****
      5 0
 S   3 1.00       0.000000000000
      0.1873113696D+02  0.3349460434D-01
      0.2825394365D+01  0.2347269535D+00
      0.6401216923D+00  0.8137573261D+00
 S   1 1.00       0.000000000000
      0.1612777588D+00  0.1000000000D+01
 ****
      6 0
 S   6 1.00       0.000000000000
      0.3047524880D+04  0.1834737132D-02
      0.4573695180D+03  0.1403732281D-01
      0.1039486850D+03  0.6884262226D-01
      0.2921015530D+02  0.2321844432D+00
      0.9286662960D+01  0.4679413484D+00
      0.3163926960D+01  0.3623119853D+00
 SP   3 1.00       0.000000000000
      0.7868272350D+01 -0.1193324198D+00  0.6899906659D-01
      0.1881288540D+01 -0.1608541517D+00  0.3164239610D+00
      0.5442492580D+00  0.1143456438D+01  0.7443082909D+00
 SP   1 1.00       0.000000000000
      0.1687144782D+00  0.1000000000D+01  0.1000000000D+01
 D   1 1.00       0.000000000000
      0.8000000000D+00  0.1000000000D+01
 ****
      7 0
 S   3 1.00       0.000000000000
      0.1873113696D+02  0.3349460434D-01
      0.2825394365D+01  0.2347269535D+00
      0.6401216923D+00  0.8137573261D+00
 S   1 1.00       0.000000000000
      0.1612777588D+00  0.1000000000D+01
 ****
      8 0
 S   6 1.00       0.000000000000
      0.3047524880D+04  0.1834737132D-02
      0.4573695180D+03  0.1403732281D-01
      0.1039486850D+03  0.6884262226D-01
      0.2921015530D+02  0.2321844432D+00
      0.9286662960D+01  0.4679413484D+00
      0.3163926960D+01  0.3623119853D+00
 SP   3 1.00       0.000000000000
      0.7868272350D+01 -0.1193324198D+00  0.6899906659D-01
      0.1881288540D+01 -0.1608541517D+00  0.3164239610D+00
      0.5442492580D+00  0.1143456438D+01  0.7443082909D+00
 SP   1 1.00       0.000000000000
      0.1687144782D+00  0.1000000000D+01  0.1000000000D+01
 D   1 1.00       0.000000000000
      0.8000000000D+00  0.1000000000D+01
 ****
      9 0
 S   3 1.00       0.000000000000
      0.1873113696D+02  0.3349460434D-01
      0.2825394365D+01  0.2347269535D+00
      0.6401216923D+00  0.8137573261D+00
 S   1 1.00       0.000000000000
      0.1612777588D+00  0.1000000000D+01
 ****
     10 0
 S   6 1.00       0.000000000000
      0.3047524880D+04  0.1834737132D-02
      0.4573695180D+03  0.1403732281D-01
      0.1039486850D+03  0.6884262226D-01
      0.2921015530D+02  0.2321844432D+00
      0.9286662960D+01  0.4679413484D+00
      0.3163926960D+01  0.3623119853D+00
 SP   3 1.00       0.000000000000
      0.7868272350D+01 -0.1193324198D+00  0.6899906659D-01
      0.1881288540D+01 -0.1608541517D+00  0.3164239610D+00
      0.5442492580D+00  0.1143456438D+01  0.7443082909D+00
 SP   1 1.00       0.000000000000
      0.1687144782D+00  0.1000000000D+01  0.1000000000D+01
 D   1 1.00       0.000000000000
      0.8000000000D+00  0.1000000000D+01
 ****
     11 0
 S   3 1.00       0.000000000000
      0.1873113696D+02  0.3349460434D-01
      0.2825394365D+01  0.2347269535D+00
      0.6401216923D+00  0.8137573261D+00
 S   1 1.00       0.000000000000
      0.1612777588D+00  0.1000000000D+01
 ****
     12 0
 S   6 1.00       0.000000000000
      0.3047524880D+04  0.1834737132D-02
      0.4573695180D+03  0.1403732281D-01
      0.1039486850D+03  0.6884262226D-01
      0.2921015530D+02  0.2321844432D+00
      0.9286662960D+01  0.4679413484D+00
      0.3163926960D+01  0.3623119853D+00
 SP   3 1.00       0.000000000000
      0.7868272350D+01 -0.1193324198D+00  0.6899906659D-01
      0.1881288540D+01 -0.1608541517D+00  0.3164239610D+00
      0.5442492580D+00  0.1143456438D+01  0.7443082909D+00
 SP   1 1.00       0.000000000000
      0.1687144782D+00  0.1000000000D+01  0.1000000000D+01
 D   1 1.00       0.000000000000
      0.8000000000D+00  0.1000000000D+01
 ****
     13 0
 S   3 1.00       0.000000000000
      0.1873113696D+02  0.3349460434D-01
      0.2825394365D+01  0.2347269535D+00
      0.6401216923D+00  0.8137573261D+00
 S   1 1.00       0.000000000000
      0.1612777588D+00  0.1000000000D+01
 ****
     14 0
 S   3 1.00       0.000000000000
      0.1873113696D+02  0.3349460434D-01
      0.2825394365D+01  0.2347269535D+00
      0.6401216923D+00  0.8137573261D+00
 S   1 1.00       0.000000000000
      0.1612777588D+00  0.1000000000D+01
 ****
     15 0
 S   6 1.00       0.000000000000
      0.3047524880D+04  0.1834737132D-02
      0.4573695180D+03  0.1403732281D-01
      0.1039486850D+03  0.6884262226D-01
      0.2921015530D+02  0.2321844432D+00
      0.9286662960D+01  0.4679413484D+00
      0.3163926960D+01  0.3623119853D+00
 SP   3 1.00       0.000000000000
      0.7868272350D+01 -0.1193324198D+00  0.6899906659D-01
      0.1881288540D+01 -0.1608541517D+00  0.3164239610D+00
      0.5442492580D+00  0.1143456438D+01  0.7443082909D+00
 SP   1 1.00       0.000000000000
      0.1687144782D+00  0.1000000000D+01  0.1000000000D+01
 D   1 1.00       0.000000000000
      0.8000000000D+00  0.1000000000D+01
 ****
     16 0
 S   6 1.00       0.000000000000
      0.3047524880D+04  0.1834737132D-02
      0.4573695180D+03  0.1403732281D-01
      0.1039486850D+03  0.6884262226D-01
      0.2921015530D+02  0.2321844432D+00
      0.9286662960D+01  0.4679413484D+00
      0.3163926960D+01  0.3623119853D+00
 SP   3 1.00       0.000000000000
      0.7868272350D+01 -0.1193324198D+00  0.6899906659D-01
      0.1881288540D+01 -0.1608541517D+00  0.3164239610D+00
      0.5442492580D+00  0.1143456438D+01  0.7443082909D+00
 SP   1 1.00       0.000000000000
      0.1687144782D+00  0.1000000000D+01  0.1000000000D+01
 D   1 1.00       0.000000000000
      0.8000000000D+00  0.1000000000D+01
 ****
     17 0
 S   3 1.00       0.000000000000
      0.1873113696D+02  0.3349460434D-01
      0.2825394365D+01  0.2347269535D+00
      0.6401216923D+00  0.8137573261D+00
 S   1 1.00       0.000000000000
      0.1612777588D+00  0.1000000000D+01
 ****
     18 0
 S   3 1.00       0.000000000000
      0.1873113696D+02  0.3349460434D-01
      0.2825394365D+01  0.2347269535D+00
      0.6401216923D+00  0.8137573261D+00
 S   1 1.00       0.000000000000
      0.1612777588D+00  0.1000000000D+01
 ****
     19 0
 S   6 1.00       0.000000000000
      0.3047524880D+04  0.1834737132D-02
      0.4573695180D+03  0.1403732281D-01
      0.1039486850D+03  0.6884262226D-01
      0.2921015530D+02  0.2321844432D+00
      0.9286662960D+01  0.4679413484D+00
      0.3163926960D+01  0.3623119853D+00
 SP   3 1.00       0.000000000000
      0.7868272350D+01 -0.1193324198D+00  0.6899906659D-01
      0.1881288540D+01 -0.1608541517D+00  0.3164239610D+00
      0.5442492580D+00  0.1143456438D+01  0.7443082909D+00
 SP   1 1.00       0.000000000000
      0.1687144782D+00  0.1000000000D+01  0.1000000000D+01
 D   1 1.00       0.000000000000
      0.8000000000D+00  0.1000000000D+01
 ****
     20 0
 S   3 1.00       0.000000000000
      0.1873113696D+02  0.3349460434D-01
      0.2825394365D+01  0.2347269535D+00
      0.6401216923D+00  0.8137573261D+00
 S   1 1.00       0.000000000000
      0.1612777588D+00  0.1000000000D+01
 ****
     21 0
 S   3 1.00       0.000000000000
      0.1873113696D+02  0.3349460434D-01
      0.2825394365D+01  0.2347269535D+00
      0.6401216923D+00  0.8137573261D+00
 S   1 1.00       0.000000000000
      0.1612777588D+00  0.1000000000D+01
 ****
     22 0
 S   6 1.00       0.000000000000
      0.3047524880D+04  0.1834737132D-02
      0.4573695180D+03  0.1403732281D-01
      0.1039486850D+03  0.6884262226D-01
      0.2921015530D+02  0.2321844432D+00
      0.9286662960D+01  0.4679413484D+00
      0.3163926960D+01  0.3623119853D+00
 SP   3 1.00       0.000000000000
      0.7868272350D+01 -0.1193324198D+00  0.6899906659D-01
      0.1881288540D+01 -0.1608541517D+00  0.3164239610D+00
      0.5442492580D+00  0.1143456438D+01  0.7443082909D+00
 SP   1 1.00       0.000000000000
      0.1687144782D+00  0.1000000000D+01  0.1000000000D+01
 D   1 1.00       0.000000000000
      0.8000000000D+00  0.1000000000D+01
 ****
     23 0
 S   3 1.00       0.000000000000
      0.1873113696D+02  0.3349460434D-01
      0.2825394365D+01  0.2347269535D+00
      0.6401216923D+00  0.8137573261D+00
 S   1 1.00       0.000000000000
      0.1612777588D+00  0.1000000000D+01
 ****
     24 0
 S   3 1.00       0.000000000000
      0.1873113696D+02  0.3349460434D-01
      0.2825394365D+01  0.2347269535D+00
      0.6401216923D+00  0.8137573261D+00
 S   1 1.00       0.000000000000
      0.1612777588D+00  0.1000000000D+01
 ****
     25 0
 S   6 1.00       0.000000000000
      0.3047524880D+04  0.1834737132D-02
      0.4573695180D+03  0.1403732281D-01
      0.1039486850D+03  0.6884262226D-01
      0.2921015530D+02  0.2321844432D+00
      0.9286662960D+01  0.4679413484D+00
      0.3163926960D+01  0.3623119853D+00
 SP   3 1.00       0.000000000000
      0.7868272350D+01 -0.1193324198D+00  0.6899906659D-01
      0.1881288540D+01 -0.1608541517D+00  0.3164239610D+00
      0.5442492580D+00  0.1143456438D+01  0.7443082909D+00
 SP   1 1.00       0.000000000000
      0.1687144782D+00  0.1000000000D+01  0.1000000000D+01
 D   1 1.00       0.000000000000
      0.8000000000D+00  0.1000000000D+01
 ****
     26 0
 S   3 1.00       0.000000000000
      0.1873113696D+02  0.3349460434D-01
      0.2825394365D+01  0.2347269535D+00
      0.6401216923D+00  0.8137573261D+00
 S   1 1.00       0.000000000000
      0.1612777588D+00  0.1000000000D+01
 ****
     27 0
 S   3 1.00       0.000000000000
      0.1873113696D+02  0.3349460434D-01
      0.2825394365D+01  0.2347269535D+00
      0.6401216923D+00  0.8137573261D+00
 S   1 1.00       0.000000000000
      0.1612777588D+00  0.1000000000D+01
 ****
     28 0
 S   6 1.00       0.000000000000
      0.3047524880D+04  0.1834737132D-02
      0.4573695180D+03  0.1403732281D-01
      0.1039486850D+03  0.6884262226D-01
      0.2921015530D+02  0.2321844432D+00
      0.9286662960D+01  0.4679413484D+00
      0.3163926960D+01  0.3623119853D+00
 SP   3 1.00       0.000000000000
      0.7868272350D+01 -0.1193324198D+00  0.6899906659D-01
      0.1881288540D+01 -0.1608541517D+00  0.3164239610D+00
      0.5442492580D+00  0.1143456438D+01  0.7443082909D+00
 SP   1 1.00       0.000000000000
      0.1687144782D+00  0.1000000000D+01  0.1000000000D+01
 D   1 1.00       0.000000000000
      0.8000000000D+00  0.1000000000D+01
 ****
     29 0
 S   3 1.00       0.000000000000
      0.1873113696D+02  0.3349460434D-01
      0.2825394365D+01  0.2347269535D+00
      0.6401216923D+00  0.8137573261D+00
 S   1 1.00       0.000000000000
      0.1612777588D+00  0.1000000000D+01
 ****
     30 0
 S   6 1.00       0.000000000000
      0.3047524880D+04  0.1834737132D-02
      0.4573695180D+03  0.1403732281D-01
      0.1039486850D+03  0.6884262226D-01
      0.2921015530D+02  0.2321844432D+00
      0.9286662960D+01  0.4679413484D+00
      0.3163926960D+01  0.3623119853D+00
 SP   3 1.00       0.000000000000
      0.7868272350D+01 -0.1193324198D+00  0.6899906659D-01
      0.1881288540D+01 -0.1608541517D+00  0.3164239610D+00
      0.5442492580D+00  0.1143456438D+01  0.7443082909D+00
 SP   1 1.00       0.000000000000
      0.1687144782D+00  0.1000000000D+01  0.1000000000D+01
 D   1 1.00       0.000000000000
      0.8000000000D+00  0.1000000000D+01
 ****
     31 0
 S   3 1.00       0.000000000000
      0.1873113696D+02  0.3349460434D-01
      0.2825394365D+01  0.2347269535D+00
      0.6401216923D+00  0.8137573261D+00
 S   1 1.00       0.000000000000
      0.1612777588D+00  0.1000000000D+01
 ****
     32 0
 S   3 1.00       0.000000000000
      0.1873113696D+02  0.3349460434D-01
      0.2825394365D+01  0.2347269535D+00
      0.6401216923D+00  0.8137573261D+00
 S   1 1.00       0.000000000000
      0.1612777588D+00  0.1000000000D+01
 ****
     33 0
 S   3 1.00       0.000000000000
      0.1873113696D+02  0.3349460434D-01
      0.2825394365D+01  0.2347269535D+00
      0.6401216923D+00  0.8137573261D+00
 S   1 1.00       0.000000000000
      0.1612777588D+00  0.1000000000D+01
 ****
     34 0
 S   6 1.00       0.000000000000
      0.3047524880D+04  0.1834737132D-02
      0.4573695180D+03  0.1403732281D-01
      0.1039486850D+03  0.6884262226D-01
      0.2921015530D+02  0.2321844432D+00
      0.9286662960D+01  0.4679413484D+00
      0.3163926960D+01  0.3623119853D+00
 SP   3 1.00       0.000000000000
      0.7868272350D+01 -0.1193324198D+00  0.6899906659D-01
      0.1881288540D+01 -0.1608541517D+00  0.3164239610D+00
      0.5442492580D+00  0.1143456438D+01  0.7443082909D+00
 SP   1 1.00       0.000000000000
      0.1687144782D+00  0.1000000000D+01  0.1000000000D+01
 D   1 1.00       0.000000000000
      0.8000000000D+00  0.1000000000D+01
 ****
     35 0
 S   6 1.00       0.000000000000
      0.3047524880D+04  0.1834737132D-02
      0.4573695180D+03  0.1403732281D-01
      0.1039486850D+03  0.6884262226D-01
      0.2921015530D+02  0.2321844432D+00
      0.9286662960D+01  0.4679413484D+00
      0.3163926960D+01  0.3623119853D+00
 SP   3 1.00       0.000000000000
      0.7868272350D+01 -0.1193324198D+00  0.6899906659D-01
      0.1881288540D+01 -0.1608541517D+00  0.3164239610D+00
      0.5442492580D+00  0.1143456438D+01  0.7443082909D+00
 SP   1 1.00       0.000000000000
      0.1687144782D+00  0.1000000000D+01  0.1000000000D+01
 D   1 1.00       0.000000000000
      0.8000000000D+00  0.1000000000D+01
 ****
     36 0
 S   3 1.00       0.000000000000
      0.1873113696D+02  0.3349460434D-01
      0.2825394365D+01  0.2347269535D+00
      0.6401216923D+00  0.8137573261D+00
 S   1 1.00       0.000000000000
      0.1612777588D+00  0.1000000000D+01
 ****
     37 0
 S   3 1.00       0.000000000000
      0.1873113696D+02  0.3349460434D-01
      0.2825394365D+01  0.2347269535D+00
      0.6401216923D+00  0.8137573261D+00
 S   1 1.00       0.000000000000
      0.1612777588D+00  0.1000000000D+01
 ****
     38 0
 S   6 1.00       0.000000000000
      0.3047524880D+04  0.1834737132D-02
      0.4573695180D+03  0.1403732281D-01
      0.1039486850D+03  0.6884262226D-01
      0.2921015530D+02  0.2321844432D+00
      0.9286662960D+01  0.4679413484D+00
      0.3163926960D+01  0.3623119853D+00
 SP   3 1.00       0.000000000000
      0.7868272350D+01 -0.1193324198D+00  0.6899906659D-01
      0.1881288540D+01 -0.1608541517D+00  0.3164239610D+00
      0.5442492580D+00  0.1143456438D+01  0.7443082909D+00
 SP   1 1.00       0.000000000000
      0.1687144782D+00  0.1000000000D+01  0.1000000000D+01
 D   1 1.00       0.000000000000
      0.8000000000D+00  0.1000000000D+01
 ****
     39 0
 S   3 1.00       0.000000000000
      0.1873113696D+02  0.3349460434D-01
      0.2825394365D+01  0.2347269535D+00
      0.6401216923D+00  0.8137573261D+00
 S   1 1.00       0.000000000000
      0.1612777588D+00  0.1000000000D+01
 ****
     40 0
 S   6 1.00       0.000000000000
      0.3047524880D+04  0.1834737132D-02
      0.4573695180D+03  0.1403732281D-01
      0.1039486850D+03  0.6884262226D-01
      0.2921015530D+02  0.2321844432D+00
      0.9286662960D+01  0.4679413484D+00
      0.3163926960D+01  0.3623119853D+00
 SP   3 1.00       0.000000000000
      0.7868272350D+01 -0.1193324198D+00  0.6899906659D-01
      0.1881288540D+01 -0.1608541517D+00  0.3164239610D+00
      0.5442492580D+00  0.1143456438D+01  0.7443082909D+00
 SP   1 1.00       0.000000000000
      0.1687144782D+00  0.1000000000D+01  0.1000000000D+01
 D   1 1.00       0.000000000000
      0.8000000000D+00  0.1000000000D+01
 ****
     41 0
 S   3 1.00       0.000000000000
      0.1873113696D+02  0.3349460434D-01
      0.2825394365D+01  0.2347269535D+00
      0.6401216923D+00  0.8137573261D+00
 S   1 1.00       0.000000000000
      0.1612777588D+00  0.1000000000D+01
 ****
     42 0
 S   3 1.00       0.000000000000
      0.1873113696D+02  0.3349460434D-01
      0.2825394365D+01  0.2347269535D+00
      0.6401216923D+00  0.8137573261D+00
 S   1 1.00       0.000000000000
      0.1612777588D+00  0.1000000000D+01
 ****
     43 0
 S   3 1.00       0.000000000000
      0.1873113696D+02  0.3349460434D-01
      0.2825394365D+01  0.2347269535D+00
      0.6401216923D+00  0.8137573261D+00
 S   1 1.00       0.000000000000
      0.1612777588D+00  0.1000000000D+01
 ****
     44 0
 S   6 1.00       0.000000000000
      0.3047524880D+04  0.1834737132D-02
      0.4573695180D+03  0.1403732281D-01
      0.1039486850D+03  0.6884262226D-01
      0.2921015530D+02  0.2321844432D+00
      0.9286662960D+01  0.4679413484D+00
      0.3163926960D+01  0.3623119853D+00
 SP   3 1.00       0.000000000000
      0.7868272350D+01 -0.1193324198D+00  0.6899906659D-01
      0.1881288540D+01 -0.1608541517D+00  0.3164239610D+00
      0.5442492580D+00  0.1143456438D+01  0.7443082909D+00
 SP   1 1.00       0.000000000000
      0.1687144782D+00  0.1000000000D+01  0.1000000000D+01
 D   1 1.00       0.000000000000
      0.8000000000D+00  0.1000000000D+01
 ****
     45 0
 S   3 1.00       0.000000000000
      0.1873113696D+02  0.3349460434D-01
      0.2825394365D+01  0.2347269535D+00
      0.6401216923D+00  0.8137573261D+00
 S   1 1.00       0.000000000000
      0.1612777588D+00  0.1000000000D+01
 ****
     46 0
 S   3 1.00       0.000000000000
      0.1873113696D+02  0.3349460434D-01
      0.2825394365D+01  0.2347269535D+00
      0.6401216923D+00  0.8137573261D+00
 S   1 1.00       0.000000000000
      0.1612777588D+00  0.1000000000D+01
 ****
     47 0
 S   6 1.00       0.000000000000
      0.3047524880D+04  0.1834737132D-02
      0.4573695180D+03  0.1403732281D-01
      0.1039486850D+03  0.6884262226D-01
      0.2921015530D+02  0.2321844432D+00
      0.9286662960D+01  0.4679413484D+00
      0.3163926960D+01  0.3623119853D+00
 SP   3 1.00       0.000000000000
      0.7868272350D+01 -0.1193324198D+00  0.6899906659D-01
      0.1881288540D+01 -0.1608541517D+00  0.3164239610D+00
      0.5442492580D+00  0.1143456438D+01  0.7443082909D+00
 SP   1 1.00       0.000000000000
      0.1687144782D+00  0.1000000000D+01  0.1000000000D+01
 D   1 1.00       0.000000000000
      0.8000000000D+00  0.1000000000D+01
 ****
     48 0
 S   3 1.00       0.000000000000
      0.1873113696D+02  0.3349460434D-01
      0.2825394365D+01  0.2347269535D+00
      0.6401216923D+00  0.8137573261D+00
 S   1 1.00       0.000000000000
      0.1612777588D+00  0.1000000000D+01
 ****
     49 0
 S   3 1.00       0.000000000000
      0.1873113696D+02  0.3349460434D-01
      0.2825394365D+01  0.2347269535D+00
      0.6401216923D+00  0.8137573261D+00
 S   1 1.00       0.000000000000
      0.1612777588D+00  0.1000000000D+01
 ****
     50 0
 S   6 1.00       0.000000000000
      0.3047524880D+04  0.1834737132D-02
      0.4573695180D+03  0.1403732281D-01
      0.1039486850D+03  0.6884262226D-01
      0.2921015530D+02  0.2321844432D+00
      0.9286662960D+01  0.4679413484D+00
      0.3163926960D+01  0.3623119853D+00
 SP   3 1.00       0.000000000000
      0.7868272350D+01 -0.1193324198D+00  0.6899906659D-01
      0.1881288540D+01 -0.1608541517D+00  0.3164239610D+00
      0.5442492580D+00  0.1143456438D+01  0.7443082909D+00
 SP   1 1.00       0.000000000000
      0.1687144782D+00  0.1000000000D+01  0.1000000000D+01
 D   1 1.00       0.000000000000
      0.8000000000D+00  0.1000000000D+01
 ****
     51 0
 S   3 1.00       0.000000000000
      0.1873113696D+02  0.3349460434D-01
      0.2825394365D+01  0.2347269535D+00
      0.6401216923D+00  0.8137573261D+00
 S   1 1.00       0.000000000000
      0.1612777588D+00  0.1000000000D+01
 ****
     52 0
 S   3 1.00       0.000000000000
      0.1873113696D+02  0.3349460434D-01
      0.2825394365D+01  0.2347269535D+00
      0.6401216923D+00  0.8137573261D+00
 S   1 1.00       0.000000000000
      0.1612777588D+00  0.1000000000D+01
 ****
     53 0
 S   6 1.00       0.000000000000
      0.3047524880D+04  0.1834737132D-02
      0.4573695180D+03  0.1403732281D-01
      0.1039486850D+03  0.6884262226D-01
      0.2921015530D+02  0.2321844432D+00
      0.9286662960D+01  0.4679413484D+00
      0.3163926960D+01  0.3623119853D+00
 SP   3 1.00       0.000000000000
      0.7868272350D+01 -0.1193324198D+00  0.6899906659D-01
      0.1881288540D+01 -0.1608541517D+00  0.3164239610D+00
      0.5442492580D+00  0.1143456438D+01  0.7443082909D+00
 SP   1 1.00       0.000000000000
      0.1687144782D+00  0.1000000000D+01  0.1000000000D+01
 D   1 1.00       0.000000000000
      0.8000000000D+00  0.1000000000D+01
 ****
     54 0
 S   3 1.00       0.000000000000
      0.1873113696D+02  0.3349460434D-01
      0.2825394365D+01  0.2347269535D+00
      0.6401216923D+00  0.8137573261D+00
 S   1 1.00       0.000000000000
      0.1612777588D+00  0.1000000000D+01
 ****
     55 0
 S   6 1.00       0.000000000000
      0.3047524880D+04  0.1834737132D-02
      0.4573695180D+03  0.1403732281D-01
      0.1039486850D+03  0.6884262226D-01
      0.2921015530D+02  0.2321844432D+00
      0.9286662960D+01  0.4679413484D+00
      0.3163926960D+01  0.3623119853D+00
 SP   3 1.00       0.000000000000
      0.7868272350D+01 -0.1193324198D+00  0.6899906659D-01
      0.1881288540D+01 -0.1608541517D+00  0.3164239610D+00
      0.5442492580D+00  0.1143456438D+01  0.7443082909D+00
 SP   1 1.00       0.000000000000
      0.1687144782D+00  0.1000000000D+01  0.1000000000D+01
 D   1 1.00       0.000000000000
      0.8000000000D+00  0.1000000000D+01
 ****
     56 0
 S   3 1.00       0.000000000000
      0.1873113696D+02  0.3349460434D-01
      0.2825394365D+01  0.2347269535D+00
      0.6401216923D+00  0.8137573261D+00
 S   1 1.00       0.000000000000
      0.1612777588D+00  0.1000000000D+01
 ****
     57 0
 S   3 1.00       0.000000000000
      0.1873113696D+02  0.3349460434D-01
      0.2825394365D+01  0.2347269535D+00
      0.6401216923D+00  0.8137573261D+00
 S   1 1.00       0.000000000000
      0.1612777588D+00  0.1000000000D+01
 ****
     58 0
 S   3 1.00       0.000000000000
      0.1873113696D+02  0.3349460434D-01
      0.2825394365D+01  0.2347269535D+00
      0.6401216923D+00  0.8137573261D+00
 S   1 1.00       0.000000000000
      0.1612777588D+00  0.1000000000D+01
 ****
     59 0
 S   6 1.00       0.000000000000
      0.3047524880D+04  0.1834737132D-02
      0.4573695180D+03  0.1403732281D-01
      0.1039486850D+03  0.6884262226D-01
      0.2921015530D+02  0.2321844432D+00
      0.9286662960D+01  0.4679413484D+00
      0.3163926960D+01  0.3623119853D+00
 SP   3 1.00       0.000000000000
      0.7868272350D+01 -0.1193324198D+00  0.6899906659D-01
      0.1881288540D+01 -0.1608541517D+00  0.3164239610D+00
      0.5442492580D+00  0.1143456438D+01  0.7443082909D+00
 SP   1 1.00       0.000000000000
      0.1687144782D+00  0.1000000000D+01  0.1000000000D+01
 D   1 1.00       0.000000000000
      0.8000000000D+00  0.1000000000D+01
 ****
     60 0
 S   3 1.00       0.000000000000
      0.1873113696D+02  0.3349460434D-01
      0.2825394365D+01  0.2347269535D+00
      0.6401216923D+00  0.8137573261D+00
 S   1 1.00       0.000000000000
      0.1612777588D+00  0.1000000000D+01
 ****
     61 0
 S   3 1.00       0.000000000000
      0.1873113696D+02  0.3349460434D-01
      0.2825394365D+01  0.2347269535D+00
      0.6401216923D+00  0.8137573261D+00
 S   1 1.00       0.000000000000
      0.1612777588D+00  0.1000000000D+01
 ****
     62 0
 S   6 1.00       0.000000000000
      0.3047524880D+04  0.1834737132D-02
      0.4573695180D+03  0.1403732281D-01
      0.1039486850D+03  0.6884262226D-01
      0.2921015530D+02  0.2321844432D+00
      0.9286662960D+01  0.4679413484D+00
      0.3163926960D+01  0.3623119853D+00
 SP   3 1.00       0.000000000000
      0.7868272350D+01 -0.1193324198D+00  0.6899906659D-01
      0.1881288540D+01 -0.1608541517D+00  0.3164239610D+00
      0.5442492580D+00  0.1143456438D+01  0.7443082909D+00
 SP   1 1.00       0.000000000000
      0.1687144782D+00  0.1000000000D+01  0.1000000000D+01
 D   1 1.00       0.000000000000
      0.8000000000D+00  0.1000000000D+01
 ****
     63 0
 S   3 1.00       0.000000000000
      0.1873113696D+02  0.3349460434D-01
      0.2825394365D+01  0.2347269535D+00
      0.6401216923D+00  0.8137573261D+00
 S   1 1.00       0.000000000000
      0.1612777588D+00  0.1000000000D+01
 ****
     64 0
 S   3 1.00       0.000000000000
      0.1873113696D+02  0.3349460434D-01
      0.2825394365D+01  0.2347269535D+00
      0.6401216923D+00  0.8137573261D+00
 S   1 1.00       0.000000000000
      0.1612777588D+00  0.1000000000D+01
 ****
     65 0
 S   6 1.00       0.000000000000
      0.3047524880D+04  0.1834737132D-02
      0.4573695180D+03  0.1403732281D-01
      0.1039486850D+03  0.6884262226D-01
      0.2921015530D+02  0.2321844432D+00
      0.9286662960D+01  0.4679413484D+00
      0.3163926960D+01  0.3623119853D+00
 SP   3 1.00       0.000000000000
      0.7868272350D+01 -0.1193324198D+00  0.6899906659D-01
      0.1881288540D+01 -0.1608541517D+00  0.3164239610D+00
      0.5442492580D+00  0.1143456438D+01  0.7443082909D+00
 SP   1 1.00       0.000000000000
      0.1687144782D+00  0.1000000000D+01  0.1000000000D+01
 D   1 1.00       0.000000000000
      0.8000000000D+00  0.1000000000D+01
 ****
     66 0
 S   3 1.00       0.000000000000
      0.1873113696D+02  0.3349460434D-01
      0.2825394365D+01  0.2347269535D+00
      0.6401216923D+00  0.8137573261D+00
 S   1 1.00       0.000000000000
      0.1612777588D+00  0.1000000000D+01
 ****
     67 0
 S   6 1.00       0.000000000000
      0.3047524880D+04  0.1834737132D-02
      0.4573695180D+03  0.1403732281D-01
      0.1039486850D+03  0.6884262226D-01
      0.2921015530D+02  0.2321844432D+00
      0.9286662960D+01  0.4679413484D+00
      0.3163926960D+01  0.3623119853D+00
 SP   3 1.00       0.000000000000
      0.7868272350D+01 -0.1193324198D+00  0.6899906659D-01
      0.1881288540D+01 -0.1608541517D+00  0.3164239610D+00
      0.5442492580D+00  0.1143456438D+01  0.7443082909D+00
 SP   1 1.00       0.000000000000
      0.1687144782D+00  0.1000000000D+01  0.1000000000D+01
 D   1 1.00       0.000000000000
      0.8000000000D+00  0.1000000000D+01
 ****
     68 0
 S   3 1.00       0.000000000000
      0.1873113696D+02  0.3349460434D-01
      0.2825394365D+01  0.2347269535D+00
      0.6401216923D+00  0.8137573261D+00
 S   1 1.00       0.000000000000
      0.1612777588D+00  0.1000000000D+01
 ****
     69 0
 S   3 1.00       0.000000000000
      0.1873113696D+02  0.3349460434D-01
      0.2825394365D+01  0.2347269535D+00
      0.6401216923D+00  0.8137573261D+00
 S   1 1.00       0.000000000000
      0.1612777588D+00  0.1000000000D+01
 ****
     70 0
 S   3 1.00       0.000000000000
      0.1873113696D+02  0.3349460434D-01
      0.2825394365D+01  0.2347269535D+00
      0.6401216923D+00  0.8137573261D+00
 S   1 1.00       0.000000000000
      0.1612777588D+00  0.1000000000D+01
 ****
     71 0
 S   6 1.00       0.000000000000
      0.3047524880D+04  0.1834737132D-02
      0.4573695180D+03  0.1403732281D-01
      0.1039486850D+03  0.6884262226D-01
      0.2921015530D+02  0.2321844432D+00
      0.9286662960D+01  0.4679413484D+00
      0.3163926960D+01  0.3623119853D+00
 SP   3 1.00       0.000000000000
      0.7868272350D+01 -0.1193324198D+00  0.6899906659D-01
      0.1881288540D+01 -0.1608541517D+00  0.3164239610D+00
      0.5442492580D+00  0.1143456438D+01  0.7443082909D+00
 SP   1 1.00       0.000000000000
      0.1687144782D+00  0.1000000000D+01  0.1000000000D+01
 D   1 1.00       0.000000000000
      0.8000000000D+00  0.1000000000D+01
 ****
     72 0
 S   3 1.00       0.000000000000
      0.1873113696D+02  0.3349460434D-01
      0.2825394365D+01  0.2347269535D+00
      0.6401216923D+00  0.8137573261D+00
 S   1 1.00       0.000000000000
      0.1612777588D+00  0.1000000000D+01
 ****
     73 0
 S   3 1.00       0.000000000000
      0.1873113696D+02  0.3349460434D-01
      0.2825394365D+01  0.2347269535D+00
      0.6401216923D+00  0.8137573261D+00
 S   1 1.00       0.000000000000
      0.1612777588D+00  0.1000000000D+01
 ****
     74 0
 S   3 1.00       0.000000000000
      0.1873113696D+02  0.3349460434D-01
      0.2825394365D+01  0.2347269535D+00
      0.6401216923D+00  0.8137573261D+00
 S   1 1.00       0.000000000000
      0.1612777588D+00  0.1000000000D+01
 ****

 AO basis set (Overlap normalization):
 Atom O1       Shell     1 S   6     bf    1 -     1          7.961791157307         12.373594901124          7.795740336195
      0.5484671660D+04  0.1831074430D-02
      0.8252349460D+03  0.1395017220D-01
      0.1880469580D+03  0.6844507810D-01
      0.5296450000D+02  0.2327143360D+00
      0.1689757040D+02  0.4701928980D+00
      0.5799635340D+01  0.3585208530D+00
 Atom O1       Shell     2 SP   3    bf    2 -     5          7.961791157307         12.373594901124          7.795740336195
      0.1553961625D+02 -0.1107775495D+00  0.7087426823D-01
      0.3599933586D+01 -0.1480262627D+00  0.3397528391D+00
      0.1013761750D+01  0.1130767015D+01  0.7271585773D+00
 Atom O1       Shell     3 SP   1    bf    6 -     9          7.961791157307         12.373594901124          7.795740336195
      0.2700058226D+00  0.1000000000D+01  0.1000000000D+01
 Atom O1       Shell     4 D   1     bf   10 -    15          7.961791157307         12.373594901124          7.795740336195
      0.8000000000D+00  0.1000000000D+01
 Atom H2       Shell     5 S   3     bf   16 -    16          9.434142209756         13.035464657255          6.941751534969
      0.1873113696D+02  0.3349460434D-01
      0.2825394365D+01  0.2347269535D+00
      0.6401216923D+00  0.8137573261D+00
 Atom H2       Shell     6 S   1     bf   17 -    17          9.434142209756         13.035464657255          6.941751534969
      0.1612777588D+00  0.1000000000D+01
 Atom C3       Shell     7 S   6     bf   18 -    18          0.000000000000          0.000000000000          0.000000000000
      0.3047524880D+04  0.1834737132D-02
      0.4573695180D+03  0.1403732281D-01
      0.1039486850D+03  0.6884262226D-01
      0.2921015530D+02  0.2321844432D+00
      0.9286662960D+01  0.4679413484D+00
      0.3163926960D+01  0.3623119853D+00
 Atom C3       Shell     8 SP   3    bf   19 -    22          0.000000000000          0.000000000000          0.000000000000
      0.7868272350D+01 -0.1193324198D+00  0.6899906659D-01
      0.1881288540D+01 -0.1608541517D+00  0.3164239610D+00
      0.5442492580D+00  0.1143456438D+01  0.7443082909D+00
 Atom C3       Shell     9 SP   1    bf   23 -    26          0.000000000000          0.000000000000          0.000000000000
      0.1687144782D+00  0.1000000000D+01  0.1000000000D+01
 Atom C3       Shell    10 D   1     bf   27 -    32          0.000000000000          0.000000000000          0.000000000000
      0.8000000000D+00  0.1000000000D+01
 Atom C4       Shell    11 S   6     bf   33 -    33          2.541869619790          1.169658764498         -0.894614662754
      0.3047524880D+04  0.1834737132D-02
      0.4573695180D+03  0.1403732281D-01
      0.1039486850D+03  0.6884262226D-01
      0.2921015530D+02  0.2321844432D+00
      0.9286662960D+01  0.4679413484D+00
      0.3163926960D+01  0.3623119853D+00
 Atom C4       Shell    12 SP   3    bf   34 -    37          2.541869619790          1.169658764498         -0.894614662754
      0.7868272350D+01 -0.1193324198D+00  0.6899906659D-01
      0.1881288540D+01 -0.1608541517D+00  0.3164239610D+00
      0.5442492580D+00  0.1143456438D+01  0.7443082909D+00
 Atom C4       Shell    13 SP   1    bf   38 -    41          2.541869619790          1.169658764498         -0.894614662754
      0.1687144782D+00  0.1000000000D+01  0.1000000000D+01
 Atom C4       Shell    14 D   1     bf   42 -    47          2.541869619790          1.169658764498         -0.894614662754
      0.8000000000D+00  0.1000000000D+01
 Atom H5       Shell    15 S   3     bf   48 -    48          4.019165159564          0.000000000000          0.000000000000
      0.1873113696D+02  0.3349460434D-01
      0.2825394365D+01  0.2347269535D+00
      0.6401216923D+00  0.8137573261D+00
 Atom H5       Shell    16 S   1     bf   49 -    49          4.019165159564          0.000000000000          0.000000000000
      0.1612777588D+00  0.1000000000D+01
 Atom C6       Shell    17 S   6     bf   50 -    50          3.046730591999          3.880687105690          0.000000000000
      0.3047524880D+04  0.1834737132D-02
      0.4573695180D+03  0.1403732281D-01
      0.1039486850D+03  0.6884262226D-01
      0.2921015530D+02  0.2321844432D+00
      0.9286662960D+01  0.4679413484D+00
      0.3163926960D+01  0.3623119853D+00
 Atom C6       Shell    18 SP   3    bf   51 -    54          3.046730591999          3.880687105690          0.000000000000
      0.7868272350D+01 -0.1193324198D+00  0.6899906659D-01
      0.1881288540D+01 -0.1608541517D+00  0.3164239610D+00
      0.5442492580D+00  0.1143456438D+01  0.7443082909D+00
 Atom C6       Shell    19 SP   1    bf   55 -    58          3.046730591999          3.880687105690          0.000000000000
      0.1687144782D+00  0.1000000000D+01  0.1000000000D+01
 Atom C6       Shell    20 D   1     bf   59 -    64          3.046730591999          3.880687105690          0.000000000000
      0.8000000000D+00  0.1000000000D+01
 Atom H7       Shell    21 S   3     bf   65 -    65          1.601888641914          5.143364653312         -0.795888679942
      0.1873113696D+02  0.3349460434D-01
      0.2825394365D+01  0.2347269535D+00
      0.6401216923D+00  0.8137573261D+00
 Atom H7       Shell    22 S   1     bf   66 -    66          1.601888641914          5.143364653312         -0.795888679942
      0.1612777588D+00  0.1000000000D+01
 Atom C8       Shell    23 S   6     bf   67 -    67          2.923519465478          4.000922423778          2.926423237551
      0.3047524880D+04  0.1834737132D-02
      0.4573695180D+03  0.1403732281D-01
      0.1039486850D+03  0.6884262226D-01
      0.2921015530D+02  0.2321844432D+00
      0.9286662960D+01  0.4679413484D+00
      0.3163926960D+01  0.3623119853D+00
 Atom C8       Shell    24 SP   3    bf   68 -    71          2.923519465478          4.000922423778          2.926423237551
      0.7868272350D+01 -0.1193324198D+00  0.6899906659D-01
      0.1881288540D+01 -0.1608541517D+00  0.3164239610D+00
      0.5442492580D+00  0.1143456438D+01  0.7443082909D+00
 Atom C8       Shell    25 SP   1    bf   72 -    75          2.923519465478          4.000922423778          2.926423237551
      0.1687144782D+00  0.1000000000D+01  0.1000000000D+01
 Atom C8       Shell    26 D   1     bf   76 -    81          2.923519465478          4.000922423778          2.926423237551
      0.8000000000D+00  0.1000000000D+01
 Atom H9       Shell    27 S   3     bf   82 -    82          4.556943384666          2.894159848798          3.596631126785
      0.1873113696D+02  0.3349460434D-01
      0.2825394365D+01  0.2347269535D+00
      0.6401216923D+00  0.8137573261D+00
 Atom H9       Shell    28 S   1     bf   83 -    83          4.556943384666          2.894159848798          3.596631126785
      0.1612777588D+00  0.1000000000D+01
 Atom C10      Shell    29 S   6     bf   84 -    84          0.172827171154         -2.651576139756         -1.313273868789
      0.3047524880D+04  0.1834737132D-02
      0.4573695180D+03  0.1403732281D-01
      0.1039486850D+03  0.6884262226D-01
      0.2921015530D+02  0.2321844432D+00
      0.9286662960D+01  0.4679413484D+00
      0.3163926960D+01  0.3623119853D+00
 Atom C10      Shell    30 SP   3    bf   85 -    88          0.172827171154         -2.651576139756         -1.313273868789
      0.7868272350D+01 -0.1193324198D+00  0.6899906659D-01
      0.1881288540D+01 -0.1608541517D+00  0.3164239610D+00
      0.5442492580D+00  0.1143456438D+01  0.7443082909D+00
 Atom C10      Shell    31 SP   1    bf   89 -    92          0.172827171154         -2.651576139756         -1.313273868789
      0.1687144782D+00  0.1000000000D+01  0.1000000000D+01
 Atom C10      Shell    32 D   1     bf   93 -    98          0.172827171154         -2.651576139756         -1.313273868789
      0.8000000000D+00  0.1000000000D+01
 Atom H11      Shell    33 S   3     bf   99 -    99          1.594881990947         -3.716990807750         -0.234683841224
      0.1873113696D+02  0.3349460434D-01
      0.2825394365D+01  0.2347269535D+00
      0.6401216923D+00  0.8137573261D+00
 Atom H11      Shell    34 S   1     bf  100 -   100          1.594881990947         -3.716990807750         -0.234683841224
      0.1612777588D+00  0.1000000000D+01
 Atom C12      Shell    35 S   6     bf  101 -   101          0.067397101427          0.015825473705          2.913995774891
      0.3047524880D+04  0.1834737132D-02
      0.4573695180D+03  0.1403732281D-01
      0.1039486850D+03  0.6884262226D-01
      0.2921015530D+02  0.2321844432D+00
      0.9286662960D+01  0.4679413484D+00
      0.3163926960D+01  0.3623119853D+00
 Atom C12      Shell    36 SP   3    bf  102 -   105          0.067397101427          0.015825473705          2.913995774891
      0.7868272350D+01 -0.1193324198D+00  0.6899906659D-01
      0.1881288540D+01 -0.1608541517D+00  0.3164239610D+00
      0.5442492580D+00  0.1143456438D+01  0.7443082909D+00
 Atom C12      Shell    37 SP   1    bf  106 -   109          0.067397101427          0.015825473705          2.913995774891
      0.1687144782D+00  0.1000000000D+01  0.1000000000D+01
 Atom C12      Shell    38 D   1     bf  110 -   115          0.067397101427          0.015825473705          2.913995774891
      0.8000000000D+00  0.1000000000D+01
 Atom H13      Shell    39 S   3     bf  116 -   116          1.584540219021         -1.253904626331          3.550248479155
      0.1873113696D+02  0.3349460434D-01
      0.2825394365D+01  0.2347269535D+00
      0.6401216923D+00  0.8137573261D+00
 Atom H13      Shell    40 S   1     bf  117 -   117          1.584540219021         -1.253904626331          3.550248479155
      0.1612777588D+00  0.1000000000D+01
 Atom H14      Shell    41 S   3     bf  118 -   118         -1.689652701375         -0.716052305067          3.725100283991
      0.1873113696D+02  0.3349460434D-01
      0.2825394365D+01  0.2347269535D+00
      0.6401216923D+00  0.8137573261D+00
 Atom H14      Shell    42 S   1     bf  119 -   119         -1.689652701375         -0.716052305067          3.725100283991
      0.1612777588D+00  0.1000000000D+01
 Atom C15      Shell    43 S   6     bf  120 -   120          3.328684741910          6.744236622566          3.977302340001
      0.3047524880D+04  0.1834737132D-02
      0.4573695180D+03  0.1403732281D-01
      0.1039486850D+03  0.6884262226D-01
      0.2921015530D+02  0.2321844432D+00
      0.9286662960D+01  0.4679413484D+00
      0.3163926960D+01  0.3623119853D+00
 Atom C15      Shell    44 SP   3    bf  121 -   124          3.328684741910          6.744236622566          3.977302340001
      0.7868272350D+01 -0.1193324198D+00  0.6899906659D-01
      0.1881288540D+01 -0.1608541517D+00  0.3164239610D+00
      0.5442492580D+00  0.1143456438D+01  0.7443082909D+00
 Atom C15      Shell    45 SP   1    bf  125 -   128          3.328684741910          6.744236622566          3.977302340001
      0.1687144782D+00  0.1000000000D+01  0.1000000000D+01
 Atom C15      Shell    46 D   1     bf  129 -   134          3.328684741910          6.744236622566          3.977302340001
      0.8000000000D+00  0.1000000000D+01
 Atom C16      Shell    47 S   6     bf  135 -   135          2.648174991765          0.585516429979         -3.737215582790
      0.3047524880D+04  0.1834737132D-02
      0.4573695180D+03  0.1403732281D-01
      0.1039486850D+03  0.6884262226D-01
      0.2921015530D+02  0.2321844432D+00
      0.9286662960D+01  0.4679413484D+00
      0.3163926960D+01  0.3623119853D+00
 Atom C16      Shell    48 SP   3    bf  136 -   139          2.648174991765          0.585516429979         -3.737215582790
      0.7868272350D+01 -0.1193324198D+00  0.6899906659D-01
      0.1881288540D+01 -0.1608541517D+00  0.3164239610D+00
      0.5442492580D+00  0.1143456438D+01  0.7443082909D+00
 Atom C16      Shell    49 SP   1    bf  140 -   143          2.648174991765          0.585516429979         -3.737215582790
      0.1687144782D+00  0.1000000000D+01  0.1000000000D+01
 Atom C16      Shell    50 D   1     bf  144 -   149          2.648174991765          0.585516429979         -3.737215582790
      0.8000000000D+00  0.1000000000D+01
 Atom H17      Shell    51 S   3     bf  150 -   150          4.584985654361          0.546165207625         -4.462338970138
      0.1873113696D+02  0.3349460434D-01
      0.2825394365D+01  0.2347269535D+00
      0.6401216923D+00  0.8137573261D+00
 Atom H17      Shell    52 S   1     bf  151 -   151          4.584985654361          0.546165207625         -4.462338970138
      0.1612777588D+00  0.1000000000D+01
 Atom H18      Shell    53 S   3     bf  152 -   152          1.635307617094          2.033574882916         -4.821599624063
      0.1873113696D+02  0.3349460434D-01
      0.2825394365D+01  0.2347269535D+00
      0.6401216923D+00  0.8137573261D+00
 Atom H18      Shell    54 S   1     bf  153 -   153          1.635307617094          2.033574882916         -4.821599624063
      0.1612777588D+00  0.1000000000D+01
 Atom C19      Shell    55 S   6     bf  154 -   154          0.530628427381          2.691846997333          3.975725590310
      0.3047524880D+04  0.1834737132D-02
      0.4573695180D+03  0.1403732281D-01
      0.1039486850D+03  0.6884262226D-01
      0.2921015530D+02  0.2321844432D+00
      0.9286662960D+01  0.4679413484D+00
      0.3163926960D+01  0.3623119853D+00
 Atom C19      Shell    56 SP   3    bf  155 -   158          0.530628427381          2.691846997333          3.975725590310
      0.7868272350D+01 -0.1193324198D+00  0.6899906659D-01
      0.1881288540D+01 -0.1608541517D+00  0.3164239610D+00
      0.5442492580D+00  0.1143456438D+01  0.7443082909D+00
 Atom C19      Shell    57 SP   1    bf  159 -   162          0.530628427381          2.691846997333          3.975725590310
      0.1687144782D+00  0.1000000000D+01  0.1000000000D+01
 Atom C19      Shell    58 D   1     bf  163 -   168          0.530628427381          2.691846997333          3.975725590310
      0.8000000000D+00  0.1000000000D+01
 Atom H20      Shell    59 S   3     bf  169 -   169         -1.135832062007          3.853538770941          3.580323035923
      0.1873113696D+02  0.3349460434D-01
      0.2825394365D+01  0.2347269535D+00
      0.6401216923D+00  0.8137573261D+00
 Atom H20      Shell    60 S   1     bf  170 -   170         -1.135832062007          3.853538770941          3.580323035923
      0.1612777588D+00  0.1000000000D+01
 Atom H21      Shell    61 S   3     bf  171 -   171          0.655188988437          2.563386003744          6.038898648932
      0.1873113696D+02  0.3349460434D-01
      0.2825394365D+01  0.2347269535D+00
      0.6401216923D+00  0.8137573261D+00
 Atom H21      Shell    62 S   1     bf  172 -   172          0.655188988437          2.563386003744          6.038898648932
      0.1612777588D+00  0.1000000000D+01
 Atom C22      Shell    63 S   6     bf  173 -   173          1.320245635411         -2.024167372692         -3.965049374652
      0.3047524880D+04  0.1834737132D-02
      0.4573695180D+03  0.1403732281D-01
      0.1039486850D+03  0.6884262226D-01
      0.2921015530D+02  0.2321844432D+00
      0.9286662960D+01  0.4679413484D+00
      0.3163926960D+01  0.3623119853D+00
 Atom C22      Shell    64 SP   3    bf  174 -   177          1.320245635411         -2.024167372692         -3.965049374652
      0.7868272350D+01 -0.1193324198D+00  0.6899906659D-01
      0.1881288540D+01 -0.1608541517D+00  0.3164239610D+00
      0.5442492580D+00  0.1143456438D+01  0.7443082909D+00
 Atom C22      Shell    65 SP   1    bf  178 -   181          1.320245635411         -2.024167372692         -3.965049374652
      0.1687144782D+00  0.1000000000D+01  0.1000000000D+01
 Atom C22      Shell    66 D   1     bf  182 -   187          1.320245635411         -2.024167372692         -3.965049374652
      0.8000000000D+00  0.1000000000D+01
 Atom H23      Shell    67 S   3     bf  188 -   188         -0.174186470059         -1.962106083077         -5.398714482833
      0.1873113696D+02  0.3349460434D-01
      0.2825394365D+01  0.2347269535D+00
      0.6401216923D+00  0.8137573261D+00
 Atom H23      Shell    68 S   1     bf  189 -   189         -0.174186470059         -1.962106083077         -5.398714482833
      0.1612777588D+00  0.1000000000D+01
 Atom H24      Shell    69 S   3     bf  190 -   190          2.639875163411         -3.498765781945         -4.567938567197
      0.1873113696D+02  0.3349460434D-01
      0.2825394365D+01  0.2347269535D+00
      0.6401216923D+00  0.8137573261D+00
 Atom H24      Shell    70 S   1     bf  191 -   191          2.639875163411         -3.498765781945         -4.567938567197
      0.1612777588D+00  0.1000000000D+01
 Atom C25      Shell    71 S   6     bf  192 -   192          5.641534955662          4.811256793889         -0.916555611479
      0.3047524880D+04  0.1834737132D-02
      0.4573695180D+03  0.1403732281D-01
      0.1039486850D+03  0.6884262226D-01
      0.2921015530D+02  0.2321844432D+00
      0.9286662960D+01  0.4679413484D+00
      0.3163926960D+01  0.3623119853D+00
 Atom C25      Shell    72 SP   3    bf  193 -   196          5.641534955662          4.811256793889         -0.916555611479
      0.7868272350D+01 -0.1193324198D+00  0.6899906659D-01
      0.1881288540D+01 -0.1608541517D+00  0.3164239610D+00
      0.5442492580D+00  0.1143456438D+01  0.7443082909D+00
 Atom C25      Shell    73 SP   1    bf  197 -   200          5.641534955662          4.811256793889         -0.916555611479
      0.1687144782D+00  0.1000000000D+01  0.1000000000D+01
 Atom C25      Shell    74 D   1     bf  201 -   206          5.641534955662          4.811256793889         -0.916555611479
      0.8000000000D+00  0.1000000000D+01
 Atom H26      Shell    75 S   3     bf  207 -   207          5.576113222756          5.215210075569         -2.951018646780
      0.1873113696D+02  0.3349460434D-01
      0.2825394365D+01  0.2347269535D+00
      0.6401216923D+00  0.8137573261D+00
 Atom H26      Shell    76 S   1     bf  208 -   208          5.576113222756          5.215210075569         -2.951018646780
      0.1612777588D+00  0.1000000000D+01
 Atom H27      Shell    77 S   3     bf  209 -   209          7.041686299999          3.282240167954         -0.704748605847
      0.1873113696D+02  0.3349460434D-01
      0.2825394365D+01  0.2347269535D+00
      0.6401216923D+00  0.8137573261D+00
 Atom H27      Shell    78 S   1     bf  210 -   210          7.041686299999          3.282240167954         -0.704748605847
      0.1612777588D+00  0.1000000000D+01
 Atom C28      Shell    79 S   6     bf  211 -   211         -2.220409913592         -4.326659373900         -1.498587707723
      0.3047524880D+04  0.1834737132D-02
      0.4573695180D+03  0.1403732281D-01
      0.1039486850D+03  0.6884262226D-01
      0.2921015530D+02  0.2321844432D+00
      0.9286662960D+01  0.4679413484D+00
      0.3163926960D+01  0.3623119853D+00
 Atom C28      Shell    80 SP   3    bf  212 -   215         -2.220409913592         -4.326659373900         -1.498587707723
      0.7868272350D+01 -0.1193324198D+00  0.6899906659D-01
      0.1881288540D+01 -0.1608541517D+00  0.3164239610D+00
      0.5442492580D+00  0.1143456438D+01  0.7443082909D+00
 Atom C28      Shell    81 SP   1    bf  216 -   219         -2.220409913592         -4.326659373900         -1.498587707723
      0.1687144782D+00  0.1000000000D+01  0.1000000000D+01
 Atom C28      Shell    82 D   1     bf  220 -   225         -2.220409913592         -4.326659373900         -1.498587707723
      0.8000000000D+00  0.1000000000D+01
 Atom H29      Shell    83 S   3     bf  226 -   226         -3.636854419955         -3.259115872725         -2.581886195818
      0.1873113696D+02  0.3349460434D-01
      0.2825394365D+01  0.2347269535D+00
      0.6401216923D+00  0.8137573261D+00
 Atom H29      Shell    84 S   1     bf  227 -   227         -3.636854419955         -3.259115872725         -2.581886195818
      0.1612777588D+00  0.1000000000D+01
 Atom C30      Shell    85 S   6     bf  228 -   228         -2.322786563834          1.472291034748         -0.984312951398
      0.3047524880D+04  0.1834737132D-02
      0.4573695180D+03  0.1403732281D-01
      0.1039486850D+03  0.6884262226D-01
      0.2921015530D+02  0.2321844432D+00
      0.9286662960D+01  0.4679413484D+00
      0.3163926960D+01  0.3623119853D+00
 Atom C30      Shell    86 SP   3    bf  229 -   232         -2.322786563834          1.472291034748         -0.984312951398
      0.7868272350D+01 -0.1193324198D+00  0.6899906659D-01
      0.1881288540D+01 -0.1608541517D+00  0.3164239610D+00
      0.5442492580D+00  0.1143456438D+01  0.7443082909D+00
 Atom C30      Shell    87 SP   1    bf  233 -   236         -2.322786563834          1.472291034748         -0.984312951398
      0.1687144782D+00  0.1000000000D+01  0.1000000000D+01
 Atom C30      Shell    88 D   1     bf  237 -   242         -2.322786563834          1.472291034748         -0.984312951398
      0.8000000000D+00  0.1000000000D+01
 Atom H31      Shell    89 S   3     bf  243 -   243         -4.072482157238          0.653822810929         -0.240821010299
      0.1873113696D+02  0.3349460434D-01
      0.2825394365D+01  0.2347269535D+00
      0.6401216923D+00  0.8137573261D+00
 Atom H31      Shell    90 S   1     bf  244 -   244         -4.072482157238          0.653822810929         -0.240821010299
      0.1612777588D+00  0.1000000000D+01
 Atom H32      Shell    91 S   3     bf  245 -   245         -2.292225251409          3.457978273244         -0.418568404694
      0.1873113696D+02  0.3349460434D-01
      0.2825394365D+01  0.2347269535D+00
      0.6401216923D+00  0.8137573261D+00
 Atom H32      Shell    92 S   1     bf  246 -   246         -2.292225251409          3.457978273244         -0.418568404694
      0.1612777588D+00  0.1000000000D+01
 Atom H33      Shell    93 S   3     bf  247 -   247         -2.451880577883          1.428797476019         -3.047751289776
      0.1873113696D+02  0.3349460434D-01
      0.2825394365D+01  0.2347269535D+00
      0.6401216923D+00  0.8137573261D+00
 Atom H33      Shell    94 S   1     bf  248 -   248         -2.451880577883          1.428797476019         -3.047751289776
      0.1612777588D+00  0.1000000000D+01
 Atom C34      Shell    95 S   6     bf  249 -   249          5.549769004272          8.019660391852          2.614197791485
      0.3047524880D+04  0.1834737132D-02
      0.4573695180D+03  0.1403732281D-01
      0.1039486850D+03  0.6884262226D-01
      0.2921015530D+02  0.2321844432D+00
      0.9286662960D+01  0.4679413484D+00
      0.3163926960D+01  0.3623119853D+00
 Atom C34      Shell    96 SP   3    bf  250 -   253          5.549769004272          8.019660391852          2.614197791485
      0.7868272350D+01 -0.1193324198D+00  0.6899906659D-01
      0.1881288540D+01 -0.1608541517D+00  0.3164239610D+00
      0.5442492580D+00  0.1143456438D+01  0.7443082909D+00
 Atom C34      Shell    97 SP   1    bf  254 -   257          5.549769004272          8.019660391852          2.614197791485
      0.1687144782D+00  0.1000000000D+01  0.1000000000D+01
 Atom C34      Shell    98 D   1     bf  258 -   263          5.549769004272          8.019660391852          2.614197791485
      0.8000000000D+00  0.1000000000D+01
 Atom C35      Shell    99 S   6     bf  264 -   264          3.993516549269          6.563524323458          6.844874025567
      0.3047524880D+04  0.1834737132D-02
      0.4573695180D+03  0.1403732281D-01
      0.1039486850D+03  0.6884262226D-01
      0.2921015530D+02  0.2321844432D+00
      0.9286662960D+01  0.4679413484D+00
      0.3163926960D+01  0.3623119853D+00
 Atom C35      Shell   100 SP   3    bf  265 -   268          3.993516549269          6.563524323458          6.844874025567
      0.7868272350D+01 -0.1193324198D+00  0.6899906659D-01
      0.1881288540D+01 -0.1608541517D+00  0.3164239610D+00
      0.5442492580D+00  0.1143456438D+01  0.7443082909D+00
 Atom C35      Shell   101 SP   1    bf  269 -   272          3.993516549269          6.563524323458          6.844874025567
      0.1687144782D+00  0.1000000000D+01  0.1000000000D+01
 Atom C35      Shell   102 D   1     bf  273 -   278          3.993516549269          6.563524323458          6.844874025567
      0.8000000000D+00  0.1000000000D+01
 Atom H36      Shell   103 S   3     bf  279 -   279          5.455969575283          5.107842261767          7.079647685474
      0.1873113696D+02  0.3349460434D-01
      0.2825394365D+01  0.2347269535D+00
      0.6401216923D+00  0.8137573261D+00
 Atom H36      Shell   104 S   1     bf  280 -   280          5.455969575283          5.107842261767          7.079647685474
      0.1612777588D+00  0.1000000000D+01
 Atom H37      Shell   105 S   3     bf  281 -   281          2.336161837533          5.905226981197          7.895980140818
      0.1873113696D+02  0.3349460434D-01
      0.2825394365D+01  0.2347269535D+00
      0.6401216923D+00  0.8137573261D+00
 Atom H37      Shell   106 S   1     bf  282 -   282          2.336161837533          5.905226981197          7.895980140818
      0.1612777588D+00  0.1000000000D+01
 Atom C38      Shell   107 S   6     bf  283 -   283          6.557405976055          7.111264844582          0.473372106610
      0.3047524880D+04  0.1834737132D-02
      0.4573695180D+03  0.1403732281D-01
      0.1039486850D+03  0.6884262226D-01
      0.2921015530D+02  0.2321844432D+00
      0.9286662960D+01  0.4679413484D+00
      0.3163926960D+01  0.3623119853D+00
 Atom C38      Shell   108 SP   3    bf  284 -   287          6.557405976055          7.111264844582          0.473372106610
      0.7868272350D+01 -0.1193324198D+00  0.6899906659D-01
      0.1881288540D+01 -0.1608541517D+00  0.3164239610D+00
      0.5442492580D+00  0.1143456438D+01  0.7443082909D+00
 Atom C38      Shell   109 SP   1    bf  288 -   291          6.557405976055          7.111264844582          0.473372106610
      0.1687144782D+00  0.1000000000D+01  0.1000000000D+01
 Atom C38      Shell   110 D   1     bf  292 -   297          6.557405976055          7.111264844582          0.473372106610
      0.8000000000D+00  0.1000000000D+01
 Atom H39      Shell   111 S   3     bf  298 -   298          8.165708083902          8.099484105561         -0.353958989464
      0.1873113696D+02  0.3349460434D-01
      0.2825394365D+01  0.2347269535D+00
      0.6401216923D+00  0.8137573261D+00
 Atom H39      Shell   112 S   1     bf  299 -   299          8.165708083902          8.099484105561         -0.353958989464
      0.1612777588D+00  0.1000000000D+01
 Atom C40      Shell   113 S   6     bf  300 -   300          0.933260582624          8.401460924302          3.630315665179
      0.3047524880D+04  0.1834737132D-02
      0.4573695180D+03  0.1403732281D-01
      0.1039486850D+03  0.6884262226D-01
      0.2921015530D+02  0.2321844432D+00
      0.9286662960D+01  0.4679413484D+00
      0.3163926960D+01  0.3623119853D+00
 Atom C40      Shell   114 SP   3    bf  301 -   304          0.933260582624          8.401460924302          3.630315665179
      0.7868272350D+01 -0.1193324198D+00  0.6899906659D-01
      0.1881288540D+01 -0.1608541517D+00  0.3164239610D+00
      0.5442492580D+00  0.1143456438D+01  0.7443082909D+00
[...]
 **** Fit      -0.007174
 **** Fit       0.008676
 **** Fit       0.009691
 **** Fit       0.010854
 **** Fit       0.012186
 **** Fit       0.013714
 **** Fit       0.015485
 **** Fit       0.017563
 **** Fit       0.019981
 **** Fit       0.022645
 **** Fit       0.025226
 **** Fit       0.027090
 **** Fit       0.027375
 **** Fit       0.025328
 **** Fit       0.020823
 **** Fit       0.014620
 **** Fit       0.008001
 **** Fit       0.002115
 **** Fit      -0.002415
 **** Fit      -0.005486
 **** Fit      -0.007306
 **** Fit       0.008504
 **** Fit       0.009593
 **** Fit       0.010858
 **** Fit       0.012326
 **** Fit       0.014042
 **** Fit       0.016074
 **** Fit       0.018511
 **** Fit       0.021413
 **** Fit       0.024717
 **** Fit       0.028094
 **** Fit       0.030829
 **** Fit       0.031844
 **** Fit       0.030090
 **** Fit       0.025272
 **** Fit       0.018269
 **** Fit       0.010669
 **** Fit       0.003884
 **** Fit      -0.001347
 **** Fit      -0.004912
 **** Fit      -0.007055
 **** Fit       0.009316
 **** Fit       0.010615
 **** Fit       0.012143
 **** Fit       0.013957
 **** Fit       0.016142
 **** Fit       0.018797
 **** Fit       0.021999
 **** Fit       0.025700
 **** Fit       0.029585
 **** Fit       0.032910
 **** Fit       0.034481
 **** Fit       0.033067
 **** Fit       0.028240
 **** Fit       0.020913
 **** Fit       0.012827
 **** Fit       0.005537
 **** Fit      -0.000143
 **** Fit      -0.004074
 **** Fit      -0.006501
 **** Fit       0.010168
 **** Fit       0.011683
 **** Fit       0.013499
 **** Fit       0.015701
 **** Fit       0.018385
 **** Fit       0.021617
 **** Fit       0.025347
 **** Fit       0.029266
 **** Fit       0.032654
 **** Fit       0.034358
 **** Fit       0.033174
 **** Fit       0.028662
 **** Fit       0.021654
 **** Fit       0.013795
 **** Fit       0.006592
 **** Fit       0.000869
 **** Fit      -0.003191
 **** Fit      -0.005783
 **** Fit       0.011003
 **** Fit       0.012728
 **** Fit       0.014815
 **** Fit       0.017337
 **** Fit       0.020332
 **** Fit       0.023724
 **** Fit       0.027213
 **** Fit       0.030151
 **** Fit       0.031559
 **** Fit       0.030455
 **** Fit       0.026491
 **** Fit       0.020341
 **** Fit       0.013350
 **** Fit       0.006802
 **** Fit       0.001458
 **** Fit      -0.002454
 **** Fit      -0.005050
 **** Fit       0.015804
 **** Fit       0.018369
 **** Fit       0.021182
 **** Fit       0.023959
 **** Fit       0.026167
 **** Fit       0.027063
 **** Fit       0.025957
 **** Fit       0.022633
 **** Fit       0.017585
 **** Fit       0.011796
 **** Fit       0.006246
 **** Fit       0.001577
 **** Fit      -0.001962
 **** Fit      -0.004408
 **** Fit       0.013983
 **** Fit       0.016032
 **** Fit       0.018185
 **** Fit       0.020192
 **** Fit       0.021646
 **** Fit       0.022037
 **** Fit       0.020930
 **** Fit       0.018218
 **** Fit       0.014245
 **** Fit       0.009675
 **** Fit       0.005203
 **** Fit       0.001328
 **** Fit      -0.001714
 **** Fit       0.013606
 **** Fit       0.015141
 **** Fit       0.016469
 **** Fit       0.017300
 **** Fit       0.017307
 **** Fit       0.016237
 **** Fit       0.014052
 **** Fit       0.010986
 **** Fit       0.007471
 **** Fit       0.003979
 **** Fit       0.000872
 **** Fit      -0.001647
 **** Fit       0.012321
 **** Fit       0.013121
 **** Fit       0.013502
 **** Fit       0.013262
 **** Fit       0.012265
 **** Fit       0.010509
 **** Fit       0.008153
 **** Fit       0.005477
 **** Fit       0.002790
 **** Fit       0.000349
 **** Fit       0.010282
 **** Fit       0.010365
 **** Fit       0.009991
 **** Fit       0.009089
 **** Fit       0.007674
 **** Fit       0.005856
 **** Fit       0.003815
 **** Fit       0.002683
 **** Fit       0.002616
 **** Fit       0.003182
 **** Fit       0.002886
 **** Fit       0.003033
 **** Fit       0.003198
 **** Fit       0.003230
 **** Fit       0.003098
 **** Fit       0.002800
 **** Fit       0.002360
 **** Fit       0.001821
 **** Fit       0.004020
 **** Fit       0.003931
 **** Fit       0.003739
 **** Fit       0.003469
 **** Fit       0.003172
 **** Fit       0.002908
 **** Fit       0.003533
 **** Fit       0.003785
 **** Fit       0.003926
 **** Fit       0.003903
 **** Fit       0.003678
 **** Fit       0.003252
 **** Fit       0.002658
 **** Fit       0.001958
 **** Fit       0.001220
 **** Fit       0.004430
 **** Fit       0.004523
 **** Fit       0.004508
 **** Fit       0.004383
 **** Fit       0.004169
 **** Fit       0.003918
 **** Fit       0.003693
 **** Fit       0.004177
 **** Fit       0.004477
 **** Fit       0.004713
 **** Fit       0.004810
 **** Fit       0.004703
 **** Fit       0.004353
 **** Fit       0.003761
 **** Fit       0.002977
 **** Fit       0.002081
 **** Fit       0.001162
 **** Fit       0.004832
 **** Fit       0.005014
 **** Fit       0.005092
 **** Fit       0.005059
 **** Fit       0.004932
 **** Fit       0.004761
 **** Fit       0.004609
 **** Fit       0.004535
 **** Fit       0.005319
 **** Fit       0.005620
 **** Fit       0.005826
 **** Fit       0.005857
 **** Fit       0.005638
 **** Fit       0.005127
 **** Fit       0.004331
 **** Fit       0.003316
 **** Fit       0.002189
 **** Fit       0.001060
 **** Fit       0.000020
 **** Fit       0.005172
 **** Fit       0.005444
 **** Fit       0.005625
 **** Fit       0.005703
 **** Fit       0.005693
 **** Fit       0.005637
 **** Fit       0.005595
 **** Fit       0.005622
 **** Fit       0.006659
 **** Fit       0.006969
 **** Fit       0.007147
 **** Fit       0.007099
 **** Fit       0.006744
 **** Fit       0.006036
 **** Fit       0.004994
 **** Fit       0.003706
 **** Fit       0.002305
 **** Fit       0.000931
 **** Fit      -0.000306
 **** Fit       0.005422
 **** Fit       0.005776
 **** Fit       0.006061
 **** Fit       0.006261
 **** Fit       0.006389
 **** Fit       0.006481
 **** Fit       0.006587
 **** Fit       0.007007
 **** Fit       0.007353
 **** Fit       0.007766
 **** Fit       0.008189
 **** Fit       0.008541
 **** Fit       0.008714
 **** Fit       0.008599
 **** Fit       0.008099
 **** Fit       0.007166
 **** Fit       0.005834
 **** Fit       0.004219
 **** Fit       0.002491
 **** Fit       0.000824
 **** Fit      -0.000648
 **** Fit       0.005995
 **** Fit       0.006375
 **** Fit       0.006700
 **** Fit       0.006979
 **** Fit       0.007240
 **** Fit       0.007523
 **** Fit       0.007863
 **** Fit       0.008283
 **** Fit       0.008783
 **** Fit       0.009338
 **** Fit       0.009890
 **** Fit       0.010345
 **** Fit       0.010574
 **** Fit       0.010437
 **** Fit       0.009812
 **** Fit       0.008643
 **** Fit       0.006978
 **** Fit       0.004969
 **** Fit       0.002841
 **** Fit       0.000814
 **** Fit      -0.000941
 **** Fit       0.007009
 **** Fit       0.007438
 **** Fit       0.008352
 **** Fit       0.008892
 **** Fit       0.009511
 **** Fit       0.010209
 **** Fit       0.010964
 **** Fit       0.011718
 **** Fit       0.012364
 **** Fit       0.012745
 **** Fit       0.012675
 **** Fit       0.011985
 **** Fit       0.010594
 **** Fit       0.008559
 **** Fit       0.006084
 **** Fit       0.003466
 **** Fit       0.000998
 **** Fit       0.008364
 **** Fit       0.009031
 **** Fit       0.009777
 **** Fit       0.010615
 **** Fit       0.011546
 **** Fit       0.012556
 **** Fit       0.013588
 **** Fit       0.014526
 **** Fit       0.015178
 **** Fit       0.015296
 **** Fit       0.014640
 **** Fit       0.013074
 **** Fit       0.010657
 **** Fit       0.007653
 **** Fit       0.004460
 **** Fit       0.001465
 **** Fit      -0.001055
 **** Fit       0.008688
 **** Fit       0.009523
 **** Fit       0.010462
 **** Fit       0.011517
 **** Fit       0.012697
 **** Fit       0.013996
 **** Fit       0.015365
 **** Fit       0.016682
 **** Fit       0.017717
 **** Fit       0.018154
 **** Fit       0.017653
 **** Fit       0.015997
 **** Fit       0.013223
 **** Fit       0.009664
 **** Fit       0.005839
 **** Fit       0.002258
 **** Fit      -0.000733
 **** Fit      -0.002990
 **** Fit       0.008837
 **** Fit       0.009806
 **** Fit       0.010904
 **** Fit       0.012152
 **** Fit       0.013566
 **** Fit       0.015153
 **** Fit       0.016875
 **** Fit       0.018606
 **** Fit       0.020089
 **** Fit       0.020937
 **** Fit       0.020702
 **** Fit       0.019058
 **** Fit       0.016003
 **** Fit       0.011931
 **** Fit       0.007492
 **** Fit       0.003326
 **** Fit      -0.000144
 **** Fit      -0.002750
 **** Fit       0.009872
 **** Fit       0.011083
 **** Fit       0.012474
 **** Fit       0.014075
 **** Fit       0.015902
 **** Fit       0.017926
 **** Fit       0.020025
 **** Fit       0.021925
 **** Fit       0.023183
 **** Fit       0.023257
 **** Fit       0.021717
 **** Fit       0.018505
 **** Fit       0.014060
 **** Fit       0.009142
 **** Fit       0.004497
 **** Fit       0.000620
 **** Fit      -0.002301
 **** Fit       0.010999
 **** Fit       0.012470
 **** Fit       0.014180
 **** Fit       0.016151
 **** Fit       0.018361
 **** Fit       0.020689
 **** Fit       0.022858
 **** Fit       0.024399
 **** Fit       0.024721
 **** Fit       0.023327
 **** Fit       0.020119
 **** Fit       0.015543
 **** Fit       0.010405
 **** Fit       0.005509
 **** Fit       0.001389
 **** Fit      -0.001745
 **** Fit      -0.003919
 **** Fit       0.015868
 **** Fit       0.018102
 **** Fit       0.020459
 **** Fit       0.022668
 **** Fit       0.024271
 **** Fit       0.024690
 **** Fit       0.023434
 **** Fit       0.020390
 **** Fit       0.015973
 **** Fit       0.010952
 **** Fit       0.006110
 **** Fit       0.001981
 **** Fit      -0.001210
 **** Fit      -0.003467
 **** Fit       0.015091
 **** Fit       0.017186
 **** Fit       0.019369
 **** Fit       0.021386
 **** Fit       0.022825
 **** Fit       0.023178
 **** Fit       0.022023
 **** Fit       0.019267
 **** Fit       0.015261
 **** Fit       0.010666
 **** Fit       0.006173
 **** Fit       0.002273
 **** Fit      -0.000802
 **** Fit       0.013922
 **** Fit       0.015753
 **** Fit       0.017615
 **** Fit       0.019281
 **** Fit       0.020405
 **** Fit       0.020587
 **** Fit       0.019506
 **** Fit       0.017102
 **** Fit       0.013651
 **** Fit       0.009676
 **** Fit       0.005734
 **** Fit       0.002244
 **** Fit      -0.000573
 **** Fit       0.014000
 **** Fit       0.015473
 **** Fit       0.016727
 **** Fit       0.017493
 **** Fit       0.017477
 **** Fit       0.016461
 **** Fit       0.014417
 **** Fit       0.011553
 **** Fit       0.008255
 **** Fit       0.004944
 **** Fit       0.001956
 **** Fit       0.013211
 **** Fit       0.014073
 **** Fit       0.014513
 **** Fit       0.014328
 **** Fit       0.013383
 **** Fit       0.011672
 **** Fit       0.009349
 **** Fit       0.006687
 **** Fit       0.003988
 **** Fit       0.001509
 **** Fit       0.011566
 **** Fit       0.011748
 **** Fit       0.011446
 **** Fit       0.010580
 **** Fit       0.009159
 **** Fit       0.007295
 **** Fit       0.005177
 **** Fit       0.008187
 **** Fit       0.007011
 **** Fit       0.003635
 **** Fit       0.003382
 **** Fit       0.002986
 **** Fit       0.004516
 **** Fit       0.004492
 **** Fit       0.004313
 **** Fit       0.003958
 **** Fit       0.003433
 **** Fit       0.002772
 **** Fit       0.005457
 **** Fit       0.005380
 **** Fit       0.005113
 **** Fit       0.004633
 **** Fit       0.003954
 **** Fit       0.003119
 **** Fit       0.002196
 **** Fit       0.006562
 **** Fit       0.006430
 **** Fit       0.006062
 **** Fit       0.005437
 **** Fit       0.004575
 **** Fit       0.003535
 **** Fit       0.002404
 **** Fit       0.007848
 **** Fit       0.007672
 **** Fit       0.007203
 **** Fit       0.006419
 **** Fit       0.005348
 **** Fit       0.004068
 **** Fit       0.002691
 **** Fit       0.009326
 **** Fit       0.009136
 **** Fit       0.008582
 **** Fit       0.007635
 **** Fit       0.006333
 **** Fit       0.004777
 **** Fit       0.003112
 **** Fit       0.010983
 **** Fit       0.010830
 **** Fit       0.010226
 **** Fit       0.009129
 **** Fit       0.007583
 **** Fit       0.005718
 **** Fit       0.003720
 **** Fit       0.012761
 **** Fit       0.012710
 **** Fit       0.012109
 **** Fit       0.010892
 **** Fit       0.009105
 **** Fit       0.006911
 **** Fit       0.004546
 **** Fit       0.002256
 **** Fit       0.013961
 **** Fit       0.014542
 **** Fit       0.014656
 **** Fit       0.014120
 **** Fit       0.012831
 **** Fit       0.010829
 **** Fit       0.008309
 **** Fit       0.005567
 **** Fit       0.002909
 **** Fit       0.000571
 **** Fit       0.014216
 **** Fit       0.015316
 **** Fit       0.016143
 **** Fit       0.016464
 **** Fit       0.016045
 **** Fit       0.014740
 **** Fit       0.012575
 **** Fit       0.009774
 **** Fit       0.006688
 **** Fit       0.003685
 **** Fit       0.001045
 **** Fit       0.014979
 **** Fit       0.016294
 **** Fit       0.017345
 **** Fit       0.017869
 **** Fit       0.017589
 **** Fit       0.016320
 **** Fit       0.014069
 **** Fit       0.011075
 **** Fit       0.007735
 **** Fit       0.004466
 **** Fit       0.001583
 **** Fit       0.015294
 **** Fit       0.016744
 **** Fit       0.017943
 **** Fit       0.018612
 **** Fit       0.018453
 **** Fit       0.017253
 **** Fit       0.015005
 **** Fit       0.011949
 **** Fit       0.008501
 **** Fit       0.005099
 **** Fit       0.002079
 **** Fit      -0.000377
 **** Fit       0.015113
 **** Fit       0.016587
 **** Fit       0.017819
 **** Fit       0.018536
 **** Fit       0.018441
 **** Fit       0.017324
 **** Fit       0.015167
 **** Fit       0.012198
 **** Fit       0.008815
 **** Fit       0.005447
 **** Fit       0.002429
 **** Fit       0.014456
 **** Fit       0.015841
 **** Fit       0.016988
 **** Fit       0.017647
 **** Fit       0.017552
 **** Fit       0.016515
 **** Fit       0.014520
 **** Fit       0.011768
 **** Fit       0.008613
 **** Fit       0.005442
 **** Fit       0.002566
 **** Fit       0.014618
 **** Fit       0.015590
 **** Fit       0.016113
 **** Fit       0.015968
 **** Fit       0.015005
 **** Fit       0.013217
 **** Fit       0.010768
 **** Fit       0.007954
 **** Fit       0.005101
 **** Fit       0.002479
 **** Fit       0.013083
 **** Fit       0.013835
 **** Fit       0.014187
 **** Fit       0.013972
 **** Fit       0.013080
 **** Fit       0.011513
 **** Fit       0.009404
 **** Fit       0.006982
 **** Fit       0.004508
 **** Fit       0.012122
 **** Fit       0.011840
 **** Fit       0.011019
 **** Fit       0.009668
 **** Fit       0.007891
 **** Fit       0.005861
 **** Fit       0.011957
 **** Fit       0.011444
 **** Fit       0.010427
 **** Fit       0.008940
 **** Fit       0.007101
 **** Fit       0.013113
 **** Fit       0.013163
 **** Fit       0.012701
 **** Fit       0.011662
 **** Fit       0.010075
 **** Fit       0.008071
 **** Fit       0.005856
 **** Fit       0.013917
 **** Fit       0.014072
 **** Fit       0.013676
 **** Fit       0.012647
 **** Fit       0.011007
 **** Fit       0.008896
 **** Fit       0.006537
 **** Fit       0.004174
 **** Fit       0.014309
 **** Fit       0.014542
 **** Fit       0.014209
 **** Fit       0.013214
 **** Fit       0.011575
 **** Fit       0.009432
 **** Fit       0.007015
 **** Fit       0.004577
 **** Fit       0.014221
 **** Fit       0.014488
 **** Fit       0.014197
 **** Fit       0.013253
 **** Fit       0.011667
 **** Fit       0.009573
 **** Fit       0.007195
 **** Fit       0.004780
 **** Fit       0.013662
 **** Fit       0.013912
 **** Fit       0.013636
 **** Fit       0.012749
 **** Fit       0.011261
 **** Fit       0.009291
 **** Fit       0.007042
 **** Fit       0.004743
 **** Fit       0.012899
 **** Fit       0.012617
 **** Fit       0.011790
 **** Fit       0.010428
 **** Fit       0.008635
 **** Fit       0.006585
 **** Fit       0.011290
 **** Fit       0.010523
 **** Fit       0.009303
 **** Fit       0.007715
 -----------------------------------------------------------------
 Leave Link  602 at Mon Mar 20 12:51:37 2017, MaxMem=    33554432 cpu:        36.0
 (Enter /home/michal/g09/l9999.exe)

 Test job not archived.
 1\1\GINC-LINUX\SP\RHF\6-31G(d)\C27H46O1\MICHAL\20-Mar-2017\0\\#P HF/6-
 31G* SCF(Conver=6) NoSymm Test Pop=chelpg IOp(6/33=2) GFInput GFPrint\
 \MEP - Input generated by R.E.D.-III.x MOLECULE\\0,1\O,0,4.21319842,6.
 54782441,4.12532811\H,0,4.99233304,6.8980708,3.6734167\C,0,0.,0.,0.\C,
 0,1.34509947,0.61895676,-0.47340969\H,0,2.1268506,0.,0.\C,0,1.61226039
 ,2.05357117,0.\H,0,0.84768296,2.72175135,-0.42116615\C,0,1.54705987,2.
 11719696,1.54859648\H,0,2.41143058,1.53152343,1.90325522\C,0,0.0914562
 ,-1.40315366,-0.6949546\H,0,0.8439752,-1.96694682,-0.12418934\C,0,0.03
 566501,0.00837448,1.54202015\H,0,0.83850257,-0.66353775,1.87871058\H,0
 ,-0.8941257,-0.37891856,1.97123817\C,0,1.7614641,3.56889631,2.10469775
 \C,0,1.40135385,0.30984195,-1.97764931\H,0,2.42626991,0.28901818,-2.36
 136808\H,0,0.86536752,1.07612148,-2.55148063\C,0,0.28079647,1.42446408
 ,2.10386337\H,0,-0.60105644,2.03920489,1.89462535\H,0,0.34671108,1.356
 48545,3.19564753\C,0,0.6986439,-1.07114324,-2.09821376\H,0,-0.09217551
 ,-1.03830182,-2.85687666\H,0,1.39696177,-1.85146711,-2.41724898\C,0,2.
 98537172,2.54600744,-0.48502034\H,0,2.95075203,2.75977031,-1.56161181\
 H,0,3.7262999,1.73688669,-0.3729369\C,0,-1.17499032,-2.28956953,-0.793
 01846\H,0,-1.92454047,-1.72464984,-1.36627533\C,0,-1.22916571,0.779102
 86,-0.52087598\H,0,-2.15506474,0.34598813,-0.12743699\H,0,-1.21299336,
 1.82988329,-0.22149686\H,0,-1.29747932,0.75608706,-1.61280052\C,0,2.93
 681127,4.2438215,1.38337389\C,0,2.11327794,3.47326748,3.62215133\H,0,2
 .88717475,2.70295371,3.7463882\H,0,1.2362436,3.12491153,4.17837273\C,0
 ,3.47002979,3.76311928,0.25049773\H,0,4.32110661,4.28606239,-0.1873070
 3\C,0,0.49386023,4.44586164,1.92108031\H,0,-0.32440191,4.10645174,2.56
 398962\H,0,0.68872246,5.49079544,2.1748224\H,0,0.14623141,4.42555951,0
 .88354118\C,0,3.48797341,5.50724313,2.01783662\H,0,4.37545996,5.838012
 03,1.46301392\H,0,2.75567681,6.32495984,1.95941217\C,0,2.61853769,4.77
 869103,4.25354402\H,0,1.83799253,5.54971858,4.24926537\H,0,2.88532801,
 4.60839031,5.3027784\C,0,-0.92652403,-3.5887445,-1.60748849\H,0,-1.896
 63561,-4.09054314,-1.71952662\H,0,-0.6087928,-3.32581262,-2.62464411\C
 ,0,3.8299098,5.31552197,3.50247094\H,0,4.65485628,4.58900844,3.5885486
 1\C,0,-1.80365405,-2.62666148,0.5720464\H,0,-1.06908762,-3.04724602,1.
 26792175\H,0,-2.60700376,-3.36326984,0.45202529\H,0,-2.24090601,-1.746
 23705,1.04943991\C,0,0.09038721,-4.58075081,-1.01822215\H,0,1.05095341
 ,-4.07224728,-0.86633879\H,0,-0.23488057,-4.90659879,-0.022744\C,0,0.3
 5266969,-5.81145697,-1.90737069\H,0,1.16955952,-6.39820437,-1.46134805
 \H,0,0.72701809,-5.46411307,-2.88135737\C,0,-0.83826577,-6.76190669,-2
 .15531376\H,0,-1.65137166,-6.18437699,-2.61776799\C,0,-1.37764094,-7.3
 7806371,-0.85472579\H,0,-1.74593884,-6.61770407,-0.1585109\H,0,-2.2067
 1872,-8.06441194,-1.06140415\H,0,-0.59380346,-7.94954797,-0.34053845\C
 ,0,-0.43697935,-7.86509398,-3.14780052\H,0,-0.08598559,-7.44141459,-4.
 09582501\H,0,-1.28110798,-8.52831697,-3.36879621\H,0,0.37301349,-8.483
 06284,-2.73918494\\Version=EM64L-G09RevD.01\HF=-1124.0783879\RMSD=4.55
 3e-07\Dipole=0.1812942,-0.3247705,-0.538073\Quadrupole=9.2580939,-5.10
 41063,-4.1539876,1.3561475,-2.9167274,-9.0879785\PG=C01 [X(C27H46O1)]\
 \@


 WE HAVE LEFT UNDONE THOSE THINGS WHICH WE OUGHT TO HAVE DONE,
 AND WE HAVE DONE THOSE THINGS WHICH WE OUGHT NOT TO HAVE DONE.
                   BOOK OF COMMON PRAYER                      
 Job cpu time:       0 days  0 hours 10 minutes 49.5 seconds.
 File lengths (MBytes):  RWF=    142 Int=      0 D2E=      0 Chk=     10 Scr=      1
 Normal termination of Gaussian 09 at Mon Mar 20 12:51:37 2017.
