 Entering Gaussian System, Link 0=/home/michal/g09/g09
 Input=JOB2-gau_m1-13-3.com
 Output=JOB2-gau_m1-13-3.log
 Initial command:
 /home/michal/g09/l1.exe "/home/michal/gauss_scratch/Gau-21040.inp" -scrdir="/home/michal/gauss_scratch/"
 Entering Link 1 = /home/michal/g09/l1.exe PID=     21041.
  
 Copyright (c) 1988,1990,1992,1993,1995,1998,2003,2009,2013,
            Gaussian, Inc.  All Rights Reserved.
  
 This is part of the Gaussian(R) 09 program.  It is based on
 the Gaussian(R) 03 system (copyright 2003, Gaussian, Inc.),
 the Gaussian(R) 98 system (copyright 1998, Gaussian, Inc.),
 the Gaussian(R) 94 system (copyright 1995, Gaussian, Inc.),
 the Gaussian 92(TM) system (copyright 1992, Gaussian, Inc.),
 the Gaussian 90(TM) system (copyright 1990, Gaussian, Inc.),
 the Gaussian 88(TM) system (copyright 1988, Gaussian, Inc.),
 the Gaussian 86(TM) system (copyright 1986, Carnegie Mellon
 University), and the Gaussian 82(TM) system (copyright 1983,
 Carnegie Mellon University). Gaussian is a federally registered
 trademark of Gaussian, Inc.
  
 This software contains proprietary and confidential information,
 including trade secrets, belonging to Gaussian, Inc.
  
 This software is provided under written license and may be
 used, copied, transmitted, or stored only in accord with that
 written license.
  
 The following legend is applicable only to US Government
 contracts under FAR:
  
                    RESTRICTED RIGHTS LEGEND
  
 Use, reproduction and disclosure by the US Government is
 subject to restrictions as set forth in subparagraphs (a)
 and (c) of the Commercial Computer Software - Restricted
 Rights clause in FAR 52.227-19.
  
 Gaussian, Inc.
 340 Quinnipiac St., Bldg. 40, Wallingford CT 06492
  
  
 ---------------------------------------------------------------
 Warning -- This program may not be used in any manner that
 competes with the business of Gaussian, Inc. or will provide
 assistance to any competitor of Gaussian, Inc.  The licensee
 of this program is prohibited from giving any competitor of
 Gaussian, Inc. access to this program.  By using this program,
 the user acknowledges that Gaussian, Inc. is engaged in the
 business of creating and licensing software in the field of
 computational chemistry and represents and warrants to the
 licensee that it is not a competitor of Gaussian, Inc. and that
 it will not use this program in any manner prohibited above.
 ---------------------------------------------------------------
  

 Cite this work as:
 Gaussian 09, Revision D.01,
 M. J. Frisch, G. W. Trucks, H. B. Schlegel, G. E. Scuseria, 
 M. A. Robb, J. R. Cheeseman, G. Scalmani, V. Barone, B. Mennucci, 
 G. A. Petersson, H. Nakatsuji, M. Caricato, X. Li, H. P. Hratchian, 
 A. F. Izmaylov, J. Bloino, G. Zheng, J. L. Sonnenberg, M. Hada, 
 M. Ehara, K. Toyota, R. Fukuda, J. Hasegawa, M. Ishida, T. Nakajima, 
 Y. Honda, O. Kitao, H. Nakai, T. Vreven, J. A. Montgomery, Jr., 
 J. E. Peralta, F. Ogliaro, M. Bearpark, J. J. Heyd, E. Brothers, 
 K. N. Kudin, V. N. Staroverov, T. Keith, R. Kobayashi, J. Normand, 
 K. Raghavachari, A. Rendell, J. C. Burant, S. S. Iyengar, J. Tomasi, 
 M. Cossi, N. Rega, J. M. Millam, M. Klene, J. E. Knox, J. B. Cross, 
 V. Bakken, C. Adamo, J. Jaramillo, R. Gomperts, R. E. Stratmann, 
 O. Yazyev, A. J. Austin, R. Cammi, C. Pomelli, J. W. Ochterski, 
 R. L. Martin, K. Morokuma, V. G. Zakrzewski, G. A. Voth, 
 P. Salvador, J. J. Dannenberg, S. Dapprich, A. D. Daniels, 
 O. Farkas, J. B. Foresman, J. V. Ortiz, J. Cioslowski, 
 and D. J. Fox, Gaussian, Inc., Wallingford CT, 2013.
 
 ******************************************
 Gaussian 09:  EM64L-G09RevD.01 24-Apr-2013
                20-Mar-2017 
 ******************************************
 %Mem=256MB
 %NProc=12
 Will use up to   12 processors via shared memory.
 ----------------------------------------------------------------------
 #P HF/6-31G* SCF(Conver=6) NoSymm Test Pop=chelpg IOp(6/33=2) GFInput 
 GFPrint
 ----------------------------------------------------------------------
 1/38=1/1;
 2/12=2,15=1,17=6,18=5,40=1/2;
 3/5=1,6=6,7=1,11=9,16=1,24=110,25=1,30=1/1,2,3;
 4//1;
 5/5=2,6=6,38=5/2;
 6/7=2,8=2,9=2,10=2,15=8,20=3,28=1,33=2/1,2;
 99/5=1,9=1/99;
 Leave Link    1 at Mon Mar 20 12:27:01 2017, MaxMem=    33554432 cpu:         0.9
 (Enter /home/michal/g09/l101.exe)
 ----------------------------------------------
 MEP - Input generated by R.E.D.-III.x MOLECULE
 ----------------------------------------------
 Symbolic Z-matrix:
 Charge =  0 Multiplicity = 1
 O                    -3.71276  -3.59851  -4.15419 
 H                    -3.86603  -4.44073  -3.70572 
 C                     1.58557   2.05804   0. 
 C                     1.32523   0.6065    0.47701 
 H                     2.11405   0.        0. 
 C                     0.        0.        0. 
 H                    -0.83633   0.57708   0.4192 
 C                    -0.06792   0.05325  -1.55173 
 H                     0.71024  -0.64569  -1.90076 
 C                     2.9688    2.3101    0.67748 
 H                     3.65802   1.651     0.12971 
 C                     1.60815   2.03484  -1.53847 
 H                     2.46137   1.42514  -1.86962 
 H                     1.76351   3.0411   -1.95046 
 C                    -1.42229  -0.50535  -2.11537 
 C                     1.65614   0.6369    1.98181 
 H                     1.95593  -0.34571   2.35954 
 H                     0.7808    0.94506   2.56701 
 C                     0.3033    1.44781  -2.11669 
 H                    -0.51169   2.15427  -1.92934 
 H                     0.40172   1.38626  -3.20623 
 C                     2.80247   1.68992   2.10058 
 H                     2.54314   2.45193   2.84074 
 H                     3.73726   1.23333   2.44222 
 C                    -0.14529  -1.45374   0.4771 
 H                    -0.36345  -1.47651   1.55321 
 H                     0.82003  -1.97512   0.36513 
 C                     3.59861   3.73076   0.58375 
 H                     3.25293   4.16556  -0.36673 
 C                     0.51298   3.05054   0.50098 
 H                     0.73343   4.06306   0.14567 
 H                    -0.4858    2.79402   0.13972 
 H                     0.4588    3.08644   1.59272 
 C                    -1.79599  -1.81131  -1.39932 
 C                    -1.23843  -0.81962  -3.63301 
 H                    -0.30334  -1.38393  -3.75508 
 H                    -1.11052   0.11696  -4.18646 
 C                    -1.20605  -2.21609  -0.26489 
 H                    -1.50999  -3.16955   0.16864 
 C                    -2.58144   0.51109  -1.93389 
 H                    -2.44823   1.38894  -2.5739 
 H                    -3.54658   0.06893  -2.19313 
 H                    -2.65073   0.85017  -0.89569 
 C                    -2.88635  -2.64952  -2.04073 
 H                    -2.99519  -3.59217  -1.489 
 H                    -3.85696  -2.1366   -1.98471 
 C                    -2.38054  -1.62357  -4.27126 
 H                    -3.31728  -1.05234  -4.26912 
 H                    -2.14655  -1.83811  -5.32021 
 C                     3.19938   4.71594   1.70864 
 H                     2.14114   4.59416   1.96311 
 H                     3.76023   4.46053   2.61736 
 C                    -2.6119   -2.93093  -3.52505 
 H                    -1.70734  -3.55578  -3.60941 
 C                     5.13429   3.61562   0.49296 
 H                     5.54219   3.13059   1.38875 
 H                     5.61382   4.59521   0.3997 
 H                     5.43532   3.01833  -0.37483 
 C                     3.43166   6.19474   1.3536 
 H                     4.49378   6.37521   1.149 
 H                     2.90664   6.4133    0.41294 
 C                     2.93254   7.19005   2.41722 
 H                     1.85354   7.03445   2.56191 
 H                     3.0404    8.21062   2.0207 
 C                     3.62095   7.13704   3.798 
 H                     3.50052   6.12275   4.20479 
 C                     2.93193   8.10719   4.77115 
 H                     1.86373   7.88232   4.87042 
 H                     3.38005   8.05471   5.76998 
 H                     3.02271   9.1433    4.42027 
 C                     5.12626   7.43601   3.71516 
 H                     5.65846   6.70966   3.0925 
 H                     5.58464   7.41439   4.71041 
 H                     5.30221   8.43281   3.29 
 
 NAtoms=     74 NQM=       74 NQMF=       0 NMMI=      0 NMMIF=      0
                NMic=       0 NMicF=      0.
                    Isotopes and Nuclear Properties:
 (Nuclear quadrupole moments (NQMom) in fm**2, nuclear magnetic moments (NMagM)
  in nuclear magnetons)

  Atom         1           2           3           4           5           6           7           8           9          10
 IAtWgt=          16           1          12          12           1          12           1          12           1          12
 AtmWgt=  15.9949146   1.0078250  12.0000000  12.0000000   1.0078250  12.0000000   1.0078250  12.0000000   1.0078250  12.0000000
 NucSpn=           0           1           0           0           1           0           1           0           1           0
 AtZEff=   0.0000000   0.0000000   0.0000000   0.0000000   0.0000000   0.0000000   0.0000000   0.0000000   0.0000000   0.0000000
 NQMom=    0.0000000   0.0000000   0.0000000   0.0000000   0.0000000   0.0000000   0.0000000   0.0000000   0.0000000   0.0000000
 NMagM=    0.0000000   2.7928460   0.0000000   0.0000000   2.7928460   0.0000000   2.7928460   0.0000000   2.7928460   0.0000000
 AtZNuc=   8.0000000   1.0000000   6.0000000   6.0000000   1.0000000   6.0000000   1.0000000   6.0000000   1.0000000   6.0000000

  Atom        11          12          13          14          15          16          17          18          19          20
 IAtWgt=           1          12           1           1          12          12           1           1          12           1
 AtmWgt=   1.0078250  12.0000000   1.0078250   1.0078250  12.0000000  12.0000000   1.0078250   1.0078250  12.0000000   1.0078250
 NucSpn=           1           0           1           1           0           0           1           1           0           1
 AtZEff=   0.0000000   0.0000000   0.0000000   0.0000000   0.0000000   0.0000000   0.0000000   0.0000000   0.0000000   0.0000000
 NQMom=    0.0000000   0.0000000   0.0000000   0.0000000   0.0000000   0.0000000   0.0000000   0.0000000   0.0000000   0.0000000
 NMagM=    2.7928460   0.0000000   2.7928460   2.7928460   0.0000000   0.0000000   2.7928460   2.7928460   0.0000000   2.7928460
 AtZNuc=   1.0000000   6.0000000   1.0000000   1.0000000   6.0000000   6.0000000   1.0000000   1.0000000   6.0000000   1.0000000

  Atom        21          22          23          24          25          26          27          28          29          30
 IAtWgt=           1          12           1           1          12           1           1          12           1          12
 AtmWgt=   1.0078250  12.0000000   1.0078250   1.0078250  12.0000000   1.0078250   1.0078250  12.0000000   1.0078250  12.0000000
 NucSpn=           1           0           1           1           0           1           1           0           1           0
 AtZEff=   0.0000000   0.0000000   0.0000000   0.0000000   0.0000000   0.0000000   0.0000000   0.0000000   0.0000000   0.0000000
 NQMom=    0.0000000   0.0000000   0.0000000   0.0000000   0.0000000   0.0000000   0.0000000   0.0000000   0.0000000   0.0000000
 NMagM=    2.7928460   0.0000000   2.7928460   2.7928460   0.0000000   2.7928460   2.7928460   0.0000000   2.7928460   0.0000000
 AtZNuc=   1.0000000   6.0000000   1.0000000   1.0000000   6.0000000   1.0000000   1.0000000   6.0000000   1.0000000   6.0000000

  Atom        31          32          33          34          35          36          37          38          39          40
 IAtWgt=           1           1           1          12          12           1           1          12           1          12
 AtmWgt=   1.0078250   1.0078250   1.0078250  12.0000000  12.0000000   1.0078250   1.0078250  12.0000000   1.0078250  12.0000000
 NucSpn=           1           1           1           0           0           1           1           0           1           0
 AtZEff=   0.0000000   0.0000000   0.0000000   0.0000000   0.0000000   0.0000000   0.0000000   0.0000000   0.0000000   0.0000000
 NQMom=    0.0000000   0.0000000   0.0000000   0.0000000   0.0000000   0.0000000   0.0000000   0.0000000   0.0000000   0.0000000
 NMagM=    2.7928460   2.7928460   2.7928460   0.0000000   0.0000000   2.7928460   2.7928460   0.0000000   2.7928460   0.0000000
 AtZNuc=   1.0000000   1.0000000   1.0000000   6.0000000   6.0000000   1.0000000   1.0000000   6.0000000   1.0000000   6.0000000

  Atom        41          42          43          44          45          46          47          48          49          50
 IAtWgt=           1           1           1          12           1           1          12           1           1          12
 AtmWgt=   1.0078250   1.0078250   1.0078250  12.0000000   1.0078250   1.0078250  12.0000000   1.0078250   1.0078250  12.0000000
 NucSpn=           1           1           1           0           1           1           0           1           1           0
 AtZEff=   0.0000000   0.0000000   0.0000000   0.0000000   0.0000000   0.0000000   0.0000000   0.0000000   0.0000000   0.0000000
 NQMom=    0.0000000   0.0000000   0.0000000   0.0000000   0.0000000   0.0000000   0.0000000   0.0000000   0.0000000   0.0000000
 NMagM=    2.7928460   2.7928460   2.7928460   0.0000000   2.7928460   2.7928460   0.0000000   2.7928460   2.7928460   0.0000000
 AtZNuc=   1.0000000   1.0000000   1.0000000   6.0000000   1.0000000   1.0000000   6.0000000   1.0000000   1.0000000   6.0000000

  Atom        51          52          53          54          55          56          57          58          59          60
 IAtWgt=           1           1          12           1          12           1           1           1          12           1
 AtmWgt=   1.0078250   1.0078250  12.0000000   1.0078250  12.0000000   1.0078250   1.0078250   1.0078250  12.0000000   1.0078250
 NucSpn=           1           1           0           1           0           1           1           1           0           1
 AtZEff=   0.0000000   0.0000000   0.0000000   0.0000000   0.0000000   0.0000000   0.0000000   0.0000000   0.0000000   0.0000000
 NQMom=    0.0000000   0.0000000   0.0000000   0.0000000   0.0000000   0.0000000   0.0000000   0.0000000   0.0000000   0.0000000
 NMagM=    2.7928460   2.7928460   0.0000000   2.7928460   0.0000000   2.7928460   2.7928460   2.7928460   0.0000000   2.7928460
 AtZNuc=   1.0000000   1.0000000   6.0000000   1.0000000   6.0000000   1.0000000   1.0000000   1.0000000   6.0000000   1.0000000

  Atom        61          62          63          64          65          66          67          68          69          70
 IAtWgt=           1          12           1           1          12           1          12           1           1           1
 AtmWgt=   1.0078250  12.0000000   1.0078250   1.0078250  12.0000000   1.0078250  12.0000000   1.0078250   1.0078250   1.0078250
 NucSpn=           1           0           1           1           0           1           0           1           1           1
 AtZEff=   0.0000000   0.0000000   0.0000000   0.0000000   0.0000000   0.0000000   0.0000000   0.0000000   0.0000000   0.0000000
 NQMom=    0.0000000   0.0000000   0.0000000   0.0000000   0.0000000   0.0000000   0.0000000   0.0000000   0.0000000   0.0000000
 NMagM=    2.7928460   0.0000000   2.7928460   2.7928460   0.0000000   2.7928460   0.0000000   2.7928460   2.7928460   2.7928460
 AtZNuc=   1.0000000   6.0000000   1.0000000   1.0000000   6.0000000   1.0000000   6.0000000   1.0000000   1.0000000   1.0000000

  Atom        71          72          73          74
 IAtWgt=          12           1           1           1
 AtmWgt=  12.0000000   1.0078250   1.0078250   1.0078250
 NucSpn=           0           1           1           1
 AtZEff=   0.0000000   0.0000000   0.0000000   0.0000000
 NQMom=    0.0000000   0.0000000   0.0000000   0.0000000
 NMagM=    0.0000000   2.7928460   2.7928460   2.7928460
 AtZNuc=   6.0000000   1.0000000   1.0000000   1.0000000
 Leave Link  101 at Mon Mar 20 12:27:01 2017, MaxMem=    33554432 cpu:         1.8
 (Enter /home/michal/g09/l202.exe)
 Symmetry turned off by external request.
 Stoichiometry    C27H46O
 Framework group  C1[X(C27H46O)]
 Deg. of freedom   216
 Full point group                 C1      NOp   1
                          Input orientation:                          
 ---------------------------------------------------------------------
 Center     Atomic      Atomic             Coordinates (Angstroms)
 Number     Number       Type             X           Y           Z
 ---------------------------------------------------------------------
      1          8           0       -3.712757   -3.598515   -4.154191
      2          1           0       -3.866027   -4.440728   -3.705716
      3          6           0        1.585572    2.058035    0.000000
      4          6           0        1.325232    0.606496    0.477014
      5          1           0        2.114053    0.000000    0.000000
      6          6           0        0.000000    0.000000    0.000000
      7          1           0       -0.836326    0.577085    0.419198
      8          6           0       -0.067920    0.053254   -1.551734
      9          1           0        0.710240   -0.645686   -1.900757
     10          6           0        2.968795    2.310095    0.677477
     11          1           0        3.658025    1.651003    0.129707
     12          6           0        1.608154    2.034836   -1.538467
     13          1           0        2.461367    1.425141   -1.869625
     14          1           0        1.763505    3.041098   -1.950464
     15          6           0       -1.422291   -0.505351   -2.115371
     16          6           0        1.656137    0.636896    1.981812
     17          1           0        1.955932   -0.345706    2.359544
     18          1           0        0.780801    0.945061    2.567012
     19          6           0        0.303304    1.447813   -2.116687
     20          1           0       -0.511690    2.154265   -1.929340
     21          1           0        0.401723    1.386260   -3.206234
     22          6           0        2.802466    1.689924    2.100576
     23          1           0        2.543136    2.451927    2.840737
     24          1           0        3.737260    1.233334    2.442218
     25          6           0       -0.145285   -1.453743    0.477104
     26          1           0       -0.363447   -1.476508    1.553211
     27          1           0        0.820030   -1.975119    0.365133
     28          6           0        3.598615    3.730762    0.583752
     29          1           0        3.252929    4.165565   -0.366730
     30          6           0        0.512985    3.050539    0.500976
     31          1           0        0.733427    4.063063    0.145670
     32          1           0       -0.485796    2.794020    0.139719
     33          1           0        0.458804    3.086437    1.592716
     34          6           0       -1.795991   -1.811306   -1.399324
     35          6           0       -1.238431   -0.819625   -3.633015
     36          1           0       -0.303335   -1.383930   -3.755078
     37          1           0       -1.110525    0.116960   -4.186457
     38          6           0       -1.206050   -2.216086   -0.264892
     39          1           0       -1.509987   -3.169549    0.168638
     40          6           0       -2.581443    0.511087   -1.933887
     41          1           0       -2.448234    1.388939   -2.573902
     42          1           0       -3.546578    0.068931   -2.193130
     43          1           0       -2.650725    0.850169   -0.895695
     44          6           0       -2.886348   -2.649524   -2.040735
     45          1           0       -2.995193   -3.592169   -1.488997
     46          1           0       -3.856961   -2.136605   -1.984713
     47          6           0       -2.380545   -1.623567   -4.271262
     48          1           0       -3.317280   -1.052340   -4.269117
     49          1           0       -2.146554   -1.838108   -5.320212
     50          6           0        3.199381    4.715940    1.708638
     51          1           0        2.141137    4.594158    1.963114
     52          1           0        3.760233    4.460526    2.617359
     53          6           0       -2.611901   -2.930929   -3.525054
     54          1           0       -1.707343   -3.555781   -3.609413
     55          6           0        5.134288    3.615618    0.492962
     56          1           0        5.542193    3.130589    1.388750
     57          1           0        5.613823    4.595207    0.399696
     58          1           0        5.435316    3.018331   -0.374829
     59          6           0        3.431656    6.194738    1.353603
     60          1           0        4.493776    6.375209    1.148995
     61          1           0        2.906635    6.413304    0.412937
     62          6           0        2.932536    7.190053    2.417217
     63          1           0        1.853544    7.034445    2.561908
     64          1           0        3.040402    8.210623    2.020702
     65          6           0        3.620950    7.137037    3.798003
     66          1           0        3.500525    6.122751    4.204785
     67          6           0        2.931926    8.107188    4.771153
     68          1           0        1.863730    7.882322    4.870417
     69          1           0        3.380054    8.054705    5.769983
     70          1           0        3.022707    9.143300    4.420266
     71          6           0        5.126260    7.436005    3.715155
     72          1           0        5.658457    6.709657    3.092496
     73          1           0        5.584640    7.414387    4.710415
     74          1           0        5.302208    8.432809    3.289998
 ---------------------------------------------------------------------
 Rotational constants (GHZ):      0.5010803      0.0577002      0.0569948
 Leave Link  202 at Mon Mar 20 12:27:01 2017, MaxMem=    33554432 cpu:         0.0
 (Enter /home/michal/g09/l301.exe)
 Standard basis: 6-31G(d) (6D, 7F)
 Ernie: Thresh=  0.10000D-02 Tol=  0.10000D-05 Strict=F.
 AO basis set in the form of general basis input (Overlap normalization):
      1 0
 S   6 1.00       0.000000000000
      0.5484671660D+04  0.1831074430D-02
      0.8252349460D+03  0.1395017220D-01
      0.1880469580D+03  0.6844507810D-01
      0.5296450000D+02  0.2327143360D+00
      0.1689757040D+02  0.4701928980D+00
      0.5799635340D+01  0.3585208530D+00
 SP   3 1.00       0.000000000000
      0.1553961625D+02 -0.1107775495D+00  0.7087426823D-01
      0.3599933586D+01 -0.1480262627D+00  0.3397528391D+00
      0.1013761750D+01  0.1130767015D+01  0.7271585773D+00
 SP   1 1.00       0.000000000000
      0.2700058226D+00  0.1000000000D+01  0.1000000000D+01
 D   1 1.00       0.000000000000
      0.8000000000D+00  0.1000000000D+01
 ****
      2 0
 S   3 1.00       0.000000000000
      0.1873113696D+02  0.3349460434D-01
      0.2825394365D+01  0.2347269535D+00
      0.6401216923D+00  0.8137573261D+00
 S   1 1.00       0.000000000000
      0.1612777588D+00  0.1000000000D+01
 ****
      3 0
 S   6 1.00       0.000000000000
      0.3047524880D+04  0.1834737132D-02
      0.4573695180D+03  0.1403732281D-01
      0.1039486850D+03  0.6884262226D-01
      0.2921015530D+02  0.2321844432D+00
      0.9286662960D+01  0.4679413484D+00
      0.3163926960D+01  0.3623119853D+00
 SP   3 1.00       0.000000000000
      0.7868272350D+01 -0.1193324198D+00  0.6899906659D-01
      0.1881288540D+01 -0.1608541517D+00  0.3164239610D+00
      0.5442492580D+00  0.1143456438D+01  0.7443082909D+00
 SP   1 1.00       0.000000000000
      0.1687144782D+00  0.1000000000D+01  0.1000000000D+01
 D   1 1.00       0.000000000000
      0.8000000000D+00  0.1000000000D+01
 ****
      4 0
 S   6 1.00       0.000000000000
      0.3047524880D+04  0.1834737132D-02
      0.4573695180D+03  0.1403732281D-01
      0.1039486850D+03  0.6884262226D-01
      0.2921015530D+02  0.2321844432D+00
      0.9286662960D+01  0.4679413484D+00
      0.3163926960D+01  0.3623119853D+00
 SP   3 1.00       0.000000000000
      0.7868272350D+01 -0.1193324198D+00  0.6899906659D-01
      0.1881288540D+01 -0.1608541517D+00  0.3164239610D+00
      0.5442492580D+00  0.1143456438D+01  0.7443082909D+00
 SP   1 1.00       0.000000000000
      0.1687144782D+00  0.1000000000D+01  0.1000000000D+01
 D   1 1.00       0.000000000000
      0.8000000000D+00  0.1000000000D+01
 ****
      5 0
 S   3 1.00       0.000000000000
      0.1873113696D+02  0.3349460434D-01
      0.2825394365D+01  0.2347269535D+00
      0.6401216923D+00  0.8137573261D+00
 S   1 1.00       0.000000000000
      0.1612777588D+00  0.1000000000D+01
 ****
      6 0
 S   6 1.00       0.000000000000
      0.3047524880D+04  0.1834737132D-02
      0.4573695180D+03  0.1403732281D-01
      0.1039486850D+03  0.6884262226D-01
      0.2921015530D+02  0.2321844432D+00
      0.9286662960D+01  0.4679413484D+00
      0.3163926960D+01  0.3623119853D+00
 SP   3 1.00       0.000000000000
      0.7868272350D+01 -0.1193324198D+00  0.6899906659D-01
      0.1881288540D+01 -0.1608541517D+00  0.3164239610D+00
      0.5442492580D+00  0.1143456438D+01  0.7443082909D+00
 SP   1 1.00       0.000000000000
      0.1687144782D+00  0.1000000000D+01  0.1000000000D+01
 D   1 1.00       0.000000000000
      0.8000000000D+00  0.1000000000D+01
 ****
      7 0
 S   3 1.00       0.000000000000
      0.1873113696D+02  0.3349460434D-01
      0.2825394365D+01  0.2347269535D+00
      0.6401216923D+00  0.8137573261D+00
 S   1 1.00       0.000000000000
      0.1612777588D+00  0.1000000000D+01
 ****
      8 0
 S   6 1.00       0.000000000000
      0.3047524880D+04  0.1834737132D-02
      0.4573695180D+03  0.1403732281D-01
      0.1039486850D+03  0.6884262226D-01
      0.2921015530D+02  0.2321844432D+00
      0.9286662960D+01  0.4679413484D+00
      0.3163926960D+01  0.3623119853D+00
 SP   3 1.00       0.000000000000
      0.7868272350D+01 -0.1193324198D+00  0.6899906659D-01
      0.1881288540D+01 -0.1608541517D+00  0.3164239610D+00
      0.5442492580D+00  0.1143456438D+01  0.7443082909D+00
 SP   1 1.00       0.000000000000
      0.1687144782D+00  0.1000000000D+01  0.1000000000D+01
 D   1 1.00       0.000000000000
      0.8000000000D+00  0.1000000000D+01
 ****
      9 0
 S   3 1.00       0.000000000000
      0.1873113696D+02  0.3349460434D-01
      0.2825394365D+01  0.2347269535D+00
      0.6401216923D+00  0.8137573261D+00
 S   1 1.00       0.000000000000
      0.1612777588D+00  0.1000000000D+01
 ****
     10 0
 S   6 1.00       0.000000000000
      0.3047524880D+04  0.1834737132D-02
      0.4573695180D+03  0.1403732281D-01
      0.1039486850D+03  0.6884262226D-01
      0.2921015530D+02  0.2321844432D+00
      0.9286662960D+01  0.4679413484D+00
      0.3163926960D+01  0.3623119853D+00
 SP   3 1.00       0.000000000000
      0.7868272350D+01 -0.1193324198D+00  0.6899906659D-01
      0.1881288540D+01 -0.1608541517D+00  0.3164239610D+00
      0.5442492580D+00  0.1143456438D+01  0.7443082909D+00
 SP   1 1.00       0.000000000000
      0.1687144782D+00  0.1000000000D+01  0.1000000000D+01
 D   1 1.00       0.000000000000
      0.8000000000D+00  0.1000000000D+01
 ****
     11 0
 S   3 1.00       0.000000000000
      0.1873113696D+02  0.3349460434D-01
      0.2825394365D+01  0.2347269535D+00
      0.6401216923D+00  0.8137573261D+00
 S   1 1.00       0.000000000000
      0.1612777588D+00  0.1000000000D+01
 ****
     12 0
 S   6 1.00       0.000000000000
      0.3047524880D+04  0.1834737132D-02
      0.4573695180D+03  0.1403732281D-01
      0.1039486850D+03  0.6884262226D-01
      0.2921015530D+02  0.2321844432D+00
      0.9286662960D+01  0.4679413484D+00
      0.3163926960D+01  0.3623119853D+00
 SP   3 1.00       0.000000000000
      0.7868272350D+01 -0.1193324198D+00  0.6899906659D-01
      0.1881288540D+01 -0.1608541517D+00  0.3164239610D+00
      0.5442492580D+00  0.1143456438D+01  0.7443082909D+00
 SP   1 1.00       0.000000000000
      0.1687144782D+00  0.1000000000D+01  0.1000000000D+01
 D   1 1.00       0.000000000000
      0.8000000000D+00  0.1000000000D+01
 ****
     13 0
 S   3 1.00       0.000000000000
      0.1873113696D+02  0.3349460434D-01
      0.2825394365D+01  0.2347269535D+00
      0.6401216923D+00  0.8137573261D+00
 S   1 1.00       0.000000000000
      0.1612777588D+00  0.1000000000D+01
 ****
     14 0
 S   3 1.00       0.000000000000
      0.1873113696D+02  0.3349460434D-01
      0.2825394365D+01  0.2347269535D+00
      0.6401216923D+00  0.8137573261D+00
 S   1 1.00       0.000000000000
      0.1612777588D+00  0.1000000000D+01
 ****
     15 0
 S   6 1.00       0.000000000000
      0.3047524880D+04  0.1834737132D-02
      0.4573695180D+03  0.1403732281D-01
      0.1039486850D+03  0.6884262226D-01
      0.2921015530D+02  0.2321844432D+00
      0.9286662960D+01  0.4679413484D+00
      0.3163926960D+01  0.3623119853D+00
 SP   3 1.00       0.000000000000
      0.7868272350D+01 -0.1193324198D+00  0.6899906659D-01
      0.1881288540D+01 -0.1608541517D+00  0.3164239610D+00
      0.5442492580D+00  0.1143456438D+01  0.7443082909D+00
 SP   1 1.00       0.000000000000
      0.1687144782D+00  0.1000000000D+01  0.1000000000D+01
 D   1 1.00       0.000000000000
      0.8000000000D+00  0.1000000000D+01
 ****
     16 0
 S   6 1.00       0.000000000000
      0.3047524880D+04  0.1834737132D-02
      0.4573695180D+03  0.1403732281D-01
      0.1039486850D+03  0.6884262226D-01
      0.2921015530D+02  0.2321844432D+00
      0.9286662960D+01  0.4679413484D+00
      0.3163926960D+01  0.3623119853D+00
 SP   3 1.00       0.000000000000
      0.7868272350D+01 -0.1193324198D+00  0.6899906659D-01
      0.1881288540D+01 -0.1608541517D+00  0.3164239610D+00
      0.5442492580D+00  0.1143456438D+01  0.7443082909D+00
 SP   1 1.00       0.000000000000
      0.1687144782D+00  0.1000000000D+01  0.1000000000D+01
 D   1 1.00       0.000000000000
      0.8000000000D+00  0.1000000000D+01
 ****
     17 0
 S   3 1.00       0.000000000000
      0.1873113696D+02  0.3349460434D-01
      0.2825394365D+01  0.2347269535D+00
      0.6401216923D+00  0.8137573261D+00
 S   1 1.00       0.000000000000
      0.1612777588D+00  0.1000000000D+01
 ****
     18 0
 S   3 1.00       0.000000000000
      0.1873113696D+02  0.3349460434D-01
      0.2825394365D+01  0.2347269535D+00
      0.6401216923D+00  0.8137573261D+00
 S   1 1.00       0.000000000000
      0.1612777588D+00  0.1000000000D+01
 ****
     19 0
 S   6 1.00       0.000000000000
      0.3047524880D+04  0.1834737132D-02
      0.4573695180D+03  0.1403732281D-01
      0.1039486850D+03  0.6884262226D-01
      0.2921015530D+02  0.2321844432D+00
      0.9286662960D+01  0.4679413484D+00
      0.3163926960D+01  0.3623119853D+00
 SP   3 1.00       0.000000000000
      0.7868272350D+01 -0.1193324198D+00  0.6899906659D-01
      0.1881288540D+01 -0.1608541517D+00  0.3164239610D+00
      0.5442492580D+00  0.1143456438D+01  0.7443082909D+00
 SP   1 1.00       0.000000000000
      0.1687144782D+00  0.1000000000D+01  0.1000000000D+01
 D   1 1.00       0.000000000000
      0.8000000000D+00  0.1000000000D+01
 ****
     20 0
 S   3 1.00       0.000000000000
      0.1873113696D+02  0.3349460434D-01
      0.2825394365D+01  0.2347269535D+00
      0.6401216923D+00  0.8137573261D+00
 S   1 1.00       0.000000000000
      0.1612777588D+00  0.1000000000D+01
 ****
     21 0
 S   3 1.00       0.000000000000
      0.1873113696D+02  0.3349460434D-01
      0.2825394365D+01  0.2347269535D+00
      0.6401216923D+00  0.8137573261D+00
 S   1 1.00       0.000000000000
      0.1612777588D+00  0.1000000000D+01
 ****
     22 0
 S   6 1.00       0.000000000000
      0.3047524880D+04  0.1834737132D-02
      0.4573695180D+03  0.1403732281D-01
      0.1039486850D+03  0.6884262226D-01
      0.2921015530D+02  0.2321844432D+00
      0.9286662960D+01  0.4679413484D+00
      0.3163926960D+01  0.3623119853D+00
 SP   3 1.00       0.000000000000
      0.7868272350D+01 -0.1193324198D+00  0.6899906659D-01
      0.1881288540D+01 -0.1608541517D+00  0.3164239610D+00
      0.5442492580D+00  0.1143456438D+01  0.7443082909D+00
 SP   1 1.00       0.000000000000
      0.1687144782D+00  0.1000000000D+01  0.1000000000D+01
 D   1 1.00       0.000000000000
      0.8000000000D+00  0.1000000000D+01
 ****
     23 0
 S   3 1.00       0.000000000000
      0.1873113696D+02  0.3349460434D-01
      0.2825394365D+01  0.2347269535D+00
      0.6401216923D+00  0.8137573261D+00
 S   1 1.00       0.000000000000
      0.1612777588D+00  0.1000000000D+01
 ****
     24 0
 S   3 1.00       0.000000000000
      0.1873113696D+02  0.3349460434D-01
      0.2825394365D+01  0.2347269535D+00
      0.6401216923D+00  0.8137573261D+00
 S   1 1.00       0.000000000000
      0.1612777588D+00  0.1000000000D+01
 ****
     25 0
 S   6 1.00       0.000000000000
      0.3047524880D+04  0.1834737132D-02
      0.4573695180D+03  0.1403732281D-01
      0.1039486850D+03  0.6884262226D-01
      0.2921015530D+02  0.2321844432D+00
      0.9286662960D+01  0.4679413484D+00
      0.3163926960D+01  0.3623119853D+00
 SP   3 1.00       0.000000000000
      0.7868272350D+01 -0.1193324198D+00  0.6899906659D-01
      0.1881288540D+01 -0.1608541517D+00  0.3164239610D+00
      0.5442492580D+00  0.1143456438D+01  0.7443082909D+00
 SP   1 1.00       0.000000000000
      0.1687144782D+00  0.1000000000D+01  0.1000000000D+01
 D   1 1.00       0.000000000000
      0.8000000000D+00  0.1000000000D+01
 ****
     26 0
 S   3 1.00       0.000000000000
      0.1873113696D+02  0.3349460434D-01
      0.2825394365D+01  0.2347269535D+00
      0.6401216923D+00  0.8137573261D+00
 S   1 1.00       0.000000000000
      0.1612777588D+00  0.1000000000D+01
 ****
     27 0
 S   3 1.00       0.000000000000
      0.1873113696D+02  0.3349460434D-01
      0.2825394365D+01  0.2347269535D+00
      0.6401216923D+00  0.8137573261D+00
 S   1 1.00       0.000000000000
      0.1612777588D+00  0.1000000000D+01
 ****
     28 0
 S   6 1.00       0.000000000000
      0.3047524880D+04  0.1834737132D-02
      0.4573695180D+03  0.1403732281D-01
      0.1039486850D+03  0.6884262226D-01
      0.2921015530D+02  0.2321844432D+00
      0.9286662960D+01  0.4679413484D+00
      0.3163926960D+01  0.3623119853D+00
 SP   3 1.00       0.000000000000
      0.7868272350D+01 -0.1193324198D+00  0.6899906659D-01
      0.1881288540D+01 -0.1608541517D+00  0.3164239610D+00
      0.5442492580D+00  0.1143456438D+01  0.7443082909D+00
 SP   1 1.00       0.000000000000
      0.1687144782D+00  0.1000000000D+01  0.1000000000D+01
 D   1 1.00       0.000000000000
      0.8000000000D+00  0.1000000000D+01
 ****
     29 0
 S   3 1.00       0.000000000000
      0.1873113696D+02  0.3349460434D-01
      0.2825394365D+01  0.2347269535D+00
      0.6401216923D+00  0.8137573261D+00
 S   1 1.00       0.000000000000
      0.1612777588D+00  0.1000000000D+01
 ****
     30 0
 S   6 1.00       0.000000000000
      0.3047524880D+04  0.1834737132D-02
      0.4573695180D+03  0.1403732281D-01
      0.1039486850D+03  0.6884262226D-01
      0.2921015530D+02  0.2321844432D+00
      0.9286662960D+01  0.4679413484D+00
      0.3163926960D+01  0.3623119853D+00
 SP   3 1.00       0.000000000000
      0.7868272350D+01 -0.1193324198D+00  0.6899906659D-01
      0.1881288540D+01 -0.1608541517D+00  0.3164239610D+00
      0.5442492580D+00  0.1143456438D+01  0.7443082909D+00
 SP   1 1.00       0.000000000000
      0.1687144782D+00  0.1000000000D+01  0.1000000000D+01
 D   1 1.00       0.000000000000
      0.8000000000D+00  0.1000000000D+01
 ****
     31 0
 S   3 1.00       0.000000000000
      0.1873113696D+02  0.3349460434D-01
      0.2825394365D+01  0.2347269535D+00
      0.6401216923D+00  0.8137573261D+00
 S   1 1.00       0.000000000000
      0.1612777588D+00  0.1000000000D+01
 ****
     32 0
 S   3 1.00       0.000000000000
      0.1873113696D+02  0.3349460434D-01
      0.2825394365D+01  0.2347269535D+00
      0.6401216923D+00  0.8137573261D+00
 S   1 1.00       0.000000000000
      0.1612777588D+00  0.1000000000D+01
 ****
     33 0
 S   3 1.00       0.000000000000
      0.1873113696D+02  0.3349460434D-01
      0.2825394365D+01  0.2347269535D+00
      0.6401216923D+00  0.8137573261D+00
 S   1 1.00       0.000000000000
      0.1612777588D+00  0.1000000000D+01
 ****
     34 0
 S   6 1.00       0.000000000000
      0.3047524880D+04  0.1834737132D-02
      0.4573695180D+03  0.1403732281D-01
      0.1039486850D+03  0.6884262226D-01
      0.2921015530D+02  0.2321844432D+00
      0.9286662960D+01  0.4679413484D+00
      0.3163926960D+01  0.3623119853D+00
 SP   3 1.00       0.000000000000
      0.7868272350D+01 -0.1193324198D+00  0.6899906659D-01
      0.1881288540D+01 -0.1608541517D+00  0.3164239610D+00
      0.5442492580D+00  0.1143456438D+01  0.7443082909D+00
 SP   1 1.00       0.000000000000
      0.1687144782D+00  0.1000000000D+01  0.1000000000D+01
 D   1 1.00       0.000000000000
      0.8000000000D+00  0.1000000000D+01
 ****
     35 0
 S   6 1.00       0.000000000000
      0.3047524880D+04  0.1834737132D-02
      0.4573695180D+03  0.1403732281D-01
      0.1039486850D+03  0.6884262226D-01
      0.2921015530D+02  0.2321844432D+00
      0.9286662960D+01  0.4679413484D+00
      0.3163926960D+01  0.3623119853D+00
 SP   3 1.00       0.000000000000
      0.7868272350D+01 -0.1193324198D+00  0.6899906659D-01
      0.1881288540D+01 -0.1608541517D+00  0.3164239610D+00
      0.5442492580D+00  0.1143456438D+01  0.7443082909D+00
 SP   1 1.00       0.000000000000
      0.1687144782D+00  0.1000000000D+01  0.1000000000D+01
 D   1 1.00       0.000000000000
      0.8000000000D+00  0.1000000000D+01
 ****
     36 0
 S   3 1.00       0.000000000000
      0.1873113696D+02  0.3349460434D-01
      0.2825394365D+01  0.2347269535D+00
      0.6401216923D+00  0.8137573261D+00
 S   1 1.00       0.000000000000
      0.1612777588D+00  0.1000000000D+01
 ****
     37 0
 S   3 1.00       0.000000000000
      0.1873113696D+02  0.3349460434D-01
      0.2825394365D+01  0.2347269535D+00
      0.6401216923D+00  0.8137573261D+00
 S   1 1.00       0.000000000000
      0.1612777588D+00  0.1000000000D+01
 ****
     38 0
 S   6 1.00       0.000000000000
      0.3047524880D+04  0.1834737132D-02
      0.4573695180D+03  0.1403732281D-01
      0.1039486850D+03  0.6884262226D-01
      0.2921015530D+02  0.2321844432D+00
      0.9286662960D+01  0.4679413484D+00
      0.3163926960D+01  0.3623119853D+00
 SP   3 1.00       0.000000000000
      0.7868272350D+01 -0.1193324198D+00  0.6899906659D-01
      0.1881288540D+01 -0.1608541517D+00  0.3164239610D+00
      0.5442492580D+00  0.1143456438D+01  0.7443082909D+00
 SP   1 1.00       0.000000000000
      0.1687144782D+00  0.1000000000D+01  0.1000000000D+01
 D   1 1.00       0.000000000000
      0.8000000000D+00  0.1000000000D+01
 ****
     39 0
 S   3 1.00       0.000000000000
      0.1873113696D+02  0.3349460434D-01
      0.2825394365D+01  0.2347269535D+00
      0.6401216923D+00  0.8137573261D+00
 S   1 1.00       0.000000000000
      0.1612777588D+00  0.1000000000D+01
 ****
     40 0
 S   6 1.00       0.000000000000
      0.3047524880D+04  0.1834737132D-02
      0.4573695180D+03  0.1403732281D-01
      0.1039486850D+03  0.6884262226D-01
      0.2921015530D+02  0.2321844432D+00
      0.9286662960D+01  0.4679413484D+00
      0.3163926960D+01  0.3623119853D+00
 SP   3 1.00       0.000000000000
      0.7868272350D+01 -0.1193324198D+00  0.6899906659D-01
      0.1881288540D+01 -0.1608541517D+00  0.3164239610D+00
      0.5442492580D+00  0.1143456438D+01  0.7443082909D+00
 SP   1 1.00       0.000000000000
      0.1687144782D+00  0.1000000000D+01  0.1000000000D+01
 D   1 1.00       0.000000000000
      0.8000000000D+00  0.1000000000D+01
 ****
     41 0
 S   3 1.00       0.000000000000
      0.1873113696D+02  0.3349460434D-01
      0.2825394365D+01  0.2347269535D+00
      0.6401216923D+00  0.8137573261D+00
 S   1 1.00       0.000000000000
      0.1612777588D+00  0.1000000000D+01
 ****
     42 0
 S   3 1.00       0.000000000000
      0.1873113696D+02  0.3349460434D-01
      0.2825394365D+01  0.2347269535D+00
      0.6401216923D+00  0.8137573261D+00
 S   1 1.00       0.000000000000
      0.1612777588D+00  0.1000000000D+01
 ****
     43 0
 S   3 1.00       0.000000000000
      0.1873113696D+02  0.3349460434D-01
      0.2825394365D+01  0.2347269535D+00
      0.6401216923D+00  0.8137573261D+00
 S   1 1.00       0.000000000000
      0.1612777588D+00  0.1000000000D+01
 ****
     44 0
 S   6 1.00       0.000000000000
      0.3047524880D+04  0.1834737132D-02
      0.4573695180D+03  0.1403732281D-01
      0.1039486850D+03  0.6884262226D-01
      0.2921015530D+02  0.2321844432D+00
      0.9286662960D+01  0.4679413484D+00
      0.3163926960D+01  0.3623119853D+00
 SP   3 1.00       0.000000000000
      0.7868272350D+01 -0.1193324198D+00  0.6899906659D-01
      0.1881288540D+01 -0.1608541517D+00  0.3164239610D+00
      0.5442492580D+00  0.1143456438D+01  0.7443082909D+00
 SP   1 1.00       0.000000000000
      0.1687144782D+00  0.1000000000D+01  0.1000000000D+01
 D   1 1.00       0.000000000000
      0.8000000000D+00  0.1000000000D+01
 ****
     45 0
 S   3 1.00       0.000000000000
      0.1873113696D+02  0.3349460434D-01
      0.2825394365D+01  0.2347269535D+00
      0.6401216923D+00  0.8137573261D+00
 S   1 1.00       0.000000000000
      0.1612777588D+00  0.1000000000D+01
 ****
     46 0
 S   3 1.00       0.000000000000
      0.1873113696D+02  0.3349460434D-01
      0.2825394365D+01  0.2347269535D+00
      0.6401216923D+00  0.8137573261D+00
 S   1 1.00       0.000000000000
      0.1612777588D+00  0.1000000000D+01
 ****
     47 0
 S   6 1.00       0.000000000000
      0.3047524880D+04  0.1834737132D-02
      0.4573695180D+03  0.1403732281D-01
      0.1039486850D+03  0.6884262226D-01
      0.2921015530D+02  0.2321844432D+00
      0.9286662960D+01  0.4679413484D+00
      0.3163926960D+01  0.3623119853D+00
 SP   3 1.00       0.000000000000
      0.7868272350D+01 -0.1193324198D+00  0.6899906659D-01
      0.1881288540D+01 -0.1608541517D+00  0.3164239610D+00
      0.5442492580D+00  0.1143456438D+01  0.7443082909D+00
 SP   1 1.00       0.000000000000
      0.1687144782D+00  0.1000000000D+01  0.1000000000D+01
 D   1 1.00       0.000000000000
      0.8000000000D+00  0.1000000000D+01
 ****
     48 0
 S   3 1.00       0.000000000000
      0.1873113696D+02  0.3349460434D-01
      0.2825394365D+01  0.2347269535D+00
      0.6401216923D+00  0.8137573261D+00
 S   1 1.00       0.000000000000
      0.1612777588D+00  0.1000000000D+01
 ****
     49 0
 S   3 1.00       0.000000000000
      0.1873113696D+02  0.3349460434D-01
      0.2825394365D+01  0.2347269535D+00
      0.6401216923D+00  0.8137573261D+00
 S   1 1.00       0.000000000000
      0.1612777588D+00  0.1000000000D+01
 ****
     50 0
 S   6 1.00       0.000000000000
      0.3047524880D+04  0.1834737132D-02
      0.4573695180D+03  0.1403732281D-01
      0.1039486850D+03  0.6884262226D-01
      0.2921015530D+02  0.2321844432D+00
      0.9286662960D+01  0.4679413484D+00
      0.3163926960D+01  0.3623119853D+00
 SP   3 1.00       0.000000000000
      0.7868272350D+01 -0.1193324198D+00  0.6899906659D-01
      0.1881288540D+01 -0.1608541517D+00  0.3164239610D+00
      0.5442492580D+00  0.1143456438D+01  0.7443082909D+00
 SP   1 1.00       0.000000000000
      0.1687144782D+00  0.1000000000D+01  0.1000000000D+01
 D   1 1.00       0.000000000000
      0.8000000000D+00  0.1000000000D+01
 ****
     51 0
 S   3 1.00       0.000000000000
      0.1873113696D+02  0.3349460434D-01
      0.2825394365D+01  0.2347269535D+00
      0.6401216923D+00  0.8137573261D+00
 S   1 1.00       0.000000000000
      0.1612777588D+00  0.1000000000D+01
 ****
     52 0
 S   3 1.00       0.000000000000
      0.1873113696D+02  0.3349460434D-01
      0.2825394365D+01  0.2347269535D+00
      0.6401216923D+00  0.8137573261D+00
 S   1 1.00       0.000000000000
      0.1612777588D+00  0.1000000000D+01
 ****
     53 0
 S   6 1.00       0.000000000000
      0.3047524880D+04  0.1834737132D-02
      0.4573695180D+03  0.1403732281D-01
      0.1039486850D+03  0.6884262226D-01
      0.2921015530D+02  0.2321844432D+00
      0.9286662960D+01  0.4679413484D+00
      0.3163926960D+01  0.3623119853D+00
 SP   3 1.00       0.000000000000
      0.7868272350D+01 -0.1193324198D+00  0.6899906659D-01
      0.1881288540D+01 -0.1608541517D+00  0.3164239610D+00
      0.5442492580D+00  0.1143456438D+01  0.7443082909D+00
 SP   1 1.00       0.000000000000
      0.1687144782D+00  0.1000000000D+01  0.1000000000D+01
 D   1 1.00       0.000000000000
      0.8000000000D+00  0.1000000000D+01
 ****
     54 0
 S   3 1.00       0.000000000000
      0.1873113696D+02  0.3349460434D-01
      0.2825394365D+01  0.2347269535D+00
      0.6401216923D+00  0.8137573261D+00
 S   1 1.00       0.000000000000
      0.1612777588D+00  0.1000000000D+01
 ****
     55 0
 S   6 1.00       0.000000000000
      0.3047524880D+04  0.1834737132D-02
      0.4573695180D+03  0.1403732281D-01
      0.1039486850D+03  0.6884262226D-01
      0.2921015530D+02  0.2321844432D+00
      0.9286662960D+01  0.4679413484D+00
      0.3163926960D+01  0.3623119853D+00
 SP   3 1.00       0.000000000000
      0.7868272350D+01 -0.1193324198D+00  0.6899906659D-01
      0.1881288540D+01 -0.1608541517D+00  0.3164239610D+00
      0.5442492580D+00  0.1143456438D+01  0.7443082909D+00
 SP   1 1.00       0.000000000000
      0.1687144782D+00  0.1000000000D+01  0.1000000000D+01
 D   1 1.00       0.000000000000
      0.8000000000D+00  0.1000000000D+01
 ****
     56 0
 S   3 1.00       0.000000000000
      0.1873113696D+02  0.3349460434D-01
      0.2825394365D+01  0.2347269535D+00
      0.6401216923D+00  0.8137573261D+00
 S   1 1.00       0.000000000000
      0.1612777588D+00  0.1000000000D+01
 ****
     57 0
 S   3 1.00       0.000000000000
      0.1873113696D+02  0.3349460434D-01
      0.2825394365D+01  0.2347269535D+00
      0.6401216923D+00  0.8137573261D+00
 S   1 1.00       0.000000000000
      0.1612777588D+00  0.1000000000D+01
 ****
     58 0
 S   3 1.00       0.000000000000
      0.1873113696D+02  0.3349460434D-01
      0.2825394365D+01  0.2347269535D+00
      0.6401216923D+00  0.8137573261D+00
 S   1 1.00       0.000000000000
      0.1612777588D+00  0.1000000000D+01
 ****
     59 0
 S   6 1.00       0.000000000000
      0.3047524880D+04  0.1834737132D-02
      0.4573695180D+03  0.1403732281D-01
      0.1039486850D+03  0.6884262226D-01
      0.2921015530D+02  0.2321844432D+00
      0.9286662960D+01  0.4679413484D+00
      0.3163926960D+01  0.3623119853D+00
 SP   3 1.00       0.000000000000
      0.7868272350D+01 -0.1193324198D+00  0.6899906659D-01
      0.1881288540D+01 -0.1608541517D+00  0.3164239610D+00
      0.5442492580D+00  0.1143456438D+01  0.7443082909D+00
 SP   1 1.00       0.000000000000
      0.1687144782D+00  0.1000000000D+01  0.1000000000D+01
 D   1 1.00       0.000000000000
      0.8000000000D+00  0.1000000000D+01
 ****
     60 0
 S   3 1.00       0.000000000000
      0.1873113696D+02  0.3349460434D-01
      0.2825394365D+01  0.2347269535D+00
      0.6401216923D+00  0.8137573261D+00
 S   1 1.00       0.000000000000
      0.1612777588D+00  0.1000000000D+01
 ****
     61 0
 S   3 1.00       0.000000000000
      0.1873113696D+02  0.3349460434D-01
      0.2825394365D+01  0.2347269535D+00
      0.6401216923D+00  0.8137573261D+00
 S   1 1.00       0.000000000000
      0.1612777588D+00  0.1000000000D+01
 ****
     62 0
 S   6 1.00       0.000000000000
      0.3047524880D+04  0.1834737132D-02
      0.4573695180D+03  0.1403732281D-01
      0.1039486850D+03  0.6884262226D-01
      0.2921015530D+02  0.2321844432D+00
      0.9286662960D+01  0.4679413484D+00
      0.3163926960D+01  0.3623119853D+00
 SP   3 1.00       0.000000000000
      0.7868272350D+01 -0.1193324198D+00  0.6899906659D-01
      0.1881288540D+01 -0.1608541517D+00  0.3164239610D+00
      0.5442492580D+00  0.1143456438D+01  0.7443082909D+00
 SP   1 1.00       0.000000000000
      0.1687144782D+00  0.1000000000D+01  0.1000000000D+01
 D   1 1.00       0.000000000000
      0.8000000000D+00  0.1000000000D+01
 ****
     63 0
 S   3 1.00       0.000000000000
      0.1873113696D+02  0.3349460434D-01
      0.2825394365D+01  0.2347269535D+00
      0.6401216923D+00  0.8137573261D+00
 S   1 1.00       0.000000000000
      0.1612777588D+00  0.1000000000D+01
 ****
     64 0
 S   3 1.00       0.000000000000
      0.1873113696D+02  0.3349460434D-01
      0.2825394365D+01  0.2347269535D+00
      0.6401216923D+00  0.8137573261D+00
 S   1 1.00       0.000000000000
      0.1612777588D+00  0.1000000000D+01
 ****
     65 0
 S   6 1.00       0.000000000000
      0.3047524880D+04  0.1834737132D-02
      0.4573695180D+03  0.1403732281D-01
      0.1039486850D+03  0.6884262226D-01
      0.2921015530D+02  0.2321844432D+00
      0.9286662960D+01  0.4679413484D+00
      0.3163926960D+01  0.3623119853D+00
 SP   3 1.00       0.000000000000
      0.7868272350D+01 -0.1193324198D+00  0.6899906659D-01
      0.1881288540D+01 -0.1608541517D+00  0.3164239610D+00
      0.5442492580D+00  0.1143456438D+01  0.7443082909D+00
 SP   1 1.00       0.000000000000
      0.1687144782D+00  0.1000000000D+01  0.1000000000D+01
 D   1 1.00       0.000000000000
      0.8000000000D+00  0.1000000000D+01
 ****
     66 0
 S   3 1.00       0.000000000000
      0.1873113696D+02  0.3349460434D-01
      0.2825394365D+01  0.2347269535D+00
      0.6401216923D+00  0.8137573261D+00
 S   1 1.00       0.000000000000
      0.1612777588D+00  0.1000000000D+01
 ****
     67 0
 S   6 1.00       0.000000000000
      0.3047524880D+04  0.1834737132D-02
      0.4573695180D+03  0.1403732281D-01
      0.1039486850D+03  0.6884262226D-01
      0.2921015530D+02  0.2321844432D+00
      0.9286662960D+01  0.4679413484D+00
      0.3163926960D+01  0.3623119853D+00
 SP   3 1.00       0.000000000000
      0.7868272350D+01 -0.1193324198D+00  0.6899906659D-01
      0.1881288540D+01 -0.1608541517D+00  0.3164239610D+00
      0.5442492580D+00  0.1143456438D+01  0.7443082909D+00
 SP   1 1.00       0.000000000000
      0.1687144782D+00  0.1000000000D+01  0.1000000000D+01
 D   1 1.00       0.000000000000
      0.8000000000D+00  0.1000000000D+01
 ****
     68 0
 S   3 1.00       0.000000000000
      0.1873113696D+02  0.3349460434D-01
      0.2825394365D+01  0.2347269535D+00
      0.6401216923D+00  0.8137573261D+00
 S   1 1.00       0.000000000000
      0.1612777588D+00  0.1000000000D+01
 ****
     69 0
 S   3 1.00       0.000000000000
      0.1873113696D+02  0.3349460434D-01
      0.2825394365D+01  0.2347269535D+00
      0.6401216923D+00  0.8137573261D+00
 S   1 1.00       0.000000000000
      0.1612777588D+00  0.1000000000D+01
 ****
     70 0
 S   3 1.00       0.000000000000
      0.1873113696D+02  0.3349460434D-01
      0.2825394365D+01  0.2347269535D+00
      0.6401216923D+00  0.8137573261D+00
 S   1 1.00       0.000000000000
      0.1612777588D+00  0.1000000000D+01
 ****
     71 0
 S   6 1.00       0.000000000000
      0.3047524880D+04  0.1834737132D-02
      0.4573695180D+03  0.1403732281D-01
      0.1039486850D+03  0.6884262226D-01
      0.2921015530D+02  0.2321844432D+00
      0.9286662960D+01  0.4679413484D+00
      0.3163926960D+01  0.3623119853D+00
 SP   3 1.00       0.000000000000
      0.7868272350D+01 -0.1193324198D+00  0.6899906659D-01
      0.1881288540D+01 -0.1608541517D+00  0.3164239610D+00
      0.5442492580D+00  0.1143456438D+01  0.7443082909D+00
 SP   1 1.00       0.000000000000
      0.1687144782D+00  0.1000000000D+01  0.1000000000D+01
 D   1 1.00       0.000000000000
      0.8000000000D+00  0.1000000000D+01
 ****
     72 0
 S   3 1.00       0.000000000000
      0.1873113696D+02  0.3349460434D-01
      0.2825394365D+01  0.2347269535D+00
      0.6401216923D+00  0.8137573261D+00
 S   1 1.00       0.000000000000
      0.1612777588D+00  0.1000000000D+01
 ****
     73 0
 S   3 1.00       0.000000000000
      0.1873113696D+02  0.3349460434D-01
      0.2825394365D+01  0.2347269535D+00
      0.6401216923D+00  0.8137573261D+00
 S   1 1.00       0.000000000000
      0.1612777588D+00  0.1000000000D+01
 ****
     74 0
 S   3 1.00       0.000000000000
      0.1873113696D+02  0.3349460434D-01
      0.2825394365D+01  0.2347269535D+00
      0.6401216923D+00  0.8137573261D+00
 S   1 1.00       0.000000000000
      0.1612777588D+00  0.1000000000D+01
 ****

 AO basis set (Overlap normalization):
 Atom O1       Shell     1 S   6     bf    1 -     1         -7.016094211413         -6.800207211471         -7.850283898411
      0.5484671660D+04  0.1831074430D-02
      0.8252349460D+03  0.1395017220D-01
      0.1880469580D+03  0.6844507810D-01
      0.5296450000D+02  0.2327143360D+00
      0.1689757040D+02  0.4701928980D+00
      0.5799635340D+01  0.3585208530D+00
 Atom O1       Shell     2 SP   3    bf    2 -     5         -7.016094211413         -6.800207211471         -7.850283898411
      0.1553961625D+02 -0.1107775495D+00  0.7087426823D-01
      0.3599933586D+01 -0.1480262627D+00  0.3397528391D+00
      0.1013761750D+01  0.1130767015D+01  0.7271585773D+00
 Atom O1       Shell     3 SP   1    bf    6 -     9         -7.016094211413         -6.800207211471         -7.850283898411
      0.2700058226D+00  0.1000000000D+01  0.1000000000D+01
 Atom O1       Shell     4 D   1     bf   10 -    15         -7.016094211413         -6.800207211471         -7.850283898411
      0.8000000000D+00  0.1000000000D+01
 Atom H2       Shell     5 S   3     bf   16 -    16         -7.305731666526         -8.391758805774         -7.002788347355
      0.1873113696D+02  0.3349460434D-01
      0.2825394365D+01  0.2347269535D+00
      0.6401216923D+00  0.8137573261D+00
 Atom H2       Shell     6 S   1     bf   17 -    17         -7.305731666526         -8.391758805774         -7.002788347355
      0.1612777588D+00  0.1000000000D+01
 Atom C3       Shell     7 S   6     bf   18 -    18          2.996296825074          3.889122691969          0.000000000000
      0.3047524880D+04  0.1834737132D-02
      0.4573695180D+03  0.1403732281D-01
      0.1039486850D+03  0.6884262226D-01
      0.2921015530D+02  0.2321844432D+00
      0.9286662960D+01  0.4679413484D+00
      0.3163926960D+01  0.3623119853D+00
 Atom C3       Shell     8 SP   3    bf   19 -    22          2.996296825074          3.889122691969          0.000000000000
      0.7868272350D+01 -0.1193324198D+00  0.6899906659D-01
      0.1881288540D+01 -0.1608541517D+00  0.3164239610D+00
      0.5442492580D+00  0.1143456438D+01  0.7443082909D+00
 Atom C3       Shell     9 SP   1    bf   23 -    26          2.996296825074          3.889122691969          0.000000000000
      0.1687144782D+00  0.1000000000D+01  0.1000000000D+01
 Atom C3       Shell    10 D   1     bf   27 -    32          2.996296825074          3.889122691969          0.000000000000
      0.8000000000D+00  0.1000000000D+01
 Atom C4       Shell    11 S   6     bf   33 -    33          2.504325277975          1.146111321793          0.901426445162
      0.3047524880D+04  0.1834737132D-02
      0.4573695180D+03  0.1403732281D-01
      0.1039486850D+03  0.6884262226D-01
      0.2921015530D+02  0.2321844432D+00
      0.9286662960D+01  0.4679413484D+00
      0.3163926960D+01  0.3623119853D+00
 Atom C4       Shell    12 SP   3    bf   34 -    37          2.504325277975          1.146111321793          0.901426445162
      0.7868272350D+01 -0.1193324198D+00  0.6899906659D-01
      0.1881288540D+01 -0.1608541517D+00  0.3164239610D+00
      0.5442492580D+00  0.1143456438D+01  0.7443082909D+00
 Atom C4       Shell    13 SP   1    bf   38 -    41          2.504325277975          1.146111321793          0.901426445162
      0.1687144782D+00  0.1000000000D+01  0.1000000000D+01
 Atom C4       Shell    14 D   1     bf   42 -    47          2.504325277975          1.146111321793          0.901426445162
      0.8000000000D+00  0.1000000000D+01
 Atom H5       Shell    15 S   3     bf   48 -    48          3.994981483864          0.000000000000          0.000000000000
      0.1873113696D+02  0.3349460434D-01
      0.2825394365D+01  0.2347269535D+00
      0.6401216923D+00  0.8137573261D+00
 Atom H5       Shell    16 S   1     bf   49 -    49          3.994981483864          0.000000000000          0.000000000000
      0.1612777588D+00  0.1000000000D+01
 Atom C6       Shell    17 S   6     bf   50 -    50          0.000000000000          0.000000000000          0.000000000000
      0.3047524880D+04  0.1834737132D-02
      0.4573695180D+03  0.1403732281D-01
      0.1039486850D+03  0.6884262226D-01
      0.2921015530D+02  0.2321844432D+00
      0.9286662960D+01  0.4679413484D+00
      0.3163926960D+01  0.3623119853D+00
 Atom C6       Shell    18 SP   3    bf   51 -    54          0.000000000000          0.000000000000          0.000000000000
      0.7868272350D+01 -0.1193324198D+00  0.6899906659D-01
      0.1881288540D+01 -0.1608541517D+00  0.3164239610D+00
      0.5442492580D+00  0.1143456438D+01  0.7443082909D+00
 Atom C6       Shell    19 SP   1    bf   55 -    58          0.000000000000          0.000000000000          0.000000000000
      0.1687144782D+00  0.1000000000D+01  0.1000000000D+01
 Atom C6       Shell    20 D   1     bf   59 -    64          0.000000000000          0.000000000000          0.000000000000
      0.8000000000D+00  0.1000000000D+01
 Atom H7       Shell    21 S   3     bf   65 -    65         -1.580427248990          1.090532378629          0.792170265830
      0.1873113696D+02  0.3349460434D-01
      0.2825394365D+01  0.2347269535D+00
      0.6401216923D+00  0.8137573261D+00
 Atom H7       Shell    22 S   1     bf   66 -    66         -1.580427248990          1.090532378629          0.792170265830
      0.1612777588D+00  0.1000000000D+01
 Atom C8       Shell    23 S   6     bf   67 -    67         -0.128349991076          0.100635097535         -2.932351402916
      0.3047524880D+04  0.1834737132D-02
      0.4573695180D+03  0.1403732281D-01
      0.1039486850D+03  0.6884262226D-01
      0.2921015530D+02  0.2321844432D+00
      0.9286662960D+01  0.4679413484D+00
      0.3163926960D+01  0.3623119853D+00
 Atom C8       Shell    24 SP   3    bf   68 -    71         -0.128349991076          0.100635097535         -2.932351402916
      0.7868272350D+01 -0.1193324198D+00  0.6899906659D-01
      0.1881288540D+01 -0.1608541517D+00  0.3164239610D+00
      0.5442492580D+00  0.1143456438D+01  0.7443082909D+00
 Atom C8       Shell    25 SP   1    bf   72 -    75         -0.128349991076          0.100635097535         -2.932351402916
      0.1687144782D+00  0.1000000000D+01  0.1000000000D+01
 Atom C8       Shell    26 D   1     bf   76 -    81         -0.128349991076          0.100635097535         -2.932351402916
      0.8000000000D+00  0.1000000000D+01
 Atom H9       Shell    27 S   3     bf   82 -    82          1.342158842956         -1.220169046434         -3.591910760980
      0.1873113696D+02  0.3349460434D-01
      0.2825394365D+01  0.2347269535D+00
      0.6401216923D+00  0.8137573261D+00
 Atom H9       Shell    28 S   1     bf   83 -    83          1.342158842956         -1.220169046434         -3.591910760980
      0.1612777588D+00  0.1000000000D+01
 Atom C10      Shell    29 S   6     bf   84 -    84          5.610209797036          4.365446928743          1.280245443308
      0.3047524880D+04  0.1834737132D-02
      0.4573695180D+03  0.1403732281D-01
      0.1039486850D+03  0.6884262226D-01
      0.2921015530D+02  0.2321844432D+00
      0.9286662960D+01  0.4679413484D+00
      0.3163926960D+01  0.3623119853D+00
 Atom C10      Shell    30 SP   3    bf   85 -    88          5.610209797036          4.365446928743          1.280245443308
      0.7868272350D+01 -0.1193324198D+00  0.6899906659D-01
      0.1881288540D+01 -0.1608541517D+00  0.3164239610D+00
      0.5442492580D+00  0.1143456438D+01  0.7443082909D+00
 Atom C10      Shell    31 SP   1    bf   89 -    92          5.610209797036          4.365446928743          1.280245443308
      0.1687144782D+00  0.1000000000D+01  0.1000000000D+01
 Atom C10      Shell    32 D   1     bf   93 -    98          5.610209797036          4.365446928743          1.280245443308
      0.8000000000D+00  0.1000000000D+01
 Atom H11      Shell    33 S   3     bf   99 -    99          6.912664511283          3.119943268908          0.245110442957
      0.1873113696D+02  0.3349460434D-01
      0.2825394365D+01  0.2347269535D+00
      0.6401216923D+00  0.8137573261D+00
 Atom H11      Shell    34 S   1     bf  100 -   100          6.912664511283          3.119943268908          0.245110442957
      0.1612777588D+00  0.1000000000D+01
 Atom C12      Shell    35 S   6     bf  101 -   101          3.038971093039          3.845282689747         -2.907280633078
      0.3047524880D+04  0.1834737132D-02
      0.4573695180D+03  0.1403732281D-01
      0.1039486850D+03  0.6884262226D-01
      0.2921015530D+02  0.2321844432D+00
      0.9286662960D+01  0.4679413484D+00
      0.3163926960D+01  0.3623119853D+00
 Atom C12      Shell    36 SP   3    bf  102 -   105          3.038971093039          3.845282689747         -2.907280633078
      0.7868272350D+01 -0.1193324198D+00  0.6899906659D-01
      0.1881288540D+01 -0.1608541517D+00  0.3164239610D+00
      0.5442492580D+00  0.1143456438D+01  0.7443082909D+00
 Atom C12      Shell    37 SP   1    bf  106 -   109          3.038971093039          3.845282689747         -2.907280633078
      0.1687144782D+00  0.1000000000D+01  0.1000000000D+01
 Atom C12      Shell    38 D   1     bf  110 -   115          3.038971093039          3.845282689747         -2.907280633078
      0.8000000000D+00  0.1000000000D+01
 Atom H13      Shell    39 S   3     bf  116 -   116          4.651309448036          2.693126266336         -3.533078559792
      0.1873113696D+02  0.3349460434D-01
      0.2825394365D+01  0.2347269535D+00
      0.6401216923D+00  0.8137573261D+00
 Atom H13      Shell    40 S   1     bf  117 -   117          4.651309448036          2.693126266336         -3.533078559792
      0.1612777588D+00  0.1000000000D+01
 Atom H14      Shell    41 S   3     bf  118 -   118          3.332541672947          5.746842023116         -3.685842433005
      0.1873113696D+02  0.3349460434D-01
      0.2825394365D+01  0.2347269535D+00
      0.6401216923D+00  0.8137573261D+00
 Atom H14      Shell    42 S   1     bf  119 -   119          3.332541672947          5.746842023116         -3.685842433005
      0.1612777588D+00  0.1000000000D+01
 Atom C15      Shell    43 S   6     bf  120 -   120         -2.687741132672         -0.954975501206         -3.997471424811
      0.3047524880D+04  0.1834737132D-02
      0.4573695180D+03  0.1403732281D-01
      0.1039486850D+03  0.6884262226D-01
      0.2921015530D+02  0.2321844432D+00
      0.9286662960D+01  0.4679413484D+00
      0.3163926960D+01  0.3623119853D+00
 Atom C15      Shell    44 SP   3    bf  121 -   124         -2.687741132672         -0.954975501206         -3.997471424811
      0.7868272350D+01 -0.1193324198D+00  0.6899906659D-01
      0.1881288540D+01 -0.1608541517D+00  0.3164239610D+00
      0.5442492580D+00  0.1143456438D+01  0.7443082909D+00
 Atom C15      Shell    45 SP   1    bf  125 -   128         -2.687741132672         -0.954975501206         -3.997471424811
      0.1687144782D+00  0.1000000000D+01  0.1000000000D+01
 Atom C15      Shell    46 D   1     bf  129 -   134         -2.687741132672         -0.954975501206         -3.997471424811
      0.8000000000D+00  0.1000000000D+01
 Atom C16      Shell    47 S   6     bf  135 -   135          3.129644952799          1.203559317487          3.745081756791
      0.3047524880D+04  0.1834737132D-02
      0.4573695180D+03  0.1403732281D-01
      0.1039486850D+03  0.6884262226D-01
      0.2921015530D+02  0.2321844432D+00
      0.9286662960D+01  0.4679413484D+00
      0.3163926960D+01  0.3623119853D+00
 Atom C16      Shell    48 SP   3    bf  136 -   139          3.129644952799          1.203559317487          3.745081756791
      0.7868272350D+01 -0.1193324198D+00  0.6899906659D-01
      0.1881288540D+01 -0.1608541517D+00  0.3164239610D+00
      0.5442492580D+00  0.1143456438D+01  0.7443082909D+00
 Atom C16      Shell    49 SP   1    bf  140 -   143          3.129644952799          1.203559317487          3.745081756791
      0.1687144782D+00  0.1000000000D+01  0.1000000000D+01
 Atom C16      Shell    50 D   1     bf  144 -   149          3.129644952799          1.203559317487          3.745081756791
      0.8000000000D+00  0.1000000000D+01
 Atom H17      Shell    51 S   3     bf  150 -   150          3.696175077554         -0.653289379036          4.458892771076
      0.1873113696D+02  0.3349460434D-01
      0.2825394365D+01  0.2347269535D+00
      0.6401216923D+00  0.8137573261D+00
 Atom H17      Shell    52 S   1     bf  151 -   151          3.696175077554         -0.653289379036          4.458892771076
      0.1612777588D+00  0.1000000000D+01
 Atom H18      Shell    53 S   3     bf  152 -   152          1.475500866865          1.785906072029          4.850950283441
      0.1873113696D+02  0.3349460434D-01
      0.2825394365D+01  0.2347269535D+00
      0.6401216923D+00  0.8137573261D+00
 Atom H18      Shell    54 S   1     bf  153 -   153          1.475500866865          1.785906072029          4.850950283441
      0.1612777588D+00  0.1000000000D+01
 Atom C19      Shell    55 S   6     bf  154 -   154          0.573161306036          2.735970987597         -3.999958323300
      0.3047524880D+04  0.1834737132D-02
      0.4573695180D+03  0.1403732281D-01
      0.1039486850D+03  0.6884262226D-01
      0.2921015530D+02  0.2321844432D+00
      0.9286662960D+01  0.4679413484D+00
      0.3163926960D+01  0.3623119853D+00
 Atom C19      Shell    56 SP   3    bf  155 -   158          0.573161306036          2.735970987597         -3.999958323300
      0.7868272350D+01 -0.1193324198D+00  0.6899906659D-01
      0.1881288540D+01 -0.1608541517D+00  0.3164239610D+00
      0.5442492580D+00  0.1143456438D+01  0.7443082909D+00
 Atom C19      Shell    57 SP   1    bf  159 -   162          0.573161306036          2.735970987597         -3.999958323300
      0.1687144782D+00  0.1000000000D+01  0.1000000000D+01
 Atom C19      Shell    58 D   1     bf  163 -   168          0.573161306036          2.735970987597         -3.999958323300
      0.8000000000D+00  0.1000000000D+01
 Atom H20      Shell    59 S   3     bf  169 -   169         -0.966954683032          4.070971151120         -3.645924651859
      0.1873113696D+02  0.3349460434D-01
      0.2825394365D+01  0.2347269535D+00
      0.6401216923D+00  0.8137573261D+00
 Atom H20      Shell    60 S   1     bf  170 -   170         -0.966954683032          4.070971151120         -3.645924651859
      0.1612777588D+00  0.1000000000D+01
 Atom H21      Shell    61 S   3     bf  171 -   171          0.759146621357          2.619650823008         -6.058903497645
      0.1873113696D+02  0.3349460434D-01
      0.2825394365D+01  0.2347269535D+00
      0.6401216923D+00  0.8137573261D+00
 Atom H21      Shell    62 S   1     bf  172 -   172          0.759146621357          2.619650823008         -6.058903497645
      0.1612777588D+00  0.1000000000D+01
 Atom C22      Shell    63 S   6     bf  173 -   173          5.295893123340          3.193493375315          3.969513682566
      0.3047524880D+04  0.1834737132D-02
      0.4573695180D+03  0.1403732281D-01
      0.1039486850D+03  0.6884262226D-01
      0.2921015530D+02  0.2321844432D+00
      0.9286662960D+01  0.4679413484D+00
      0.3163926960D+01  0.3623119853D+00
 Atom C22      Shell    64 SP   3    bf  174 -   177          5.295893123340          3.193493375315          3.969513682566
      0.7868272350D+01 -0.1193324198D+00  0.6899906659D-01
      0.1881288540D+01 -0.1608541517D+00  0.3164239610D+00
      0.5442492580D+00  0.1143456438D+01  0.7443082909D+00
 Atom C22      Shell    65 SP   1    bf  178 -   181          5.295893123340          3.193493375315          3.969513682566
      0.1687144782D+00  0.1000000000D+01  0.1000000000D+01
 Atom C22      Shell    66 D   1     bf  182 -   187          5.295893123340          3.193493375315          3.969513682566
      0.8000000000D+00  0.1000000000D+01
 Atom H23      Shell    67 S   3     bf  188 -   188          4.805830161840          4.633471038054          5.368215285706
      0.1873113696D+02  0.3349460434D-01
      0.2825394365D+01  0.2347269535D+00
      0.6401216923D+00  0.8137573261D+00
 Atom H23      Shell    68 S   1     bf  189 -   189          4.805830161840          4.633471038054          5.368215285706
      0.1612777588D+00  0.1000000000D+01
 Atom H24      Shell    69 S   3     bf  190 -   190          7.062398246436          2.330662734486          4.615122288632
      0.1873113696D+02  0.3349460434D-01
      0.2825394365D+01  0.2347269535D+00
      0.6401216923D+00  0.8137573261D+00
 Atom H24      Shell    70 S   1     bf  191 -   191          7.062398246436          2.330662734486          4.615122288632
      0.1612777588D+00  0.1000000000D+01
 Atom C25      Shell    71 S   6     bf  192 -   192         -0.274549560415         -2.747175835243          0.901595972493
      0.3047524880D+04  0.1834737132D-02
      0.4573695180D+03  0.1403732281D-01
      0.1039486850D+03  0.6884262226D-01
      0.2921015530D+02  0.2321844432D+00
      0.9286662960D+01  0.4679413484D+00
      0.3163926960D+01  0.3623119853D+00
 Atom C25      Shell    72 SP   3    bf  193 -   196         -0.274549560415         -2.747175835243          0.901595972493
      0.7868272350D+01 -0.1193324198D+00  0.6899906659D-01
      0.1881288540D+01 -0.1608541517D+00  0.3164239610D+00
      0.5442492580D+00  0.1143456438D+01  0.7443082909D+00
 Atom C25      Shell    73 SP   1    bf  197 -   200         -0.274549560415         -2.747175835243          0.901595972493
      0.1687144782D+00  0.1000000000D+01  0.1000000000D+01
 Atom C25      Shell    74 D   1     bf  201 -   206         -0.274549560415         -2.747175835243          0.901595972493
      0.8000000000D+00  0.1000000000D+01
 Atom H26      Shell    75 S   3     bf  207 -   207         -0.686815199333         -2.790195034919          2.935142679592
      0.1873113696D+02  0.3349460434D-01
      0.2825394365D+01  0.2347269535D+00
      0.6401216923D+00  0.8137573261D+00
 Atom H26      Shell    76 S   1     bf  208 -   208         -0.686815199333         -2.790195034919          2.935142679592
      0.1612777588D+00  0.1000000000D+01
 Atom H27      Shell    77 S   3     bf  209 -   209          1.549631572730         -3.732434821338          0.690000918545
      0.1873113696D+02  0.3349460434D-01
      0.2825394365D+01  0.2347269535D+00
      0.6401216923D+00  0.8137573261D+00
 Atom H27      Shell    78 S   1     bf  210 -   210          1.549631572730         -3.732434821338          0.690000918545
      0.1612777588D+00  0.1000000000D+01
 Atom C28      Shell    79 S   6     bf  211 -   211          6.800395957318          7.050118390285          1.103130918195
      0.3047524880D+04  0.1834737132D-02
      0.4573695180D+03  0.1403732281D-01
      0.1039486850D+03  0.6884262226D-01
      0.2921015530D+02  0.2321844432D+00
      0.9286662960D+01  0.4679413484D+00
      0.3163926960D+01  0.3623119853D+00
 Atom C28      Shell    80 SP   3    bf  212 -   215          6.800395957318          7.050118390285          1.103130918195
      0.7868272350D+01 -0.1193324198D+00  0.6899906659D-01
      0.1881288540D+01 -0.1608541517D+00  0.3164239610D+00
      0.5442492580D+00  0.1143456438D+01  0.7443082909D+00
 Atom C28      Shell    81 SP   1    bf  216 -   219          6.800395957318          7.050118390285          1.103130918195
      0.1687144782D+00  0.1000000000D+01  0.1000000000D+01
 Atom C28      Shell    82 D   1     bf  220 -   225          6.800395957318          7.050118390285          1.103130918195
      0.8000000000D+00  0.1000000000D+01
 Atom H29      Shell    83 S   3     bf  226 -   226          6.147144353906          7.871776112768         -0.693018584412
      0.1873113696D+02  0.3349460434D-01
      0.2825394365D+01  0.2347269535D+00
      0.6401216923D+00  0.8137573261D+00
 Atom H29      Shell    84 S   1     bf  227 -   227          6.147144353906          7.871776112768         -0.693018584412
      0.1612777588D+00  0.1000000000D+01
 Atom C30      Shell    85 S   6     bf  228 -   228          0.969400442182          5.764683910194          0.946707174587
      0.3047524880D+04  0.1834737132D-02
      0.4573695180D+03  0.1403732281D-01
      0.1039486850D+03  0.6884262226D-01
      0.2921015530D+02  0.2321844432D+00
      0.9286662960D+01  0.4679413484D+00
      0.3163926960D+01  0.3623119853D+00
 Atom C30      Shell    86 SP   3    bf  229 -   232          0.969400442182          5.764683910194          0.946707174587
      0.7868272350D+01 -0.1193324198D+00  0.6899906659D-01
      0.1881288540D+01 -0.1608541517D+00  0.3164239610D+00
      0.5442492580D+00  0.1143456438D+01  0.7443082909D+00
 Atom C30      Shell    87 SP   1    bf  233 -   236          0.969400442182          5.764683910194          0.946707174587
      0.1687144782D+00  0.1000000000D+01  0.1000000000D+01
 Atom C30      Shell    88 D   1     bf  237 -   242          0.969400442182          5.764683910194          0.946707174587
      0.8000000000D+00  0.1000000000D+01
 Atom H31      Shell    89 S   3     bf  243 -   243          1.385976754279          7.678076406250          0.275276613647
      0.1873113696D+02  0.3349460434D-01
      0.2825394365D+01  0.2347269535D+00
      0.6401216923D+00  0.8137573261D+00
 Atom H31      Shell    90 S   1     bf  244 -   244          1.385976754279          7.678076406250          0.275276613647
      0.1612777588D+00  0.1000000000D+01
 Atom H32      Shell    91 S   3     bf  245 -   245         -0.918022095650          5.279932005093          0.264030607766
      0.1873113696D+02  0.3349460434D-01
      0.2825394365D+01  0.2347269535D+00
      0.6401216923D+00  0.8137573261D+00
 Atom H32      Shell    92 S   1     bf  246 -   246         -0.918022095650          5.279932005093          0.264030607766
      0.1612777588D+00  0.1000000000D+01
 Atom H33      Shell    93 S   3     bf  247 -   247          0.867013322857          5.832520013898          3.009796234883
      0.1873113696D+02  0.3349460434D-01
      0.2825394365D+01  0.2347269535D+00
      0.6401216923D+00  0.8137573261D+00
 Atom H33      Shell    94 S   1     bf  248 -   248          0.867013322857          5.832520013898          3.009796234883
      0.1612777588D+00  0.1000000000D+01
 Atom C34      Shell    95 S   6     bf  249 -   249         -3.393931788532         -3.422872282853         -2.644339565811
      0.3047524880D+04  0.1834737132D-02
      0.4573695180D+03  0.1403732281D-01
      0.1039486850D+03  0.6884262226D-01
      0.2921015530D+02  0.2321844432D+00
      0.9286662960D+01  0.4679413484D+00
      0.3163926960D+01  0.3623119853D+00
 Atom C34      Shell    96 SP   3    bf  250 -   253         -3.393931788532         -3.422872282853         -2.644339565811
      0.7868272350D+01 -0.1193324198D+00  0.6899906659D-01
      0.1881288540D+01 -0.1608541517D+00  0.3164239610D+00
      0.5442492580D+00  0.1143456438D+01  0.7443082909D+00
 Atom C34      Shell    97 SP   1    bf  254 -   257         -3.393931788532         -3.422872282853         -2.644339565811
      0.1687144782D+00  0.1000000000D+01  0.1000000000D+01
 Atom C34      Shell    98 D   1     bf  258 -   263         -3.393931788532         -3.422872282853         -2.644339565811
      0.8000000000D+00  0.1000000000D+01
 Atom C35      Shell    99 S   6     bf  264 -   264         -2.340294914250         -1.548866630488         -6.865402574083
      0.3047524880D+04  0.1834737132D-02
      0.4573695180D+03  0.1403732281D-01
      0.1039486850D+03  0.6884262226D-01
      0.2921015530D+02  0.2321844432D+00
      0.9286662960D+01  0.4679413484D+00
      0.3163926960D+01  0.3623119853D+00
 Atom C35      Shell   100 SP   3    bf  265 -   268         -2.340294914250         -1.548866630488         -6.865402574083
      0.7868272350D+01 -0.1193324198D+00  0.6899906659D-01
      0.1881288540D+01 -0.1608541517D+00  0.3164239610D+00
      0.5442492580D+00  0.1143456438D+01  0.7443082909D+00
 Atom C35      Shell   101 SP   1    bf  269 -   272         -2.340294914250         -1.548866630488         -6.865402574083
      0.1687144782D+00  0.1000000000D+01  0.1000000000D+01
 Atom C35      Shell   102 D   1     bf  273 -   278         -2.340294914250         -1.548866630488         -6.865402574083
      0.8000000000D+00  0.1000000000D+01
 Atom H36      Shell   103 S   3     bf  279 -   279         -0.573220964690         -2.615249121721         -7.096069292186
      0.1873113696D+02  0.3349460434D-01
      0.2825394365D+01  0.2347269535D+00
      0.6401216923D+00  0.8137573261D+00
 Atom H36      Shell   104 S   1     bf  280 -   280         -0.573220964690         -2.615249121721         -7.096069292186
      0.1612777588D+00  0.1000000000D+01
 Atom H37      Shell   105 S   3     bf  281 -   281         -2.098587301141          0.221022727550         -7.911257537253
      0.1873113696D+02  0.3349460434D-01
      0.2825394365D+01  0.2347269535D+00
      0.6401216923D+00  0.8137573261D+00
 Atom H37      Shell   106 S   1     bf  282 -   282         -2.098587301141          0.221022727550         -7.911257537253
      0.1612777588D+00  0.1000000000D+01
 Atom C38      Shell   107 S   6     bf  283 -   283         -2.279104164772         -4.187796231634         -0.500572994642
      0.3047524880D+04  0.1834737132D-02
      0.4573695180D+03  0.1403732281D-01
      0.1039486850D+03  0.6884262226D-01
      0.2921015530D+02  0.2321844432D+00
      0.9286662960D+01  0.4679413484D+00
      0.3163926960D+01  0.3623119853D+00
 Atom C38      Shell   108 SP   3    bf  284 -   287         -2.279104164772         -4.187796231634         -0.500572994642
      0.7868272350D+01 -0.1193324198D+00  0.6899906659D-01
      0.1881288540D+01 -0.1608541517D+00  0.3164239610D+00
      0.5442492580D+00  0.1143456438D+01  0.7443082909D+00
 Atom C38      Shell   109 SP   1    bf  288 -   291         -2.279104164772         -4.187796231634         -0.500572994642
      0.1687144782D+00  0.1000000000D+01  0.1000000000D+01
 Atom C38      Shell   110 D   1     bf  292 -   297         -2.279104164772         -4.187796231634         -0.500572994642
      0.8000000000D+00  0.1000000000D+01
 Atom H39      Shell   111 S   3     bf  298 -   298         -2.853462461135         -5.989579215714          0.318679994646
      0.1873113696D+02  0.3349460434D-01
      0.2825394365D+01  0.2347269535D+00
      0.6401216923D+00  0.8137573261D+00
 Atom H39      Shell   112 S   1     bf  299 -   299         -2.853462461135         -5.989579215714          0.318679994646
      0.1612777588D+00  0.1000000000D+01
 Atom C40      Shell   113 S   6     bf  300 -   300         -4.878219636251          0.965814592359         -3.654516442900
      0.3047524880D+04  0.1834737132D-02
      0.4573695180D+03  0.1403732281D-01
      0.1039486850D+03  0.6884262226D-01
      0.2921015530D+02  0.2321844432D+00
      0.9286662960D+01  0.4679413484D+00
      0.3163926960D+01  0.3623119853D+00
 Atom C40      Shell   114 SP   3    bf  301 -   304         -4.878219636251          0.965814592359         -3.654516442900
      0.7868272350D+01 -0.1193324198D+00  0.6899906659D-01
      0.1881288540D+01 -0.1608541517D+00  0.3164239610D+00
      0.5442492580D+00  0.1143456438D+01  0.7443082909D+00
[...]
 **** Fit      -0.000504
 **** Fit      -0.000709
 **** Fit      -0.000736
 **** Fit      -0.000608
 **** Fit      -0.000383
 **** Fit      -0.000123
 **** Fit       0.000827
 **** Fit       0.001065
 **** Fit       0.001291
 **** Fit       0.001466
 **** Fit       0.001560
 **** Fit       0.001573
 **** Fit       0.001529
 **** Fit       0.001463
 **** Fit       0.001395
 **** Fit       0.001317
 **** Fit       0.001188
 **** Fit       0.000951
 **** Fit       0.000566
 **** Fit       0.000054
 **** Fit      -0.000486
 **** Fit      -0.000918
 **** Fit      -0.001137
 **** Fit      -0.001114
 **** Fit      -0.000894
 **** Fit      -0.000563
 **** Fit      -0.000209
 **** Fit       0.000105
 **** Fit       0.001128
 **** Fit       0.001328
 **** Fit       0.001483
 **** Fit       0.001571
 **** Fit       0.001588
 **** Fit       0.001549
 **** Fit       0.001475
 **** Fit       0.001381
 **** Fit       0.001258
 **** Fit       0.001068
 **** Fit       0.000753
 **** Fit       0.000274
 **** Fit      -0.000338
 **** Fit      -0.000962
 **** Fit      -0.001429
 **** Fit      -0.001619
 **** Fit      -0.001506
 **** Fit      -0.001162
 **** Fit      -0.000705
 **** Fit      -0.000250
 **** Fit       0.000130
 **** Fit       0.000406
 **** Fit       0.001303
 **** Fit       0.001161
 **** Fit       0.000970
 **** Fit       0.000701
 **** Fit       0.000304
 **** Fit      -0.000248
 **** Fit      -0.000914
 **** Fit      -0.001556
 **** Fit      -0.001995
 **** Fit      -0.002103
 **** Fit      -0.001866
 **** Fit      -0.001378
 **** Fit      -0.000790
 **** Fit      -0.000240
 **** Fit       0.000192
 **** Fit       0.000487
 **** Fit       0.000662
 **** Fit       0.000998
 **** Fit       0.000785
 **** Fit       0.000505
 **** Fit       0.000139
 **** Fit      -0.000341
 **** Fit      -0.000940
 **** Fit      -0.001600
 **** Fit      -0.002186
 **** Fit      -0.002533
 **** Fit      -0.002523
 **** Fit      -0.002150
 **** Fit      -0.001526
 **** Fit      -0.000825
 **** Fit      -0.000200
 **** Fit       0.000265
 **** Fit       0.000564
 **** Fit       0.000729
 **** Fit       0.000631
 **** Fit       0.000341
 **** Fit      -0.000032
 **** Fit      -0.000492
 **** Fit      -0.001039
 **** Fit      -0.001649
 **** Fit      -0.002253
 **** Fit      -0.002734
 **** Fit      -0.002956
 **** Fit      -0.002827
 **** Fit      -0.002344
 **** Fit      -0.001622
 **** Fit      -0.000846
 **** Fit      -0.000178
 **** Fit       0.000304
 **** Fit       0.000602
 **** Fit       0.000756
 **** Fit       0.000817
 **** Fit       0.000277
 **** Fit      -0.000074
 **** Fit      -0.000515
 **** Fit      -0.001038
 **** Fit      -0.001617
 **** Fit      -0.002206
 **** Fit      -0.002731
 **** Fit      -0.003099
 **** Fit      -0.003213
 **** Fit      -0.003000
 **** Fit      -0.002462
 **** Fit      -0.001703
 **** Fit      -0.000903
 **** Fit      -0.000221
 **** Fit       0.000267
 **** Fit       0.000566
 **** Fit       0.000721
 **** Fit       0.000782
 **** Fit      -0.000004
 **** Fit      -0.000382
 **** Fit      -0.000849
 **** Fit      -0.001386
 **** Fit      -0.001955
 **** Fit      -0.002500
 **** Fit      -0.002952
 **** Fit      -0.003239
 **** Fit      -0.003290
 **** Fit      -0.003051
 **** Fit      -0.002520
 **** Fit      -0.001789
 **** Fit      -0.001017
 **** Fit      -0.000349
 **** Fit       0.000139
 **** Fit       0.000448
 **** Fit       0.000617
 **** Fit       0.000693
 **** Fit      -0.000547
 **** Fit      -0.000994
 **** Fit      -0.001498
 **** Fit      -0.002021
 **** Fit      -0.002512
 **** Fit      -0.002909
 **** Fit      -0.003155
 **** Fit      -0.003193
 **** Fit      -0.002978
 **** Fit      -0.002509
 **** Fit      -0.001857
 **** Fit      -0.001155
 **** Fit      -0.000529
 **** Fit      -0.000051
 **** Fit       0.000269
 **** Fit       0.000461
 **** Fit      -0.000964
 **** Fit      -0.001402
 **** Fit      -0.001856
 **** Fit      -0.002285
 **** Fit      -0.002641
 **** Fit      -0.002874
 **** Fit      -0.002933
 **** Fit      -0.002776
 **** Fit      -0.002401
 **** Fit      -0.001862
 **** Fit      -0.001261
 **** Fit      -0.000702
 **** Fit      -0.000252
 **** Fit       0.000070
 **** Fit       0.000280
 **** Fit      -0.000812
 **** Fit      -0.001167
 **** Fit      -0.001539
 **** Fit      -0.001903
 **** Fit      -0.002222
 **** Fit      -0.002451
 **** Fit      -0.002542
 **** Fit      -0.002457
 **** Fit      -0.002189
 **** Fit      -0.001775
 **** Fit      -0.001291
 **** Fit      -0.000820
 **** Fit      -0.000418
 **** Fit      -0.000110
 **** Fit      -0.000599
 **** Fit      -0.000870
 **** Fit      -0.001163
 **** Fit      -0.001461
 **** Fit      -0.001740
 **** Fit      -0.001961
 **** Fit      -0.002081
 **** Fit      -0.002062
 **** Fit      -0.001895
 **** Fit      -0.001602
 **** Fit      -0.001238
 **** Fit      -0.000862
 **** Fit      -0.000523
 **** Fit      -0.000378
 **** Fit      -0.000578
 **** Fit      -0.000801
 **** Fit      -0.001039
 **** Fit      -0.001276
 **** Fit      -0.001481
 **** Fit      -0.001616
 **** Fit      -0.001648
 **** Fit      -0.001564
 **** Fit      -0.001376
 **** Fit      -0.001118
 **** Fit      -0.000328
 **** Fit      -0.000496
 **** Fit      -0.000683
 **** Fit      -0.000880
 **** Fit      -0.001062
 **** Fit      -0.001199
 **** Fit      -0.001263
 **** Fit      -0.000409
 **** Fit      -0.000570
 **** Fit      -0.000726
 **** Fit      -0.000855
 **** Fit      -0.000279
 **** Fit      -0.000035
 **** Fit       0.000230
 **** Fit       0.000034
 **** Fit      -0.000230
 **** Fit      -0.000502
 **** Fit      -0.000736
 **** Fit      -0.000885
 **** Fit      -0.000912
 **** Fit      -0.000805
 **** Fit      -0.000580
 **** Fit      -0.000279
 **** Fit       0.000045
 **** Fit       0.000343
 **** Fit       0.000586
 **** Fit       0.000062
 **** Fit      -0.000202
 **** Fit      -0.000509
 **** Fit      -0.000824
 **** Fit      -0.001094
 **** Fit      -0.001263
 **** Fit      -0.001290
 **** Fit      -0.001161
 **** Fit      -0.000895
 **** Fit      -0.000540
 **** Fit      -0.000160
 **** Fit       0.000188
 **** Fit       0.000469
 **** Fit      -0.000159
 **** Fit      -0.000459
 **** Fit      -0.000802
 **** Fit      -0.001148
 **** Fit      -0.001440
 **** Fit      -0.001621
 **** Fit      -0.001647
 **** Fit      -0.001501
 **** Fit      -0.001205
 **** Fit      -0.000809
 **** Fit      -0.000383
 **** Fit       0.000009
 **** Fit       0.000326
 **** Fit       0.000556
 **** Fit      -0.000119
 **** Fit      -0.000387
 **** Fit      -0.000714
 **** Fit      -0.001079
 **** Fit      -0.001439
 **** Fit      -0.001737
 **** Fit      -0.001917
 **** Fit      -0.001940
 **** Fit      -0.001788
 **** Fit      -0.001480
 **** Fit      -0.001064
 **** Fit      -0.000610
 **** Fit      -0.000186
 **** Fit       0.000162
 **** Fit       0.000419
 **** Fit      -0.000305
 **** Fit      -0.000593
 **** Fit      -0.000933
 **** Fit      -0.001301
 **** Fit      -0.001653
 **** Fit      -0.001937
 **** Fit      -0.002105
 **** Fit      -0.002124
 **** Fit      -0.001979
 **** Fit      -0.001680
 **** Fit      -0.001269
 **** Fit      -0.000811
 **** Fit      -0.000374
 **** Fit      -0.000006
 **** Fit       0.000274
 **** Fit      -0.000741
 **** Fit      -0.001073
 **** Fit      -0.001420
 **** Fit      -0.001741
 **** Fit      -0.001993
 **** Fit      -0.002140
 **** Fit      -0.002155
 **** Fit      -0.002027
 **** Fit      -0.001758
 **** Fit      -0.001379
 **** Fit      -0.000944
 **** Fit      -0.000516
 **** Fit      -0.000145
 **** Fit       0.000144
 **** Fit      -0.000801
 **** Fit      -0.001100
 **** Fit      -0.001400
 **** Fit      -0.001668
 **** Fit      -0.001871
 **** Fit      -0.001987
 **** Fit      -0.001999
 **** Fit      -0.001894
 **** Fit      -0.001671
 **** Fit      -0.001346
 **** Fit      -0.000960
 **** Fit      -0.000569
 **** Fit      -0.000220
 **** Fit       0.000058
 **** Fit      -0.000999
 **** Fit      -0.001228
 **** Fit      -0.001423
 **** Fit      -0.001563
 **** Fit      -0.001640
 **** Fit      -0.001645
 **** Fit      -0.001569
 **** Fit      -0.001401
 **** Fit      -0.001147
 **** Fit      -0.000834
 **** Fit      -0.000505
 **** Fit      -0.000205
 **** Fit      -0.000786
 **** Fit      -0.000929
 **** Fit      -0.001036
 **** Fit      -0.001104
 **** Fit      -0.001134
 **** Fit      -0.001130
 **** Fit      -0.001081
 **** Fit      -0.000973
 **** Fit      -0.000799
 **** Fit      -0.000573
 **** Fit      -0.000501
 **** Fit      -0.000554
 **** Fit      -0.000574
 **** Fit      -0.000568
 **** Fit      -0.000551
 **** Fit      -0.000533
 **** Fit      -0.000507
 **** Fit      -0.000454
 **** Fit      -0.000357
 **** Fit      -0.000218
 **** Fit      -0.000196
 **** Fit      -0.000170
 **** Fit      -0.000115
 **** Fit      -0.000048
 **** Fit       0.000010
 **** Fit       0.000043
 **** Fit       0.000057
 **** Fit       0.000070
 **** Fit       0.000104
 **** Fit       0.000166
 **** Fit       0.000168
 **** Fit       0.000275
 **** Fit       0.000384
 **** Fit       0.000471
 **** Fit       0.000518
 **** Fit       0.000528
 **** Fit       0.000518
 **** Fit       0.000510
 **** Fit       0.000512
 **** Fit       0.000502
 **** Fit       0.000444
 **** Fit       0.000331
 **** Fit       0.000172
 **** Fit      -0.000003
 **** Fit      -0.000155
 **** Fit       0.000427
 **** Fit       0.000562
 **** Fit       0.000692
 **** Fit       0.000793
 **** Fit       0.000849
 **** Fit       0.000860
 **** Fit       0.000840
 **** Fit       0.000806
 **** Fit       0.000718
 **** Fit       0.000637
 **** Fit       0.000503
 **** Fit       0.000306
 **** Fit       0.000062
 **** Fit      -0.000188
 **** Fit      -0.000390
 **** Fit      -0.000503
 **** Fit       0.000874
 **** Fit       0.000976
 **** Fit       0.001033
 **** Fit       0.001044
 **** Fit       0.001017
 **** Fit       0.000894
 **** Fit       0.000799
 **** Fit       0.000660
 **** Fit       0.000457
 **** Fit       0.000183
 **** Fit      -0.000138
 **** Fit      -0.000451
 **** Fit      -0.000690
 **** Fit      -0.000804
 **** Fit      -0.000776
 **** Fit      -0.000628
 **** Fit      -0.000405
 **** Fit       0.000878
 **** Fit       0.000738
 **** Fit       0.000543
 **** Fit       0.000277
 **** Fit      -0.000062
 **** Fit      -0.000442
 **** Fit      -0.000796
 **** Fit      -0.001047
 **** Fit      -0.001138
 **** Fit      -0.001057
 **** Fit      -0.000837
 **** Fit      -0.000538
 **** Fit      -0.000226
 **** Fit       0.000052
 **** Fit       0.000731
 **** Fit       0.000539
 **** Fit       0.000287
 **** Fit      -0.000036
 **** Fit      -0.000425
 **** Fit      -0.000837
 **** Fit      -0.001201
 **** Fit      -0.001433
 **** Fit      -0.001476
 **** Fit      -0.001324
 **** Fit      -0.001023
 **** Fit      -0.000646
 **** Fit      -0.000272
 **** Fit       0.000048
 **** Fit       0.000291
 **** Fit       0.000486
 **** Fit       0.000240
 **** Fit      -0.000069
 **** Fit      -0.000440
 **** Fit      -0.000858
 **** Fit      -0.001274
 **** Fit      -0.001615
 **** Fit      -0.001800
 **** Fit      -0.001780
 **** Fit      -0.001554
 **** Fit      -0.001175
 **** Fit      -0.000730
 **** Fit      -0.000304
 **** Fit       0.000048
 **** Fit       0.000305
 **** Fit       0.000198
 **** Fit      -0.000098
 **** Fit      -0.000454
 **** Fit      -0.000858
 **** Fit      -0.001283
 **** Fit      -0.001678
 **** Fit      -0.001972
 **** Fit      -0.002099
 **** Fit      -0.002016
 **** Fit      -0.001728
 **** Fit      -0.001292
 **** Fit      -0.000800
 **** Fit      -0.000339
 **** Fit       0.000033
 **** Fit       0.000299
 **** Fit      -0.000075
 **** Fit      -0.000406
 **** Fit      -0.000789
 **** Fit      -0.001205
 **** Fit      -0.001618
 **** Fit      -0.001975
 **** Fit      -0.002219
 **** Fit      -0.002293
 **** Fit      -0.002165
 **** Fit      -0.001842
 **** Fit      -0.001380
 **** Fit      -0.000869
 **** Fit      -0.000396
 **** Fit      -0.000015
 **** Fit       0.000257
 **** Fit      -0.000628
 **** Fit      -0.001014
 **** Fit      -0.001419
 **** Fit      -0.001805
 **** Fit      -0.002124
 **** Fit      -0.002325
 **** Fit      -0.002366
 **** Fit      -0.002220
 **** Fit      -0.001895
 **** Fit      -0.001442
 **** Fit      -0.000942
 **** Fit      -0.000477
 **** Fit      -0.000099
 **** Fit       0.000176
 **** Fit      -0.001102
 **** Fit      -0.001478
 **** Fit      -0.001828
 **** Fit      -0.002112
 **** Fit      -0.002287
 **** Fit      -0.002316
 **** Fit      -0.002179
 **** Fit      -0.001882
 **** Fit      -0.001468
 **** Fit      -0.001007
 **** Fit      -0.000570
 **** Fit      -0.000206
 **** Fit       0.000066
 **** Fit      -0.001395
 **** Fit      -0.001705
 **** Fit      -0.001959
 **** Fit      -0.002120
 **** Fit      -0.002156
 **** Fit      -0.002048
 **** Fit      -0.001801
 **** Fit      -0.001447
 **** Fit      -0.001045
 **** Fit      -0.000653
 **** Fit      -0.000316
 **** Fit      -0.001210
 **** Fit      -0.001478
 **** Fit      -0.001704
 **** Fit      -0.001857
 **** Fit      -0.001909
 **** Fit      -0.001841
 **** Fit      -0.001653
 **** Fit      -0.001372
 **** Fit      -0.001039
 **** Fit      -0.000705
 **** Fit      -0.000972
 **** Fit      -0.001198
 **** Fit      -0.001397
 **** Fit      -0.001543
 **** Fit      -0.001610
 **** Fit      -0.000912
 **** Fit      -0.001083
 **** Fit      -0.001220
 **** Fit      -0.000827
 **** Fit      -0.000568
 **** Fit      -0.000282
 **** Fit      -0.001217
 **** Fit      -0.001016
 **** Fit      -0.000746
 **** Fit      -0.000443
 **** Fit      -0.000149
 **** Fit      -0.001343
 **** Fit      -0.001146
 **** Fit      -0.000877
 **** Fit      -0.000573
 **** Fit      -0.000273
 **** Fit      -0.001370
 **** Fit      -0.001188
 **** Fit      -0.000937
 **** Fit      -0.000648
 **** Fit      -0.001286
 **** Fit      -0.001358
 **** Fit      -0.001358
 **** Fit      -0.001278
 **** Fit      -0.000901
 **** Fit      -0.000988
 **** Fit      -0.001085
 **** Fit      -0.001135
 **** Fit      -0.001130
 **** Fit      -0.001065
 **** Fit      -0.000940
 **** Fit      -0.000735
 **** Fit      -0.000790
 **** Fit      -0.000813
 **** Fit      -0.000802
 **** Fit      -0.000753
 **** Fit      -0.000663
 **** Fit      -0.000431
 **** Fit      -0.000442
 **** Fit      -0.000437
 **** Fit      -0.000419
 **** Fit      -0.000384
 **** Fit      -0.000328
 **** Fit      -0.000120
 **** Fit      -0.000093
 **** Fit      -0.000064
 **** Fit      -0.000038
 **** Fit      -0.000014
 **** Fit       0.000015
 **** Fit       0.000212
 **** Fit       0.000259
 **** Fit       0.000291
 **** Fit       0.000308
 **** Fit      -0.000026
 **** Fit       0.000205
 **** Fit       0.000017
 **** Fit      -0.000187
 **** Fit      -0.000374
 **** Fit      -0.000511
 **** Fit       0.000265
 **** Fit       0.000065
 **** Fit      -0.000168
 **** Fit      -0.000408
 **** Fit      -0.000619
 **** Fit      -0.000760
 **** Fit       0.000090
 **** Fit      -0.000150
 **** Fit      -0.000415
 **** Fit      -0.000676
 **** Fit      -0.000894
 **** Fit      -0.001025
 **** Fit      -0.001042
 **** Fit      -0.000749
 **** Fit      -0.000140
 **** Fit      -0.000410
 **** Fit      -0.000695
 **** Fit      -0.000962
 **** Fit      -0.001169
 **** Fit      -0.001277
 **** Fit      -0.001259
 **** Fit      -0.001117
 **** Fit      -0.000879
 **** Fit      -0.000591
 **** Fit      -0.000300
 **** Fit      -0.000385
 **** Fit      -0.000674
 **** Fit      -0.000964
 **** Fit      -0.001223
 **** Fit      -0.001409
 **** Fit      -0.001487
 **** Fit      -0.001435
 **** Fit      -0.001257
 **** Fit      -0.000985
 **** Fit      -0.000667
 **** Fit      -0.000352
 **** Fit      -0.000600
 **** Fit      -0.000894
 **** Fit      -0.001179
 **** Fit      -0.001420
 **** Fit      -0.001581
 **** Fit      -0.001631
 **** Fit      -0.001554
 **** Fit      -0.001354
 **** Fit      -0.001065
 **** Fit      -0.000732
 **** Fit      -0.000407
 **** Fit      -0.001306
 **** Fit      -0.001526
 **** Fit      -0.001607
 **** Fit      -0.001403
 **** Fit      -0.001115
 **** Fit      -0.000788
 **** Fit      -0.000466
 **** Fit      -0.001593
 **** Fit      -0.001402
 **** Fit      -0.001134
 **** Fit      -0.000827
 -----------------------------------------------------------------
 Leave Link  602 at Mon Mar 20 12:27:56 2017, MaxMem=    33554432 cpu:        36.7
 (Enter /home/michal/g09/l9999.exe)

 Test job not archived.
 1\1\GINC-LINUX\SP\RHF\6-31G(d)\C27H46O1\MICHAL\20-Mar-2017\0\\#P HF/6-
 31G* SCF(Conver=6) NoSymm Test Pop=chelpg IOp(6/33=2) GFInput GFPrint\
 \MEP - Input generated by R.E.D.-III.x MOLECULE\\0,1\O,0,-3.71275715,-
 3.59851467,-4.15419132\H,0,-3.86602669,-4.4407275,-3.70571599\C,0,1.58
 557199,2.05803509,0.\C,0,1.32523186,0.60649599,0.47701433\H,0,2.114053
 15,0.,0.\C,0,0.,0.,0.\H,0,-0.83632608,0.57708488,0.41919845\C,0,-0.067
 91989,0.0532538,-1.55173353\H,0,0.71023987,-0.64568565,-1.90075731\C,0
 ,2.96879516,2.31009502,0.67747671\H,0,3.65802451,1.65100287,0.12970686
 \C,0,1.60815424,2.03483596,-1.53846665\H,0,2.46136695,1.42514104,-1.86
 962465\H,0,1.7635051,3.04109782,-1.95046381\C,0,-1.42229135,-0.5053512
 7,-2.11537077\C,0,1.65613678,0.63689616,1.98181191\H,0,1.95593161,-0.3
 4570585,2.35954443\H,0,0.78080143,0.94506079,2.56701233\C,0,0.3033039,
 1.44781349,-2.11668678\H,0,-0.51169038,2.15426515,-1.92934023\H,0,0.40
 172309,1.38625951,-3.20623364\C,0,2.80246594,1.68992391,2.10057617\H,0
 ,2.54313579,2.45192727,2.84073718\H,0,3.73726019,1.2333336,2.44221753\
 C,0,-0.14528537,-1.45374284,0.47710404\H,0,-0.36344695,-1.47650762,1.5
 5321061\H,0,0.82002971,-1.97511944,0.36513276\C,0,3.59861455,3.7307619
 7,0.58375174\H,0,3.25292869,4.16556451,-0.36672964\C,0,0.51298462,3.05
 053934,0.50097586\H,0,0.73342731,4.06306304,0.14567011\H,0,-0.48579637
 ,2.79401968,0.13971898\H,0,0.45880369,3.08643666,1.59271557\C,0,-1.795
 99135,-1.811306,-1.39932423\C,0,-1.23843073,-0.81962492,-3.63301457\H,
 0,-0.30333547,-1.38393023,-3.75507814\H,0,-1.11052457,0.11696019,-4.18
 645718\C,0,-1.20604998,-2.21608632,-0.26489182\H,0,-1.5099873,-3.16954
 881,0.16863819\C,0,-2.58144265,0.51108707,-1.93388681\H,0,-2.44823427,
 1.38893883,-2.57390245\H,0,-3.54657811,0.06893115,-2.19313029\H,0,-2.6
 5072522,0.85016939,-0.89569489\C,0,-2.88634785,-2.64952418,-2.04073456
 \H,0,-2.99519325,-3.59216903,-1.48899656\H,0,-3.85696122,-2.13660478,-
 1.98471319\C,0,-2.38054499,-1.62356746,-4.27126248\H,0,-3.31727973,-1.
 05233995,-4.26911696\H,0,-2.14655369,-1.83810847,-5.32021218\C,0,3.199
 38145,4.71594001,1.70863798\H,0,2.1411373,4.59415839,1.96311387\H,0,3.
 76023302,4.46052646,2.61735948\C,0,-2.61190082,-2.93092888,-3.52505442
 \H,0,-1.70734257,-3.55578116,-3.60941338\C,0,5.13428836,3.61561797,0.4
 9296167\H,0,5.54219332,3.13058856,1.38875047\H,0,5.61382259,4.59520657
 ,0.39969571\H,0,5.43531601,3.01833063,-0.37482877\C,0,3.43165631,6.194
 7377,1.35360286\H,0,4.49377643,6.37520918,1.1489952\H,0,2.90663542,6.4
 1330404,0.41293715\C,0,2.93253613,7.19005339,2.41721692\H,0,1.85354423
 ,7.03444539,2.56190798\H,0,3.0404018,8.21062319,2.02070225\C,0,3.62095
 028,7.13703708,3.79800306\H,0,3.50052489,6.1227506,4.20478512\C,0,2.93
 192614,8.10718755,4.77115296\H,0,1.8637299,7.88232179,4.87041673\H,0,3
 .38005379,8.05470513,5.76998298\H,0,3.02270655,9.14330038,4.42026639\C
 ,0,5.12626008,7.43600503,3.71515532\H,0,5.65845684,6.70965698,3.092496
 35\H,0,5.58464024,7.41438719,4.71041463\H,0,5.30220849,8.43280863,3.28
 999833\\Version=EM64L-G09RevD.01\HF=-1124.0764558\RMSD=4.645e-07\Dipol
 e=0.371119,-0.1423915,0.4975751\Quadrupole=-2.1060345,6.6100105,-4.503
 976,-0.9941401,-6.2718747,-3.9718838\PG=C01 [X(C27H46O1)]\\@


 DESK:  A WASTEBASKET WITH DRAWERS.
 Job cpu time:       0 days  0 hours 11 minutes  1.4 seconds.
 File lengths (MBytes):  RWF=    142 Int=      0 D2E=      0 Chk=     10 Scr=      1
 Normal termination of Gaussian 09 at Mon Mar 20 12:27:56 2017.
