 Entering Gaussian System, Link 0=/home/michal/g09/g09
 Input=JOB2-gau_m1-6-4.com
 Output=JOB2-gau_m1-6-4.log
 Initial command:
 /home/michal/g09/l1.exe "/home/michal/gauss_scratch/Gau-17619.inp" -scrdir="/home/michal/gauss_scratch/"
 Entering Link 1 = /home/michal/g09/l1.exe PID=     17620.
  
 Copyright (c) 1988,1990,1992,1993,1995,1998,2003,2009,2013,
            Gaussian, Inc.  All Rights Reserved.
  
 This is part of the Gaussian(R) 09 program.  It is based on
 the Gaussian(R) 03 system (copyright 2003, Gaussian, Inc.),
 the Gaussian(R) 98 system (copyright 1998, Gaussian, Inc.),
 the Gaussian(R) 94 system (copyright 1995, Gaussian, Inc.),
 the Gaussian 92(TM) system (copyright 1992, Gaussian, Inc.),
 the Gaussian 90(TM) system (copyright 1990, Gaussian, Inc.),
 the Gaussian 88(TM) system (copyright 1988, Gaussian, Inc.),
 the Gaussian 86(TM) system (copyright 1986, Carnegie Mellon
 University), and the Gaussian 82(TM) system (copyright 1983,
 Carnegie Mellon University). Gaussian is a federally registered
 trademark of Gaussian, Inc.
  
 This software contains proprietary and confidential information,
 including trade secrets, belonging to Gaussian, Inc.
  
 This software is provided under written license and may be
 used, copied, transmitted, or stored only in accord with that
 written license.
  
 The following legend is applicable only to US Government
 contracts under FAR:
  
                    RESTRICTED RIGHTS LEGEND
  
 Use, reproduction and disclosure by the US Government is
 subject to restrictions as set forth in subparagraphs (a)
 and (c) of the Commercial Computer Software - Restricted
 Rights clause in FAR 52.227-19.
  
 Gaussian, Inc.
 340 Quinnipiac St., Bldg. 40, Wallingford CT 06492
  
  
 ---------------------------------------------------------------
 Warning -- This program may not be used in any manner that
 competes with the business of Gaussian, Inc. or will provide
 assistance to any competitor of Gaussian, Inc.  The licensee
 of this program is prohibited from giving any competitor of
 Gaussian, Inc. access to this program.  By using this program,
 the user acknowledges that Gaussian, Inc. is engaged in the
 business of creating and licensing software in the field of
 computational chemistry and represents and warrants to the
 licensee that it is not a competitor of Gaussian, Inc. and that
 it will not use this program in any manner prohibited above.
 ---------------------------------------------------------------
  

 Cite this work as:
 Gaussian 09, Revision D.01,
 M. J. Frisch, G. W. Trucks, H. B. Schlegel, G. E. Scuseria, 
 M. A. Robb, J. R. Cheeseman, G. Scalmani, V. Barone, B. Mennucci, 
 G. A. Petersson, H. Nakatsuji, M. Caricato, X. Li, H. P. Hratchian, 
 A. F. Izmaylov, J. Bloino, G. Zheng, J. L. Sonnenberg, M. Hada, 
 M. Ehara, K. Toyota, R. Fukuda, J. Hasegawa, M. Ishida, T. Nakajima, 
 Y. Honda, O. Kitao, H. Nakai, T. Vreven, J. A. Montgomery, Jr., 
 J. E. Peralta, F. Ogliaro, M. Bearpark, J. J. Heyd, E. Brothers, 
 K. N. Kudin, V. N. Staroverov, T. Keith, R. Kobayashi, J. Normand, 
 K. Raghavachari, A. Rendell, J. C. Burant, S. S. Iyengar, J. Tomasi, 
 M. Cossi, N. Rega, J. M. Millam, M. Klene, J. E. Knox, J. B. Cross, 
 V. Bakken, C. Adamo, J. Jaramillo, R. Gomperts, R. E. Stratmann, 
 O. Yazyev, A. J. Austin, R. Cammi, C. Pomelli, J. W. Ochterski, 
 R. L. Martin, K. Morokuma, V. G. Zakrzewski, G. A. Voth, 
 P. Salvador, J. J. Dannenberg, S. Dapprich, A. D. Daniels, 
 O. Farkas, J. B. Foresman, J. V. Ortiz, J. Cioslowski, 
 and D. J. Fox, Gaussian, Inc., Wallingford CT, 2013.
 
 ******************************************
 Gaussian 09:  EM64L-G09RevD.01 24-Apr-2013
                20-Mar-2017 
 ******************************************
 %Mem=256MB
 %NProc=12
 Will use up to   12 processors via shared memory.
 ----------------------------------------------------------------------
 #P HF/6-31G* SCF(Conver=6) NoSymm Test Pop=chelpg IOp(6/33=2) GFInput 
 GFPrint
 ----------------------------------------------------------------------
 1/38=1/1;
 2/12=2,15=1,17=6,18=5,40=1/2;
 3/5=1,6=6,7=1,11=9,16=1,24=110,25=1,30=1/1,2,3;
 4//1;
 5/5=2,6=6,38=5/2;
 6/7=2,8=2,9=2,10=2,15=8,20=3,28=1,33=2/1,2;
 99/5=1,9=1/99;
 Leave Link    1 at Mon Mar 20 12:01:50 2017, MaxMem=    33554432 cpu:         0.6
 (Enter /home/michal/g09/l101.exe)
 ----------------------------------------------
 MEP - Input generated by R.E.D.-III.x MOLECULE
 ----------------------------------------------
 Symbolic Z-matrix:
 Charge =  0 Multiplicity = 1
 O                     4.19387   6.56537   4.11964 
 H                     4.97401   6.91555   3.66942 
 C                     0.        0.        0. 
 C                     1.34537   0.61928  -0.47204 
 H                     2.12783   0.        0. 
 C                     1.61209   2.05476   0. 
 H                     0.8493    2.72235  -0.42521 
 C                     1.54136   2.12286   1.54808 
 H                     2.40382   1.5376    1.90803 
 C                     0.0899   -1.40631  -0.68816 
 H                     0.82554  -1.98455  -0.10632 
 C                     0.03109   0.01441   1.5423 
 H                     0.8346   -0.65468   1.88311 
 H                    -0.89849  -0.37351   1.97081 
 C                     1.75393   3.57611   2.10088 
 C                     1.39771   0.31045  -1.97564 
 H                     2.41947   0.3089   -2.3682 
 H                     0.84173   1.06541  -2.54533 
 C                     0.27229   1.43256   2.0997 
 H                    -0.60867   2.04603   1.88291 
 H                     0.3323    1.36913   3.1921 
 C                     0.72378  -1.08486  -2.0864 
 H                    -0.04768  -1.08787  -2.86546 
 H                     1.45186  -1.84956  -2.3727 
 C                     2.98689   2.54571  -0.48165 
 H                     2.95614   2.75639  -1.55896 
 H                     3.72752   1.73706  -0.36444 
 C                    -1.1807   -2.28618  -0.80671 
 H                    -1.89362  -1.74352  -1.44488 
 C                    -1.22579   0.77961  -0.53027 
 H                    -2.15473   0.35664  -0.13407 
 H                    -1.20379   1.83358  -0.24254 
 H                    -1.29301   0.7449   -1.62192 
 C                     2.93094   4.24949   1.38116 
 C                     2.10188   3.48493   3.61944 
 H                     2.87714   2.71664   3.74766 
 H                     1.22413   3.13588   4.17416 
 C                     3.46848   3.76529   0.25182 
 H                     4.32074   4.28733  -0.18476 
 C                     0.48614   4.45166   1.91177 
 H                    -0.33318   4.11355   2.554 
 H                     0.67951   5.49757   2.16257 
 H                     0.14072   4.42776   0.8736 
 C                     3.47896   5.51557   2.01316 
 H                     4.36832   5.84492   1.46049 
 H                     2.74635   6.33253   1.94874 
 C                     2.60247   4.79328   4.24849 
 H                     1.82047   5.56279   4.23906 
 H                     2.86601   4.62688   5.29917 
 C                    -0.85734  -3.63915  -1.51366 
 H                     0.14764  -3.60373  -1.94684 
 H                    -0.82388  -4.43794  -0.75904 
 C                     3.81548   5.32998   3.49987 
 H                     4.64157   4.60552   3.59185 
 C                    -1.86815  -2.55357   0.54524 
 H                    -1.15787  -2.97744   1.26601 
 H                    -2.68439  -3.27319   0.42927 
 H                    -2.29198  -1.64819   0.9871 
 C                    -1.82804  -4.05037  -2.63884 
 H                    -1.83107  -3.25997  -3.40145 
 H                    -1.41878  -4.94397  -3.12754 
 C                    -3.2678   -4.33659  -2.18297 
 H                    -3.69209  -3.43109  -1.72909 
 H                    -3.24005  -5.09369  -1.38566 
 C                    -4.24775  -4.82302  -3.27771 
 H                    -5.21493  -4.96465  -2.77299 
 C                    -3.84857  -6.18352  -3.87319 
 H                    -3.6978   -6.93392  -3.08817 
 H                    -4.62858  -6.55706  -4.54647 
 H                    -2.92175  -6.11631  -4.45439 
 C                    -4.46615  -3.7782   -4.38477 
 H                    -4.75901  -2.80814  -3.96599 
 H                    -5.25832  -4.09801  -5.07135 
 H                    -3.55947  -3.62506  -4.98131 
 
 NAtoms=     74 NQM=       74 NQMF=       0 NMMI=      0 NMMIF=      0
                NMic=       0 NMicF=      0.
                    Isotopes and Nuclear Properties:
 (Nuclear quadrupole moments (NQMom) in fm**2, nuclear magnetic moments (NMagM)
  in nuclear magnetons)

  Atom         1           2           3           4           5           6           7           8           9          10
 IAtWgt=          16           1          12          12           1          12           1          12           1          12
 AtmWgt=  15.9949146   1.0078250  12.0000000  12.0000000   1.0078250  12.0000000   1.0078250  12.0000000   1.0078250  12.0000000
 NucSpn=           0           1           0           0           1           0           1           0           1           0
 AtZEff=   0.0000000   0.0000000   0.0000000   0.0000000   0.0000000   0.0000000   0.0000000   0.0000000   0.0000000   0.0000000
 NQMom=    0.0000000   0.0000000   0.0000000   0.0000000   0.0000000   0.0000000   0.0000000   0.0000000   0.0000000   0.0000000
 NMagM=    0.0000000   2.7928460   0.0000000   0.0000000   2.7928460   0.0000000   2.7928460   0.0000000   2.7928460   0.0000000
 AtZNuc=   8.0000000   1.0000000   6.0000000   6.0000000   1.0000000   6.0000000   1.0000000   6.0000000   1.0000000   6.0000000

  Atom        11          12          13          14          15          16          17          18          19          20
 IAtWgt=           1          12           1           1          12          12           1           1          12           1
 AtmWgt=   1.0078250  12.0000000   1.0078250   1.0078250  12.0000000  12.0000000   1.0078250   1.0078250  12.0000000   1.0078250
 NucSpn=           1           0           1           1           0           0           1           1           0           1
 AtZEff=   0.0000000   0.0000000   0.0000000   0.0000000   0.0000000   0.0000000   0.0000000   0.0000000   0.0000000   0.0000000
 NQMom=    0.0000000   0.0000000   0.0000000   0.0000000   0.0000000   0.0000000   0.0000000   0.0000000   0.0000000   0.0000000
 NMagM=    2.7928460   0.0000000   2.7928460   2.7928460   0.0000000   0.0000000   2.7928460   2.7928460   0.0000000   2.7928460
 AtZNuc=   1.0000000   6.0000000   1.0000000   1.0000000   6.0000000   6.0000000   1.0000000   1.0000000   6.0000000   1.0000000

  Atom        21          22          23          24          25          26          27          28          29          30
 IAtWgt=           1          12           1           1          12           1           1          12           1          12
 AtmWgt=   1.0078250  12.0000000   1.0078250   1.0078250  12.0000000   1.0078250   1.0078250  12.0000000   1.0078250  12.0000000
 NucSpn=           1           0           1           1           0           1           1           0           1           0
 AtZEff=   0.0000000   0.0000000   0.0000000   0.0000000   0.0000000   0.0000000   0.0000000   0.0000000   0.0000000   0.0000000
 NQMom=    0.0000000   0.0000000   0.0000000   0.0000000   0.0000000   0.0000000   0.0000000   0.0000000   0.0000000   0.0000000
 NMagM=    2.7928460   0.0000000   2.7928460   2.7928460   0.0000000   2.7928460   2.7928460   0.0000000   2.7928460   0.0000000
 AtZNuc=   1.0000000   6.0000000   1.0000000   1.0000000   6.0000000   1.0000000   1.0000000   6.0000000   1.0000000   6.0000000

  Atom        31          32          33          34          35          36          37          38          39          40
 IAtWgt=           1           1           1          12          12           1           1          12           1          12
 AtmWgt=   1.0078250   1.0078250   1.0078250  12.0000000  12.0000000   1.0078250   1.0078250  12.0000000   1.0078250  12.0000000
 NucSpn=           1           1           1           0           0           1           1           0           1           0
 AtZEff=   0.0000000   0.0000000   0.0000000   0.0000000   0.0000000   0.0000000   0.0000000   0.0000000   0.0000000   0.0000000
 NQMom=    0.0000000   0.0000000   0.0000000   0.0000000   0.0000000   0.0000000   0.0000000   0.0000000   0.0000000   0.0000000
 NMagM=    2.7928460   2.7928460   2.7928460   0.0000000   0.0000000   2.7928460   2.7928460   0.0000000   2.7928460   0.0000000
 AtZNuc=   1.0000000   1.0000000   1.0000000   6.0000000   6.0000000   1.0000000   1.0000000   6.0000000   1.0000000   6.0000000

  Atom        41          42          43          44          45          46          47          48          49          50
 IAtWgt=           1           1           1          12           1           1          12           1           1          12
 AtmWgt=   1.0078250   1.0078250   1.0078250  12.0000000   1.0078250   1.0078250  12.0000000   1.0078250   1.0078250  12.0000000
 NucSpn=           1           1           1           0           1           1           0           1           1           0
 AtZEff=   0.0000000   0.0000000   0.0000000   0.0000000   0.0000000   0.0000000   0.0000000   0.0000000   0.0000000   0.0000000
 NQMom=    0.0000000   0.0000000   0.0000000   0.0000000   0.0000000   0.0000000   0.0000000   0.0000000   0.0000000   0.0000000
 NMagM=    2.7928460   2.7928460   2.7928460   0.0000000   2.7928460   2.7928460   0.0000000   2.7928460   2.7928460   0.0000000
 AtZNuc=   1.0000000   1.0000000   1.0000000   6.0000000   1.0000000   1.0000000   6.0000000   1.0000000   1.0000000   6.0000000

  Atom        51          52          53          54          55          56          57          58          59          60
 IAtWgt=           1           1          12           1          12           1           1           1          12           1
 AtmWgt=   1.0078250   1.0078250  12.0000000   1.0078250  12.0000000   1.0078250   1.0078250   1.0078250  12.0000000   1.0078250
 NucSpn=           1           1           0           1           0           1           1           1           0           1
 AtZEff=   0.0000000   0.0000000   0.0000000   0.0000000   0.0000000   0.0000000   0.0000000   0.0000000   0.0000000   0.0000000
 NQMom=    0.0000000   0.0000000   0.0000000   0.0000000   0.0000000   0.0000000   0.0000000   0.0000000   0.0000000   0.0000000
 NMagM=    2.7928460   2.7928460   0.0000000   2.7928460   0.0000000   2.7928460   2.7928460   2.7928460   0.0000000   2.7928460
 AtZNuc=   1.0000000   1.0000000   6.0000000   1.0000000   6.0000000   1.0000000   1.0000000   1.0000000   6.0000000   1.0000000

  Atom        61          62          63          64          65          66          67          68          69          70
 IAtWgt=           1          12           1           1          12           1          12           1           1           1
 AtmWgt=   1.0078250  12.0000000   1.0078250   1.0078250  12.0000000   1.0078250  12.0000000   1.0078250   1.0078250   1.0078250
 NucSpn=           1           0           1           1           0           1           0           1           1           1
 AtZEff=   0.0000000   0.0000000   0.0000000   0.0000000   0.0000000   0.0000000   0.0000000   0.0000000   0.0000000   0.0000000
 NQMom=    0.0000000   0.0000000   0.0000000   0.0000000   0.0000000   0.0000000   0.0000000   0.0000000   0.0000000   0.0000000
 NMagM=    2.7928460   0.0000000   2.7928460   2.7928460   0.0000000   2.7928460   0.0000000   2.7928460   2.7928460   2.7928460
 AtZNuc=   1.0000000   6.0000000   1.0000000   1.0000000   6.0000000   1.0000000   6.0000000   1.0000000   1.0000000   1.0000000

  Atom        71          72          73          74
 IAtWgt=          12           1           1           1
 AtmWgt=  12.0000000   1.0078250   1.0078250   1.0078250
 NucSpn=           0           1           1           1
 AtZEff=   0.0000000   0.0000000   0.0000000   0.0000000
 NQMom=    0.0000000   0.0000000   0.0000000   0.0000000
 NMagM=    0.0000000   2.7928460   2.7928460   2.7928460
 AtZNuc=   6.0000000   1.0000000   1.0000000   1.0000000
 Leave Link  101 at Mon Mar 20 12:01:50 2017, MaxMem=    33554432 cpu:         1.0
 (Enter /home/michal/g09/l202.exe)
 Symmetry turned off by external request.
 Stoichiometry    C27H46O
 Framework group  C1[X(C27H46O)]
 Deg. of freedom   216
 Full point group                 C1      NOp   1
                          Input orientation:                          
 ---------------------------------------------------------------------
 Center     Atomic      Atomic             Coordinates (Angstroms)
 Number     Number       Type             X           Y           Z
 ---------------------------------------------------------------------
      1          8           0        4.193870    6.565369    4.119638
      2          1           0        4.974011    6.915546    3.669418
      3          6           0        0.000000    0.000000    0.000000
      4          6           0        1.345375    0.619279   -0.472043
      5          1           0        2.127829    0.000000    0.000000
      6          6           0        1.612093    2.054762    0.000000
      7          1           0        0.849301    2.722352   -0.425214
      8          6           0        1.541357    2.122859    1.548083
      9          1           0        2.403818    1.537604    1.908026
     10          6           0        0.089899   -1.406311   -0.688160
     11          1           0        0.825545   -1.984548   -0.106325
     12          6           0        0.031089    0.014411    1.542297
     13          1           0        0.834596   -0.654677    1.883109
     14          1           0       -0.898490   -0.373511    1.970809
     15          6           0        1.753935    3.576115    2.100877
     16          6           0        1.397714    0.310447   -1.975643
     17          1           0        2.419465    0.308898   -2.368204
     18          1           0        0.841734    1.065414   -2.545332
     19          6           0        0.272287    1.432564    2.099701
     20          1           0       -0.608673    2.046031    1.882914
     21          1           0        0.332295    1.369131    3.192097
     22          6           0        0.723778   -1.084858   -2.086398
     23          1           0       -0.047681   -1.087873   -2.865456
     24          1           0        1.451858   -1.849556   -2.372698
     25          6           0        2.986895    2.545714   -0.481647
     26          1           0        2.956138    2.756388   -1.558955
     27          1           0        3.727524    1.737059   -0.364435
     28          6           0       -1.180696   -2.286179   -0.806708
     29          1           0       -1.893618   -1.743520   -1.444877
     30          6           0       -1.225789    0.779612   -0.530271
     31          1           0       -2.154734    0.356641   -0.134075
     32          1           0       -1.203794    1.833584   -0.242544
     33          1           0       -1.293010    0.744900   -1.621916
     34          6           0        2.930945    4.249488    1.381162
     35          6           0        2.101883    3.484928    3.619438
     36          1           0        2.877139    2.716639    3.747656
     37          1           0        1.224132    3.135885    4.174160
     38          6           0        3.468485    3.765290    0.251820
     39          1           0        4.320741    4.287334   -0.184760
     40          6           0        0.486137    4.451661    1.911771
     41          1           0       -0.333183    4.113554    2.554000
     42          1           0        0.679510    5.497570    2.162569
     43          1           0        0.140723    4.427763    0.873596
     44          6           0        3.478960    5.515573    2.013164
     45          1           0        4.368317    5.844916    1.460486
     46          1           0        2.746353    6.332533    1.948740
     47          6           0        2.602469    4.793283    4.248485
     48          1           0        1.820469    5.562792    4.239065
     49          1           0        2.866011    4.626881    5.299167
     50          6           0       -0.857337   -3.639150   -1.513656
     51          1           0        0.147642   -3.603729   -1.946843
     52          1           0       -0.823880   -4.437944   -0.759044
     53          6           0        3.815477    5.329980    3.499867
     54          1           0        4.641575    4.605524    3.591846
     55          6           0       -1.868150   -2.553569    0.545239
     56          1           0       -1.157871   -2.977438    1.266013
     57          1           0       -2.684390   -3.273195    0.429268
     58          1           0       -2.291984   -1.648193    0.987104
     59          6           0       -1.828042   -4.050375   -2.638835
     60          1           0       -1.831066   -3.259975   -3.401448
     61          1           0       -1.418782   -4.943974   -3.127538
     62          6           0       -3.267802   -4.336588   -2.182975
     63          1           0       -3.692095   -3.431087   -1.729089
     64          1           0       -3.240049   -5.093691   -1.385658
     65          6           0       -4.247745   -4.823016   -3.277709
     66          1           0       -5.214935   -4.964655   -2.772993
     67          6           0       -3.848573   -6.183516   -3.873188
     68          1           0       -3.697798   -6.933917   -3.088167
     69          1           0       -4.628581   -6.557062   -4.546468
     70          1           0       -2.921754   -6.116311   -4.454387
     71          6           0       -4.466145   -3.778200   -4.384768
     72          1           0       -4.759005   -2.808138   -3.965987
     73          1           0       -5.258318   -4.098010   -5.071349
     74          1           0       -3.559471   -3.625064   -4.981308
 ---------------------------------------------------------------------
 Rotational constants (GHZ):      0.5975874      0.0556085      0.0538210
 Leave Link  202 at Mon Mar 20 12:01:50 2017, MaxMem=    33554432 cpu:         0.0
 (Enter /home/michal/g09/l301.exe)
 Standard basis: 6-31G(d) (6D, 7F)
 Ernie: Thresh=  0.10000D-02 Tol=  0.10000D-05 Strict=F.
 AO basis set in the form of general basis input (Overlap normalization):
      1 0
 S   6 1.00       0.000000000000
      0.5484671660D+04  0.1831074430D-02
      0.8252349460D+03  0.1395017220D-01
      0.1880469580D+03  0.6844507810D-01
      0.5296450000D+02  0.2327143360D+00
      0.1689757040D+02  0.4701928980D+00
      0.5799635340D+01  0.3585208530D+00
 SP   3 1.00       0.000000000000
      0.1553961625D+02 -0.1107775495D+00  0.7087426823D-01
      0.3599933586D+01 -0.1480262627D+00  0.3397528391D+00
      0.1013761750D+01  0.1130767015D+01  0.7271585773D+00
 SP   1 1.00       0.000000000000
      0.2700058226D+00  0.1000000000D+01  0.1000000000D+01
 D   1 1.00       0.000000000000
      0.8000000000D+00  0.1000000000D+01
 ****
      2 0
 S   3 1.00       0.000000000000
      0.1873113696D+02  0.3349460434D-01
      0.2825394365D+01  0.2347269535D+00
      0.6401216923D+00  0.8137573261D+00
 S   1 1.00       0.000000000000
      0.1612777588D+00  0.1000000000D+01
 ****
      3 0
 S   6 1.00       0.000000000000
      0.3047524880D+04  0.1834737132D-02
      0.4573695180D+03  0.1403732281D-01
      0.1039486850D+03  0.6884262226D-01
      0.2921015530D+02  0.2321844432D+00
      0.9286662960D+01  0.4679413484D+00
      0.3163926960D+01  0.3623119853D+00
 SP   3 1.00       0.000000000000
      0.7868272350D+01 -0.1193324198D+00  0.6899906659D-01
      0.1881288540D+01 -0.1608541517D+00  0.3164239610D+00
      0.5442492580D+00  0.1143456438D+01  0.7443082909D+00
 SP   1 1.00       0.000000000000
      0.1687144782D+00  0.1000000000D+01  0.1000000000D+01
 D   1 1.00       0.000000000000
      0.8000000000D+00  0.1000000000D+01
 ****
      4 0
 S   6 1.00       0.000000000000
      0.3047524880D+04  0.1834737132D-02
      0.4573695180D+03  0.1403732281D-01
      0.1039486850D+03  0.6884262226D-01
      0.2921015530D+02  0.2321844432D+00
      0.9286662960D+01  0.4679413484D+00
      0.3163926960D+01  0.3623119853D+00
 SP   3 1.00       0.000000000000
      0.7868272350D+01 -0.1193324198D+00  0.6899906659D-01
      0.1881288540D+01 -0.1608541517D+00  0.3164239610D+00
      0.5442492580D+00  0.1143456438D+01  0.7443082909D+00
 SP   1 1.00       0.000000000000
      0.1687144782D+00  0.1000000000D+01  0.1000000000D+01
 D   1 1.00       0.000000000000
      0.8000000000D+00  0.1000000000D+01
 ****
      5 0
 S   3 1.00       0.000000000000
      0.1873113696D+02  0.3349460434D-01
      0.2825394365D+01  0.2347269535D+00
      0.6401216923D+00  0.8137573261D+00
 S   1 1.00       0.000000000000
      0.1612777588D+00  0.1000000000D+01
 ****
      6 0
 S   6 1.00       0.000000000000
      0.3047524880D+04  0.1834737132D-02
      0.4573695180D+03  0.1403732281D-01
      0.1039486850D+03  0.6884262226D-01
      0.2921015530D+02  0.2321844432D+00
      0.9286662960D+01  0.4679413484D+00
      0.3163926960D+01  0.3623119853D+00
 SP   3 1.00       0.000000000000
      0.7868272350D+01 -0.1193324198D+00  0.6899906659D-01
      0.1881288540D+01 -0.1608541517D+00  0.3164239610D+00
      0.5442492580D+00  0.1143456438D+01  0.7443082909D+00
 SP   1 1.00       0.000000000000
      0.1687144782D+00  0.1000000000D+01  0.1000000000D+01
 D   1 1.00       0.000000000000
      0.8000000000D+00  0.1000000000D+01
 ****
      7 0
 S   3 1.00       0.000000000000
      0.1873113696D+02  0.3349460434D-01
      0.2825394365D+01  0.2347269535D+00
      0.6401216923D+00  0.8137573261D+00
 S   1 1.00       0.000000000000
      0.1612777588D+00  0.1000000000D+01
 ****
      8 0
 S   6 1.00       0.000000000000
      0.3047524880D+04  0.1834737132D-02
      0.4573695180D+03  0.1403732281D-01
      0.1039486850D+03  0.6884262226D-01
      0.2921015530D+02  0.2321844432D+00
      0.9286662960D+01  0.4679413484D+00
      0.3163926960D+01  0.3623119853D+00
 SP   3 1.00       0.000000000000
      0.7868272350D+01 -0.1193324198D+00  0.6899906659D-01
      0.1881288540D+01 -0.1608541517D+00  0.3164239610D+00
      0.5442492580D+00  0.1143456438D+01  0.7443082909D+00
 SP   1 1.00       0.000000000000
      0.1687144782D+00  0.1000000000D+01  0.1000000000D+01
 D   1 1.00       0.000000000000
      0.8000000000D+00  0.1000000000D+01
 ****
      9 0
 S   3 1.00       0.000000000000
      0.1873113696D+02  0.3349460434D-01
      0.2825394365D+01  0.2347269535D+00
      0.6401216923D+00  0.8137573261D+00
 S   1 1.00       0.000000000000
      0.1612777588D+00  0.1000000000D+01
 ****
     10 0
 S   6 1.00       0.000000000000
      0.3047524880D+04  0.1834737132D-02
      0.4573695180D+03  0.1403732281D-01
      0.1039486850D+03  0.6884262226D-01
      0.2921015530D+02  0.2321844432D+00
      0.9286662960D+01  0.4679413484D+00
      0.3163926960D+01  0.3623119853D+00
 SP   3 1.00       0.000000000000
      0.7868272350D+01 -0.1193324198D+00  0.6899906659D-01
      0.1881288540D+01 -0.1608541517D+00  0.3164239610D+00
      0.5442492580D+00  0.1143456438D+01  0.7443082909D+00
 SP   1 1.00       0.000000000000
      0.1687144782D+00  0.1000000000D+01  0.1000000000D+01
 D   1 1.00       0.000000000000
      0.8000000000D+00  0.1000000000D+01
 ****
     11 0
 S   3 1.00       0.000000000000
      0.1873113696D+02  0.3349460434D-01
      0.2825394365D+01  0.2347269535D+00
      0.6401216923D+00  0.8137573261D+00
 S   1 1.00       0.000000000000
      0.1612777588D+00  0.1000000000D+01
 ****
     12 0
 S   6 1.00       0.000000000000
      0.3047524880D+04  0.1834737132D-02
      0.4573695180D+03  0.1403732281D-01
      0.1039486850D+03  0.6884262226D-01
      0.2921015530D+02  0.2321844432D+00
      0.9286662960D+01  0.4679413484D+00
      0.3163926960D+01  0.3623119853D+00
 SP   3 1.00       0.000000000000
      0.7868272350D+01 -0.1193324198D+00  0.6899906659D-01
      0.1881288540D+01 -0.1608541517D+00  0.3164239610D+00
      0.5442492580D+00  0.1143456438D+01  0.7443082909D+00
 SP   1 1.00       0.000000000000
      0.1687144782D+00  0.1000000000D+01  0.1000000000D+01
 D   1 1.00       0.000000000000
      0.8000000000D+00  0.1000000000D+01
 ****
     13 0
 S   3 1.00       0.000000000000
      0.1873113696D+02  0.3349460434D-01
      0.2825394365D+01  0.2347269535D+00
      0.6401216923D+00  0.8137573261D+00
 S   1 1.00       0.000000000000
      0.1612777588D+00  0.1000000000D+01
 ****
     14 0
 S   3 1.00       0.000000000000
      0.1873113696D+02  0.3349460434D-01
      0.2825394365D+01  0.2347269535D+00
      0.6401216923D+00  0.8137573261D+00
 S   1 1.00       0.000000000000
      0.1612777588D+00  0.1000000000D+01
 ****
     15 0
 S   6 1.00       0.000000000000
      0.3047524880D+04  0.1834737132D-02
      0.4573695180D+03  0.1403732281D-01
      0.1039486850D+03  0.6884262226D-01
      0.2921015530D+02  0.2321844432D+00
      0.9286662960D+01  0.4679413484D+00
      0.3163926960D+01  0.3623119853D+00
 SP   3 1.00       0.000000000000
      0.7868272350D+01 -0.1193324198D+00  0.6899906659D-01
      0.1881288540D+01 -0.1608541517D+00  0.3164239610D+00
      0.5442492580D+00  0.1143456438D+01  0.7443082909D+00
 SP   1 1.00       0.000000000000
      0.1687144782D+00  0.1000000000D+01  0.1000000000D+01
 D   1 1.00       0.000000000000
      0.8000000000D+00  0.1000000000D+01
 ****
     16 0
 S   6 1.00       0.000000000000
      0.3047524880D+04  0.1834737132D-02
      0.4573695180D+03  0.1403732281D-01
      0.1039486850D+03  0.6884262226D-01
      0.2921015530D+02  0.2321844432D+00
      0.9286662960D+01  0.4679413484D+00
      0.3163926960D+01  0.3623119853D+00
 SP   3 1.00       0.000000000000
      0.7868272350D+01 -0.1193324198D+00  0.6899906659D-01
      0.1881288540D+01 -0.1608541517D+00  0.3164239610D+00
      0.5442492580D+00  0.1143456438D+01  0.7443082909D+00
 SP   1 1.00       0.000000000000
      0.1687144782D+00  0.1000000000D+01  0.1000000000D+01
 D   1 1.00       0.000000000000
      0.8000000000D+00  0.1000000000D+01
 ****
     17 0
 S   3 1.00       0.000000000000
      0.1873113696D+02  0.3349460434D-01
      0.2825394365D+01  0.2347269535D+00
      0.6401216923D+00  0.8137573261D+00
 S   1 1.00       0.000000000000
      0.1612777588D+00  0.1000000000D+01
 ****
     18 0
 S   3 1.00       0.000000000000
      0.1873113696D+02  0.3349460434D-01
      0.2825394365D+01  0.2347269535D+00
      0.6401216923D+00  0.8137573261D+00
 S   1 1.00       0.000000000000
      0.1612777588D+00  0.1000000000D+01
 ****
     19 0
 S   6 1.00       0.000000000000
      0.3047524880D+04  0.1834737132D-02
      0.4573695180D+03  0.1403732281D-01
      0.1039486850D+03  0.6884262226D-01
      0.2921015530D+02  0.2321844432D+00
      0.9286662960D+01  0.4679413484D+00
      0.3163926960D+01  0.3623119853D+00
 SP   3 1.00       0.000000000000
      0.7868272350D+01 -0.1193324198D+00  0.6899906659D-01
      0.1881288540D+01 -0.1608541517D+00  0.3164239610D+00
      0.5442492580D+00  0.1143456438D+01  0.7443082909D+00
 SP   1 1.00       0.000000000000
      0.1687144782D+00  0.1000000000D+01  0.1000000000D+01
 D   1 1.00       0.000000000000
      0.8000000000D+00  0.1000000000D+01
 ****
     20 0
 S   3 1.00       0.000000000000
      0.1873113696D+02  0.3349460434D-01
      0.2825394365D+01  0.2347269535D+00
      0.6401216923D+00  0.8137573261D+00
 S   1 1.00       0.000000000000
      0.1612777588D+00  0.1000000000D+01
 ****
     21 0
 S   3 1.00       0.000000000000
      0.1873113696D+02  0.3349460434D-01
      0.2825394365D+01  0.2347269535D+00
      0.6401216923D+00  0.8137573261D+00
 S   1 1.00       0.000000000000
      0.1612777588D+00  0.1000000000D+01
 ****
     22 0
 S   6 1.00       0.000000000000
      0.3047524880D+04  0.1834737132D-02
      0.4573695180D+03  0.1403732281D-01
      0.1039486850D+03  0.6884262226D-01
      0.2921015530D+02  0.2321844432D+00
      0.9286662960D+01  0.4679413484D+00
      0.3163926960D+01  0.3623119853D+00
 SP   3 1.00       0.000000000000
      0.7868272350D+01 -0.1193324198D+00  0.6899906659D-01
      0.1881288540D+01 -0.1608541517D+00  0.3164239610D+00
      0.5442492580D+00  0.1143456438D+01  0.7443082909D+00
 SP   1 1.00       0.000000000000
      0.1687144782D+00  0.1000000000D+01  0.1000000000D+01
 D   1 1.00       0.000000000000
      0.8000000000D+00  0.1000000000D+01
 ****
     23 0
 S   3 1.00       0.000000000000
      0.1873113696D+02  0.3349460434D-01
      0.2825394365D+01  0.2347269535D+00
      0.6401216923D+00  0.8137573261D+00
 S   1 1.00       0.000000000000
      0.1612777588D+00  0.1000000000D+01
 ****
     24 0
 S   3 1.00       0.000000000000
      0.1873113696D+02  0.3349460434D-01
      0.2825394365D+01  0.2347269535D+00
      0.6401216923D+00  0.8137573261D+00
 S   1 1.00       0.000000000000
      0.1612777588D+00  0.1000000000D+01
 ****
     25 0
 S   6 1.00       0.000000000000
      0.3047524880D+04  0.1834737132D-02
      0.4573695180D+03  0.1403732281D-01
      0.1039486850D+03  0.6884262226D-01
      0.2921015530D+02  0.2321844432D+00
      0.9286662960D+01  0.4679413484D+00
      0.3163926960D+01  0.3623119853D+00
 SP   3 1.00       0.000000000000
      0.7868272350D+01 -0.1193324198D+00  0.6899906659D-01
      0.1881288540D+01 -0.1608541517D+00  0.3164239610D+00
      0.5442492580D+00  0.1143456438D+01  0.7443082909D+00
 SP   1 1.00       0.000000000000
      0.1687144782D+00  0.1000000000D+01  0.1000000000D+01
 D   1 1.00       0.000000000000
      0.8000000000D+00  0.1000000000D+01
 ****
     26 0
 S   3 1.00       0.000000000000
      0.1873113696D+02  0.3349460434D-01
      0.2825394365D+01  0.2347269535D+00
      0.6401216923D+00  0.8137573261D+00
 S   1 1.00       0.000000000000
      0.1612777588D+00  0.1000000000D+01
 ****
     27 0
 S   3 1.00       0.000000000000
      0.1873113696D+02  0.3349460434D-01
      0.2825394365D+01  0.2347269535D+00
      0.6401216923D+00  0.8137573261D+00
 S   1 1.00       0.000000000000
      0.1612777588D+00  0.1000000000D+01
 ****
     28 0
 S   6 1.00       0.000000000000
      0.3047524880D+04  0.1834737132D-02
      0.4573695180D+03  0.1403732281D-01
      0.1039486850D+03  0.6884262226D-01
      0.2921015530D+02  0.2321844432D+00
      0.9286662960D+01  0.4679413484D+00
      0.3163926960D+01  0.3623119853D+00
 SP   3 1.00       0.000000000000
      0.7868272350D+01 -0.1193324198D+00  0.6899906659D-01
      0.1881288540D+01 -0.1608541517D+00  0.3164239610D+00
      0.5442492580D+00  0.1143456438D+01  0.7443082909D+00
 SP   1 1.00       0.000000000000
      0.1687144782D+00  0.1000000000D+01  0.1000000000D+01
 D   1 1.00       0.000000000000
      0.8000000000D+00  0.1000000000D+01
 ****
     29 0
 S   3 1.00       0.000000000000
      0.1873113696D+02  0.3349460434D-01
      0.2825394365D+01  0.2347269535D+00
      0.6401216923D+00  0.8137573261D+00
 S   1 1.00       0.000000000000
      0.1612777588D+00  0.1000000000D+01
 ****
     30 0
 S   6 1.00       0.000000000000
      0.3047524880D+04  0.1834737132D-02
      0.4573695180D+03  0.1403732281D-01
      0.1039486850D+03  0.6884262226D-01
      0.2921015530D+02  0.2321844432D+00
      0.9286662960D+01  0.4679413484D+00
      0.3163926960D+01  0.3623119853D+00
 SP   3 1.00       0.000000000000
      0.7868272350D+01 -0.1193324198D+00  0.6899906659D-01
      0.1881288540D+01 -0.1608541517D+00  0.3164239610D+00
      0.5442492580D+00  0.1143456438D+01  0.7443082909D+00
 SP   1 1.00       0.000000000000
      0.1687144782D+00  0.1000000000D+01  0.1000000000D+01
 D   1 1.00       0.000000000000
      0.8000000000D+00  0.1000000000D+01
 ****
     31 0
 S   3 1.00       0.000000000000
      0.1873113696D+02  0.3349460434D-01
      0.2825394365D+01  0.2347269535D+00
      0.6401216923D+00  0.8137573261D+00
 S   1 1.00       0.000000000000
      0.1612777588D+00  0.1000000000D+01
 ****
     32 0
 S   3 1.00       0.000000000000
      0.1873113696D+02  0.3349460434D-01
      0.2825394365D+01  0.2347269535D+00
      0.6401216923D+00  0.8137573261D+00
 S   1 1.00       0.000000000000
      0.1612777588D+00  0.1000000000D+01
 ****
     33 0
 S   3 1.00       0.000000000000
      0.1873113696D+02  0.3349460434D-01
      0.2825394365D+01  0.2347269535D+00
      0.6401216923D+00  0.8137573261D+00
 S   1 1.00       0.000000000000
      0.1612777588D+00  0.1000000000D+01
 ****
     34 0
 S   6 1.00       0.000000000000
      0.3047524880D+04  0.1834737132D-02
      0.4573695180D+03  0.1403732281D-01
      0.1039486850D+03  0.6884262226D-01
      0.2921015530D+02  0.2321844432D+00
      0.9286662960D+01  0.4679413484D+00
      0.3163926960D+01  0.3623119853D+00
 SP   3 1.00       0.000000000000
      0.7868272350D+01 -0.1193324198D+00  0.6899906659D-01
      0.1881288540D+01 -0.1608541517D+00  0.3164239610D+00
      0.5442492580D+00  0.1143456438D+01  0.7443082909D+00
 SP   1 1.00       0.000000000000
      0.1687144782D+00  0.1000000000D+01  0.1000000000D+01
 D   1 1.00       0.000000000000
      0.8000000000D+00  0.1000000000D+01
 ****
     35 0
 S   6 1.00       0.000000000000
      0.3047524880D+04  0.1834737132D-02
      0.4573695180D+03  0.1403732281D-01
      0.1039486850D+03  0.6884262226D-01
      0.2921015530D+02  0.2321844432D+00
      0.9286662960D+01  0.4679413484D+00
      0.3163926960D+01  0.3623119853D+00
 SP   3 1.00       0.000000000000
      0.7868272350D+01 -0.1193324198D+00  0.6899906659D-01
      0.1881288540D+01 -0.1608541517D+00  0.3164239610D+00
      0.5442492580D+00  0.1143456438D+01  0.7443082909D+00
 SP   1 1.00       0.000000000000
      0.1687144782D+00  0.1000000000D+01  0.1000000000D+01
 D   1 1.00       0.000000000000
      0.8000000000D+00  0.1000000000D+01
 ****
     36 0
 S   3 1.00       0.000000000000
      0.1873113696D+02  0.3349460434D-01
      0.2825394365D+01  0.2347269535D+00
      0.6401216923D+00  0.8137573261D+00
 S   1 1.00       0.000000000000
      0.1612777588D+00  0.1000000000D+01
 ****
     37 0
 S   3 1.00       0.000000000000
      0.1873113696D+02  0.3349460434D-01
      0.2825394365D+01  0.2347269535D+00
      0.6401216923D+00  0.8137573261D+00
 S   1 1.00       0.000000000000
      0.1612777588D+00  0.1000000000D+01
 ****
     38 0
 S   6 1.00       0.000000000000
      0.3047524880D+04  0.1834737132D-02
      0.4573695180D+03  0.1403732281D-01
      0.1039486850D+03  0.6884262226D-01
      0.2921015530D+02  0.2321844432D+00
      0.9286662960D+01  0.4679413484D+00
      0.3163926960D+01  0.3623119853D+00
 SP   3 1.00       0.000000000000
      0.7868272350D+01 -0.1193324198D+00  0.6899906659D-01
      0.1881288540D+01 -0.1608541517D+00  0.3164239610D+00
      0.5442492580D+00  0.1143456438D+01  0.7443082909D+00
 SP   1 1.00       0.000000000000
      0.1687144782D+00  0.1000000000D+01  0.1000000000D+01
 D   1 1.00       0.000000000000
      0.8000000000D+00  0.1000000000D+01
 ****
     39 0
 S   3 1.00       0.000000000000
      0.1873113696D+02  0.3349460434D-01
      0.2825394365D+01  0.2347269535D+00
      0.6401216923D+00  0.8137573261D+00
 S   1 1.00       0.000000000000
      0.1612777588D+00  0.1000000000D+01
 ****
     40 0
 S   6 1.00       0.000000000000
      0.3047524880D+04  0.1834737132D-02
      0.4573695180D+03  0.1403732281D-01
      0.1039486850D+03  0.6884262226D-01
      0.2921015530D+02  0.2321844432D+00
      0.9286662960D+01  0.4679413484D+00
      0.3163926960D+01  0.3623119853D+00
 SP   3 1.00       0.000000000000
      0.7868272350D+01 -0.1193324198D+00  0.6899906659D-01
      0.1881288540D+01 -0.1608541517D+00  0.3164239610D+00
      0.5442492580D+00  0.1143456438D+01  0.7443082909D+00
 SP   1 1.00       0.000000000000
      0.1687144782D+00  0.1000000000D+01  0.1000000000D+01
 D   1 1.00       0.000000000000
      0.8000000000D+00  0.1000000000D+01
 ****
     41 0
 S   3 1.00       0.000000000000
      0.1873113696D+02  0.3349460434D-01
      0.2825394365D+01  0.2347269535D+00
      0.6401216923D+00  0.8137573261D+00
 S   1 1.00       0.000000000000
      0.1612777588D+00  0.1000000000D+01
 ****
     42 0
 S   3 1.00       0.000000000000
      0.1873113696D+02  0.3349460434D-01
      0.2825394365D+01  0.2347269535D+00
      0.6401216923D+00  0.8137573261D+00
 S   1 1.00       0.000000000000
      0.1612777588D+00  0.1000000000D+01
 ****
     43 0
 S   3 1.00       0.000000000000
      0.1873113696D+02  0.3349460434D-01
      0.2825394365D+01  0.2347269535D+00
      0.6401216923D+00  0.8137573261D+00
 S   1 1.00       0.000000000000
      0.1612777588D+00  0.1000000000D+01
 ****
     44 0
 S   6 1.00       0.000000000000
      0.3047524880D+04  0.1834737132D-02
      0.4573695180D+03  0.1403732281D-01
      0.1039486850D+03  0.6884262226D-01
      0.2921015530D+02  0.2321844432D+00
      0.9286662960D+01  0.4679413484D+00
      0.3163926960D+01  0.3623119853D+00
 SP   3 1.00       0.000000000000
      0.7868272350D+01 -0.1193324198D+00  0.6899906659D-01
      0.1881288540D+01 -0.1608541517D+00  0.3164239610D+00
      0.5442492580D+00  0.1143456438D+01  0.7443082909D+00
 SP   1 1.00       0.000000000000
      0.1687144782D+00  0.1000000000D+01  0.1000000000D+01
 D   1 1.00       0.000000000000
      0.8000000000D+00  0.1000000000D+01
 ****
     45 0
 S   3 1.00       0.000000000000
      0.1873113696D+02  0.3349460434D-01
      0.2825394365D+01  0.2347269535D+00
      0.6401216923D+00  0.8137573261D+00
 S   1 1.00       0.000000000000
      0.1612777588D+00  0.1000000000D+01
 ****
     46 0
 S   3 1.00       0.000000000000
      0.1873113696D+02  0.3349460434D-01
      0.2825394365D+01  0.2347269535D+00
      0.6401216923D+00  0.8137573261D+00
 S   1 1.00       0.000000000000
      0.1612777588D+00  0.1000000000D+01
 ****
     47 0
 S   6 1.00       0.000000000000
      0.3047524880D+04  0.1834737132D-02
      0.4573695180D+03  0.1403732281D-01
      0.1039486850D+03  0.6884262226D-01
      0.2921015530D+02  0.2321844432D+00
      0.9286662960D+01  0.4679413484D+00
      0.3163926960D+01  0.3623119853D+00
 SP   3 1.00       0.000000000000
      0.7868272350D+01 -0.1193324198D+00  0.6899906659D-01
      0.1881288540D+01 -0.1608541517D+00  0.3164239610D+00
      0.5442492580D+00  0.1143456438D+01  0.7443082909D+00
 SP   1 1.00       0.000000000000
      0.1687144782D+00  0.1000000000D+01  0.1000000000D+01
 D   1 1.00       0.000000000000
      0.8000000000D+00  0.1000000000D+01
 ****
     48 0
 S   3 1.00       0.000000000000
      0.1873113696D+02  0.3349460434D-01
      0.2825394365D+01  0.2347269535D+00
      0.6401216923D+00  0.8137573261D+00
 S   1 1.00       0.000000000000
      0.1612777588D+00  0.1000000000D+01
 ****
     49 0
 S   3 1.00       0.000000000000
      0.1873113696D+02  0.3349460434D-01
      0.2825394365D+01  0.2347269535D+00
      0.6401216923D+00  0.8137573261D+00
 S   1 1.00       0.000000000000
      0.1612777588D+00  0.1000000000D+01
 ****
     50 0
 S   6 1.00       0.000000000000
      0.3047524880D+04  0.1834737132D-02
      0.4573695180D+03  0.1403732281D-01
      0.1039486850D+03  0.6884262226D-01
      0.2921015530D+02  0.2321844432D+00
      0.9286662960D+01  0.4679413484D+00
      0.3163926960D+01  0.3623119853D+00
 SP   3 1.00       0.000000000000
      0.7868272350D+01 -0.1193324198D+00  0.6899906659D-01
      0.1881288540D+01 -0.1608541517D+00  0.3164239610D+00
      0.5442492580D+00  0.1143456438D+01  0.7443082909D+00
 SP   1 1.00       0.000000000000
      0.1687144782D+00  0.1000000000D+01  0.1000000000D+01
 D   1 1.00       0.000000000000
      0.8000000000D+00  0.1000000000D+01
 ****
     51 0
 S   3 1.00       0.000000000000
      0.1873113696D+02  0.3349460434D-01
      0.2825394365D+01  0.2347269535D+00
      0.6401216923D+00  0.8137573261D+00
 S   1 1.00       0.000000000000
      0.1612777588D+00  0.1000000000D+01
 ****
     52 0
 S   3 1.00       0.000000000000
      0.1873113696D+02  0.3349460434D-01
      0.2825394365D+01  0.2347269535D+00
      0.6401216923D+00  0.8137573261D+00
 S   1 1.00       0.000000000000
      0.1612777588D+00  0.1000000000D+01
 ****
     53 0
 S   6 1.00       0.000000000000
      0.3047524880D+04  0.1834737132D-02
      0.4573695180D+03  0.1403732281D-01
      0.1039486850D+03  0.6884262226D-01
      0.2921015530D+02  0.2321844432D+00
      0.9286662960D+01  0.4679413484D+00
      0.3163926960D+01  0.3623119853D+00
 SP   3 1.00       0.000000000000
      0.7868272350D+01 -0.1193324198D+00  0.6899906659D-01
      0.1881288540D+01 -0.1608541517D+00  0.3164239610D+00
      0.5442492580D+00  0.1143456438D+01  0.7443082909D+00
 SP   1 1.00       0.000000000000
      0.1687144782D+00  0.1000000000D+01  0.1000000000D+01
 D   1 1.00       0.000000000000
      0.8000000000D+00  0.1000000000D+01
 ****
     54 0
 S   3 1.00       0.000000000000
      0.1873113696D+02  0.3349460434D-01
      0.2825394365D+01  0.2347269535D+00
      0.6401216923D+00  0.8137573261D+00
 S   1 1.00       0.000000000000
      0.1612777588D+00  0.1000000000D+01
 ****
     55 0
 S   6 1.00       0.000000000000
      0.3047524880D+04  0.1834737132D-02
      0.4573695180D+03  0.1403732281D-01
      0.1039486850D+03  0.6884262226D-01
      0.2921015530D+02  0.2321844432D+00
      0.9286662960D+01  0.4679413484D+00
      0.3163926960D+01  0.3623119853D+00
 SP   3 1.00       0.000000000000
      0.7868272350D+01 -0.1193324198D+00  0.6899906659D-01
      0.1881288540D+01 -0.1608541517D+00  0.3164239610D+00
      0.5442492580D+00  0.1143456438D+01  0.7443082909D+00
 SP   1 1.00       0.000000000000
      0.1687144782D+00  0.1000000000D+01  0.1000000000D+01
 D   1 1.00       0.000000000000
      0.8000000000D+00  0.1000000000D+01
 ****
     56 0
 S   3 1.00       0.000000000000
      0.1873113696D+02  0.3349460434D-01
      0.2825394365D+01  0.2347269535D+00
      0.6401216923D+00  0.8137573261D+00
 S   1 1.00       0.000000000000
      0.1612777588D+00  0.1000000000D+01
 ****
     57 0
 S   3 1.00       0.000000000000
      0.1873113696D+02  0.3349460434D-01
      0.2825394365D+01  0.2347269535D+00
      0.6401216923D+00  0.8137573261D+00
 S   1 1.00       0.000000000000
      0.1612777588D+00  0.1000000000D+01
 ****
     58 0
 S   3 1.00       0.000000000000
      0.1873113696D+02  0.3349460434D-01
      0.2825394365D+01  0.2347269535D+00
      0.6401216923D+00  0.8137573261D+00
 S   1 1.00       0.000000000000
      0.1612777588D+00  0.1000000000D+01
 ****
     59 0
 S   6 1.00       0.000000000000
      0.3047524880D+04  0.1834737132D-02
      0.4573695180D+03  0.1403732281D-01
      0.1039486850D+03  0.6884262226D-01
      0.2921015530D+02  0.2321844432D+00
      0.9286662960D+01  0.4679413484D+00
      0.3163926960D+01  0.3623119853D+00
 SP   3 1.00       0.000000000000
      0.7868272350D+01 -0.1193324198D+00  0.6899906659D-01
      0.1881288540D+01 -0.1608541517D+00  0.3164239610D+00
      0.5442492580D+00  0.1143456438D+01  0.7443082909D+00
 SP   1 1.00       0.000000000000
      0.1687144782D+00  0.1000000000D+01  0.1000000000D+01
 D   1 1.00       0.000000000000
      0.8000000000D+00  0.1000000000D+01
 ****
     60 0
 S   3 1.00       0.000000000000
      0.1873113696D+02  0.3349460434D-01
      0.2825394365D+01  0.2347269535D+00
      0.6401216923D+00  0.8137573261D+00
 S   1 1.00       0.000000000000
      0.1612777588D+00  0.1000000000D+01
 ****
     61 0
 S   3 1.00       0.000000000000
      0.1873113696D+02  0.3349460434D-01
      0.2825394365D+01  0.2347269535D+00
      0.6401216923D+00  0.8137573261D+00
 S   1 1.00       0.000000000000
      0.1612777588D+00  0.1000000000D+01
 ****
     62 0
 S   6 1.00       0.000000000000
      0.3047524880D+04  0.1834737132D-02
      0.4573695180D+03  0.1403732281D-01
      0.1039486850D+03  0.6884262226D-01
      0.2921015530D+02  0.2321844432D+00
      0.9286662960D+01  0.4679413484D+00
      0.3163926960D+01  0.3623119853D+00
 SP   3 1.00       0.000000000000
      0.7868272350D+01 -0.1193324198D+00  0.6899906659D-01
      0.1881288540D+01 -0.1608541517D+00  0.3164239610D+00
      0.5442492580D+00  0.1143456438D+01  0.7443082909D+00
 SP   1 1.00       0.000000000000
      0.1687144782D+00  0.1000000000D+01  0.1000000000D+01
 D   1 1.00       0.000000000000
      0.8000000000D+00  0.1000000000D+01
 ****
     63 0
 S   3 1.00       0.000000000000
      0.1873113696D+02  0.3349460434D-01
      0.2825394365D+01  0.2347269535D+00
      0.6401216923D+00  0.8137573261D+00
 S   1 1.00       0.000000000000
      0.1612777588D+00  0.1000000000D+01
 ****
     64 0
 S   3 1.00       0.000000000000
      0.1873113696D+02  0.3349460434D-01
      0.2825394365D+01  0.2347269535D+00
      0.6401216923D+00  0.8137573261D+00
 S   1 1.00       0.000000000000
      0.1612777588D+00  0.1000000000D+01
 ****
     65 0
 S   6 1.00       0.000000000000
      0.3047524880D+04  0.1834737132D-02
      0.4573695180D+03  0.1403732281D-01
      0.1039486850D+03  0.6884262226D-01
      0.2921015530D+02  0.2321844432D+00
      0.9286662960D+01  0.4679413484D+00
      0.3163926960D+01  0.3623119853D+00
 SP   3 1.00       0.000000000000
      0.7868272350D+01 -0.1193324198D+00  0.6899906659D-01
      0.1881288540D+01 -0.1608541517D+00  0.3164239610D+00
      0.5442492580D+00  0.1143456438D+01  0.7443082909D+00
 SP   1 1.00       0.000000000000
      0.1687144782D+00  0.1000000000D+01  0.1000000000D+01
 D   1 1.00       0.000000000000
      0.8000000000D+00  0.1000000000D+01
 ****
     66 0
 S   3 1.00       0.000000000000
      0.1873113696D+02  0.3349460434D-01
      0.2825394365D+01  0.2347269535D+00
      0.6401216923D+00  0.8137573261D+00
 S   1 1.00       0.000000000000
      0.1612777588D+00  0.1000000000D+01
 ****
     67 0
 S   6 1.00       0.000000000000
      0.3047524880D+04  0.1834737132D-02
      0.4573695180D+03  0.1403732281D-01
      0.1039486850D+03  0.6884262226D-01
      0.2921015530D+02  0.2321844432D+00
      0.9286662960D+01  0.4679413484D+00
      0.3163926960D+01  0.3623119853D+00
 SP   3 1.00       0.000000000000
      0.7868272350D+01 -0.1193324198D+00  0.6899906659D-01
      0.1881288540D+01 -0.1608541517D+00  0.3164239610D+00
      0.5442492580D+00  0.1143456438D+01  0.7443082909D+00
 SP   1 1.00       0.000000000000
      0.1687144782D+00  0.1000000000D+01  0.1000000000D+01
 D   1 1.00       0.000000000000
      0.8000000000D+00  0.1000000000D+01
 ****
     68 0
 S   3 1.00       0.000000000000
      0.1873113696D+02  0.3349460434D-01
      0.2825394365D+01  0.2347269535D+00
      0.6401216923D+00  0.8137573261D+00
 S   1 1.00       0.000000000000
      0.1612777588D+00  0.1000000000D+01
 ****
     69 0
 S   3 1.00       0.000000000000
      0.1873113696D+02  0.3349460434D-01
      0.2825394365D+01  0.2347269535D+00
      0.6401216923D+00  0.8137573261D+00
 S   1 1.00       0.000000000000
      0.1612777588D+00  0.1000000000D+01
 ****
     70 0
 S   3 1.00       0.000000000000
      0.1873113696D+02  0.3349460434D-01
      0.2825394365D+01  0.2347269535D+00
      0.6401216923D+00  0.8137573261D+00
 S   1 1.00       0.000000000000
      0.1612777588D+00  0.1000000000D+01
 ****
     71 0
 S   6 1.00       0.000000000000
      0.3047524880D+04  0.1834737132D-02
      0.4573695180D+03  0.1403732281D-01
      0.1039486850D+03  0.6884262226D-01
      0.2921015530D+02  0.2321844432D+00
      0.9286662960D+01  0.4679413484D+00
      0.3163926960D+01  0.3623119853D+00
 SP   3 1.00       0.000000000000
      0.7868272350D+01 -0.1193324198D+00  0.6899906659D-01
      0.1881288540D+01 -0.1608541517D+00  0.3164239610D+00
      0.5442492580D+00  0.1143456438D+01  0.7443082909D+00
 SP   1 1.00       0.000000000000
      0.1687144782D+00  0.1000000000D+01  0.1000000000D+01
 D   1 1.00       0.000000000000
      0.8000000000D+00  0.1000000000D+01
 ****
     72 0
 S   3 1.00       0.000000000000
      0.1873113696D+02  0.3349460434D-01
      0.2825394365D+01  0.2347269535D+00
      0.6401216923D+00  0.8137573261D+00
 S   1 1.00       0.000000000000
      0.1612777588D+00  0.1000000000D+01
 ****
     73 0
 S   3 1.00       0.000000000000
      0.1873113696D+02  0.3349460434D-01
      0.2825394365D+01  0.2347269535D+00
      0.6401216923D+00  0.8137573261D+00
 S   1 1.00       0.000000000000
      0.1612777588D+00  0.1000000000D+01
 ****
     74 0
 S   3 1.00       0.000000000000
      0.1873113696D+02  0.3349460434D-01
      0.2825394365D+01  0.2347269535D+00
      0.6401216923D+00  0.8137573261D+00
 S   1 1.00       0.000000000000
      0.1612777588D+00  0.1000000000D+01
 ****

 AO basis set (Overlap normalization):
 Atom O1       Shell     1 S   6     bf    1 -     1          7.925266228254         12.406749843769          7.784987000814
      0.5484671660D+04  0.1831074430D-02
      0.8252349460D+03  0.1395017220D-01
      0.1880469580D+03  0.6844507810D-01
      0.5296450000D+02  0.2327143360D+00
      0.1689757040D+02  0.4701928980D+00
      0.5799635340D+01  0.3585208530D+00
 Atom O1       Shell     2 SP   3    bf    2 -     5          7.925266228254         12.406749843769          7.784987000814
      0.1553961625D+02 -0.1107775495D+00  0.7087426823D-01
      0.3599933586D+01 -0.1480262627D+00  0.3397528391D+00
      0.1013761750D+01  0.1130767015D+01  0.7271585773D+00
 Atom O1       Shell     3 SP   1    bf    6 -     9          7.925266228254         12.406749843769          7.784987000814
      0.2700058226D+00  0.1000000000D+01  0.1000000000D+01
 Atom O1       Shell     4 D   1     bf   10 -    15          7.925266228254         12.406749843769          7.784987000814
      0.8000000000D+00  0.1000000000D+01
 Atom H2       Shell     5 S   3     bf   16 -    16          9.399518364091         13.068488736366          6.934194539060
      0.1873113696D+02  0.3349460434D-01
      0.2825394365D+01  0.2347269535D+00
      0.6401216923D+00  0.8137573261D+00
 Atom H2       Shell     6 S   1     bf   17 -    17          9.399518364091         13.068488736366          6.934194539060
      0.1612777588D+00  0.1000000000D+01
 Atom C3       Shell     7 S   6     bf   18 -    18          0.000000000000          0.000000000000          0.000000000000
      0.3047524880D+04  0.1834737132D-02
      0.4573695180D+03  0.1403732281D-01
      0.1039486850D+03  0.6884262226D-01
      0.2921015530D+02  0.2321844432D+00
      0.9286662960D+01  0.4679413484D+00
      0.3163926960D+01  0.3623119853D+00
 Atom C3       Shell     8 SP   3    bf   19 -    22          0.000000000000          0.000000000000          0.000000000000
      0.7868272350D+01 -0.1193324198D+00  0.6899906659D-01
      0.1881288540D+01 -0.1608541517D+00  0.3164239610D+00
      0.5442492580D+00  0.1143456438D+01  0.7443082909D+00
 Atom C3       Shell     9 SP   1    bf   23 -    26          0.000000000000          0.000000000000          0.000000000000
      0.1687144782D+00  0.1000000000D+01  0.1000000000D+01
 Atom C3       Shell    10 D   1     bf   27 -    32          0.000000000000          0.000000000000          0.000000000000
      0.8000000000D+00  0.1000000000D+01
 Atom C4       Shell    11 S   6     bf   33 -    33          2.542389955880          1.170266897265         -0.892031463822
      0.3047524880D+04  0.1834737132D-02
      0.4573695180D+03  0.1403732281D-01
      0.1039486850D+03  0.6884262226D-01
      0.2921015530D+02  0.2321844432D+00
      0.9286662960D+01  0.4679413484D+00
      0.3163926960D+01  0.3623119853D+00
 Atom C4       Shell    12 SP   3    bf   34 -    37          2.542389955880          1.170266897265         -0.892031463822
      0.7868272350D+01 -0.1193324198D+00  0.6899906659D-01
      0.1881288540D+01 -0.1608541517D+00  0.3164239610D+00
      0.5442492580D+00  0.1143456438D+01  0.7443082909D+00
 Atom C4       Shell    13 SP   1    bf   38 -    41          2.542389955880          1.170266897265         -0.892031463822
      0.1687144782D+00  0.1000000000D+01  0.1000000000D+01
 Atom C4       Shell    14 D   1     bf   42 -    47          2.542389955880          1.170266897265         -0.892031463822
      0.8000000000D+00  0.1000000000D+01
 Atom H5       Shell    15 S   3     bf   48 -    48          4.021013878639          0.000000000000          0.000000000000
      0.1873113696D+02  0.3349460434D-01
      0.2825394365D+01  0.2347269535D+00
      0.6401216923D+00  0.8137573261D+00
 Atom H5       Shell    16 S   1     bf   49 -    49          4.021013878639          0.000000000000          0.000000000000
      0.1612777588D+00  0.1000000000D+01
 Atom C6       Shell    17 S   6     bf   50 -    50          3.046414988838          3.882936956932          0.000000000000
      0.3047524880D+04  0.1834737132D-02
      0.4573695180D+03  0.1403732281D-01
      0.1039486850D+03  0.6884262226D-01
      0.2921015530D+02  0.2321844432D+00
      0.9286662960D+01  0.4679413484D+00
      0.3163926960D+01  0.3623119853D+00
 Atom C6       Shell    18 SP   3    bf   51 -    54          3.046414988838          3.882936956932          0.000000000000
      0.7868272350D+01 -0.1193324198D+00  0.6899906659D-01
      0.1881288540D+01 -0.1608541517D+00  0.3164239610D+00
      0.5442492580D+00  0.1143456438D+01  0.7443082909D+00
 Atom C6       Shell    19 SP   1    bf   55 -    58          3.046414988838          3.882936956932          0.000000000000
      0.1687144782D+00  0.1000000000D+01  0.1000000000D+01
 Atom C6       Shell    20 D   1     bf   59 -    64          3.046414988838          3.882936956932          0.000000000000
      0.8000000000D+00  0.1000000000D+01
 Atom H7       Shell    21 S   3     bf   65 -    65          1.604946691228          5.144498772450         -0.803538461403
      0.1873113696D+02  0.3349460434D-01
      0.2825394365D+01  0.2347269535D+00
      0.6401216923D+00  0.8137573261D+00
 Atom H7       Shell    22 S   1     bf   66 -    66          1.604946691228          5.144498772450         -0.803538461403
      0.1612777588D+00  0.1000000000D+01
 Atom C8       Shell    23 S   6     bf   67 -    67          2.912741960499          4.011622053142          2.925453203332
      0.3047524880D+04  0.1834737132D-02
      0.4573695180D+03  0.1403732281D-01
      0.1039486850D+03  0.6884262226D-01
      0.2921015530D+02  0.2321844432D+00
      0.9286662960D+01  0.4679413484D+00
      0.3163926960D+01  0.3623119853D+00
 Atom C8       Shell    24 SP   3    bf   68 -    71          2.912741960499          4.011622053142          2.925453203332
      0.7868272350D+01 -0.1193324198D+00  0.6899906659D-01
      0.1881288540D+01 -0.1608541517D+00  0.3164239610D+00
      0.5442492580D+00  0.1143456438D+01  0.7443082909D+00
 Atom C8       Shell    25 SP   1    bf   72 -    75          2.912741960499          4.011622053142          2.925453203332
      0.1687144782D+00  0.1000000000D+01  0.1000000000D+01
 Atom C8       Shell    26 D   1     bf   76 -    81          2.912741960499          4.011622053142          2.925453203332
      0.8000000000D+00  0.1000000000D+01
 Atom H9       Shell    27 S   3     bf   82 -    82          4.542558071246          2.905650271857          3.605645819638
      0.1873113696D+02  0.3349460434D-01
      0.2825394365D+01  0.2347269535D+00
      0.6401216923D+00  0.8137573261D+00
 Atom H9       Shell    28 S   1     bf   83 -    83          4.542558071246          2.905650271857          3.605645819638
      0.1612777588D+00  0.1000000000D+01
 Atom C10      Shell    29 S   6     bf   84 -    84          0.169885264408         -2.657542874432         -1.300433047435
      0.3047524880D+04  0.1834737132D-02
      0.4573695180D+03  0.1403732281D-01
      0.1039486850D+03  0.6884262226D-01
      0.2921015530D+02  0.2321844432D+00
      0.9286662960D+01  0.4679413484D+00
      0.3163926960D+01  0.3623119853D+00
 Atom C10      Shell    30 SP   3    bf   85 -    88          0.169885264408         -2.657542874432         -1.300433047435
      0.7868272350D+01 -0.1193324198D+00  0.6899906659D-01
      0.1881288540D+01 -0.1608541517D+00  0.3164239610D+00
      0.5442492580D+00  0.1143456438D+01  0.7443082909D+00
 Atom C10      Shell    31 SP   1    bf   89 -    92          0.169885264408         -2.657542874432         -1.300433047435
      0.1687144782D+00  0.1000000000D+01  0.1000000000D+01
 Atom C10      Shell    32 D   1     bf   93 -    98          0.169885264408         -2.657542874432         -1.300433047435
      0.8000000000D+00  0.1000000000D+01
 Atom H11      Shell    33 S   3     bf   99 -    99          1.560053828092         -3.750252009696         -0.200924412983
      0.1873113696D+02  0.3349460434D-01
      0.2825394365D+01  0.2347269535D+00
      0.6401216923D+00  0.8137573261D+00
 Atom H11      Shell    34 S   1     bf  100 -   100          1.560053828092         -3.750252009696         -0.200924412983
      0.1612777588D+00  0.1000000000D+01
 Atom C12      Shell    35 S   6     bf  101 -   101          0.058750149280          0.027232975582          2.914519323516
      0.3047524880D+04  0.1834737132D-02
      0.4573695180D+03  0.1403732281D-01
      0.1039486850D+03  0.6884262226D-01
      0.2921015530D+02  0.2321844432D+00
      0.9286662960D+01  0.4679413484D+00
      0.3163926960D+01  0.3623119853D+00
 Atom C12      Shell    36 SP   3    bf  102 -   105          0.058750149280          0.027232975582          2.914519323516
      0.7868272350D+01 -0.1193324198D+00  0.6899906659D-01
      0.1881288540D+01 -0.1608541517D+00  0.3164239610D+00
      0.5442492580D+00  0.1143456438D+01  0.7443082909D+00
 Atom C12      Shell    37 SP   1    bf  106 -   109          0.058750149280          0.027232975582          2.914519323516
      0.1687144782D+00  0.1000000000D+01  0.1000000000D+01
 Atom C12      Shell    38 D   1     bf  110 -   115          0.058750149280          0.027232975582          2.914519323516
      0.8000000000D+00  0.1000000000D+01
 Atom H13      Shell    39 S   3     bf  116 -   116          1.577157323581         -1.237159687479          3.558559778146
      0.1873113696D+02  0.3349460434D-01
      0.2825394365D+01  0.2347269535D+00
      0.6401216923D+00  0.8137573261D+00
 Atom H13      Shell    40 S   1     bf  117 -   117          1.577157323581         -1.237159687479          3.558559778146
      0.1612777588D+00  0.1000000000D+01
 Atom H14      Shell    41 S   3     bf  118 -   118         -1.697899201657         -0.705833062983          3.724289553685
      0.1873113696D+02  0.3349460434D-01
      0.2825394365D+01  0.2347269535D+00
      0.6401216923D+00  0.8137573261D+00
 Atom H14      Shell    42 S   1     bf  119 -   119         -1.697899201657         -0.705833062983          3.724289553685
      0.1612777588D+00  0.1000000000D+01
 Atom C15      Shell    43 S   6     bf  120 -   120          3.314456540321          6.757877176019          3.970082527926
      0.3047524880D+04  0.1834737132D-02
      0.4573695180D+03  0.1403732281D-01
      0.1039486850D+03  0.6884262226D-01
      0.2921015530D+02  0.2321844432D+00
      0.9286662960D+01  0.4679413484D+00
      0.3163926960D+01  0.3623119853D+00
 Atom C15      Shell    44 SP   3    bf  121 -   124          3.314456540321          6.757877176019          3.970082527926
      0.7868272350D+01 -0.1193324198D+00  0.6899906659D-01
      0.1881288540D+01 -0.1608541517D+00  0.3164239610D+00
      0.5442492580D+00  0.1143456438D+01  0.7443082909D+00
 Atom C15      Shell    45 SP   1    bf  125 -   128          3.314456540321          6.757877176019          3.970082527926
      0.1687144782D+00  0.1000000000D+01  0.1000000000D+01
 Atom C15      Shell    46 D   1     bf  129 -   134          3.314456540321          6.757877176019          3.970082527926
      0.8000000000D+00  0.1000000000D+01
 Atom C16      Shell    47 S   6     bf  135 -   135          2.641296067388          0.586659808776         -3.733424017380
      0.3047524880D+04  0.1834737132D-02
      0.4573695180D+03  0.1403732281D-01
      0.1039486850D+03  0.6884262226D-01
      0.2921015530D+02  0.2321844432D+00
      0.9286662960D+01  0.4679413484D+00
      0.3163926960D+01  0.3623119853D+00
 Atom C16      Shell    48 SP   3    bf  136 -   139          2.641296067388          0.586659808776         -3.733424017380
      0.7868272350D+01 -0.1193324198D+00  0.6899906659D-01
      0.1881288540D+01 -0.1608541517D+00  0.3164239610D+00
      0.5442492580D+00  0.1143456438D+01  0.7443082909D+00
 Atom C16      Shell    49 SP   1    bf  140 -   143          2.641296067388          0.586659808776         -3.733424017380
      0.1687144782D+00  0.1000000000D+01  0.1000000000D+01
 Atom C16      Shell    50 D   1     bf  144 -   149          2.641296067388          0.586659808776         -3.733424017380
      0.8000000000D+00  0.1000000000D+01
 Atom H17      Shell    51 S   3     bf  150 -   150          4.572126597150          0.583732056078         -4.475256079736
      0.1873113696D+02  0.3349460434D-01
      0.2825394365D+01  0.2347269535D+00
      0.6401216923D+00  0.8137573261D+00
 Atom H17      Shell    52 S   1     bf  151 -   151          4.572126597150          0.583732056078         -4.475256079736
      0.1612777588D+00  0.1000000000D+01
 Atom H18      Shell    53 S   3     bf  152 -   152          1.590646793430          2.013340092327         -4.809979452407
      0.1873113696D+02  0.3349460434D-01
      0.2825394365D+01  0.2347269535D+00
      0.6401216923D+00  0.8137573261D+00
 Atom H18      Shell    54 S   1     bf  153 -   153          1.590646793430          2.013340092327         -4.809979452407
      0.1612777588D+00  0.1000000000D+01
 Atom C19      Shell    55 S   6     bf  154 -   154          0.514547349319          2.707154005776          3.967860701323
      0.3047524880D+04  0.1834737132D-02
      0.4573695180D+03  0.1403732281D-01
      0.1039486850D+03  0.6884262226D-01
      0.2921015530D+02  0.2321844432D+00
      0.9286662960D+01  0.4679413484D+00
      0.3163926960D+01  0.3623119853D+00
 Atom C19      Shell    56 SP   3    bf  155 -   158          0.514547349319          2.707154005776          3.967860701323
      0.7868272350D+01 -0.1193324198D+00  0.6899906659D-01
      0.1881288540D+01 -0.1608541517D+00  0.3164239610D+00
      0.5442492580D+00  0.1143456438D+01  0.7443082909D+00
 Atom C19      Shell    57 SP   1    bf  159 -   162          0.514547349319          2.707154005776          3.967860701323
      0.1687144782D+00  0.1000000000D+01  0.1000000000D+01
 Atom C19      Shell    58 D   1     bf  163 -   168          0.514547349319          2.707154005776          3.967860701323
      0.8000000000D+00  0.1000000000D+01
 Atom H20      Shell    59 S   3     bf  169 -   169         -1.150224650872          3.866438873004          3.558190865810
      0.1873113696D+02  0.3349460434D-01
      0.2825394365D+01  0.2347269535D+00
      0.6401216923D+00  0.8137573261D+00
 Atom H20      Shell    60 S   1     bf  170 -   170         -1.150224650872          3.866438873004          3.558190865810
      0.1612777588D+00  0.1000000000D+01
 Atom H21      Shell    61 S   3     bf  171 -   171          0.627947187834          2.587283045784          6.032188344818
      0.1873113696D+02  0.3349460434D-01
      0.2825394365D+01  0.2347269535D+00
      0.6401216923D+00  0.8137573261D+00
 Atom H21      Shell    62 S   1     bf  172 -   172          0.627947187834          2.587283045784          6.032188344818
      0.1612777588D+00  0.1000000000D+01
 Atom C22      Shell    63 S   6     bf  173 -   173          1.367741388425         -2.050083681591         -3.942720049413
      0.3047524880D+04  0.1834737132D-02
      0.4573695180D+03  0.1403732281D-01
      0.1039486850D+03  0.6884262226D-01
      0.2921015530D+02  0.2321844432D+00
      0.9286662960D+01  0.4679413484D+00
      0.3163926960D+01  0.3623119853D+00
 Atom C22      Shell    64 SP   3    bf  174 -   177          1.367741388425         -2.050083681591         -3.942720049413
      0.7868272350D+01 -0.1193324198D+00  0.6899906659D-01
      0.1881288540D+01 -0.1608541517D+00  0.3164239610D+00
      0.5442492580D+00  0.1143456438D+01  0.7443082909D+00
 Atom C22      Shell    65 SP   1    bf  178 -   181          1.367741388425         -2.050083681591         -3.942720049413
      0.1687144782D+00  0.1000000000D+01  0.1000000000D+01
 Atom C22      Shell    66 D   1     bf  182 -   187          1.367741388425         -2.050083681591         -3.942720049413
      0.8000000000D+00  0.1000000000D+01
 Atom H23      Shell    67 S   3     bf  188 -   188         -0.090103389235         -2.055781508237         -5.414926292149
      0.1873113696D+02  0.3349460434D-01
      0.2825394365D+01  0.2347269535D+00
      0.6401216923D+00  0.8137573261D+00
 Atom H23      Shell    68 S   1     bf  189 -   189         -0.090103389235         -2.055781508237         -5.414926292149
      0.1612777588D+00  0.1000000000D+01
 Atom H24      Shell    69 S   3     bf  190 -   190          2.743614343990         -3.495154212949         -4.483749850683
      0.1873113696D+02  0.3349460434D-01
      0.2825394365D+01  0.2347269535D+00
      0.6401216923D+00  0.8137573261D+00
 Atom H24      Shell    70 S   1     bf  191 -   191          2.743614343990         -3.495154212949         -4.483749850683
      0.1612777588D+00  0.1000000000D+01
 Atom C25      Shell    71 S   6     bf  192 -   192          5.644412781795          4.810701743530         -0.910181168390
      0.3047524880D+04  0.1834737132D-02
      0.4573695180D+03  0.1403732281D-01
      0.1039486850D+03  0.6884262226D-01
      0.2921015530D+02  0.2321844432D+00
      0.9286662960D+01  0.4679413484D+00
      0.3163926960D+01  0.3623119853D+00
 Atom C25      Shell    72 SP   3    bf  193 -   196          5.644412781795          4.810701743530         -0.910181168390
      0.7868272350D+01 -0.1193324198D+00  0.6899906659D-01
      0.1881288540D+01 -0.1608541517D+00  0.3164239610D+00
      0.5442492580D+00  0.1143456438D+01  0.7443082909D+00
 Atom C25      Shell    73 SP   1    bf  197 -   200          5.644412781795          4.810701743530         -0.910181168390
      0.1687144782D+00  0.1000000000D+01  0.1000000000D+01
 Atom C25      Shell    74 D   1     bf  201 -   206          5.644412781795          4.810701743530         -0.910181168390
      0.8000000000D+00  0.1000000000D+01
 Atom H26      Shell    75 S   3     bf  207 -   207          5.586290380640          5.208818813918         -2.945998910561
      0.1873113696D+02  0.3349460434D-01
      0.2825394365D+01  0.2347269535D+00
      0.6401216923D+00  0.8137573261D+00
 Atom H26      Shell    76 S   1     bf  208 -   208          5.586290380640          5.208818813918         -2.945998910561
      0.1612777588D+00  0.1000000000D+01
 Atom H27      Shell    77 S   3     bf  209 -   209          7.043999608245          3.282566580349         -0.688683099129
      0.1873113696D+02  0.3349460434D-01
      0.2825394365D+01  0.2347269535D+00
      0.6401216923D+00  0.8137573261D+00
 Atom H27      Shell    78 S   1     bf  210 -   210          7.043999608245          3.282566580349         -0.688683099129
      0.1612777588D+00  0.1000000000D+01
 Atom C28      Shell    79 S   6     bf  211 -   211         -2.231192199577         -4.320251596042         -1.524457397078
      0.3047524880D+04  0.1834737132D-02
      0.4573695180D+03  0.1403732281D-01
      0.1039486850D+03  0.6884262226D-01
      0.2921015530D+02  0.2321844432D+00
      0.9286662960D+01  0.4679413484D+00
      0.3163926960D+01  0.3623119853D+00
 Atom C28      Shell    80 SP   3    bf  212 -   215         -2.231192199577         -4.320251596042         -1.524457397078
      0.7868272350D+01 -0.1193324198D+00  0.6899906659D-01
      0.1881288540D+01 -0.1608541517D+00  0.3164239610D+00
      0.5442492580D+00  0.1143456438D+01  0.7443082909D+00
 Atom C28      Shell    81 SP   1    bf  216 -   219         -2.231192199577         -4.320251596042         -1.524457397078
      0.1687144782D+00  0.1000000000D+01  0.1000000000D+01
 Atom C28      Shell    82 D   1     bf  220 -   225         -2.231192199577         -4.320251596042         -1.524457397078
      0.8000000000D+00  0.1000000000D+01
 Atom H29      Shell    83 S   3     bf  226 -   226         -3.578420025015         -3.294776025305         -2.730420994226
      0.1873113696D+02  0.3349460434D-01
      0.2825394365D+01  0.2347269535D+00
      0.6401216923D+00  0.8137573261D+00
 Atom H29      Shell    84 S   1     bf  227 -   227         -3.578420025015         -3.294776025305         -2.730420994226
      0.1612777588D+00  0.1000000000D+01
 Atom C30      Shell    85 S   6     bf  228 -   228         -2.316404826402          1.473253623446         -1.002067155184
      0.3047524880D+04  0.1834737132D-02
      0.4573695180D+03  0.1403732281D-01
      0.1039486850D+03  0.6884262226D-01
      0.2921015530D+02  0.2321844432D+00
      0.9286662960D+01  0.4679413484D+00
      0.3163926960D+01  0.3623119853D+00
 Atom C30      Shell    86 SP   3    bf  229 -   232         -2.316404826402          1.473253623446         -1.002067155184
      0.7868272350D+01 -0.1193324198D+00  0.6899906659D-01
      0.1881288540D+01 -0.1608541517D+00  0.3164239610D+00
      0.5442492580D+00  0.1143456438D+01  0.7443082909D+00
 Atom C30      Shell    87 SP   1    bf  233 -   236         -2.316404826402          1.473253623446         -1.002067155184
      0.1687144782D+00  0.1000000000D+01  0.1000000000D+01
 Atom C30      Shell    88 D   1     bf  237 -   242         -2.316404826402          1.473253623446         -1.002067155184
      0.8000000000D+00  0.1000000000D+01
 Atom H31      Shell    89 S   3     bf  243 -   243         -4.071856676786          0.673953553197         -0.253364275376
      0.1873113696D+02  0.3349460434D-01
      0.2825394365D+01  0.2347269535D+00
      0.6401216923D+00  0.8137573261D+00
 Atom H31      Shell    90 S   1     bf  244 -   244         -4.071856676786          0.673953553197         -0.253364275376
      0.1612777588D+00  0.1000000000D+01
 Atom H32      Shell    91 S   3     bf  245 -   245         -2.274841604021          3.464970940237         -0.458341886353
      0.1873113696D+02  0.3349460434D-01
      0.2825394365D+01  0.2347269535D+00
      0.6401216923D+00  0.8137573261D+00
 Atom H32      Shell    92 S   1     bf  246 -   246         -2.274841604021          3.464970940237         -0.458341886353
      0.1612777588D+00  0.1000000000D+01
 Atom H33      Shell    93 S   3     bf  247 -   247         -2.443434692596          1.407657771174         -3.064976313552
      0.1873113696D+02  0.3349460434D-01
      0.2825394365D+01  0.2347269535D+00
      0.6401216923D+00  0.8137573261D+00
 Atom H33      Shell    94 S   1     bf  248 -   248         -2.443434692596          1.407657771174         -3.064976313552
      0.1612777588D+00  0.1000000000D+01
 Atom C34      Shell    95 S   6     bf  249 -   249          5.538683190475          8.030367731299          2.610017055875
      0.3047524880D+04  0.1834737132D-02
      0.4573695180D+03  0.1403732281D-01
      0.1039486850D+03  0.6884262226D-01
      0.2921015530D+02  0.2321844432D+00
      0.9286662960D+01  0.4679413484D+00
      0.3163926960D+01  0.3623119853D+00
 Atom C34      Shell    96 SP   3    bf  250 -   253          5.538683190475          8.030367731299          2.610017055875
      0.7868272350D+01 -0.1193324198D+00  0.6899906659D-01
      0.1881288540D+01 -0.1608541517D+00  0.3164239610D+00
      0.5442492580D+00  0.1143456438D+01  0.7443082909D+00
 Atom C34      Shell    97 SP   1    bf  254 -   257          5.538683190475          8.030367731299          2.610017055875
      0.1687144782D+00  0.1000000000D+01  0.1000000000D+01
 Atom C34      Shell    98 D   1     bf  258 -   263          5.538683190475          8.030367731299          2.610017055875
      0.8000000000D+00  0.1000000000D+01
 Atom C35      Shell    99 S   6     bf  264 -   264          3.971983460135          6.585560363202          6.839746537165
      0.3047524880D+04  0.1834737132D-02
      0.4573695180D+03  0.1403732281D-01
      0.1039486850D+03  0.6884262226D-01
      0.2921015530D+02  0.2321844432D+00
      0.9286662960D+01  0.4679413484D+00
      0.3163926960D+01  0.3623119853D+00
 Atom C35      Shell   100 SP   3    bf  265 -   268          3.971983460135          6.585560363202          6.839746537165
      0.7868272350D+01 -0.1193324198D+00  0.6899906659D-01
      0.1881288540D+01 -0.1608541517D+00  0.3164239610D+00
      0.5442492580D+00  0.1143456438D+01  0.7443082909D+00
 Atom C35      Shell   101 SP   1    bf  269 -   272          3.971983460135          6.585560363202          6.839746537165
      0.1687144782D+00  0.1000000000D+01  0.1000000000D+01
 Atom C35      Shell   102 D   1     bf  273 -   278          3.971983460135          6.585560363202          6.839746537165
      0.8000000000D+00  0.1000000000D+01
 Atom H36      Shell   103 S   3     bf  279 -   279          5.437005304265          5.133702823745          7.082042535403
      0.1873113696D+02  0.3349460434D-01
      0.2825394365D+01  0.2347269535D+00
      0.6401216923D+00  0.8137573261D+00
 Atom H36      Shell   104 S   1     bf  280 -   280          5.437005304265          5.133702823745          7.082042535403
      0.1612777588D+00  0.1000000000D+01
 Atom H37      Shell   105 S   3     bf  281 -   281          2.313274324988          5.925963456279          7.888019650586
      0.1873113696D+02  0.3349460434D-01
      0.2825394365D+01  0.2347269535D+00
      0.6401216923D+00  0.8137573261D+00
 Atom H37      Shell   106 S   1     bf  282 -   282          2.313274324988          5.925963456279          7.888019650586
      0.1612777588D+00  0.1000000000D+01
 Atom C38      Shell   107 S   6     bf  283 -   283          6.554486386974          7.115367440016          0.475870173379
      0.3047524880D+04  0.1834737132D-02
      0.4573695180D+03  0.1403732281D-01
      0.1039486850D+03  0.6884262226D-01
      0.2921015530D+02  0.2321844432D+00
      0.9286662960D+01  0.4679413484D+00
      0.3163926960D+01  0.3623119853D+00
 Atom C38      Shell   108 SP   3    bf  284 -   287          6.554486386974          7.115367440016          0.475870173379
      0.7868272350D+01 -0.1193324198D+00  0.6899906659D-01
      0.1881288540D+01 -0.1608541517D+00  0.3164239610D+00
      0.5442492580D+00  0.1143456438D+01  0.7443082909D+00
 Atom C38      Shell   109 SP   1    bf  288 -   291          6.554486386974          7.115367440016          0.475870173379
      0.1687144782D+00  0.1000000000D+01  0.1000000000D+01
 Atom C38      Shell   110 D   1     bf  292 -   297          6.554486386974          7.115367440016          0.475870173379
      0.8000000000D+00  0.1000000000D+01
 Atom H39      Shell   111 S   3     bf  298 -   298          8.165016595315          8.101887194695         -0.349145743620
      0.1873113696D+02  0.3349460434D-01
      0.2825394365D+01  0.2347269535D+00
      0.6401216923D+00  0.8137573261D+00
 Atom H39      Shell   112 S   1     bf  299 -   299          8.165016595315          8.101887194695         -0.349145743620
      0.1612777588D+00  0.1000000000D+01
 Atom C40      Shell   113 S   6     bf  300 -   300          0.918666019830          8.412420296523          3.612724412478
      0.3047524880D+04  0.1834737132D-02
      0.4573695180D+03  0.1403732281D-01
      0.1039486850D+03  0.6884262226D-01
      0.2921015530D+02  0.2321844432D+00
      0.9286662960D+01  0.4679413484D+00
      0.3163926960D+01  0.3623119853D+00
 Atom C40      Shell   114 SP   3    bf  301 -   304          0.918666019830          8.412420296523          3.612724412478
      0.7868272350D+01 -0.1193324198D+00  0.6899906659D-01
      0.1881288540D+01 -0.1608541517D+00  0.3164239610D+00
      0.5442492580D+00  0.1143456438D+01  0.7443082909D+00
[...]
 **** Fit       0.009667
 **** Fit       0.010610
 **** Fit       0.011674
 **** Fit       0.012874
 **** Fit       0.014231
 **** Fit       0.015761
 **** Fit       0.017416
 **** Fit       0.019020
 **** Fit       0.020221
 **** Fit       0.020532
 **** Fit       0.019469
 **** Fit       0.016797
 **** Fit       0.012739
 **** Fit       0.007943
 **** Fit       0.003215
 **** Fit      -0.000814
 **** Fit      -0.003839
 **** Fit      -0.005847
 **** Fit       0.008027
 **** Fit       0.008914
 **** Fit       0.009921
 **** Fit       0.011066
 **** Fit       0.012369
 **** Fit       0.013854
 **** Fit       0.015565
 **** Fit       0.017542
 **** Fit       0.019763
 **** Fit       0.022052
 **** Fit       0.024000
 **** Fit       0.024962
 **** Fit       0.024225
 **** Fit       0.021358
 **** Fit       0.016580
 **** Fit       0.010756
 **** Fit       0.004979
 **** Fit       0.000084
 **** Fit      -0.003554
 **** Fit      -0.005945
 **** Fit       0.008830
 **** Fit       0.009942
 **** Fit       0.011224
 **** Fit       0.012703
 **** Fit       0.014423
 **** Fit       0.016448
 **** Fit       0.018845
 **** Fit       0.021619
 **** Fit       0.024608
 **** Fit       0.027366
 **** Fit       0.029114
 **** Fit       0.028885
 **** Fit       0.026008
 **** Fit       0.020653
 **** Fit       0.013898
 **** Fit       0.007134
 **** Fit       0.001403
 **** Fit      -0.002851
 **** Fit      -0.005654
 **** Fit      -0.007271
 **** Fit       0.008595
 **** Fit       0.009752
 **** Fit       0.011101
 **** Fit       0.012682
 **** Fit       0.014553
 **** Fit       0.016796
 **** Fit       0.019494
 **** Fit       0.022672
 **** Fit       0.026186
 **** Fit       0.029581
 **** Fit       0.031993
 **** Fit       0.032274
 **** Fit       0.029548
 **** Fit       0.023919
 **** Fit       0.016595
 **** Fit       0.009174
 **** Fit       0.002845
 **** Fit      -0.001889
 **** Fit      -0.005050
 **** Fit      -0.006923
 **** Fit       0.009385
 **** Fit       0.010737
 **** Fit       0.012340
 **** Fit       0.014259
 **** Fit       0.016581
 **** Fit       0.019389
 **** Fit       0.022709
 **** Fit       0.026403
 **** Fit       0.030024
 **** Fit       0.032704
 **** Fit       0.033267
 **** Fit       0.030779
 **** Fit       0.025293
 **** Fit       0.017996
 **** Fit       0.010497
 **** Fit       0.004012
 **** Fit      -0.000922
 **** Fit      -0.004292
 **** Fit      -0.006358
 **** Fit       0.010181
 **** Fit       0.011730
 **** Fit       0.013590
 **** Fit       0.015839
 **** Fit       0.018543
 **** Fit       0.021707
 **** Fit       0.025183
 **** Fit       0.028548
 **** Fit       0.031011
 **** Fit       0.031530
 **** Fit       0.029294
 **** Fit       0.024342
 **** Fit       0.017687
 **** Fit       0.010736
 **** Fit       0.004599
 **** Fit      -0.000186
 **** Fit      -0.003554
 **** Fit      -0.005700
 **** Fit       0.014669
 **** Fit       0.017089
 **** Fit       0.019856
 **** Fit       0.022810
 **** Fit       0.025568
 **** Fit       0.027476
 **** Fit       0.027729
 **** Fit       0.025733
 **** Fit       0.021537
 **** Fit       0.015909
 **** Fit       0.009939
 **** Fit       0.004537
 **** Fit       0.000198
 **** Fit      -0.002962
 **** Fit      -0.005060
 **** Fit       0.015235
 **** Fit       0.017477
 **** Fit       0.019773
 **** Fit       0.021798
 **** Fit       0.023057
 **** Fit       0.022992
 **** Fit       0.021225
 **** Fit       0.017817
 **** Fit       0.013305
 **** Fit       0.008460
 **** Fit       0.003968
 **** Fit       0.000246
 **** Fit      -0.002562
 **** Fit       0.013205
 **** Fit       0.014905
 **** Fit       0.016555
 **** Fit       0.017899
 **** Fit       0.018591
 **** Fit       0.018272
 **** Fit       0.016726
 **** Fit       0.014018
 **** Fit       0.010508
 **** Fit       0.006714
 **** Fit       0.003121
 **** Fit       0.000056
 **** Fit      -0.002336
 **** Fit       0.012401
 **** Fit       0.013503
 **** Fit       0.014304
 **** Fit       0.014575
 **** Fit       0.014099
 **** Fit       0.012762
 **** Fit       0.010627
 **** Fit       0.007930
 **** Fit       0.005011
 **** Fit       0.002201
 **** Fit      -0.000255
 **** Fit       0.010805
 **** Fit       0.011214
 **** Fit       0.011206
 **** Fit       0.010657
 **** Fit       0.009512
 **** Fit       0.007825
 **** Fit       0.005754
 **** Fit       0.003520
 **** Fit       0.007932
 **** Fit       0.006957
 **** Fit       0.005616
 **** Fit       0.002913
 **** Fit       0.002904
 **** Fit       0.002746
 **** Fit       0.002443
 **** Fit       0.002022
 **** Fit       0.003760
 **** Fit       0.003618
 **** Fit       0.003384
 **** Fit       0.003094
 **** Fit       0.002799
 **** Fit       0.003258
 **** Fit       0.003471
 **** Fit       0.003566
 **** Fit       0.003499
 **** Fit       0.003248
 **** Fit       0.002822
 **** Fit       0.002260
 **** Fit       0.001618
 **** Fit       0.004244
 **** Fit       0.004273
 **** Fit       0.004194
 **** Fit       0.004014
 **** Fit       0.003765
 **** Fit       0.003504
 **** Fit       0.003291
 **** Fit       0.003850
 **** Fit       0.004123
 **** Fit       0.004315
 **** Fit       0.004361
 **** Fit       0.004208
 **** Fit       0.003832
 **** Fit       0.003249
 **** Fit       0.002511
 **** Fit       0.001694
 **** Fit       0.000873
 **** Fit       0.004682
 **** Fit       0.004797
 **** Fit       0.004803
 **** Fit       0.004703
 **** Fit       0.004528
 **** Fit       0.004331
 **** Fit       0.004177
 **** Fit       0.004910
 **** Fit       0.005175
 **** Fit       0.005331
 **** Fit       0.005304
 **** Fit       0.005035
 **** Fit       0.004499
 **** Fit       0.003720
 **** Fit       0.002770
 **** Fit       0.001747
 **** Fit       0.000742
 **** Fit       0.005072
 **** Fit       0.005280
 **** Fit       0.005387
 **** Fit       0.005392
 **** Fit       0.005321
 **** Fit       0.005225
 **** Fit       0.005163
 **** Fit       0.006168
 **** Fit       0.006425
 **** Fit       0.006535
 **** Fit       0.006416
 **** Fit       0.006001
 **** Fit       0.005269
 **** Fit       0.004255
 **** Fit       0.003053
 **** Fit       0.001787
 **** Fit       0.000571
 **** Fit      -0.000507
 **** Fit       0.005379
 **** Fit       0.005677
 **** Fit       0.005892
 **** Fit       0.006020
 **** Fit       0.006081
 **** Fit       0.006120
 **** Fit       0.006188
 **** Fit       0.007622
 **** Fit       0.007890
 **** Fit       0.007965
 **** Fit       0.007749
 **** Fit       0.007168
 **** Fit       0.006205
 **** Fit       0.004911
 **** Fit       0.003410
 **** Fit       0.001856
 **** Fit       0.000391
 **** Fit      -0.000879
 **** Fit       0.005964
 **** Fit       0.006286
 **** Fit       0.006544
 **** Fit       0.006757
 **** Fit       0.006958
 **** Fit       0.007192
 **** Fit       0.007490
 **** Fit       0.007868
 **** Fit       0.008319
 **** Fit       0.008808
 **** Fit       0.009265
 **** Fit       0.009594
 **** Fit       0.009674
 **** Fit       0.009383
 **** Fit       0.008636
 **** Fit       0.007414
 **** Fit       0.005792
 **** Fit       0.003930
 **** Fit       0.002026
 **** Fit       0.000262
 **** Fit       0.006556
 **** Fit       0.006944
 **** Fit       0.007315
 **** Fit       0.008116
 **** Fit       0.008602
 **** Fit       0.009163
 **** Fit       0.009791
 **** Fit       0.010452
 **** Fit       0.011074
 **** Fit       0.011541
 **** Fit       0.011702
 **** Fit       0.011399
 **** Fit       0.010514
 **** Fit       0.009021
 **** Fit       0.007021
 **** Fit       0.004725
 **** Fit       0.002394
 **** Fit       0.000262
 **** Fit       0.008296
 **** Fit       0.008911
 **** Fit       0.009601
 **** Fit       0.010374
 **** Fit       0.011224
 **** Fit       0.012119
 **** Fit       0.012986
 **** Fit       0.013691
 **** Fit       0.014041
 **** Fit       0.013823
 **** Fit       0.012863
 **** Fit       0.011113
 **** Fit       0.008696
 **** Fit       0.005893
 **** Fit       0.003051
 **** Fit       0.000476
 **** Fit       0.008734
 **** Fit       0.009532
 **** Fit       0.010425
 **** Fit       0.011421
 **** Fit       0.012521
 **** Fit       0.013700
 **** Fit       0.014886
 **** Fit       0.015926
 **** Fit       0.016583
 **** Fit       0.016569
 **** Fit       0.015631
 **** Fit       0.013669
 **** Fit       0.010827
 **** Fit       0.007466
 **** Fit       0.004046
 **** Fit       0.000965
 **** Fit      -0.001537
 **** Fit       0.008994
 **** Fit       0.009945
 **** Fit       0.011017
 **** Fit       0.012225
 **** Fit       0.013578
 **** Fit       0.015061
 **** Fit       0.016604
 **** Fit       0.018044
 **** Fit       0.019099
 **** Fit       0.019397
 **** Fit       0.018586
 **** Fit       0.016493
 **** Fit       0.013263
 **** Fit       0.009350
 **** Fit       0.005337
 **** Fit       0.001727
 **** Fit      -0.001187
 **** Fit      -0.003322
 **** Fit       0.010132
 **** Fit       0.011343
 **** Fit       0.012725
 **** Fit       0.014297
 **** Fit       0.016056
 **** Fit       0.017937
 **** Fit       0.019769
 **** Fit       0.021237
 **** Fit       0.021897
 **** Fit       0.021292
 **** Fit       0.019164
 **** Fit       0.015649
 **** Fit       0.011277
 **** Fit       0.006750
 **** Fit       0.002665
 **** Fit      -0.000631
 **** Fit      -0.003047
 **** Fit       0.010093
 **** Fit       0.011390
 **** Fit       0.012886
 **** Fit       0.014608
 **** Fit       0.016561
 **** Fit       0.018686
 **** Fit       0.020810
 **** Fit       0.022599
 **** Fit       0.023563
 **** Fit       0.023173
 **** Fit       0.021103
 **** Fit       0.017469
 **** Fit       0.012840
 **** Fit       0.007993
 **** Fit       0.003591
 **** Fit       0.000018
 **** Fit      -0.002620
 **** Fit       0.016505
 **** Fit       0.018720
 **** Fit       0.020954
 **** Fit       0.022873
 **** Fit       0.023983
 **** Fit       0.023738
 **** Fit       0.021793
 **** Fit       0.018239
 **** Fit       0.013636
 **** Fit       0.008760
 **** Fit       0.004285
 **** Fit       0.000610
 **** Fit      -0.002140
 **** Fit       0.015894
 **** Fit       0.018025
 **** Fit       0.020160
 **** Fit       0.021984
 **** Fit       0.023039
 **** Fit       0.022832
 **** Fit       0.021045
 **** Fit       0.017757
 **** Fit       0.013464
 **** Fit       0.008866
 **** Fit       0.004587
 **** Fit       0.001016
 **** Fit      -0.001709
 **** Fit       0.014812
 **** Fit       0.016713
 **** Fit       0.018577
 **** Fit       0.020125
 **** Fit       0.020970
 **** Fit       0.020709
 **** Fit       0.019094
 **** Fit       0.016194
 **** Fit       0.012412
 **** Fit       0.008324
 **** Fit       0.004461
 **** Fit       0.001173
 **** Fit      -0.001394
 **** Fit       0.014981
 **** Fit       0.016480
 **** Fit       0.017662
 **** Fit       0.018226
 **** Fit       0.017873
 **** Fit       0.016431
 **** Fit       0.013964
 **** Fit       0.010777
 **** Fit       0.007310
 **** Fit       0.003984
 **** Fit       0.001093
 **** Fit       0.013047
 **** Fit       0.014164
 **** Fit       0.014979
 **** Fit       0.015269
 **** Fit       0.014831
 **** Fit       0.013558
 **** Fit       0.011507
 **** Fit       0.008900
 **** Fit       0.006057
 **** Fit       0.003292
 **** Fit       0.011872
 **** Fit       0.012370
 **** Fit       0.012438
 **** Fit       0.011945
 **** Fit       0.010832
 **** Fit       0.009147
 **** Fit       0.007051
 **** Fit       0.004766
 **** Fit       0.009920
 **** Fit       0.009407
 **** Fit       0.008440
 **** Fit       0.007064
 **** Fit       0.004072
 **** Fit       0.003865
 **** Fit       0.003499
 **** Fit       0.002986
 **** Fit       0.004990
 **** Fit       0.004872
 **** Fit       0.004572
 **** Fit       0.004082
 **** Fit       0.003420
 **** Fit       0.002635
 **** Fit       0.006005
 **** Fit       0.006003
 **** Fit       0.005816
 **** Fit       0.005407
 **** Fit       0.004769
 **** Fit       0.003931
 **** Fit       0.002956
 **** Fit       0.001922
 **** Fit       0.007211
 **** Fit       0.007188
 **** Fit       0.006934
 **** Fit       0.006406
 **** Fit       0.005601
 **** Fit       0.004558
 **** Fit       0.003359
 **** Fit       0.002105
 **** Fit       0.008563
 **** Fit       0.008258
 **** Fit       0.007615
 **** Fit       0.006629
 **** Fit       0.005355
 **** Fit       0.003896
 **** Fit       0.002383
 **** Fit       0.010130
 **** Fit       0.009813
 **** Fit       0.009073
 **** Fit       0.007905
 **** Fit       0.006375
 **** Fit       0.004619
 **** Fit       0.011856
 **** Fit       0.011579
 **** Fit       0.010781
 **** Fit       0.009442
 **** Fit       0.007646
 **** Fit       0.005564
 **** Fit       0.003412
 **** Fit       0.013327
 **** Fit       0.013649
 **** Fit       0.013473
 **** Fit       0.012667
 **** Fit       0.011190
 **** Fit       0.009136
 **** Fit       0.006717
 **** Fit       0.004204
 **** Fit       0.001851
 **** Fit       0.013931
 **** Fit       0.014814
 **** Fit       0.015349
 **** Fit       0.015327
 **** Fit       0.014565
 **** Fit       0.012998
 **** Fit       0.010721
 **** Fit       0.007989
 **** Fit       0.005130
 **** Fit       0.002449
 **** Fit       0.014884
 **** Fit       0.015990
 **** Fit       0.016744
 **** Fit       0.016895
 **** Fit       0.016220
 **** Fit       0.014619
 **** Fit       0.012187
 **** Fit       0.009210
 **** Fit       0.006066
 **** Fit       0.003108
 **** Fit       0.000576
 **** Fit       0.015414
 **** Fit       0.016685
 **** Fit       0.017608
 **** Fit       0.017909
 **** Fit       0.017333
 **** Fit       0.015755
 **** Fit       0.013262
 **** Fit       0.010156
 **** Fit       0.006844
 **** Fit       0.003710
 **** Fit       0.001014
 **** Fit       0.015439
 **** Fit       0.016779
 **** Fit       0.017779
 **** Fit       0.018162
 **** Fit       0.017666
 **** Fit       0.016156
 **** Fit       0.013711
 **** Fit       0.010623
 **** Fit       0.007300
 **** Fit       0.004130
 **** Fit       0.001381
 **** Fit       0.014950
 **** Fit       0.016246
 **** Fit       0.017214
 **** Fit       0.017593
 **** Fit       0.017141
 **** Fit       0.015730
 **** Fit       0.013429
 **** Fit       0.010506
 **** Fit       0.007336
 **** Fit       0.004281
 **** Fit       0.001603
 **** Fit       0.014014
 **** Fit       0.015169
 **** Fit       0.016010
 **** Fit       0.016311
 **** Fit       0.015866
 **** Fit       0.014572
 **** Fit       0.012488
 **** Fit       0.009841
 **** Fit       0.006953
 **** Fit       0.004143
 **** Fit       0.013705
 **** Fit       0.014362
 **** Fit       0.014543
 **** Fit       0.014086
 **** Fit       0.012915
 **** Fit       0.011083
 **** Fit       0.008773
 **** Fit       0.006244
 **** Fit       0.003758
 **** Fit       0.012495
 **** Fit       0.012546
 **** Fit       0.012073
 **** Fit       0.011026
 **** Fit       0.009451
 **** Fit       0.007489
 **** Fit       0.005340
 **** Fit       0.010059
 **** Fit       0.009131
 **** Fit       0.007795
 **** Fit       0.010373
 **** Fit       0.009236
 **** Fit       0.007711
 **** Fit       0.012476
 **** Fit       0.012304
 **** Fit       0.011631
 **** Fit       0.010430
 **** Fit       0.008769
 **** Fit       0.006797
 **** Fit       0.013408
 **** Fit       0.013323
 **** Fit       0.012685
 **** Fit       0.011457
 **** Fit       0.009705
 **** Fit       0.007593
 **** Fit       0.005338
 **** Fit       0.013524
 **** Fit       0.013972
 **** Fit       0.013965
 **** Fit       0.013375
 **** Fit       0.012155
 **** Fit       0.010369
 **** Fit       0.008186
 **** Fit       0.005837
 **** Fit       0.013582
 **** Fit       0.014078
 **** Fit       0.014119
 **** Fit       0.013576
 **** Fit       0.012395
 **** Fit       0.010636
 **** Fit       0.008465
 **** Fit       0.006112
 **** Fit       0.013700
 **** Fit       0.013752
 **** Fit       0.013244
 **** Fit       0.012126
 **** Fit       0.010451
 **** Fit       0.008374
 **** Fit       0.006110
 **** Fit       0.012892
 **** Fit       0.012917
 **** Fit       0.012432
 **** Fit       0.011392
 **** Fit       0.009846
 **** Fit       0.007929
 **** Fit       0.005830
 **** Fit       0.011736
 **** Fit       0.011264
 **** Fit       0.010312
 **** Fit       0.008920
 -----------------------------------------------------------------
 Leave Link  602 at Mon Mar 20 12:02:45 2017, MaxMem=    33554432 cpu:        35.8
 (Enter /home/michal/g09/l9999.exe)

 Test job not archived.
 1\1\GINC-LINUX\SP\RHF\6-31G(d)\C27H46O1\MICHAL\20-Mar-2017\0\\#P HF/6-
 31G* SCF(Conver=6) NoSymm Test Pop=chelpg IOp(6/33=2) GFInput GFPrint\
 \MEP - Input generated by R.E.D.-III.x MOLECULE\\0,1\O,0,4.19387026,6.
 56536925,4.11963769\H,0,4.97401089,6.91554639,3.66941771\C,0,0.,0.,0.\
 C,0,1.34537482,0.61927857,-0.47204272\H,0,2.1278289,0.,0.\C,0,1.612093
 38,2.05476174,0.\H,0,0.84930121,2.7223515,-0.42521424\C,0,1.54135666,2
 .12285896,1.54808316\H,0,2.4038182,1.5376039,1.90802559\C,0,0.08989941
 ,-1.40631112,-0.68815953\H,0,0.82554493,-1.98454789,-0.10632462\C,0,0.
 03108924,0.01441107,1.5422972\H,0,0.83459571,-0.65467671,1.88310873\H,
 0,-0.89848956,-0.37351077,1.97080915\C,0,1.75393486,3.57611458,2.10087
 719\C,0,1.39771368,0.310447,-1.9756429\H,0,2.41946519,0.3088977,-2.368
 20352\H,0,0.84173403,1.06541369,-2.5453315\C,0,0.27228673,1.4325642,2.
 09970145\H,0,-0.60867267,2.04603133,1.88291351\H,0,0.33229534,1.369131
 22,3.19209659\C,0,0.72377757,-1.08485756,-2.08639759\H,0,-0.04768066,-
 1.08787272,-2.86545558\H,0,1.45185818,-1.84955595,-2.37269823\C,0,2.98
 68946,2.54571372,-0.48164713\H,0,2.95613755,2.7563882,-1.55895548\H,0,
 3.72752405,1.73705942,-0.3644354\C,0,-1.18069606,-2.28617868,-0.806708
 11\H,0,-1.89361832,-1.74352038,-1.44487656\C,0,-1.22578864,0.77961224,
 -0.5302711\H,0,-2.15473375,0.35664086,-0.1340746\H,0,-1.20379433,1.833
 58365,-0.24254408\H,0,-1.29300995,0.74490041,-1.62191561\C,0,2.9309449
 1,4.24948758,1.38116154\C,0,2.10188312,3.48492845,3.61943798\H,0,2.877
 13929,2.71663853,3.7476555\H,0,1.22413205,3.1358848,4.17416022\C,0,3.4
 6848481,3.76529028,0.25181965\H,0,4.32074069,4.28733405,-0.18475997\C,
 0,0.48613712,4.45166109,1.91177142\H,0,-0.33318345,4.11355386,2.553999
 65\H,0,0.67951034,5.4975701,2.16256873\H,0,0.14072338,4.4277631,0.8735
 9631\C,0,3.47896031,5.51557306,2.01316383\H,0,4.36831737,5.8449156,1.4
 6048605\H,0,2.74635334,6.33253279,1.94873977\C,0,2.6024692,4.79328281,
 4.24848547\H,0,1.82046876,5.56279241,4.23906488\H,0,2.86601094,4.62688
 082,5.29916734\C,0,-0.85733661,-3.63915017,-1.51365628\H,0,0.14764153,
 -3.60372872,-1.94684271\H,0,-0.82387995,-4.43794436,-0.75904437\C,0,3.
 81547733,5.32997953,3.49986718\H,0,4.64157496,4.60552408,3.59184649\C,
 0,-1.86814963,-2.55356866,0.54523874\H,0,-1.1578713,-2.97743827,1.2660
 1325\H,0,-2.68439011,-3.27319473,0.42926782\H,0,-2.29198433,-1.6481934
 1,0.98710378\C,0,-1.82804205,-4.0503747,-2.638835\H,0,-1.83106582,-3.2
 5997489,-3.40144799\H,0,-1.41878211,-4.94397436,-3.1275384\C,0,-3.2678
 0171,-4.33658827,-2.18297481\H,0,-3.69209463,-3.43108748,-1.72908913\H
 ,0,-3.24004909,-5.09369129,-1.38565763\C,0,-4.24774515,-4.82301573,-3.
 27770872\H,0,-5.21493459,-4.96465468,-2.77299305\C,0,-3.84857304,-6.18
 351579,-3.87318802\H,0,-3.69779753,-6.93391706,-3.0881674\H,0,-4.62858
 106,-6.55706224,-4.54646776\H,0,-2.92175391,-6.11631066,-4.45438662\C,
 0,-4.46614512,-3.7782004,-4.38476789\H,0,-4.75900546,-2.80813792,-3.96
 598715\H,0,-5.25831755,-4.09800996,-5.07134909\H,0,-3.55947103,-3.6250
 6369,-4.98130805\\Version=EM64L-G09RevD.01\HF=-1124.074068\RMSD=4.657e
 -07\Dipole=0.1911687,-0.3841102,-0.5274158\Quadrupole=9.0059871,-4.226
 2207,-4.7797663,1.3062036,-3.3112846,-8.9622384\PG=C01 [X(C27H46O1)]\\
 @


 Everything starts as somebody's daydream.
                           -- Larry Niven
 Job cpu time:       0 days  0 hours 10 minutes 57.3 seconds.
 File lengths (MBytes):  RWF=    142 Int=      0 D2E=      0 Chk=     10 Scr=      1
 Normal termination of Gaussian 09 at Mon Mar 20 12:02:45 2017.
