 Entering Gaussian System, Link 0=/home/michal/g09/g09
 Input=JOB2-gau_m1-8-2.com
 Output=JOB2-gau_m1-8-2.log
 Initial command:
 /home/michal/g09/l1.exe "/home/michal/gauss_scratch/Gau-18371.inp" -scrdir="/home/michal/gauss_scratch/"
 Entering Link 1 = /home/michal/g09/l1.exe PID=     18372.
  
 Copyright (c) 1988,1990,1992,1993,1995,1998,2003,2009,2013,
            Gaussian, Inc.  All Rights Reserved.
  
 This is part of the Gaussian(R) 09 program.  It is based on
 the Gaussian(R) 03 system (copyright 2003, Gaussian, Inc.),
 the Gaussian(R) 98 system (copyright 1998, Gaussian, Inc.),
 the Gaussian(R) 94 system (copyright 1995, Gaussian, Inc.),
 the Gaussian 92(TM) system (copyright 1992, Gaussian, Inc.),
 the Gaussian 90(TM) system (copyright 1990, Gaussian, Inc.),
 the Gaussian 88(TM) system (copyright 1988, Gaussian, Inc.),
 the Gaussian 86(TM) system (copyright 1986, Carnegie Mellon
 University), and the Gaussian 82(TM) system (copyright 1983,
 Carnegie Mellon University). Gaussian is a federally registered
 trademark of Gaussian, Inc.
  
 This software contains proprietary and confidential information,
 including trade secrets, belonging to Gaussian, Inc.
  
 This software is provided under written license and may be
 used, copied, transmitted, or stored only in accord with that
 written license.
  
 The following legend is applicable only to US Government
 contracts under FAR:
  
                    RESTRICTED RIGHTS LEGEND
  
 Use, reproduction and disclosure by the US Government is
 subject to restrictions as set forth in subparagraphs (a)
 and (c) of the Commercial Computer Software - Restricted
 Rights clause in FAR 52.227-19.
  
 Gaussian, Inc.
 340 Quinnipiac St., Bldg. 40, Wallingford CT 06492
  
  
 ---------------------------------------------------------------
 Warning -- This program may not be used in any manner that
 competes with the business of Gaussian, Inc. or will provide
 assistance to any competitor of Gaussian, Inc.  The licensee
 of this program is prohibited from giving any competitor of
 Gaussian, Inc. access to this program.  By using this program,
 the user acknowledges that Gaussian, Inc. is engaged in the
 business of creating and licensing software in the field of
 computational chemistry and represents and warrants to the
 licensee that it is not a competitor of Gaussian, Inc. and that
 it will not use this program in any manner prohibited above.
 ---------------------------------------------------------------
  

 Cite this work as:
 Gaussian 09, Revision D.01,
 M. J. Frisch, G. W. Trucks, H. B. Schlegel, G. E. Scuseria, 
 M. A. Robb, J. R. Cheeseman, G. Scalmani, V. Barone, B. Mennucci, 
 G. A. Petersson, H. Nakatsuji, M. Caricato, X. Li, H. P. Hratchian, 
 A. F. Izmaylov, J. Bloino, G. Zheng, J. L. Sonnenberg, M. Hada, 
 M. Ehara, K. Toyota, R. Fukuda, J. Hasegawa, M. Ishida, T. Nakajima, 
 Y. Honda, O. Kitao, H. Nakai, T. Vreven, J. A. Montgomery, Jr., 
 J. E. Peralta, F. Ogliaro, M. Bearpark, J. J. Heyd, E. Brothers, 
 K. N. Kudin, V. N. Staroverov, T. Keith, R. Kobayashi, J. Normand, 
 K. Raghavachari, A. Rendell, J. C. Burant, S. S. Iyengar, J. Tomasi, 
 M. Cossi, N. Rega, J. M. Millam, M. Klene, J. E. Knox, J. B. Cross, 
 V. Bakken, C. Adamo, J. Jaramillo, R. Gomperts, R. E. Stratmann, 
 O. Yazyev, A. J. Austin, R. Cammi, C. Pomelli, J. W. Ochterski, 
 R. L. Martin, K. Morokuma, V. G. Zakrzewski, G. A. Voth, 
 P. Salvador, J. J. Dannenberg, S. Dapprich, A. D. Daniels, 
 O. Farkas, J. B. Foresman, J. V. Ortiz, J. Cioslowski, 
 and D. J. Fox, Gaussian, Inc., Wallingford CT, 2013.
 
 ******************************************
 Gaussian 09:  EM64L-G09RevD.01 24-Apr-2013
                20-Mar-2017 
 ******************************************
 %Mem=256MB
 %NProc=12
 Will use up to   12 processors via shared memory.
 ----------------------------------------------------------------------
 #P HF/6-31G* SCF(Conver=6) NoSymm Test Pop=chelpg IOp(6/33=2) GFInput 
 GFPrint
 ----------------------------------------------------------------------
 1/38=1/1;
 2/12=2,15=1,17=6,18=5,40=1/2;
 3/5=1,6=6,7=1,11=9,16=1,24=110,25=1,30=1/1,2,3;
 4//1;
 5/5=2,6=6,38=5/2;
 6/7=2,8=2,9=2,10=2,15=8,20=3,28=1,33=2/1,2;
 99/5=1,9=1/99;
 Leave Link    1 at Mon Mar 20 12:07:25 2017, MaxMem=    33554432 cpu:         0.6
 (Enter /home/michal/g09/l101.exe)
 ----------------------------------------------
 MEP - Input generated by R.E.D.-III.x MOLECULE
 ----------------------------------------------
 Symbolic Z-matrix:
 Charge =  0 Multiplicity = 1
 O                     0.42848  -3.38184   7.25553 
 H                     0.26725  -4.3235    7.10986 
 C                     1.5062    1.50152   0. 
 C                     1.10377   0.        0. 
 H                     0.        0.        0. 
 C                     1.51609  -0.7921    1.24755 
 H                     2.61292  -0.80967   1.31867 
 C                     0.9344   -0.11539   2.51642 
 H                    -0.15845  -0.24251   2.44237 
 C                     0.95167   1.92632  -1.40428 
 H                    -0.143     1.95009  -1.2946 
 C                     0.82605   2.13552   1.23066 
 H                    -0.26396   2.09245   1.09099 
 H                     1.08472   3.19403   1.33607 
 C                     1.35757  -0.84455   3.84008 
 C                     1.53601  -0.51329  -1.38266 
 H                     0.95886  -1.3868   -1.70205 
 H                     2.58971  -0.81868  -1.37128 
 C                     1.20586   1.40688   2.53665 
 H                     2.26516   1.59295   2.74315 
 H                     0.65382   1.86867   3.36309 
 C                     1.31932   0.70995  -2.31686 
 H                     2.2298    0.92585  -2.8882 
 H                     0.53316   0.52023  -3.05429 
 C                     1.02722  -2.247     1.1615 
 H                     1.63279  -2.80623   0.43591 
 H                     0.00046  -2.26622   0.7595 
 C                     1.38162   3.28151  -2.0182 
 H                     2.47419   3.24713  -2.14334 
 C                     3.0374    1.70601   0.05802 
 H                     3.28252   2.77251   0.10273 
 H                     3.48642   1.23561   0.93619 
 H                     3.54062   1.29301  -0.82149 
 C                     1.21306  -2.36415   3.67695 
 C                     0.40331  -0.38695   4.98707 
 H                    -0.62986  -0.44815   4.61759 
 H                     0.58901   0.66789   5.21677 
 C                     1.05143  -2.9575    2.48506 
 H                     0.92971  -4.04089   2.4549 
 C                     2.82553  -0.52139   4.22769 
 H                     2.93842   0.52431   4.53068 
 H                     3.16406  -1.1364    5.06519 
 H                     3.50594  -0.71202   3.39196 
 C                     1.25987  -3.19122   4.94837 
 H                     1.0548   -4.24258   4.70866 
 H                     2.26245  -3.1592    5.39788 
 C                     0.50791  -1.20583   6.28193 
 H                     1.49503  -1.08933   6.74645 
 H                    -0.2265   -0.84724   7.01209 
 C                     0.83274   3.47089  -3.46191 
 H                     1.19755   4.43922  -3.83353 
 H                     1.30972   2.71596  -4.09826 
 C                     0.27416  -2.68647   6.01212 
 H                    -0.75474  -2.82402   5.64033 
 C                     1.08079   4.49338  -1.11519 
 H                     0.05204   4.48708  -0.74176 
 H                     1.22888   5.43008  -1.66427 
 H                     1.74281   4.51983  -0.24531 
 C                    -0.68922   3.38998  -3.71801 
 H                    -0.81773   3.24409  -4.79819 
 H                    -1.09747   2.48676  -3.24865 
 C                    -1.51317   4.61836  -3.29218 
 H                    -1.01356   5.52389  -3.66602 
 H                    -1.51558   4.70371  -2.19953 
 C                    -2.98481   4.64594  -3.7721 
 H                    -3.41929   5.56511  -3.35186 
 C                    -3.80727   3.46711  -3.22531 
 H                    -3.72687   3.39632  -2.13408 
 H                    -4.8683    3.58233  -3.47473 
 H                    -3.47427   2.51206  -3.64791 
 C                    -3.1156    4.74859  -5.301 
 H                    -2.53926   5.59423  -5.69441 
 H                    -4.16221   4.89397  -5.59215 
 H                    -2.76227   3.8405   -5.80285 
 
 NAtoms=     74 NQM=       74 NQMF=       0 NMMI=      0 NMMIF=      0
                NMic=       0 NMicF=      0.
                    Isotopes and Nuclear Properties:
 (Nuclear quadrupole moments (NQMom) in fm**2, nuclear magnetic moments (NMagM)
  in nuclear magnetons)

  Atom         1           2           3           4           5           6           7           8           9          10
 IAtWgt=          16           1          12          12           1          12           1          12           1          12
 AtmWgt=  15.9949146   1.0078250  12.0000000  12.0000000   1.0078250  12.0000000   1.0078250  12.0000000   1.0078250  12.0000000
 NucSpn=           0           1           0           0           1           0           1           0           1           0
 AtZEff=   0.0000000   0.0000000   0.0000000   0.0000000   0.0000000   0.0000000   0.0000000   0.0000000   0.0000000   0.0000000
 NQMom=    0.0000000   0.0000000   0.0000000   0.0000000   0.0000000   0.0000000   0.0000000   0.0000000   0.0000000   0.0000000
 NMagM=    0.0000000   2.7928460   0.0000000   0.0000000   2.7928460   0.0000000   2.7928460   0.0000000   2.7928460   0.0000000
 AtZNuc=   8.0000000   1.0000000   6.0000000   6.0000000   1.0000000   6.0000000   1.0000000   6.0000000   1.0000000   6.0000000

  Atom        11          12          13          14          15          16          17          18          19          20
 IAtWgt=           1          12           1           1          12          12           1           1          12           1
 AtmWgt=   1.0078250  12.0000000   1.0078250   1.0078250  12.0000000  12.0000000   1.0078250   1.0078250  12.0000000   1.0078250
 NucSpn=           1           0           1           1           0           0           1           1           0           1
 AtZEff=   0.0000000   0.0000000   0.0000000   0.0000000   0.0000000   0.0000000   0.0000000   0.0000000   0.0000000   0.0000000
 NQMom=    0.0000000   0.0000000   0.0000000   0.0000000   0.0000000   0.0000000   0.0000000   0.0000000   0.0000000   0.0000000
 NMagM=    2.7928460   0.0000000   2.7928460   2.7928460   0.0000000   0.0000000   2.7928460   2.7928460   0.0000000   2.7928460
 AtZNuc=   1.0000000   6.0000000   1.0000000   1.0000000   6.0000000   6.0000000   1.0000000   1.0000000   6.0000000   1.0000000

  Atom        21          22          23          24          25          26          27          28          29          30
 IAtWgt=           1          12           1           1          12           1           1          12           1          12
 AtmWgt=   1.0078250  12.0000000   1.0078250   1.0078250  12.0000000   1.0078250   1.0078250  12.0000000   1.0078250  12.0000000
 NucSpn=           1           0           1           1           0           1           1           0           1           0
 AtZEff=   0.0000000   0.0000000   0.0000000   0.0000000   0.0000000   0.0000000   0.0000000   0.0000000   0.0000000   0.0000000
 NQMom=    0.0000000   0.0000000   0.0000000   0.0000000   0.0000000   0.0000000   0.0000000   0.0000000   0.0000000   0.0000000
 NMagM=    2.7928460   0.0000000   2.7928460   2.7928460   0.0000000   2.7928460   2.7928460   0.0000000   2.7928460   0.0000000
 AtZNuc=   1.0000000   6.0000000   1.0000000   1.0000000   6.0000000   1.0000000   1.0000000   6.0000000   1.0000000   6.0000000

  Atom        31          32          33          34          35          36          37          38          39          40
 IAtWgt=           1           1           1          12          12           1           1          12           1          12
 AtmWgt=   1.0078250   1.0078250   1.0078250  12.0000000  12.0000000   1.0078250   1.0078250  12.0000000   1.0078250  12.0000000
 NucSpn=           1           1           1           0           0           1           1           0           1           0
 AtZEff=   0.0000000   0.0000000   0.0000000   0.0000000   0.0000000   0.0000000   0.0000000   0.0000000   0.0000000   0.0000000
 NQMom=    0.0000000   0.0000000   0.0000000   0.0000000   0.0000000   0.0000000   0.0000000   0.0000000   0.0000000   0.0000000
 NMagM=    2.7928460   2.7928460   2.7928460   0.0000000   0.0000000   2.7928460   2.7928460   0.0000000   2.7928460   0.0000000
 AtZNuc=   1.0000000   1.0000000   1.0000000   6.0000000   6.0000000   1.0000000   1.0000000   6.0000000   1.0000000   6.0000000

  Atom        41          42          43          44          45          46          47          48          49          50
 IAtWgt=           1           1           1          12           1           1          12           1           1          12
 AtmWgt=   1.0078250   1.0078250   1.0078250  12.0000000   1.0078250   1.0078250  12.0000000   1.0078250   1.0078250  12.0000000
 NucSpn=           1           1           1           0           1           1           0           1           1           0
 AtZEff=   0.0000000   0.0000000   0.0000000   0.0000000   0.0000000   0.0000000   0.0000000   0.0000000   0.0000000   0.0000000
 NQMom=    0.0000000   0.0000000   0.0000000   0.0000000   0.0000000   0.0000000   0.0000000   0.0000000   0.0000000   0.0000000
 NMagM=    2.7928460   2.7928460   2.7928460   0.0000000   2.7928460   2.7928460   0.0000000   2.7928460   2.7928460   0.0000000
 AtZNuc=   1.0000000   1.0000000   1.0000000   6.0000000   1.0000000   1.0000000   6.0000000   1.0000000   1.0000000   6.0000000

  Atom        51          52          53          54          55          56          57          58          59          60
 IAtWgt=           1           1          12           1          12           1           1           1          12           1
 AtmWgt=   1.0078250   1.0078250  12.0000000   1.0078250  12.0000000   1.0078250   1.0078250   1.0078250  12.0000000   1.0078250
 NucSpn=           1           1           0           1           0           1           1           1           0           1
 AtZEff=   0.0000000   0.0000000   0.0000000   0.0000000   0.0000000   0.0000000   0.0000000   0.0000000   0.0000000   0.0000000
 NQMom=    0.0000000   0.0000000   0.0000000   0.0000000   0.0000000   0.0000000   0.0000000   0.0000000   0.0000000   0.0000000
 NMagM=    2.7928460   2.7928460   0.0000000   2.7928460   0.0000000   2.7928460   2.7928460   2.7928460   0.0000000   2.7928460
 AtZNuc=   1.0000000   1.0000000   6.0000000   1.0000000   6.0000000   1.0000000   1.0000000   1.0000000   6.0000000   1.0000000

  Atom        61          62          63          64          65          66          67          68          69          70
 IAtWgt=           1          12           1           1          12           1          12           1           1           1
 AtmWgt=   1.0078250  12.0000000   1.0078250   1.0078250  12.0000000   1.0078250  12.0000000   1.0078250   1.0078250   1.0078250
 NucSpn=           1           0           1           1           0           1           0           1           1           1
 AtZEff=   0.0000000   0.0000000   0.0000000   0.0000000   0.0000000   0.0000000   0.0000000   0.0000000   0.0000000   0.0000000
 NQMom=    0.0000000   0.0000000   0.0000000   0.0000000   0.0000000   0.0000000   0.0000000   0.0000000   0.0000000   0.0000000
 NMagM=    2.7928460   0.0000000   2.7928460   2.7928460   0.0000000   2.7928460   0.0000000   2.7928460   2.7928460   2.7928460
 AtZNuc=   1.0000000   6.0000000   1.0000000   1.0000000   6.0000000   1.0000000   6.0000000   1.0000000   1.0000000   1.0000000

  Atom        71          72          73          74
 IAtWgt=          12           1           1           1
 AtmWgt=  12.0000000   1.0078250   1.0078250   1.0078250
 NucSpn=           0           1           1           1
 AtZEff=   0.0000000   0.0000000   0.0000000   0.0000000
 NQMom=    0.0000000   0.0000000   0.0000000   0.0000000
 NMagM=    0.0000000   2.7928460   2.7928460   2.7928460
 AtZNuc=   6.0000000   1.0000000   1.0000000   1.0000000
 Leave Link  101 at Mon Mar 20 12:07:25 2017, MaxMem=    33554432 cpu:         1.4
 (Enter /home/michal/g09/l202.exe)
 Symmetry turned off by external request.
 Stoichiometry    C27H46O
 Framework group  C1[X(C27H46O)]
 Deg. of freedom   216
 Full point group                 C1      NOp   1
                          Input orientation:                          
 ---------------------------------------------------------------------
 Center     Atomic      Atomic             Coordinates (Angstroms)
 Number     Number       Type             X           Y           Z
 ---------------------------------------------------------------------
      1          8           0        0.428484   -3.381839    7.255533
      2          1           0        0.267253   -4.323499    7.109857
      3          6           0        1.506204    1.501518    0.000000
      4          6           0        1.103769    0.000000    0.000000
      5          1           0        0.000000    0.000000    0.000000
      6          6           0        1.516092   -0.792095    1.247547
      7          1           0        2.612920   -0.809667    1.318671
      8          6           0        0.934398   -0.115390    2.516424
      9          1           0       -0.158451   -0.242514    2.442371
     10          6           0        0.951674    1.926325   -1.404277
     11          1           0       -0.143002    1.950087   -1.294603
     12          6           0        0.826047    2.135525    1.230664
     13          1           0       -0.263958    2.092454    1.090989
     14          1           0        1.084715    3.194029    1.336068
     15          6           0        1.357566   -0.844550    3.840084
     16          6           0        1.536005   -0.513286   -1.382662
     17          1           0        0.958857   -1.386799   -1.702049
     18          1           0        2.589707   -0.818681   -1.371279
     19          6           0        1.205863    1.406877    2.536650
     20          1           0        2.265155    1.592947    2.743153
     21          1           0        0.653822    1.868666    3.363087
     22          6           0        1.319325    0.709948   -2.316858
     23          1           0        2.229800    0.925854   -2.888198
     24          1           0        0.533160    0.520227   -3.054294
     25          6           0        1.027222   -2.246999    1.161498
     26          1           0        1.632794   -2.806234    0.435906
     27          1           0        0.000459   -2.266221    0.759499
     28          6           0        1.381623    3.281507   -2.018200
     29          1           0        2.474185    3.247128   -2.143337
     30          6           0        3.037402    1.706005    0.058023
     31          1           0        3.282524    2.772513    0.102733
     32          1           0        3.486420    1.235613    0.936193
     33          1           0        3.540619    1.293013   -0.821494
     34          6           0        1.213063   -2.364153    3.676949
     35          6           0        0.403312   -0.386954    4.987067
     36          1           0       -0.629863   -0.448150    4.617592
     37          1           0        0.589007    0.667893    5.216768
     38          6           0        1.051431   -2.957497    2.485056
     39          1           0        0.929708   -4.040885    2.454898
     40          6           0        2.825535   -0.521394    4.227686
     41          1           0        2.938418    0.524308    4.530681
     42          1           0        3.164063   -1.136396    5.065190
     43          1           0        3.505943   -0.712020    3.391962
     44          6           0        1.259873   -3.191218    4.948368
     45          1           0        1.054796   -4.242579    4.708664
     46          1           0        2.262450   -3.159200    5.397885
     47          6           0        0.507909   -1.205829    6.281931
     48          1           0        1.495032   -1.089326    6.746449
     49          1           0       -0.226505   -0.847244    7.012092
     50          6           0        0.832736    3.470890   -3.461907
     51          1           0        1.197553    4.439222   -3.833533
     52          1           0        1.309719    2.715964   -4.098263
     53          6           0        0.274155   -2.686470    6.012123
     54          1           0       -0.754743   -2.824024    5.640329
     55          6           0        1.080791    4.493382   -1.115193
     56          1           0        0.052043    4.487076   -0.741761
     57          1           0        1.228882    5.430083   -1.664272
     58          1           0        1.742808    4.519833   -0.245306
     59          6           0       -0.689221    3.389982   -3.718011
     60          1           0       -0.817728    3.244095   -4.798191
     61          1           0       -1.097473    2.486757   -3.248653
     62          6           0       -1.513167    4.618358   -3.292181
     63          1           0       -1.013562    5.523888   -3.666020
     64          1           0       -1.515578    4.703713   -2.199532
     65          6           0       -2.984810    4.645936   -3.772103
     66          1           0       -3.419293    5.565109   -3.351862
     67          6           0       -3.807269    3.467109   -3.225311
     68          1           0       -3.726873    3.396323   -2.134084
     69          1           0       -4.868300    3.582334   -3.474729
     70          1           0       -3.474272    2.512063   -3.647912
     71          6           0       -3.115604    4.748593   -5.300997
     72          1           0       -2.539260    5.594226   -5.694414
     73          1           0       -4.162211    4.893972   -5.592150
     74          1           0       -2.762272    3.840500   -5.802853
 ---------------------------------------------------------------------
 Rotational constants (GHZ):      0.3741968      0.0651394      0.0632813
 Leave Link  202 at Mon Mar 20 12:07:26 2017, MaxMem=    33554432 cpu:         0.0
 (Enter /home/michal/g09/l301.exe)
 Standard basis: 6-31G(d) (6D, 7F)
 Ernie: Thresh=  0.10000D-02 Tol=  0.10000D-05 Strict=F.
 AO basis set in the form of general basis input (Overlap normalization):
      1 0
 S   6 1.00       0.000000000000
      0.5484671660D+04  0.1831074430D-02
      0.8252349460D+03  0.1395017220D-01
      0.1880469580D+03  0.6844507810D-01
      0.5296450000D+02  0.2327143360D+00
      0.1689757040D+02  0.4701928980D+00
      0.5799635340D+01  0.3585208530D+00
 SP   3 1.00       0.000000000000
      0.1553961625D+02 -0.1107775495D+00  0.7087426823D-01
      0.3599933586D+01 -0.1480262627D+00  0.3397528391D+00
      0.1013761750D+01  0.1130767015D+01  0.7271585773D+00
 SP   1 1.00       0.000000000000
      0.2700058226D+00  0.1000000000D+01  0.1000000000D+01
 D   1 1.00       0.000000000000
      0.8000000000D+00  0.1000000000D+01
 ****
      2 0
 S   3 1.00       0.000000000000
      0.1873113696D+02  0.3349460434D-01
      0.2825394365D+01  0.2347269535D+00
      0.6401216923D+00  0.8137573261D+00
 S   1 1.00       0.000000000000
      0.1612777588D+00  0.1000000000D+01
 ****
      3 0
 S   6 1.00       0.000000000000
      0.3047524880D+04  0.1834737132D-02
      0.4573695180D+03  0.1403732281D-01
      0.1039486850D+03  0.6884262226D-01
      0.2921015530D+02  0.2321844432D+00
      0.9286662960D+01  0.4679413484D+00
      0.3163926960D+01  0.3623119853D+00
 SP   3 1.00       0.000000000000
      0.7868272350D+01 -0.1193324198D+00  0.6899906659D-01
      0.1881288540D+01 -0.1608541517D+00  0.3164239610D+00
      0.5442492580D+00  0.1143456438D+01  0.7443082909D+00
 SP   1 1.00       0.000000000000
      0.1687144782D+00  0.1000000000D+01  0.1000000000D+01
 D   1 1.00       0.000000000000
      0.8000000000D+00  0.1000000000D+01
 ****
      4 0
 S   6 1.00       0.000000000000
      0.3047524880D+04  0.1834737132D-02
      0.4573695180D+03  0.1403732281D-01
      0.1039486850D+03  0.6884262226D-01
      0.2921015530D+02  0.2321844432D+00
      0.9286662960D+01  0.4679413484D+00
      0.3163926960D+01  0.3623119853D+00
 SP   3 1.00       0.000000000000
      0.7868272350D+01 -0.1193324198D+00  0.6899906659D-01
      0.1881288540D+01 -0.1608541517D+00  0.3164239610D+00
      0.5442492580D+00  0.1143456438D+01  0.7443082909D+00
 SP   1 1.00       0.000000000000
      0.1687144782D+00  0.1000000000D+01  0.1000000000D+01
 D   1 1.00       0.000000000000
      0.8000000000D+00  0.1000000000D+01
 ****
      5 0
 S   3 1.00       0.000000000000
      0.1873113696D+02  0.3349460434D-01
      0.2825394365D+01  0.2347269535D+00
      0.6401216923D+00  0.8137573261D+00
 S   1 1.00       0.000000000000
      0.1612777588D+00  0.1000000000D+01
 ****
      6 0
 S   6 1.00       0.000000000000
      0.3047524880D+04  0.1834737132D-02
      0.4573695180D+03  0.1403732281D-01
      0.1039486850D+03  0.6884262226D-01
      0.2921015530D+02  0.2321844432D+00
      0.9286662960D+01  0.4679413484D+00
      0.3163926960D+01  0.3623119853D+00
 SP   3 1.00       0.000000000000
      0.7868272350D+01 -0.1193324198D+00  0.6899906659D-01
      0.1881288540D+01 -0.1608541517D+00  0.3164239610D+00
      0.5442492580D+00  0.1143456438D+01  0.7443082909D+00
 SP   1 1.00       0.000000000000
      0.1687144782D+00  0.1000000000D+01  0.1000000000D+01
 D   1 1.00       0.000000000000
      0.8000000000D+00  0.1000000000D+01
 ****
      7 0
 S   3 1.00       0.000000000000
      0.1873113696D+02  0.3349460434D-01
      0.2825394365D+01  0.2347269535D+00
      0.6401216923D+00  0.8137573261D+00
 S   1 1.00       0.000000000000
      0.1612777588D+00  0.1000000000D+01
 ****
      8 0
 S   6 1.00       0.000000000000
      0.3047524880D+04  0.1834737132D-02
      0.4573695180D+03  0.1403732281D-01
      0.1039486850D+03  0.6884262226D-01
      0.2921015530D+02  0.2321844432D+00
      0.9286662960D+01  0.4679413484D+00
      0.3163926960D+01  0.3623119853D+00
 SP   3 1.00       0.000000000000
      0.7868272350D+01 -0.1193324198D+00  0.6899906659D-01
      0.1881288540D+01 -0.1608541517D+00  0.3164239610D+00
      0.5442492580D+00  0.1143456438D+01  0.7443082909D+00
 SP   1 1.00       0.000000000000
      0.1687144782D+00  0.1000000000D+01  0.1000000000D+01
 D   1 1.00       0.000000000000
      0.8000000000D+00  0.1000000000D+01
 ****
      9 0
 S   3 1.00       0.000000000000
      0.1873113696D+02  0.3349460434D-01
      0.2825394365D+01  0.2347269535D+00
      0.6401216923D+00  0.8137573261D+00
 S   1 1.00       0.000000000000
      0.1612777588D+00  0.1000000000D+01
 ****
     10 0
 S   6 1.00       0.000000000000
      0.3047524880D+04  0.1834737132D-02
      0.4573695180D+03  0.1403732281D-01
      0.1039486850D+03  0.6884262226D-01
      0.2921015530D+02  0.2321844432D+00
      0.9286662960D+01  0.4679413484D+00
      0.3163926960D+01  0.3623119853D+00
 SP   3 1.00       0.000000000000
      0.7868272350D+01 -0.1193324198D+00  0.6899906659D-01
      0.1881288540D+01 -0.1608541517D+00  0.3164239610D+00
      0.5442492580D+00  0.1143456438D+01  0.7443082909D+00
 SP   1 1.00       0.000000000000
      0.1687144782D+00  0.1000000000D+01  0.1000000000D+01
 D   1 1.00       0.000000000000
      0.8000000000D+00  0.1000000000D+01
 ****
     11 0
 S   3 1.00       0.000000000000
      0.1873113696D+02  0.3349460434D-01
      0.2825394365D+01  0.2347269535D+00
      0.6401216923D+00  0.8137573261D+00
 S   1 1.00       0.000000000000
      0.1612777588D+00  0.1000000000D+01
 ****
     12 0
 S   6 1.00       0.000000000000
      0.3047524880D+04  0.1834737132D-02
      0.4573695180D+03  0.1403732281D-01
      0.1039486850D+03  0.6884262226D-01
      0.2921015530D+02  0.2321844432D+00
      0.9286662960D+01  0.4679413484D+00
      0.3163926960D+01  0.3623119853D+00
 SP   3 1.00       0.000000000000
      0.7868272350D+01 -0.1193324198D+00  0.6899906659D-01
      0.1881288540D+01 -0.1608541517D+00  0.3164239610D+00
      0.5442492580D+00  0.1143456438D+01  0.7443082909D+00
 SP   1 1.00       0.000000000000
      0.1687144782D+00  0.1000000000D+01  0.1000000000D+01
 D   1 1.00       0.000000000000
      0.8000000000D+00  0.1000000000D+01
 ****
     13 0
 S   3 1.00       0.000000000000
      0.1873113696D+02  0.3349460434D-01
      0.2825394365D+01  0.2347269535D+00
      0.6401216923D+00  0.8137573261D+00
 S   1 1.00       0.000000000000
      0.1612777588D+00  0.1000000000D+01
 ****
     14 0
 S   3 1.00       0.000000000000
      0.1873113696D+02  0.3349460434D-01
      0.2825394365D+01  0.2347269535D+00
      0.6401216923D+00  0.8137573261D+00
 S   1 1.00       0.000000000000
      0.1612777588D+00  0.1000000000D+01
 ****
     15 0
 S   6 1.00       0.000000000000
      0.3047524880D+04  0.1834737132D-02
      0.4573695180D+03  0.1403732281D-01
      0.1039486850D+03  0.6884262226D-01
      0.2921015530D+02  0.2321844432D+00
      0.9286662960D+01  0.4679413484D+00
      0.3163926960D+01  0.3623119853D+00
 SP   3 1.00       0.000000000000
      0.7868272350D+01 -0.1193324198D+00  0.6899906659D-01
      0.1881288540D+01 -0.1608541517D+00  0.3164239610D+00
      0.5442492580D+00  0.1143456438D+01  0.7443082909D+00
 SP   1 1.00       0.000000000000
      0.1687144782D+00  0.1000000000D+01  0.1000000000D+01
 D   1 1.00       0.000000000000
      0.8000000000D+00  0.1000000000D+01
 ****
     16 0
 S   6 1.00       0.000000000000
      0.3047524880D+04  0.1834737132D-02
      0.4573695180D+03  0.1403732281D-01
      0.1039486850D+03  0.6884262226D-01
      0.2921015530D+02  0.2321844432D+00
      0.9286662960D+01  0.4679413484D+00
      0.3163926960D+01  0.3623119853D+00
 SP   3 1.00       0.000000000000
      0.7868272350D+01 -0.1193324198D+00  0.6899906659D-01
      0.1881288540D+01 -0.1608541517D+00  0.3164239610D+00
      0.5442492580D+00  0.1143456438D+01  0.7443082909D+00
 SP   1 1.00       0.000000000000
      0.1687144782D+00  0.1000000000D+01  0.1000000000D+01
 D   1 1.00       0.000000000000
      0.8000000000D+00  0.1000000000D+01
 ****
     17 0
 S   3 1.00       0.000000000000
      0.1873113696D+02  0.3349460434D-01
      0.2825394365D+01  0.2347269535D+00
      0.6401216923D+00  0.8137573261D+00
 S   1 1.00       0.000000000000
      0.1612777588D+00  0.1000000000D+01
 ****
     18 0
 S   3 1.00       0.000000000000
      0.1873113696D+02  0.3349460434D-01
      0.2825394365D+01  0.2347269535D+00
      0.6401216923D+00  0.8137573261D+00
 S   1 1.00       0.000000000000
      0.1612777588D+00  0.1000000000D+01
 ****
     19 0
 S   6 1.00       0.000000000000
      0.3047524880D+04  0.1834737132D-02
      0.4573695180D+03  0.1403732281D-01
      0.1039486850D+03  0.6884262226D-01
      0.2921015530D+02  0.2321844432D+00
      0.9286662960D+01  0.4679413484D+00
      0.3163926960D+01  0.3623119853D+00
 SP   3 1.00       0.000000000000
      0.7868272350D+01 -0.1193324198D+00  0.6899906659D-01
      0.1881288540D+01 -0.1608541517D+00  0.3164239610D+00
      0.5442492580D+00  0.1143456438D+01  0.7443082909D+00
 SP   1 1.00       0.000000000000
      0.1687144782D+00  0.1000000000D+01  0.1000000000D+01
 D   1 1.00       0.000000000000
      0.8000000000D+00  0.1000000000D+01
 ****
     20 0
 S   3 1.00       0.000000000000
      0.1873113696D+02  0.3349460434D-01
      0.2825394365D+01  0.2347269535D+00
      0.6401216923D+00  0.8137573261D+00
 S   1 1.00       0.000000000000
      0.1612777588D+00  0.1000000000D+01
 ****
     21 0
 S   3 1.00       0.000000000000
      0.1873113696D+02  0.3349460434D-01
      0.2825394365D+01  0.2347269535D+00
      0.6401216923D+00  0.8137573261D+00
 S   1 1.00       0.000000000000
      0.1612777588D+00  0.1000000000D+01
 ****
     22 0
 S   6 1.00       0.000000000000
      0.3047524880D+04  0.1834737132D-02
      0.4573695180D+03  0.1403732281D-01
      0.1039486850D+03  0.6884262226D-01
      0.2921015530D+02  0.2321844432D+00
      0.9286662960D+01  0.4679413484D+00
      0.3163926960D+01  0.3623119853D+00
 SP   3 1.00       0.000000000000
      0.7868272350D+01 -0.1193324198D+00  0.6899906659D-01
      0.1881288540D+01 -0.1608541517D+00  0.3164239610D+00
      0.5442492580D+00  0.1143456438D+01  0.7443082909D+00
 SP   1 1.00       0.000000000000
      0.1687144782D+00  0.1000000000D+01  0.1000000000D+01
 D   1 1.00       0.000000000000
      0.8000000000D+00  0.1000000000D+01
 ****
     23 0
 S   3 1.00       0.000000000000
      0.1873113696D+02  0.3349460434D-01
      0.2825394365D+01  0.2347269535D+00
      0.6401216923D+00  0.8137573261D+00
 S   1 1.00       0.000000000000
      0.1612777588D+00  0.1000000000D+01
 ****
     24 0
 S   3 1.00       0.000000000000
      0.1873113696D+02  0.3349460434D-01
      0.2825394365D+01  0.2347269535D+00
      0.6401216923D+00  0.8137573261D+00
 S   1 1.00       0.000000000000
      0.1612777588D+00  0.1000000000D+01
 ****
     25 0
 S   6 1.00       0.000000000000
      0.3047524880D+04  0.1834737132D-02
      0.4573695180D+03  0.1403732281D-01
      0.1039486850D+03  0.6884262226D-01
      0.2921015530D+02  0.2321844432D+00
      0.9286662960D+01  0.4679413484D+00
      0.3163926960D+01  0.3623119853D+00
 SP   3 1.00       0.000000000000
      0.7868272350D+01 -0.1193324198D+00  0.6899906659D-01
      0.1881288540D+01 -0.1608541517D+00  0.3164239610D+00
      0.5442492580D+00  0.1143456438D+01  0.7443082909D+00
 SP   1 1.00       0.000000000000
      0.1687144782D+00  0.1000000000D+01  0.1000000000D+01
 D   1 1.00       0.000000000000
      0.8000000000D+00  0.1000000000D+01
 ****
     26 0
 S   3 1.00       0.000000000000
      0.1873113696D+02  0.3349460434D-01
      0.2825394365D+01  0.2347269535D+00
      0.6401216923D+00  0.8137573261D+00
 S   1 1.00       0.000000000000
      0.1612777588D+00  0.1000000000D+01
 ****
     27 0
 S   3 1.00       0.000000000000
      0.1873113696D+02  0.3349460434D-01
      0.2825394365D+01  0.2347269535D+00
      0.6401216923D+00  0.8137573261D+00
 S   1 1.00       0.000000000000
      0.1612777588D+00  0.1000000000D+01
 ****
     28 0
 S   6 1.00       0.000000000000
      0.3047524880D+04  0.1834737132D-02
      0.4573695180D+03  0.1403732281D-01
      0.1039486850D+03  0.6884262226D-01
      0.2921015530D+02  0.2321844432D+00
      0.9286662960D+01  0.4679413484D+00
      0.3163926960D+01  0.3623119853D+00
 SP   3 1.00       0.000000000000
      0.7868272350D+01 -0.1193324198D+00  0.6899906659D-01
      0.1881288540D+01 -0.1608541517D+00  0.3164239610D+00
      0.5442492580D+00  0.1143456438D+01  0.7443082909D+00
 SP   1 1.00       0.000000000000
      0.1687144782D+00  0.1000000000D+01  0.1000000000D+01
 D   1 1.00       0.000000000000
      0.8000000000D+00  0.1000000000D+01
 ****
     29 0
 S   3 1.00       0.000000000000
      0.1873113696D+02  0.3349460434D-01
      0.2825394365D+01  0.2347269535D+00
      0.6401216923D+00  0.8137573261D+00
 S   1 1.00       0.000000000000
      0.1612777588D+00  0.1000000000D+01
 ****
     30 0
 S   6 1.00       0.000000000000
      0.3047524880D+04  0.1834737132D-02
      0.4573695180D+03  0.1403732281D-01
      0.1039486850D+03  0.6884262226D-01
      0.2921015530D+02  0.2321844432D+00
      0.9286662960D+01  0.4679413484D+00
      0.3163926960D+01  0.3623119853D+00
 SP   3 1.00       0.000000000000
      0.7868272350D+01 -0.1193324198D+00  0.6899906659D-01
      0.1881288540D+01 -0.1608541517D+00  0.3164239610D+00
      0.5442492580D+00  0.1143456438D+01  0.7443082909D+00
 SP   1 1.00       0.000000000000
      0.1687144782D+00  0.1000000000D+01  0.1000000000D+01
 D   1 1.00       0.000000000000
      0.8000000000D+00  0.1000000000D+01
 ****
     31 0
 S   3 1.00       0.000000000000
      0.1873113696D+02  0.3349460434D-01
      0.2825394365D+01  0.2347269535D+00
      0.6401216923D+00  0.8137573261D+00
 S   1 1.00       0.000000000000
      0.1612777588D+00  0.1000000000D+01
 ****
     32 0
 S   3 1.00       0.000000000000
      0.1873113696D+02  0.3349460434D-01
      0.2825394365D+01  0.2347269535D+00
      0.6401216923D+00  0.8137573261D+00
 S   1 1.00       0.000000000000
      0.1612777588D+00  0.1000000000D+01
 ****
     33 0
 S   3 1.00       0.000000000000
      0.1873113696D+02  0.3349460434D-01
      0.2825394365D+01  0.2347269535D+00
      0.6401216923D+00  0.8137573261D+00
 S   1 1.00       0.000000000000
      0.1612777588D+00  0.1000000000D+01
 ****
     34 0
 S   6 1.00       0.000000000000
      0.3047524880D+04  0.1834737132D-02
      0.4573695180D+03  0.1403732281D-01
      0.1039486850D+03  0.6884262226D-01
      0.2921015530D+02  0.2321844432D+00
      0.9286662960D+01  0.4679413484D+00
      0.3163926960D+01  0.3623119853D+00
 SP   3 1.00       0.000000000000
      0.7868272350D+01 -0.1193324198D+00  0.6899906659D-01
      0.1881288540D+01 -0.1608541517D+00  0.3164239610D+00
      0.5442492580D+00  0.1143456438D+01  0.7443082909D+00
 SP   1 1.00       0.000000000000
      0.1687144782D+00  0.1000000000D+01  0.1000000000D+01
 D   1 1.00       0.000000000000
      0.8000000000D+00  0.1000000000D+01
 ****
     35 0
 S   6 1.00       0.000000000000
      0.3047524880D+04  0.1834737132D-02
      0.4573695180D+03  0.1403732281D-01
      0.1039486850D+03  0.6884262226D-01
      0.2921015530D+02  0.2321844432D+00
      0.9286662960D+01  0.4679413484D+00
      0.3163926960D+01  0.3623119853D+00
 SP   3 1.00       0.000000000000
      0.7868272350D+01 -0.1193324198D+00  0.6899906659D-01
      0.1881288540D+01 -0.1608541517D+00  0.3164239610D+00
      0.5442492580D+00  0.1143456438D+01  0.7443082909D+00
 SP   1 1.00       0.000000000000
      0.1687144782D+00  0.1000000000D+01  0.1000000000D+01
 D   1 1.00       0.000000000000
      0.8000000000D+00  0.1000000000D+01
 ****
     36 0
 S   3 1.00       0.000000000000
      0.1873113696D+02  0.3349460434D-01
      0.2825394365D+01  0.2347269535D+00
      0.6401216923D+00  0.8137573261D+00
 S   1 1.00       0.000000000000
      0.1612777588D+00  0.1000000000D+01
 ****
     37 0
 S   3 1.00       0.000000000000
      0.1873113696D+02  0.3349460434D-01
      0.2825394365D+01  0.2347269535D+00
      0.6401216923D+00  0.8137573261D+00
 S   1 1.00       0.000000000000
      0.1612777588D+00  0.1000000000D+01
 ****
     38 0
 S   6 1.00       0.000000000000
      0.3047524880D+04  0.1834737132D-02
      0.4573695180D+03  0.1403732281D-01
      0.1039486850D+03  0.6884262226D-01
      0.2921015530D+02  0.2321844432D+00
      0.9286662960D+01  0.4679413484D+00
      0.3163926960D+01  0.3623119853D+00
 SP   3 1.00       0.000000000000
      0.7868272350D+01 -0.1193324198D+00  0.6899906659D-01
      0.1881288540D+01 -0.1608541517D+00  0.3164239610D+00
      0.5442492580D+00  0.1143456438D+01  0.7443082909D+00
 SP   1 1.00       0.000000000000
      0.1687144782D+00  0.1000000000D+01  0.1000000000D+01
 D   1 1.00       0.000000000000
      0.8000000000D+00  0.1000000000D+01
 ****
     39 0
 S   3 1.00       0.000000000000
      0.1873113696D+02  0.3349460434D-01
      0.2825394365D+01  0.2347269535D+00
      0.6401216923D+00  0.8137573261D+00
 S   1 1.00       0.000000000000
      0.1612777588D+00  0.1000000000D+01
 ****
     40 0
 S   6 1.00       0.000000000000
      0.3047524880D+04  0.1834737132D-02
      0.4573695180D+03  0.1403732281D-01
      0.1039486850D+03  0.6884262226D-01
      0.2921015530D+02  0.2321844432D+00
      0.9286662960D+01  0.4679413484D+00
      0.3163926960D+01  0.3623119853D+00
 SP   3 1.00       0.000000000000
      0.7868272350D+01 -0.1193324198D+00  0.6899906659D-01
      0.1881288540D+01 -0.1608541517D+00  0.3164239610D+00
      0.5442492580D+00  0.1143456438D+01  0.7443082909D+00
 SP   1 1.00       0.000000000000
      0.1687144782D+00  0.1000000000D+01  0.1000000000D+01
 D   1 1.00       0.000000000000
      0.8000000000D+00  0.1000000000D+01
 ****
     41 0
 S   3 1.00       0.000000000000
      0.1873113696D+02  0.3349460434D-01
      0.2825394365D+01  0.2347269535D+00
      0.6401216923D+00  0.8137573261D+00
 S   1 1.00       0.000000000000
      0.1612777588D+00  0.1000000000D+01
 ****
     42 0
 S   3 1.00       0.000000000000
      0.1873113696D+02  0.3349460434D-01
      0.2825394365D+01  0.2347269535D+00
      0.6401216923D+00  0.8137573261D+00
 S   1 1.00       0.000000000000
      0.1612777588D+00  0.1000000000D+01
 ****
     43 0
 S   3 1.00       0.000000000000
      0.1873113696D+02  0.3349460434D-01
      0.2825394365D+01  0.2347269535D+00
      0.6401216923D+00  0.8137573261D+00
 S   1 1.00       0.000000000000
      0.1612777588D+00  0.1000000000D+01
 ****
     44 0
 S   6 1.00       0.000000000000
      0.3047524880D+04  0.1834737132D-02
      0.4573695180D+03  0.1403732281D-01
      0.1039486850D+03  0.6884262226D-01
      0.2921015530D+02  0.2321844432D+00
      0.9286662960D+01  0.4679413484D+00
      0.3163926960D+01  0.3623119853D+00
 SP   3 1.00       0.000000000000
      0.7868272350D+01 -0.1193324198D+00  0.6899906659D-01
      0.1881288540D+01 -0.1608541517D+00  0.3164239610D+00
      0.5442492580D+00  0.1143456438D+01  0.7443082909D+00
 SP   1 1.00       0.000000000000
      0.1687144782D+00  0.1000000000D+01  0.1000000000D+01
 D   1 1.00       0.000000000000
      0.8000000000D+00  0.1000000000D+01
 ****
     45 0
 S   3 1.00       0.000000000000
      0.1873113696D+02  0.3349460434D-01
      0.2825394365D+01  0.2347269535D+00
      0.6401216923D+00  0.8137573261D+00
 S   1 1.00       0.000000000000
      0.1612777588D+00  0.1000000000D+01
 ****
     46 0
 S   3 1.00       0.000000000000
      0.1873113696D+02  0.3349460434D-01
      0.2825394365D+01  0.2347269535D+00
      0.6401216923D+00  0.8137573261D+00
 S   1 1.00       0.000000000000
      0.1612777588D+00  0.1000000000D+01
 ****
     47 0
 S   6 1.00       0.000000000000
      0.3047524880D+04  0.1834737132D-02
      0.4573695180D+03  0.1403732281D-01
      0.1039486850D+03  0.6884262226D-01
      0.2921015530D+02  0.2321844432D+00
      0.9286662960D+01  0.4679413484D+00
      0.3163926960D+01  0.3623119853D+00
 SP   3 1.00       0.000000000000
      0.7868272350D+01 -0.1193324198D+00  0.6899906659D-01
      0.1881288540D+01 -0.1608541517D+00  0.3164239610D+00
      0.5442492580D+00  0.1143456438D+01  0.7443082909D+00
 SP   1 1.00       0.000000000000
      0.1687144782D+00  0.1000000000D+01  0.1000000000D+01
 D   1 1.00       0.000000000000
      0.8000000000D+00  0.1000000000D+01
 ****
     48 0
 S   3 1.00       0.000000000000
      0.1873113696D+02  0.3349460434D-01
      0.2825394365D+01  0.2347269535D+00
      0.6401216923D+00  0.8137573261D+00
 S   1 1.00       0.000000000000
      0.1612777588D+00  0.1000000000D+01
 ****
     49 0
 S   3 1.00       0.000000000000
      0.1873113696D+02  0.3349460434D-01
      0.2825394365D+01  0.2347269535D+00
      0.6401216923D+00  0.8137573261D+00
 S   1 1.00       0.000000000000
      0.1612777588D+00  0.1000000000D+01
 ****
     50 0
 S   6 1.00       0.000000000000
      0.3047524880D+04  0.1834737132D-02
      0.4573695180D+03  0.1403732281D-01
      0.1039486850D+03  0.6884262226D-01
      0.2921015530D+02  0.2321844432D+00
      0.9286662960D+01  0.4679413484D+00
      0.3163926960D+01  0.3623119853D+00
 SP   3 1.00       0.000000000000
      0.7868272350D+01 -0.1193324198D+00  0.6899906659D-01
      0.1881288540D+01 -0.1608541517D+00  0.3164239610D+00
      0.5442492580D+00  0.1143456438D+01  0.7443082909D+00
 SP   1 1.00       0.000000000000
      0.1687144782D+00  0.1000000000D+01  0.1000000000D+01
 D   1 1.00       0.000000000000
      0.8000000000D+00  0.1000000000D+01
 ****
     51 0
 S   3 1.00       0.000000000000
      0.1873113696D+02  0.3349460434D-01
      0.2825394365D+01  0.2347269535D+00
      0.6401216923D+00  0.8137573261D+00
 S   1 1.00       0.000000000000
      0.1612777588D+00  0.1000000000D+01
 ****
     52 0
 S   3 1.00       0.000000000000
      0.1873113696D+02  0.3349460434D-01
      0.2825394365D+01  0.2347269535D+00
      0.6401216923D+00  0.8137573261D+00
 S   1 1.00       0.000000000000
      0.1612777588D+00  0.1000000000D+01
 ****
     53 0
 S   6 1.00       0.000000000000
      0.3047524880D+04  0.1834737132D-02
      0.4573695180D+03  0.1403732281D-01
      0.1039486850D+03  0.6884262226D-01
      0.2921015530D+02  0.2321844432D+00
      0.9286662960D+01  0.4679413484D+00
      0.3163926960D+01  0.3623119853D+00
 SP   3 1.00       0.000000000000
      0.7868272350D+01 -0.1193324198D+00  0.6899906659D-01
      0.1881288540D+01 -0.1608541517D+00  0.3164239610D+00
      0.5442492580D+00  0.1143456438D+01  0.7443082909D+00
 SP   1 1.00       0.000000000000
      0.1687144782D+00  0.1000000000D+01  0.1000000000D+01
 D   1 1.00       0.000000000000
      0.8000000000D+00  0.1000000000D+01
 ****
     54 0
 S   3 1.00       0.000000000000
      0.1873113696D+02  0.3349460434D-01
      0.2825394365D+01  0.2347269535D+00
      0.6401216923D+00  0.8137573261D+00
 S   1 1.00       0.000000000000
      0.1612777588D+00  0.1000000000D+01
 ****
     55 0
 S   6 1.00       0.000000000000
      0.3047524880D+04  0.1834737132D-02
      0.4573695180D+03  0.1403732281D-01
      0.1039486850D+03  0.6884262226D-01
      0.2921015530D+02  0.2321844432D+00
      0.9286662960D+01  0.4679413484D+00
      0.3163926960D+01  0.3623119853D+00
 SP   3 1.00       0.000000000000
      0.7868272350D+01 -0.1193324198D+00  0.6899906659D-01
      0.1881288540D+01 -0.1608541517D+00  0.3164239610D+00
      0.5442492580D+00  0.1143456438D+01  0.7443082909D+00
 SP   1 1.00       0.000000000000
      0.1687144782D+00  0.1000000000D+01  0.1000000000D+01
 D   1 1.00       0.000000000000
      0.8000000000D+00  0.1000000000D+01
 ****
     56 0
 S   3 1.00       0.000000000000
      0.1873113696D+02  0.3349460434D-01
      0.2825394365D+01  0.2347269535D+00
      0.6401216923D+00  0.8137573261D+00
 S   1 1.00       0.000000000000
      0.1612777588D+00  0.1000000000D+01
 ****
     57 0
 S   3 1.00       0.000000000000
      0.1873113696D+02  0.3349460434D-01
      0.2825394365D+01  0.2347269535D+00
      0.6401216923D+00  0.8137573261D+00
 S   1 1.00       0.000000000000
      0.1612777588D+00  0.1000000000D+01
 ****
     58 0
 S   3 1.00       0.000000000000
      0.1873113696D+02  0.3349460434D-01
      0.2825394365D+01  0.2347269535D+00
      0.6401216923D+00  0.8137573261D+00
 S   1 1.00       0.000000000000
      0.1612777588D+00  0.1000000000D+01
 ****
     59 0
 S   6 1.00       0.000000000000
      0.3047524880D+04  0.1834737132D-02
      0.4573695180D+03  0.1403732281D-01
      0.1039486850D+03  0.6884262226D-01
      0.2921015530D+02  0.2321844432D+00
      0.9286662960D+01  0.4679413484D+00
      0.3163926960D+01  0.3623119853D+00
 SP   3 1.00       0.000000000000
      0.7868272350D+01 -0.1193324198D+00  0.6899906659D-01
      0.1881288540D+01 -0.1608541517D+00  0.3164239610D+00
      0.5442492580D+00  0.1143456438D+01  0.7443082909D+00
 SP   1 1.00       0.000000000000
      0.1687144782D+00  0.1000000000D+01  0.1000000000D+01
 D   1 1.00       0.000000000000
      0.8000000000D+00  0.1000000000D+01
 ****
     60 0
 S   3 1.00       0.000000000000
      0.1873113696D+02  0.3349460434D-01
      0.2825394365D+01  0.2347269535D+00
      0.6401216923D+00  0.8137573261D+00
 S   1 1.00       0.000000000000
      0.1612777588D+00  0.1000000000D+01
 ****
     61 0
 S   3 1.00       0.000000000000
      0.1873113696D+02  0.3349460434D-01
      0.2825394365D+01  0.2347269535D+00
      0.6401216923D+00  0.8137573261D+00
 S   1 1.00       0.000000000000
      0.1612777588D+00  0.1000000000D+01
 ****
     62 0
 S   6 1.00       0.000000000000
      0.3047524880D+04  0.1834737132D-02
      0.4573695180D+03  0.1403732281D-01
      0.1039486850D+03  0.6884262226D-01
      0.2921015530D+02  0.2321844432D+00
      0.9286662960D+01  0.4679413484D+00
      0.3163926960D+01  0.3623119853D+00
 SP   3 1.00       0.000000000000
      0.7868272350D+01 -0.1193324198D+00  0.6899906659D-01
      0.1881288540D+01 -0.1608541517D+00  0.3164239610D+00
      0.5442492580D+00  0.1143456438D+01  0.7443082909D+00
 SP   1 1.00       0.000000000000
      0.1687144782D+00  0.1000000000D+01  0.1000000000D+01
 D   1 1.00       0.000000000000
      0.8000000000D+00  0.1000000000D+01
 ****
     63 0
 S   3 1.00       0.000000000000
      0.1873113696D+02  0.3349460434D-01
      0.2825394365D+01  0.2347269535D+00
      0.6401216923D+00  0.8137573261D+00
 S   1 1.00       0.000000000000
      0.1612777588D+00  0.1000000000D+01
 ****
     64 0
 S   3 1.00       0.000000000000
      0.1873113696D+02  0.3349460434D-01
      0.2825394365D+01  0.2347269535D+00
      0.6401216923D+00  0.8137573261D+00
 S   1 1.00       0.000000000000
      0.1612777588D+00  0.1000000000D+01
 ****
     65 0
 S   6 1.00       0.000000000000
      0.3047524880D+04  0.1834737132D-02
      0.4573695180D+03  0.1403732281D-01
      0.1039486850D+03  0.6884262226D-01
      0.2921015530D+02  0.2321844432D+00
      0.9286662960D+01  0.4679413484D+00
      0.3163926960D+01  0.3623119853D+00
 SP   3 1.00       0.000000000000
      0.7868272350D+01 -0.1193324198D+00  0.6899906659D-01
      0.1881288540D+01 -0.1608541517D+00  0.3164239610D+00
      0.5442492580D+00  0.1143456438D+01  0.7443082909D+00
 SP   1 1.00       0.000000000000
      0.1687144782D+00  0.1000000000D+01  0.1000000000D+01
 D   1 1.00       0.000000000000
      0.8000000000D+00  0.1000000000D+01
 ****
     66 0
 S   3 1.00       0.000000000000
      0.1873113696D+02  0.3349460434D-01
      0.2825394365D+01  0.2347269535D+00
      0.6401216923D+00  0.8137573261D+00
 S   1 1.00       0.000000000000
      0.1612777588D+00  0.1000000000D+01
 ****
     67 0
 S   6 1.00       0.000000000000
      0.3047524880D+04  0.1834737132D-02
      0.4573695180D+03  0.1403732281D-01
      0.1039486850D+03  0.6884262226D-01
      0.2921015530D+02  0.2321844432D+00
      0.9286662960D+01  0.4679413484D+00
      0.3163926960D+01  0.3623119853D+00
 SP   3 1.00       0.000000000000
      0.7868272350D+01 -0.1193324198D+00  0.6899906659D-01
      0.1881288540D+01 -0.1608541517D+00  0.3164239610D+00
      0.5442492580D+00  0.1143456438D+01  0.7443082909D+00
 SP   1 1.00       0.000000000000
      0.1687144782D+00  0.1000000000D+01  0.1000000000D+01
 D   1 1.00       0.000000000000
      0.8000000000D+00  0.1000000000D+01
 ****
     68 0
 S   3 1.00       0.000000000000
      0.1873113696D+02  0.3349460434D-01
      0.2825394365D+01  0.2347269535D+00
      0.6401216923D+00  0.8137573261D+00
 S   1 1.00       0.000000000000
      0.1612777588D+00  0.1000000000D+01
 ****
     69 0
 S   3 1.00       0.000000000000
      0.1873113696D+02  0.3349460434D-01
      0.2825394365D+01  0.2347269535D+00
      0.6401216923D+00  0.8137573261D+00
 S   1 1.00       0.000000000000
      0.1612777588D+00  0.1000000000D+01
 ****
     70 0
 S   3 1.00       0.000000000000
      0.1873113696D+02  0.3349460434D-01
      0.2825394365D+01  0.2347269535D+00
      0.6401216923D+00  0.8137573261D+00
 S   1 1.00       0.000000000000
      0.1612777588D+00  0.1000000000D+01
 ****
     71 0
 S   6 1.00       0.000000000000
      0.3047524880D+04  0.1834737132D-02
      0.4573695180D+03  0.1403732281D-01
      0.1039486850D+03  0.6884262226D-01
      0.2921015530D+02  0.2321844432D+00
      0.9286662960D+01  0.4679413484D+00
      0.3163926960D+01  0.3623119853D+00
 SP   3 1.00       0.000000000000
      0.7868272350D+01 -0.1193324198D+00  0.6899906659D-01
      0.1881288540D+01 -0.1608541517D+00  0.3164239610D+00
      0.5442492580D+00  0.1143456438D+01  0.7443082909D+00
 SP   1 1.00       0.000000000000
      0.1687144782D+00  0.1000000000D+01  0.1000000000D+01
 D   1 1.00       0.000000000000
      0.8000000000D+00  0.1000000000D+01
 ****
     72 0
 S   3 1.00       0.000000000000
      0.1873113696D+02  0.3349460434D-01
      0.2825394365D+01  0.2347269535D+00
      0.6401216923D+00  0.8137573261D+00
 S   1 1.00       0.000000000000
      0.1612777588D+00  0.1000000000D+01
 ****
     73 0
 S   3 1.00       0.000000000000
      0.1873113696D+02  0.3349460434D-01
      0.2825394365D+01  0.2347269535D+00
      0.6401216923D+00  0.8137573261D+00
 S   1 1.00       0.000000000000
      0.1612777588D+00  0.1000000000D+01
 ****
     74 0
 S   3 1.00       0.000000000000
      0.1873113696D+02  0.3349460434D-01
      0.2825394365D+01  0.2347269535D+00
      0.6401216923D+00  0.8137573261D+00
 S   1 1.00       0.000000000000
      0.1612777588D+00  0.1000000000D+01
 ****

 AO basis set (Overlap normalization):
 Atom O1       Shell     1 S   6     bf    1 -     1          0.809717374529         -6.390748666238         13.710969751196
      0.5484671660D+04  0.1831074430D-02
      0.8252349460D+03  0.1395017220D-01
      0.1880469580D+03  0.6844507810D-01
      0.5296450000D+02  0.2327143360D+00
      0.1689757040D+02  0.4701928980D+00
      0.5799635340D+01  0.3585208530D+00
 Atom O1       Shell     2 SP   3    bf    2 -     5          0.809717374529         -6.390748666238         13.710969751196
      0.1553961625D+02 -0.1107775495D+00  0.7087426823D-01
      0.3599933586D+01 -0.1480262627D+00  0.3397528391D+00
      0.1013761750D+01  0.1130767015D+01  0.7271585773D+00
 Atom O1       Shell     3 SP   1    bf    6 -     9          0.809717374529         -6.390748666238         13.710969751196
      0.2700058226D+00  0.1000000000D+01  0.1000000000D+01
 Atom O1       Shell     4 D   1     bf   10 -    15          0.809717374529         -6.390748666238         13.710969751196
      0.8000000000D+00  0.1000000000D+01
 Atom H2       Shell     5 S   3     bf   16 -    16          0.505034694733         -8.170229933976         13.435682611774
      0.1873113696D+02  0.3349460434D-01
      0.2825394365D+01  0.2347269535D+00
      0.6401216923D+00  0.8137573261D+00
 Atom H2       Shell     6 S   1     bf   17 -    17          0.505034694733         -8.170229933976         13.435682611774
      0.1612777588D+00  0.1000000000D+01
 Atom C3       Shell     7 S   6     bf   18 -    18          2.846313230332          2.837457482345          0.000000000000
      0.3047524880D+04  0.1834737132D-02
      0.4573695180D+03  0.1403732281D-01
      0.1039486850D+03  0.6884262226D-01
      0.2921015530D+02  0.2321844432D+00
      0.9286662960D+01  0.4679413484D+00
      0.3163926960D+01  0.3623119853D+00
 Atom C3       Shell     8 SP   3    bf   19 -    22          2.846313230332          2.837457482345          0.000000000000
      0.7868272350D+01 -0.1193324198D+00  0.6899906659D-01
      0.1881288540D+01 -0.1608541517D+00  0.3164239610D+00
      0.5442492580D+00  0.1143456438D+01  0.7443082909D+00
 Atom C3       Shell     9 SP   1    bf   23 -    26          2.846313230332          2.837457482345          0.000000000000
      0.1687144782D+00  0.1000000000D+01  0.1000000000D+01
 Atom C3       Shell    10 D   1     bf   27 -    32          2.846313230332          2.837457482345          0.000000000000
      0.8000000000D+00  0.1000000000D+01
 Atom C4       Shell    11 S   6     bf   33 -    33          2.085821898757          0.000000000000          0.000000000000
      0.3047524880D+04  0.1834737132D-02
      0.4573695180D+03  0.1403732281D-01
      0.1039486850D+03  0.6884262226D-01
      0.2921015530D+02  0.2321844432D+00
      0.9286662960D+01  0.4679413484D+00
      0.3163926960D+01  0.3623119853D+00
 Atom C4       Shell    12 SP   3    bf   34 -    37          2.085821898757          0.000000000000          0.000000000000
      0.7868272350D+01 -0.1193324198D+00  0.6899906659D-01
      0.1881288540D+01 -0.1608541517D+00  0.3164239610D+00
      0.5442492580D+00  0.1143456438D+01  0.7443082909D+00
 Atom C4       Shell    13 SP   1    bf   38 -    41          2.085821898757          0.000000000000          0.000000000000
      0.1687144782D+00  0.1000000000D+01  0.1000000000D+01
 Atom C4       Shell    14 D   1     bf   42 -    47          2.085821898757          0.000000000000          0.000000000000
      0.8000000000D+00  0.1000000000D+01
 Atom H5       Shell    15 S   3     bf   48 -    48          0.000000000000          0.000000000000          0.000000000000
      0.1873113696D+02  0.3349460434D-01
      0.2825394365D+01  0.2347269535D+00
      0.6401216923D+00  0.8137573261D+00
 Atom H5       Shell    16 S   1     bf   49 -    49          0.000000000000          0.000000000000          0.000000000000
      0.1612777588D+00  0.1000000000D+01
 Atom C6       Shell    17 S   6     bf   50 -    50          2.864998974615         -1.496842829098          2.357522394670
      0.3047524880D+04  0.1834737132D-02
      0.4573695180D+03  0.1403732281D-01
      0.1039486850D+03  0.6884262226D-01
      0.2921015530D+02  0.2321844432D+00
      0.9286662960D+01  0.4679413484D+00
      0.3163926960D+01  0.3623119853D+00
 Atom C6       Shell    18 SP   3    bf   51 -    54          2.864998974615         -1.496842829098          2.357522394670
      0.7868272350D+01 -0.1193324198D+00  0.6899906659D-01
      0.1881288540D+01 -0.1608541517D+00  0.3164239610D+00
      0.5442492580D+00  0.1143456438D+01  0.7443082909D+00
 Atom C6       Shell    19 SP   1    bf   55 -    58          2.864998974615         -1.496842829098          2.357522394670
      0.1687144782D+00  0.1000000000D+01  0.1000000000D+01
 Atom C6       Shell    20 D   1     bf   59 -    64          2.864998974615         -1.496842829098          2.357522394670
      0.8000000000D+00  0.1000000000D+01
 Atom H7       Shell    21 S   3     bf   65 -    65          4.937703698468         -1.530049531342          2.491927616296
      0.1873113696D+02  0.3349460434D-01
      0.2825394365D+01  0.2347269535D+00
      0.6401216923D+00  0.8137573261D+00
 Atom H7       Shell    22 S   1     bf   66 -    66          4.937703698468         -1.530049531342          2.491927616296
      0.1612777588D+00  0.1000000000D+01
 Atom C8       Shell    23 S   6     bf   67 -    67          1.765756621472         -0.218054761480          4.755352269810
      0.3047524880D+04  0.1834737132D-02
      0.4573695180D+03  0.1403732281D-01
      0.1039486850D+03  0.6884262226D-01
      0.2921015530D+02  0.2321844432D+00
      0.9286662960D+01  0.4679413484D+00
      0.3163926960D+01  0.3623119853D+00
 Atom C8       Shell    24 SP   3    bf   68 -    71          1.765756621472         -0.218054761480          4.755352269810
      0.7868272350D+01 -0.1193324198D+00  0.6899906659D-01
      0.1881288540D+01 -0.1608541517D+00  0.3164239610D+00
      0.5442492580D+00  0.1143456438D+01  0.7443082909D+00
 Atom C8       Shell    25 SP   1    bf   72 -    75          1.765756621472         -0.218054761480          4.755352269810
      0.1687144782D+00  0.1000000000D+01  0.1000000000D+01
 Atom C8       Shell    26 D   1     bf   76 -    81          1.765756621472         -0.218054761480          4.755352269810
      0.8000000000D+00  0.1000000000D+01
 Atom H9       Shell    27 S   3     bf   82 -    82         -0.299429713578         -0.458284627651          4.615413193073
      0.1873113696D+02  0.3349460434D-01
      0.2825394365D+01  0.2347269535D+00
      0.6401216923D+00  0.8137573261D+00
 Atom H9       Shell    28 S   1     bf   83 -    83         -0.299429713578         -0.458284627651          4.615413193073
      0.1612777588D+00  0.1000000000D+01
 Atom C10      Shell    29 S   6     bf   84 -    84          1.798404078165          3.640226220499         -2.653699568320
      0.3047524880D+04  0.1834737132D-02
      0.4573695180D+03  0.1403732281D-01
      0.1039486850D+03  0.6884262226D-01
      0.2921015530D+02  0.2321844432D+00
      0.9286662960D+01  0.4679413484D+00
      0.3163926960D+01  0.3623119853D+00
 Atom C10      Shell    30 SP   3    bf   85 -    88          1.798404078165          3.640226220499         -2.653699568320
      0.7868272350D+01 -0.1193324198D+00  0.6899906659D-01
      0.1881288540D+01 -0.1608541517D+00  0.3164239610D+00
      0.5442492580D+00  0.1143456438D+01  0.7443082909D+00
 Atom C10      Shell    31 SP   1    bf   89 -    92          1.798404078165          3.640226220499         -2.653699568320
      0.1687144782D+00  0.1000000000D+01  0.1000000000D+01
 Atom C10      Shell    32 D   1     bf   93 -    98          1.798404078165          3.640226220499         -2.653699568320
      0.8000000000D+00  0.1000000000D+01
 Atom H11      Shell    33 S   3     bf   99 -    99         -0.270233936154          3.685130138533         -2.446444742867
      0.1873113696D+02  0.3349460434D-01
      0.2825394365D+01  0.2347269535D+00
      0.6401216923D+00  0.8137573261D+00
 Atom H11      Shell    34 S   1     bf  100 -   100         -0.270233936154          3.685130138533         -2.446444742867
      0.1612777588D+00  0.1000000000D+01
 Atom C12      Shell    35 S   6     bf  101 -   101          1.561002149358          4.035556757424          2.325617997191
      0.3047524880D+04  0.1834737132D-02
      0.4573695180D+03  0.1403732281D-01
      0.1039486850D+03  0.6884262226D-01
      0.2921015530D+02  0.2321844432D+00
      0.9286662960D+01  0.4679413484D+00
      0.3163926960D+01  0.3623119853D+00
 Atom C12      Shell    36 SP   3    bf  102 -   105          1.561002149358          4.035556757424          2.325617997191
      0.7868272350D+01 -0.1193324198D+00  0.6899906659D-01
      0.1881288540D+01 -0.1608541517D+00  0.3164239610D+00
      0.5442492580D+00  0.1143456438D+01  0.7443082909D+00
 Atom C12      Shell    37 SP   1    bf  106 -   109          1.561002149358          4.035556757424          2.325617997191
      0.1687144782D+00  0.1000000000D+01  0.1000000000D+01
 Atom C12      Shell    38 D   1     bf  110 -   115          1.561002149358          4.035556757424          2.325617997191
      0.8000000000D+00  0.1000000000D+01
 Atom H13      Shell    39 S   3     bf  116 -   116         -0.498808179406          3.954165289120          2.061669705895
      0.1873113696D+02  0.3349460434D-01
      0.2825394365D+01  0.2347269535D+00
      0.6401216923D+00  0.8137573261D+00
 Atom H13      Shell    40 S   1     bf  117 -   117         -0.498808179406          3.954165289120          2.061669705895
      0.1612777588D+00  0.1000000000D+01
 Atom H14      Shell    41 S   3     bf  118 -   118          2.049815170404          6.035839560269          2.524802463734
      0.1873113696D+02  0.3349460434D-01
      0.2825394365D+01  0.2347269535D+00
      0.6401216923D+00  0.8137573261D+00
 Atom H14      Shell    42 S   1     bf  119 -   119          2.049815170404          6.035839560269          2.524802463734
      0.1612777588D+00  0.1000000000D+01
 Atom C15      Shell    43 S   6     bf  120 -   120          2.565428325262         -1.595967468535          7.256707843166
      0.3047524880D+04  0.1834737132D-02
      0.4573695180D+03  0.1403732281D-01
      0.1039486850D+03  0.6884262226D-01
      0.2921015530D+02  0.2321844432D+00
      0.9286662960D+01  0.4679413484D+00
      0.3163926960D+01  0.3623119853D+00
 Atom C15      Shell    44 SP   3    bf  121 -   124          2.565428325262         -1.595967468535          7.256707843166
      0.7868272350D+01 -0.1193324198D+00  0.6899906659D-01
      0.1881288540D+01 -0.1608541517D+00  0.3164239610D+00
      0.5442492580D+00  0.1143456438D+01  0.7443082909D+00
 Atom C15      Shell    45 SP   1    bf  125 -   128          2.565428325262         -1.595967468535          7.256707843166
      0.1687144782D+00  0.1000000000D+01  0.1000000000D+01
 Atom C15      Shell    46 D   1     bf  129 -   134          2.565428325262         -1.595967468535          7.256707843166
      0.8000000000D+00  0.1000000000D+01
 Atom C16      Shell    47 S   6     bf  135 -   135          2.902629431250         -0.969970496968         -2.612852608834
      0.3047524880D+04  0.1834737132D-02
      0.4573695180D+03  0.1403732281D-01
      0.1039486850D+03  0.6884262226D-01
      0.2921015530D+02  0.2321844432D+00
      0.9286662960D+01  0.4679413484D+00
      0.3163926960D+01  0.3623119853D+00
 Atom C16      Shell    48 SP   3    bf  136 -   139          2.902629431250         -0.969970496968         -2.612852608834
      0.7868272350D+01 -0.1193324198D+00  0.6899906659D-01
      0.1881288540D+01 -0.1608541517D+00  0.3164239610D+00
      0.5442492580D+00  0.1143456438D+01  0.7443082909D+00
 Atom C16      Shell    49 SP   1    bf  140 -   143          2.902629431250         -0.969970496968         -2.612852608834
      0.1687144782D+00  0.1000000000D+01  0.1000000000D+01
 Atom C16      Shell    50 D   1     bf  144 -   149          2.902629431250         -0.969970496968         -2.612852608834
      0.8000000000D+00  0.1000000000D+01
 Atom H17      Shell    51 S   3     bf  150 -   150          1.811976658169         -2.620670916072         -3.216406701519
      0.1873113696D+02  0.3349460434D-01
      0.2825394365D+01  0.2347269535D+00
      0.6401216923D+00  0.8137573261D+00
 Atom H17      Shell    52 S   1     bf  151 -   151          1.811976658169         -2.620670916072         -3.216406701519
      0.1612777588D+00  0.1000000000D+01
 Atom H18      Shell    53 S   3     bf  152 -   152          4.893837901485         -1.547083069170         -2.591341270448
      0.1873113696D+02  0.3349460434D-01
      0.2825394365D+01  0.2347269535D+00
      0.6401216923D+00  0.8137573261D+00
 Atom H18      Shell    54 S   1     bf  153 -   153          4.893837901485         -1.547083069170         -2.591341270448
      0.1612777588D+00  0.1000000000D+01
 Atom C19      Shell    55 S   6     bf  154 -   154          2.278750502526          2.658611665738          4.793573530423
      0.3047524880D+04  0.1834737132D-02
      0.4573695180D+03  0.1403732281D-01
      0.1039486850D+03  0.6884262226D-01
      0.2921015530D+02  0.2321844432D+00
      0.9286662960D+01  0.4679413484D+00
      0.3163926960D+01  0.3623119853D+00
 Atom C19      Shell    56 SP   3    bf  155 -   158          2.278750502526          2.658611665738          4.793573530423
      0.7868272350D+01 -0.1193324198D+00  0.6899906659D-01
      0.1881288540D+01 -0.1608541517D+00  0.3164239610D+00
      0.5442492580D+00  0.1143456438D+01  0.7443082909D+00
 Atom C19      Shell    57 SP   1    bf  159 -   162          2.278750502526          2.658611665738          4.793573530423
      0.1687144782D+00  0.1000000000D+01  0.1000000000D+01
 Atom C19      Shell    58 D   1     bf  163 -   168          2.278750502526          2.658611665738          4.793573530423
      0.8000000000D+00  0.1000000000D+01
 Atom H20      Shell    59 S   3     bf  169 -   169          4.280522995379          3.010234178914          5.183808231857
      0.1873113696D+02  0.3349460434D-01
      0.2825394365D+01  0.2347269535D+00
      0.6401216923D+00  0.8137573261D+00
 Atom H20      Shell    60 S   1     bf  170 -   170          4.280522995379          3.010234178914          5.183808231857
      0.1612777588D+00  0.1000000000D+01
 Atom H21      Shell    61 S   3     bf  171 -   171          1.235543801560          3.531267011629          6.355312748561
      0.1873113696D+02  0.3349460434D-01
      0.2825394365D+01  0.2347269535D+00
      0.6401216923D+00  0.8137573261D+00
 Atom H21      Shell    62 S   1     bf  172 -   172          1.235543801560          3.531267011629          6.355312748561
      0.1612777588D+00  0.1000000000D+01
 Atom C22      Shell    63 S   6     bf  173 -   173          2.493162268865          1.341607723227         -4.378226636354
      0.3047524880D+04  0.1834737132D-02
      0.4573695180D+03  0.1403732281D-01
      0.1039486850D+03  0.6884262226D-01
      0.2921015530D+02  0.2321844432D+00
      0.9286662960D+01  0.4679413484D+00
      0.3163926960D+01  0.3623119853D+00
 Atom C22      Shell    64 SP   3    bf  174 -   177          2.493162268865          1.341607723227         -4.378226636354
      0.7868272350D+01 -0.1193324198D+00  0.6899906659D-01
      0.1881288540D+01 -0.1608541517D+00  0.3164239610D+00
      0.5442492580D+00  0.1143456438D+01  0.7443082909D+00
 Atom C22      Shell    65 SP   1    bf  178 -   181          2.493162268865          1.341607723227         -4.378226636354
      0.1687144782D+00  0.1000000000D+01  0.1000000000D+01
 Atom C22      Shell    66 D   1     bf  182 -   187          2.493162268865          1.341607723227         -4.378226636354
      0.8000000000D+00  0.1000000000D+01
 Atom H23      Shell    67 S   3     bf  188 -   188          4.213711992513          1.749610876982         -5.457903861158
      0.1873113696D+02  0.3349460434D-01
      0.2825394365D+01  0.2347269535D+00
      0.6401216923D+00  0.8137573261D+00
 Atom H23      Shell    68 S   1     bf  189 -   189          4.213711992513          1.749610876982         -5.457903861158
      0.1612777588D+00  0.1000000000D+01
 Atom H24      Shell    69 S   3     bf  190 -   190          1.007526800749          0.983085857734         -5.771779057035
      0.1873113696D+02  0.3349460434D-01
      0.2825394365D+01  0.2347269535D+00
      0.6401216923D+00  0.8137573261D+00
 Atom H24      Shell    70 S   1     bf  191 -   191          1.007526800749          0.983085857734         -5.771779057035
      0.1612777588D+00  0.1000000000D+01
 Atom C25      Shell    71 S   6     bf  192 -   192          1.941168049805         -4.246212390717          2.194913350662
      0.3047524880D+04  0.1834737132D-02
      0.4573695180D+03  0.1403732281D-01
      0.1039486850D+03  0.6884262226D-01
      0.2921015530D+02  0.2321844432D+00
      0.9286662960D+01  0.4679413484D+00
      0.3163926960D+01  0.3623119853D+00
 Atom C25      Shell    72 SP   3    bf  193 -   196          1.941168049805         -4.246212390717          2.194913350662
      0.7868272350D+01 -0.1193324198D+00  0.6899906659D-01
      0.1881288540D+01 -0.1608541517D+00  0.3164239610D+00
      0.5442492580D+00  0.1143456438D+01  0.7443082909D+00
 Atom C25      Shell    73 SP   1    bf  197 -   200          1.941168049805         -4.246212390717          2.194913350662
      0.1687144782D+00  0.1000000000D+01  0.1000000000D+01
 Atom C25      Shell    74 D   1     bf  201 -   206          1.941168049805         -4.246212390717          2.194913350662
      0.8000000000D+00  0.1000000000D+01
 Atom H26      Shell    75 S   3     bf  207 -   207          3.085534171720         -5.303013535820          0.823743167552
      0.1873113696D+02  0.3349460434D-01
      0.2825394365D+01  0.2347269535D+00
      0.6401216923D+00  0.8137573261D+00
 Atom H26      Shell    76 S   1     bf  208 -   208          3.085534171720         -5.303013535820          0.823743167552
      0.1612777588D+00  0.1000000000D+01
 Atom H27      Shell    77 S   3     bf  209 -   209          0.000867422090         -4.282537840279          1.435244484591
      0.1873113696D+02  0.3349460434D-01
      0.2825394365D+01  0.2347269535D+00
      0.6401216923D+00  0.8137573261D+00
 Atom H27      Shell    78 S   1     bf  210 -   210          0.000867422090         -4.282537840279          1.435244484591
      0.1612777588D+00  0.1000000000D+01
 Atom C28      Shell    79 S   6     bf  211 -   211          2.610888937718          6.201149873298         -3.813845281390
      0.3047524880D+04  0.1834737132D-02
      0.4573695180D+03  0.1403732281D-01
      0.1039486850D+03  0.6884262226D-01
      0.2921015530D+02  0.2321844432D+00
      0.9286662960D+01  0.4679413484D+00
      0.3163926960D+01  0.3623119853D+00
 Atom C28      Shell    80 SP   3    bf  212 -   215          2.610888937718          6.201149873298         -3.813845281390
      0.7868272350D+01 -0.1193324198D+00  0.6899906659D-01
      0.1881288540D+01 -0.1608541517D+00  0.3164239610D+00
      0.5442492580D+00  0.1143456438D+01  0.7443082909D+00
 Atom C28      Shell    81 SP   1    bf  216 -   219          2.610888937718          6.201149873298         -3.813845281390
      0.1687144782D+00  0.1000000000D+01  0.1000000000D+01
 Atom C28      Shell    82 D   1     bf  220 -   225          2.610888937718          6.201149873298         -3.813845281390
      0.8000000000D+00  0.1000000000D+01
 Atom H29      Shell    83 S   3     bf  226 -   226          4.675532241066          6.136182392760         -4.050320866447
      0.1873113696D+02  0.3349460434D-01
      0.2825394365D+01  0.2347269535D+00
      0.6401216923D+00  0.8137573261D+00
 Atom H29      Shell    84 S   1     bf  227 -   227          4.675532241066          6.136182392760         -4.050320866447
      0.1612777588D+00  0.1000000000D+01
 Atom C30      Shell    85 S   6     bf  228 -   228          5.739857689815          3.223883043916          0.109647654997
      0.3047524880D+04  0.1834737132D-02
      0.4573695180D+03  0.1403732281D-01
      0.1039486850D+03  0.6884262226D-01
      0.2921015530D+02  0.2321844432D+00
      0.9286662960D+01  0.4679413484D+00
      0.3163926960D+01  0.3623119853D+00
 Atom C30      Shell    86 SP   3    bf  229 -   232          5.739857689815          3.223883043916          0.109647654997
      0.7868272350D+01 -0.1193324198D+00  0.6899906659D-01
      0.1881288540D+01 -0.1608541517D+00  0.3164239610D+00
      0.5442492580D+00  0.1143456438D+01  0.7443082909D+00
 Atom C30      Shell    87 SP   1    bf  233 -   236          5.739857689815          3.223883043916          0.109647654997
      0.1687144782D+00  0.1000000000D+01  0.1000000000D+01
 Atom C30      Shell    88 D   1     bf  237 -   242          5.739857689815          3.223883043916          0.109647654997
      0.8000000000D+00  0.1000000000D+01
 Atom H31      Shell    89 S   3     bf  243 -   243          6.203070477556          5.239289438386          0.194137272604
      0.1873113696D+02  0.3349460434D-01
      0.2825394365D+01  0.2347269535D+00
      0.6401216923D+00  0.8137573261D+00
 Atom H31      Shell    90 S   1     bf  244 -   244          6.203070477556          5.239289438386          0.194137272604
      0.1612777588D+00  0.1000000000D+01
 Atom H32      Shell    91 S   3     bf  245 -   245          6.588379607825          2.334971026610          1.769148736573
      0.1873113696D+02  0.3349460434D-01
      0.2825394365D+01  0.2347269535D+00
      0.6401216923D+00  0.8137573261D+00
 Atom H32      Shell    92 S   1     bf  246 -   246          6.588379607825          2.334971026610          1.769148736573
      0.1612777588D+00  0.1000000000D+01
 Atom H33      Shell    93 S   3     bf  247 -   247          6.690800704426          2.443439757062         -1.552398226274
      0.1873113696D+02  0.3349460434D-01
      0.2825394365D+01  0.2347269535D+00
      0.6401216923D+00  0.8137573261D+00
 Atom H33      Shell    94 S   1     bf  248 -   248          6.690800704426          2.443439757062         -1.552398226274
      0.1612777588D+00  0.1000000000D+01
 Atom C34      Shell    95 S   6     bf  249 -   249          2.292356114943         -4.467601158219          6.948425896492
      0.3047524880D+04  0.1834737132D-02
      0.4573695180D+03  0.1403732281D-01
      0.1039486850D+03  0.6884262226D-01
      0.2921015530D+02  0.2321844432D+00
      0.9286662960D+01  0.4679413484D+00
      0.3163926960D+01  0.3623119853D+00
 Atom C34      Shell    96 SP   3    bf  250 -   253          2.292356114943         -4.467601158219          6.948425896492
      0.7868272350D+01 -0.1193324198D+00  0.6899906659D-01
      0.1881288540D+01 -0.1608541517D+00  0.3164239610D+00
      0.5442492580D+00  0.1143456438D+01  0.7443082909D+00
 Atom C34      Shell    97 SP   1    bf  254 -   257          2.292356114943         -4.467601158219          6.948425896492
      0.1687144782D+00  0.1000000000D+01  0.1000000000D+01
 Atom C34      Shell    98 D   1     bf  258 -   263          2.292356114943         -4.467601158219          6.948425896492
      0.8000000000D+00  0.1000000000D+01
 Atom C35      Shell    99 S   6     bf  264 -   264          0.762148848161         -0.731236934847          9.424190023769
      0.3047524880D+04  0.1834737132D-02
      0.4573695180D+03  0.1403732281D-01
      0.1039486850D+03  0.6884262226D-01
      0.2921015530D+02  0.2321844432D+00
      0.9286662960D+01  0.4679413484D+00
      0.3163926960D+01  0.3623119853D+00
 Atom C35      Shell   100 SP   3    bf  265 -   268          0.762148848161         -0.731236934847          9.424190023769
      0.7868272350D+01 -0.1193324198D+00  0.6899906659D-01
      0.1881288540D+01 -0.1608541517D+00  0.3164239610D+00
      0.5442492580D+00  0.1143456438D+01  0.7443082909D+00
 Atom C35      Shell   101 SP   1    bf  269 -   272          0.762148848161         -0.731236934847          9.424190023769
      0.1687144782D+00  0.1000000000D+01  0.1000000000D+01
 Atom C35      Shell   102 D   1     bf  273 -   278          0.762148848161         -0.731236934847          9.424190023769
      0.8000000000D+00  0.1000000000D+01
 Atom H36      Shell   103 S   3     bf  279 -   279         -1.190268495649         -0.846880709761          8.725984519068
      0.1873113696D+02  0.3349460434D-01
      0.2825394365D+01  0.2347269535D+00
      0.6401216923D+00  0.8137573261D+00
 Atom H36      Shell   104 S   1     bf  280 -   280         -1.190268495649         -0.846880709761          8.725984519068
      0.1612777588D+00  0.1000000000D+01
 Atom H37      Shell   105 S   3     bf  281 -   281          1.113061542407          1.262135555270          9.858262894391
      0.1873113696D+02  0.3349460434D-01
      0.2825394365D+01  0.2347269535D+00
      0.6401216923D+00  0.8137573261D+00
 Atom H37      Shell   106 S   1     bf  282 -   282          1.113061542407          1.262135555270          9.858262894391
      0.1612777588D+00  0.1000000000D+01
 Atom C38      Shell   107 S   6     bf  283 -   283          1.986916751010         -5.588859652290          4.696076058569
      0.3047524880D+04  0.1834737132D-02
      0.4573695180D+03  0.1403732281D-01
      0.1039486850D+03  0.6884262226D-01
      0.2921015530D+02  0.2321844432D+00
      0.9286662960D+01  0.4679413484D+00
      0.3163926960D+01  0.3623119853D+00
 Atom C38      Shell   108 SP   3    bf  284 -   287          1.986916751010         -5.588859652290          4.696076058569
      0.7868272350D+01 -0.1193324198D+00  0.6899906659D-01
      0.1881288540D+01 -0.1608541517D+00  0.3164239610D+00
      0.5442492580D+00  0.1143456438D+01  0.7443082909D+00
 Atom C38      Shell   109 SP   1    bf  288 -   291          1.986916751010         -5.588859652290          4.696076058569
      0.1687144782D+00  0.1000000000D+01  0.1000000000D+01
 Atom C38      Shell   110 D   1     bf  292 -   297          1.986916751010         -5.588859652290          4.696076058569
      0.8000000000D+00  0.1000000000D+01
 Atom H39      Shell   111 S   3     bf  298 -   298          1.756893975984         -7.636166305739          4.639084941963
      0.1873113696D+02  0.3349460434D-01
      0.2825394365D+01  0.2347269535D+00
      0.6401216923D+00  0.8137573261D+00
 Atom H39      Shell   112 S   1     bf  299 -   299          1.756893975984         -7.636166305739          4.639084941963
      0.1612777588D+00  0.1000000000D+01
 Atom C40      Shell   113 S   6     bf  300 -   300          5.339486402917         -0.985292396453          7.989168904807
      0.3047524880D+04  0.1834737132D-02
      0.4573695180D+03  0.1403732281D-01
      0.1039486850D+03  0.6884262226D-01
      0.2921015530D+02  0.2321844432D+00
      0.9286662960D+01  0.4679413484D+00
      0.3163926960D+01  0.3623119853D+00
 Atom C40      Shell   114 SP   3    bf  301 -   304          5.339486402917         -0.985292396453          7.989168904807
      0.7868272350D+01 -0.1193324198D+00  0.6899906659D-01
      0.1881288540D+01 -0.1608541517D+00  0.3164239610D+00
      0.5442492580D+00  0.1143456438D+01  0.7443082909D+00
[...]
 **** Fit      -0.001689
 **** Fit      -0.001632
 **** Fit      -0.001546
 **** Fit       0.002782
 **** Fit       0.002918
 **** Fit       0.002985
 **** Fit       0.002933
 **** Fit       0.002697
 **** Fit       0.002229
 **** Fit       0.001543
 **** Fit       0.000759
 **** Fit       0.000083
 **** Fit      -0.000281
 **** Fit      -0.000227
 **** Fit       0.000217
 **** Fit       0.000895
 **** Fit       0.001599
 **** Fit       0.002148
 **** Fit       0.002450
 **** Fit       0.002489
 **** Fit       0.002293
 **** Fit       0.001901
 **** Fit       0.001361
 **** Fit       0.000736
 **** Fit       0.000107
 **** Fit      -0.000444
 **** Fit      -0.000861
 **** Fit      -0.001130
 **** Fit      -0.001271
 **** Fit      -0.001320
 **** Fit      -0.001315
 **** Fit      -0.001288
 **** Fit       0.002749
 **** Fit       0.002862
 **** Fit       0.002902
 **** Fit       0.002814
 **** Fit       0.002529
 **** Fit       0.001988
 **** Fit       0.001204
 **** Fit       0.000307
 **** Fit      -0.000469
 **** Fit      -0.000895
 **** Fit      -0.000853
 **** Fit      -0.000378
 **** Fit       0.000365
 **** Fit       0.001147
 **** Fit       0.001769
 **** Fit       0.002131
 **** Fit       0.002226
 **** Fit       0.002090
 **** Fit       0.001775
 **** Fit       0.001334
 **** Fit       0.000830
 **** Fit       0.000329
 **** Fit      -0.000110
 **** Fit      -0.000449
 **** Fit      -0.000682
 **** Fit      -0.000826
 **** Fit      -0.000907
 **** Fit      -0.000952
 **** Fit       0.002635
 **** Fit       0.002705
 **** Fit       0.002693
 **** Fit       0.002545
 **** Fit       0.002194
 **** Fit       0.001587
 **** Fit       0.000742
 **** Fit      -0.000200
 **** Fit      -0.001003
 **** Fit      -0.001446
 **** Fit      -0.001421
 **** Fit      -0.000959
 **** Fit      -0.000213
 **** Fit       0.000597
 **** Fit       0.001274
 **** Fit       0.001711
 **** Fit       0.001893
 **** Fit       0.001855
 **** Fit       0.001648
 **** Fit       0.000951
 **** Fit       0.000570
 **** Fit       0.000229
 **** Fit      -0.000045
 **** Fit      -0.000249
 **** Fit      -0.000396
 **** Fit      -0.000505
 **** Fit      -0.000593
 **** Fit       0.002449
 **** Fit       0.002461
 **** Fit       0.002376
 **** Fit       0.002147
 **** Fit       0.001717
 **** Fit       0.001055
 **** Fit       0.000196
 **** Fit      -0.000714
 **** Fit      -0.001464
 **** Fit      -0.001872
 **** Fit      -0.001860
 **** Fit      -0.001453
 **** Fit      -0.000767
 **** Fit       0.000017
 **** Fit       0.000719
 **** Fit       0.001227
 **** Fit       0.001509
 **** Fit       0.001587
 **** Fit       0.001504
 **** Fit       0.000301
 **** Fit       0.000121
 **** Fit      -0.000028
 **** Fit      -0.000157
 **** Fit       0.002218
 **** Fit       0.002168
 **** Fit       0.002007
 **** Fit       0.001696
 **** Fit       0.001199
 **** Fit       0.000508
 **** Fit      -0.000315
 **** Fit      -0.001133
 **** Fit      -0.001776
 **** Fit      -0.002117
 **** Fit      -0.002111
 **** Fit      -0.001776
 **** Fit      -0.001188
 **** Fit      -0.000475
 **** Fit       0.000213
 **** Fit       0.000765
 **** Fit       0.001130
 **** Fit       0.001313
 **** Fit       0.001343
 **** Fit       0.001874
 **** Fit       0.001656
 **** Fit       0.001292
 **** Fit       0.000764
 **** Fit       0.000093
 **** Fit      -0.000650
 **** Fit      -0.001343
 **** Fit      -0.001861
 **** Fit      -0.002126
 **** Fit      -0.002120
 **** Fit      -0.001856
 **** Fit      -0.001376
 **** Fit      -0.000764
 **** Fit      -0.000134
 **** Fit       0.000413
 **** Fit       0.000820
 **** Fit       0.001072
 **** Fit       0.001185
 **** Fit       0.001621
 **** Fit       0.001379
 **** Fit       0.001005
 **** Fit       0.000500
 **** Fit      -0.000102
 **** Fit      -0.000729
 **** Fit      -0.001281
 **** Fit      -0.001675
 **** Fit      -0.001869
 **** Fit      -0.001860
 **** Fit      -0.001659
 **** Fit      -0.001288
 **** Fit      -0.000797
 **** Fit      -0.000265
 **** Fit       0.000226
 **** Fit       0.000620
 **** Fit       0.000895
 **** Fit       0.001195
 **** Fit       0.000855
 **** Fit       0.000418
 **** Fit      -0.000075
 **** Fit      -0.000561
 **** Fit      -0.000968
 **** Fit      -0.001244
 **** Fit      -0.001373
 **** Fit      -0.001362
 **** Fit      -0.001221
 **** Fit      -0.000958
 **** Fit      -0.000598
 **** Fit      -0.000191
 **** Fit       0.000205
 **** Fit       0.000542
 **** Fit       0.000816
 **** Fit       0.000475
 **** Fit       0.000108
 **** Fit      -0.000233
 **** Fit      -0.000501
 **** Fit      -0.000670
 **** Fit      -0.000741
 **** Fit      -0.000729
 **** Fit      -0.000643
 **** Fit      -0.000481
 **** Fit      -0.000250
 **** Fit       0.000026
 **** Fit       0.000309
 **** Fit       0.000601
 **** Fit       0.000357
 **** Fit       0.000146
 **** Fit      -0.000004
 **** Fit      -0.000084
 **** Fit      -0.000109
 **** Fit      -0.000096
 **** Fit      -0.000053
 **** Fit       0.000026
 **** Fit       0.000148
 **** Fit       0.000306
 **** Fit       0.000592
 **** Fit       0.000485
 **** Fit       0.000425
 **** Fit       0.000408
 **** Fit       0.000417
 **** Fit       0.000432
 **** Fit       0.000446
 **** Fit       0.000469
 **** Fit       0.000512
 **** Fit       0.000580
 **** Fit       0.000734
 **** Fit       0.000734
 **** Fit       0.000758
 **** Fit       0.000788
 **** Fit       0.000806
 **** Fit       0.000807
 **** Fit       0.000799
 **** Fit       0.000794
 **** Fit       0.000917
 **** Fit       0.000964
 **** Fit       0.001006
 **** Fit       0.001029
 **** Fit       0.001028
 **** Fit       0.001007
 **** Fit      -0.000025
 **** Fit      -0.000333
 **** Fit      -0.000659
 **** Fit      -0.000968
 **** Fit      -0.001217
 **** Fit      -0.001370
 **** Fit      -0.001371
 **** Fit      -0.001279
 **** Fit      -0.001194
 **** Fit       0.000661
 **** Fit       0.000381
 **** Fit       0.000032
 **** Fit      -0.000368
 **** Fit      -0.000772
 **** Fit      -0.001121
 **** Fit      -0.001360
 **** Fit      -0.001464
 **** Fit      -0.001449
 **** Fit      -0.001361
 **** Fit      -0.001262
 **** Fit      -0.001205
 **** Fit       0.001270
 **** Fit       0.001079
 **** Fit       0.000793
 **** Fit       0.000405
 **** Fit      -0.000065
 **** Fit      -0.000566
 **** Fit      -0.001017
 **** Fit      -0.001346
 **** Fit      -0.001516
 **** Fit      -0.001539
 **** Fit      -0.001464
 **** Fit      -0.001358
 **** Fit      -0.001281
 **** Fit      -0.001272
 **** Fit       0.001619
 **** Fit       0.001448
 **** Fit       0.001159
 **** Fit       0.000739
 **** Fit       0.000208
 **** Fit      -0.000375
 **** Fit      -0.000915
 **** Fit      -0.001325
 **** Fit      -0.001558
 **** Fit      -0.001623
 **** Fit      -0.001569
 **** Fit      -0.001466
 **** Fit      -0.001377
 **** Fit      -0.001344
 **** Fit       0.001934
 **** Fit       0.001884
 **** Fit       0.001725
 **** Fit       0.001430
 **** Fit       0.000986
 **** Fit       0.000412
 **** Fit      -0.000226
 **** Fit      -0.000825
 **** Fit      -0.001291
 **** Fit      -0.001573
 **** Fit      -0.001677
 **** Fit      -0.001651
 **** Fit      -0.001561
 **** Fit      -0.001468
 **** Fit      -0.001418
 **** Fit       0.002072
 **** Fit       0.002042
 **** Fit       0.001886
 **** Fit       0.001582
 **** Fit       0.001120
 **** Fit       0.000526
 **** Fit      -0.000131
 **** Fit      -0.000749
 **** Fit      -0.001237
 **** Fit      -0.001545
 **** Fit      -0.001679
 **** Fit      -0.001681
 **** Fit      -0.001612
 **** Fit      -0.001527
 **** Fit       0.002018
 **** Fit       0.001790
 **** Fit       0.001551
 **** Fit       0.001356
 **** Fit       0.001401
 **** Fit       0.001605
 **** Fit       0.001828
 **** Fit       0.002013
 **** Fit       0.002094
 **** Fit       0.001935
 **** Fit       0.001621
 **** Fit       0.001154
 **** Fit       0.000566
 **** Fit      -0.000075
 **** Fit      -0.000674
 **** Fit      -0.001149
 **** Fit      -0.001460
 **** Fit      -0.001611
 **** Fit      -0.001640
 **** Fit      -0.001596
 **** Fit       0.002334
 **** Fit       0.002196
 **** Fit       0.001964
 **** Fit       0.001663
 **** Fit       0.001348
 **** Fit       0.001091
 **** Fit       0.000955
 **** Fit       0.000977
 **** Fit       0.001145
 **** Fit       0.001409
 **** Fit       0.001696
 **** Fit       0.001933
 **** Fit       0.002065
 **** Fit       0.002059
 **** Fit       0.001899
 **** Fit       0.001585
 **** Fit       0.001129
 **** Fit       0.000570
 **** Fit      -0.000024
 **** Fit      -0.000574
 **** Fit      -0.001012
 **** Fit      -0.001308
 **** Fit      -0.001466
 **** Fit       0.002410
 **** Fit       0.002338
 **** Fit       0.002158
 **** Fit       0.001864
 **** Fit       0.001485
 **** Fit       0.001085
 **** Fit       0.000756
 **** Fit       0.000579
 **** Fit       0.000600
 **** Fit       0.000804
 **** Fit       0.001129
 **** Fit       0.001482
 **** Fit       0.001774
 **** Fit       0.001942
 **** Fit       0.001956
 **** Fit       0.001809
 **** Fit       0.001512
 **** Fit       0.001088
 **** Fit       0.000582
 **** Fit       0.000054
 **** Fit      -0.000430
 **** Fit      -0.000818
 **** Fit      -0.001089
 **** Fit       0.002386
 **** Fit       0.002285
 **** Fit       0.002061
 **** Fit       0.001707
 **** Fit       0.001251
 **** Fit       0.000770
 **** Fit       0.000371
 **** Fit       0.000153
 **** Fit       0.000168
 **** Fit       0.000403
 **** Fit       0.000781
 **** Fit       0.001194
 **** Fit       0.001542
 **** Fit       0.001754
 **** Fit       0.001802
 **** Fit       0.001687
 **** Fit       0.001428
 **** Fit       0.001059
 **** Fit       0.000623
 **** Fit       0.000173
 **** Fit      -0.000239
 **** Fit      -0.000574
 **** Fit       0.002327
 **** Fit       0.002293
 **** Fit       0.002156
 **** Fit       0.001888
 **** Fit       0.001478
 **** Fit       0.000959
 **** Fit       0.000415
 **** Fit      -0.000036
 **** Fit      -0.000285
 **** Fit      -0.000276
 **** Fit      -0.000026
 **** Fit       0.000387
 **** Fit       0.000847
 **** Fit       0.001245
 **** Fit       0.001506
 **** Fit       0.001603
 **** Fit       0.001540
 **** Fit       0.002199
 **** Fit       0.002128
 **** Fit       0.001949
 **** Fit       0.001635
 **** Fit       0.001180
 **** Fit       0.000620
 **** Fit       0.000045
 **** Fit      -0.000425
 **** Fit      -0.000687
 **** Fit      -0.000686
 **** Fit      -0.000436
 **** Fit      -0.000015
 **** Fit       0.000468
 **** Fit       0.000902
 **** Fit       0.001213
 **** Fit       0.001368
 **** Fit       0.001372
 **** Fit       0.002019
 **** Fit       0.001905
 **** Fit       0.001681
 **** Fit       0.001326
 **** Fit       0.000842
 **** Fit       0.000272
 **** Fit      -0.000296
 **** Fit      -0.000752
 **** Fit      -0.001004
 **** Fit      -0.001008
 **** Fit      -0.000777
 **** Fit      -0.000374
 **** Fit       0.000103
 **** Fit       0.000554
 **** Fit       0.000904
 **** Fit       0.001116
 **** Fit       0.001191
 **** Fit       0.001655
 **** Fit       0.001394
 **** Fit       0.001012
 **** Fit       0.000523
 **** Fit      -0.000027
 **** Fit      -0.000554
 **** Fit      -0.000967
 **** Fit      -0.001192
 **** Fit      -0.001198
 **** Fit      -0.000996
 **** Fit      -0.000634
 **** Fit      -0.000189
 **** Fit       0.000254
 **** Fit       0.000622
 **** Fit       0.000878
 **** Fit       0.001013
 **** Fit       0.001418
 **** Fit       0.001137
 **** Fit       0.000752
 **** Fit       0.000285
 **** Fit      -0.000216
 **** Fit      -0.000679
 **** Fit      -0.001031
 **** Fit      -0.001220
 **** Fit      -0.001226
 **** Fit      -0.001058
 **** Fit      -0.000748
 **** Fit      -0.000356
 **** Fit       0.000052
 **** Fit       0.000412
 **** Fit       0.000687
 **** Fit       0.000947
 **** Fit       0.000586
 **** Fit       0.000169
 **** Fit      -0.000261
 **** Fit      -0.000645
 **** Fit      -0.000929
 **** Fit      -0.001079
 **** Fit      -0.001083
 **** Fit      -0.000949
 **** Fit      -0.000700
 **** Fit      -0.000374
 **** Fit      -0.000025
 **** Fit       0.000300
 **** Fit       0.000524
 **** Fit       0.000176
 **** Fit      -0.000169
 **** Fit      -0.000466
 **** Fit      -0.000681
 **** Fit      -0.000791
 **** Fit      -0.000794
 **** Fit      -0.000694
 **** Fit      -0.000507
 **** Fit      -0.000257
 **** Fit       0.000020
 **** Fit       0.000021
 **** Fit      -0.000192
 **** Fit      -0.000339
 **** Fit      -0.000413
 **** Fit      -0.000414
 **** Fit      -0.000346
 **** Fit      -0.000219
 **** Fit      -0.000045
 **** Fit       0.000251
 **** Fit       0.000115
 **** Fit       0.000025
 **** Fit      -0.000017
 **** Fit      -0.000015
 **** Fit       0.000025
 **** Fit       0.000101
 **** Fit       0.000207
 **** Fit       0.000396
 **** Fit       0.000352
 **** Fit       0.000336
 **** Fit       0.000340
 **** Fit       0.000360
 **** Fit       0.000397
 **** Fit       0.000604
 **** Fit       0.000607
 **** Fit       0.000614
 **** Fit      -0.000329
 **** Fit      -0.000629
 **** Fit       0.000526
 **** Fit       0.000222
 **** Fit      -0.000125
 **** Fit      -0.000481
 **** Fit      -0.000803
 **** Fit      -0.001054
 **** Fit       0.000772
 **** Fit       0.000446
 **** Fit       0.000061
 **** Fit      -0.000343
 **** Fit      -0.000717
 **** Fit      -0.001015
 **** Fit       0.001215
 **** Fit       0.000963
 **** Fit       0.000621
 **** Fit       0.000211
 **** Fit      -0.000226
 **** Fit      -0.000636
 **** Fit      -0.000969
 **** Fit       0.001339
 **** Fit       0.001085
 **** Fit       0.000736
 **** Fit       0.000315
 **** Fit      -0.000135
 **** Fit      -0.000559
 **** Fit      -0.000909
 **** Fit       0.001142
 **** Fit       0.000796
 **** Fit       0.000380
 **** Fit      -0.000062
 **** Fit      -0.000480
 **** Fit      -0.000827
 **** Fit       0.001147
 **** Fit       0.000817
 **** Fit       0.000423
 **** Fit       0.000006
 **** Fit      -0.000387
 **** Fit      -0.000716
 **** Fit       0.001556
 **** Fit       0.001298
 **** Fit       0.001037
 **** Fit       0.000825
 **** Fit       0.000807
 **** Fit       0.000985
 **** Fit       0.001186
 **** Fit       0.000460
 **** Fit       0.000084
 **** Fit       0.001670
 **** Fit       0.001414
 **** Fit       0.001108
 **** Fit       0.000802
 **** Fit       0.000552
 **** Fit       0.000410
 **** Fit       0.000404
 **** Fit       0.000525
 **** Fit       0.000733
 **** Fit       0.000970
 **** Fit       0.001177
 **** Fit       0.001308
 **** Fit       0.001739
 **** Fit       0.001524
 **** Fit       0.001230
 **** Fit       0.000885
 **** Fit       0.000542
 **** Fit       0.000264
 **** Fit       0.000105
 **** Fit       0.000095
 **** Fit       0.000225
 **** Fit       0.000455
 **** Fit       0.000721
 **** Fit       0.000961
 **** Fit       0.001128
 **** Fit       0.001582
 **** Fit       0.001336
 **** Fit       0.001013
 **** Fit       0.000644
 **** Fit       0.000280
 **** Fit      -0.000012
 **** Fit      -0.000179
 **** Fit      -0.000192
 **** Fit      -0.000060
 **** Fit       0.000178
 **** Fit       0.000461
 **** Fit       0.000727
 **** Fit       0.000926
 **** Fit       0.001395
 **** Fit       0.001126
 **** Fit       0.000787
 **** Fit       0.000409
 **** Fit       0.000045
 **** Fit      -0.000243
 **** Fit      -0.000408
 **** Fit      -0.000424
 **** Fit      -0.000297
 **** Fit      -0.000064
 **** Fit       0.000220
 **** Fit       0.000499
 **** Fit       0.000723
 **** Fit       0.001202
 **** Fit       0.000921
 **** Fit       0.000581
 **** Fit       0.000214
 **** Fit      -0.000131
 **** Fit      -0.000400
 **** Fit      -0.000553
 **** Fit      -0.000569
 **** Fit      -0.000455
 **** Fit      -0.000239
 **** Fit       0.000033
 **** Fit       0.000308
 **** Fit       0.000544
 **** Fit       0.000752
 **** Fit       0.000428
 **** Fit       0.000089
 **** Fit      -0.000222
 **** Fit      -0.000460
 **** Fit      -0.000595
 **** Fit      -0.000511
 **** Fit      -0.000321
 **** Fit      -0.000076
 **** Fit       0.000050
 **** Fit      -0.000215
 -----------------------------------------------------------------
 Leave Link  602 at Mon Mar 20 12:08:22 2017, MaxMem=    33554432 cpu:        36.6
 (Enter /home/michal/g09/l9999.exe)

 Test job not archived.
 1\1\GINC-LINUX\SP\RHF\6-31G(d)\C27H46O1\MICHAL\20-Mar-2017\0\\#P HF/6-
 31G* SCF(Conver=6) NoSymm Test Pop=chelpg IOp(6/33=2) GFInput GFPrint\
 \MEP - Input generated by R.E.D.-III.x MOLECULE\\0,1\O,0,0.42848398,-3
 .38183854,7.2555327\H,0,0.26725285,-4.32349947,7.10985702\C,0,1.506204
 09,1.50151783,0.\C,0,1.10376941,0.,0.\H,0,0.,0.,0.\C,0,1.51609216,-0.7
 9209511,1.24754712\H,0,2.61292026,-0.80966734,1.3186713\C,0,0.93439816
 ,-0.11538961,2.51642404\H,0,-0.15845138,-0.24251378,2.44237147\C,0,0.9
 5167445,1.92632475,-1.40427733\H,0,-0.14300164,1.95008688,-1.2946028\C
 ,0,0.82604676,2.13552466,1.23066404\H,0,-0.26395792,2.09245415,1.09098
 862\H,0,1.08471547,3.19402873,1.33606792\C,0,1.3575662,-0.84454961,3.8
 400844\C,0,1.53600534,-0.51328628,-1.38266205\H,0,0.95885675,-1.386799
 32,-1.70204912\H,0,2.58970748,-0.8186811,-1.37127874\C,0,1.20586283,1.
 4068767,2.53664986\H,0,2.26515521,1.59294732,2.74315317\H,0,0.65382162
 ,1.86866602,3.36308666\C,0,1.31932465,0.70994823,-2.31685775\H,0,2.229
 80035,0.9258542,-2.88819833\H,0,0.53316022,0.52022663,-3.05429393\C,0,
 1.02722189,-2.24699882,1.16149812\H,0,1.63279436,-2.8062339,0.43590611
 \H,0,0.00045902,-2.26622142,0.75949867\C,0,1.38162292,3.28150718,-2.01
 82\H,0,2.4741851,3.24712787,-2.14333749\C,0,3.03740187,1.70600543,0.05
 802304\H,0,3.28252352,2.77251256,0.10273302\H,0,3.48642033,1.23561345,
 0.93619319\H,0,3.54061924,1.29301263,-0.82149376\C,0,1.21306261,-2.364
 15271,3.67694862\C,0,0.4033118,-0.38695392,4.98706657\H,0,-0.62986296,
 -0.44814997,4.61759213\H,0,0.5890068,0.66789337,5.21676804\C,0,1.05143
 106,-2.95749715,2.48505642\H,0,0.92970825,-4.04088517,2.45489802\C,0,2
 .82553451,-0.52139428,4.2276861\H,0,2.93841788,0.52430761,4.53068062\H
 ,0,3.16406306,-1.13639614,5.06519039\H,0,3.50594254,-0.71202019,3.3919
 6193\C,0,1.25987255,-3.19121822,4.94836816\H,0,1.05479601,-4.24257895,
 4.70866421\H,0,2.2624498,-3.15919962,5.3978849\C,0,0.50790948,-1.20582
 904,6.28193095\H,0,1.49503179,-1.08932579,6.74644941\H,0,-0.22650493,-
 0.84724411,7.01209168\C,0,0.83273581,3.47089034,-3.46190664\H,0,1.1975
 528,4.43922212,-3.83353263\H,0,1.30971858,2.71596362,-4.09826335\C,0,0
 .27415518,-2.68647001,6.01212332\H,0,-0.75474338,-2.82402417,5.6403290
 4\C,0,1.08079147,4.49338203,-1.11519258\H,0,0.05204273,4.48707614,-0.7
 4176087\H,0,1.22888213,5.43008255,-1.66427178\H,0,1.74280822,4.5198331
 3,-0.24530611\C,0,-0.68922089,3.3899822,-3.71801091\H,0,-0.81772846,3.
 24409478,-4.79819124\H,0,-1.09747315,2.48675687,-3.24865349\C,0,-1.513
 16684,4.61835828,-3.29218068\H,0,-1.01356181,5.52388836,-3.66601963\H,
 0,-1.51557753,4.70371307,-2.19953241\C,0,-2.98481025,4.64593563,-3.772
 10289\H,0,-3.4192929,5.56510922,-3.35186244\C,0,-3.80726869,3.46710892
 ,-3.22531083\H,0,-3.72687257,3.39632286,-2.13408419\H,0,-4.86830025,3.
 58233418,-3.47472856\H,0,-3.47427189,2.51206318,-3.64791181\C,0,-3.115
 60392,4.74859308,-5.30099749\H,0,-2.53926037,5.59422622,-5.69441371\H,
 0,-4.16221089,4.89397246,-5.59214952\H,0,-2.76227161,3.84050031,-5.802
 85261\\Version=EM64L-G09RevD.01\HF=-1124.0729854\RMSD=4.630e-07\Dipole
 =-0.1038986,-0.1473105,-0.6426999\Quadrupole=3.2960806,9.2289466,-12.5
 250271,1.3098849,-2.4062813,1.0107606\PG=C01 [X(C27H46O1)]\\@


 IF NO USE IS MADE OF THE LABOR OF PAST AGES,
 THE WORLD MUST REMAIN ALWAYS IN THE INFANCY OF KNOWLEDGE.

                          -- CICERO
 Job cpu time:       0 days  0 hours 11 minutes  6.5 seconds.
 File lengths (MBytes):  RWF=    142 Int=      0 D2E=      0 Chk=     10 Scr=      1
 Normal termination of Gaussian 09 at Mon Mar 20 12:08:22 2017.
