 Entering Gaussian System, Link 0=/home/michal/g09/g09
 Input=JOB2-gau_m1-12-1.com
 Output=JOB2-gau_m1-12-1.log
 Initial command:
 /home/michal/g09/l1.exe "/home/michal/gauss_scratch/Gau-20292.inp" -scrdir="/home/michal/gauss_scratch/"
 Entering Link 1 = /home/michal/g09/l1.exe PID=     20293.
  
 Copyright (c) 1988,1990,1992,1993,1995,1998,2003,2009,2013,
            Gaussian, Inc.  All Rights Reserved.
  
 This is part of the Gaussian(R) 09 program.  It is based on
 the Gaussian(R) 03 system (copyright 2003, Gaussian, Inc.),
 the Gaussian(R) 98 system (copyright 1998, Gaussian, Inc.),
 the Gaussian(R) 94 system (copyright 1995, Gaussian, Inc.),
 the Gaussian 92(TM) system (copyright 1992, Gaussian, Inc.),
 the Gaussian 90(TM) system (copyright 1990, Gaussian, Inc.),
 the Gaussian 88(TM) system (copyright 1988, Gaussian, Inc.),
 the Gaussian 86(TM) system (copyright 1986, Carnegie Mellon
 University), and the Gaussian 82(TM) system (copyright 1983,
 Carnegie Mellon University). Gaussian is a federally registered
 trademark of Gaussian, Inc.
  
 This software contains proprietary and confidential information,
 including trade secrets, belonging to Gaussian, Inc.
  
 This software is provided under written license and may be
 used, copied, transmitted, or stored only in accord with that
 written license.
  
 The following legend is applicable only to US Government
 contracts under FAR:
  
                    RESTRICTED RIGHTS LEGEND
  
 Use, reproduction and disclosure by the US Government is
 subject to restrictions as set forth in subparagraphs (a)
 and (c) of the Commercial Computer Software - Restricted
 Rights clause in FAR 52.227-19.
  
 Gaussian, Inc.
 340 Quinnipiac St., Bldg. 40, Wallingford CT 06492
  
  
 ---------------------------------------------------------------
 Warning -- This program may not be used in any manner that
 competes with the business of Gaussian, Inc. or will provide
 assistance to any competitor of Gaussian, Inc.  The licensee
 of this program is prohibited from giving any competitor of
 Gaussian, Inc. access to this program.  By using this program,
 the user acknowledges that Gaussian, Inc. is engaged in the
 business of creating and licensing software in the field of
 computational chemistry and represents and warrants to the
 licensee that it is not a competitor of Gaussian, Inc. and that
 it will not use this program in any manner prohibited above.
 ---------------------------------------------------------------
  

 Cite this work as:
 Gaussian 09, Revision D.01,
 M. J. Frisch, G. W. Trucks, H. B. Schlegel, G. E. Scuseria, 
 M. A. Robb, J. R. Cheeseman, G. Scalmani, V. Barone, B. Mennucci, 
 G. A. Petersson, H. Nakatsuji, M. Caricato, X. Li, H. P. Hratchian, 
 A. F. Izmaylov, J. Bloino, G. Zheng, J. L. Sonnenberg, M. Hada, 
 M. Ehara, K. Toyota, R. Fukuda, J. Hasegawa, M. Ishida, T. Nakajima, 
 Y. Honda, O. Kitao, H. Nakai, T. Vreven, J. A. Montgomery, Jr., 
 J. E. Peralta, F. Ogliaro, M. Bearpark, J. J. Heyd, E. Brothers, 
 K. N. Kudin, V. N. Staroverov, T. Keith, R. Kobayashi, J. Normand, 
 K. Raghavachari, A. Rendell, J. C. Burant, S. S. Iyengar, J. Tomasi, 
 M. Cossi, N. Rega, J. M. Millam, M. Klene, J. E. Knox, J. B. Cross, 
 V. Bakken, C. Adamo, J. Jaramillo, R. Gomperts, R. E. Stratmann, 
 O. Yazyev, A. J. Austin, R. Cammi, C. Pomelli, J. W. Ochterski, 
 R. L. Martin, K. Morokuma, V. G. Zakrzewski, G. A. Voth, 
 P. Salvador, J. J. Dannenberg, S. Dapprich, A. D. Daniels, 
 O. Farkas, J. B. Foresman, J. V. Ortiz, J. Cioslowski, 
 and D. J. Fox, Gaussian, Inc., Wallingford CT, 2013.
 
 ******************************************
 Gaussian 09:  EM64L-G09RevD.01 24-Apr-2013
                20-Mar-2017 
 ******************************************
 %Mem=256MB
 %NProc=12
 Will use up to   12 processors via shared memory.
 ----------------------------------------------------------------------
 #P HF/6-31G* SCF(Conver=6) NoSymm Test Pop=chelpg IOp(6/33=2) GFInput 
 GFPrint
 ----------------------------------------------------------------------
 1/38=1/1;
 2/12=2,15=1,17=6,18=5,40=1/2;
 3/5=1,6=6,7=1,11=9,16=1,24=110,25=1,30=1/1,2,3;
 4//1;
 5/5=2,6=6,38=5/2;
 6/7=2,8=2,9=2,10=2,15=8,20=3,28=1,33=2/1,2;
 99/5=1,9=1/99;
 Leave Link    1 at Mon Mar 20 12:21:25 2017, MaxMem=    33554432 cpu:         0.6
 (Enter /home/michal/g09/l101.exe)
 ----------------------------------------------
 MEP - Input generated by R.E.D.-III.x MOLECULE
 ----------------------------------------------
 Symbolic Z-matrix:
 Charge =  0 Multiplicity = 1
 O                     4.9073   -0.18328  -7.29437 
 H                     5.8597   -0.27744  -7.16019 
 C                     0.        0.        0. 
 C                     1.54993   0.        0. 
 H                     1.83876   1.06499   0. 
 C                     2.19349  -0.59735  -1.25719 
 H                     1.92239  -1.65966  -1.33549 
 C                     1.67778   0.15675  -2.51446 
 H                     2.09601   1.17392  -2.435 
 C                    -0.26022   0.6477    1.39578 
 H                     0.06859   1.6898    1.27125 
 C                    -0.45539   0.84334  -1.20396 
 H                    -0.12989   1.88239  -1.04982 
 H                    -1.55068   0.86686  -1.28322 
 C                     2.25367  -0.43464  -3.84972 
 C                     1.92888  -0.54907   1.38911 
 H                     2.91641  -0.2069    1.7143 
 H                     1.96385  -1.64557   1.37808 
 C                     0.13571   0.31131  -2.52666 
 H                    -0.33324  -0.65049  -2.75779 
 H                    -0.15697   0.98915  -3.33628 
 C                     0.78924  -0.03874   2.32595 
 H                     0.3482   -0.87283   2.87894 
 H                     1.16743   0.66323   3.07637 
 C                     3.72615  -0.50644  -1.18933 
 H                     4.11529  -1.24143  -0.47207 
 H                     4.01801   0.47717  -0.78493 
 C                    -1.72325   0.74004   1.91825 
 H                    -2.36715   0.85269   1.03237 
 C                    -0.59444  -1.42269  -0.09269 
 H                    -1.68891  -1.38071  -0.08227 
 H                    -0.30175  -1.93176  -1.01409 
 H                    -0.27856  -2.05931   0.73859 
 C                     3.75964  -0.69824  -3.70632 
 C                     2.05067   0.61404  -4.98772 
 H                     2.38503   1.59254  -4.61557 
 H                     0.98175   0.71325  -5.20547 
 C                     4.38928  -0.70802  -2.52215 
 H                     5.46655  -0.87726  -2.50657 
 C                     1.55029  -1.76275  -4.23848 
 H                     0.5091   -1.59391  -4.53079 
 H                     2.04587  -2.24649  -5.08383 
 H                     1.5625   -2.47445  -3.40724 
 C                     4.52986  -0.9528   -4.9888 
 H                     5.60068  -1.03491  -4.76201 
 H                     4.22862  -1.90784  -5.44206 
 C                     2.79868   0.30633  -6.29305 
 H                     2.42078  -0.61184  -6.75992 
 H                     2.63827   1.11443  -7.01576 
 C                    -2.23708  -0.49241   2.70288 
 H                    -1.82832  -1.41042   2.27259 
 H                    -1.85689  -0.44636   3.73391 
 C                     4.29142   0.13935  -6.04137 
 H                     4.69978   1.09256  -5.66667 
 C                    -1.89234   2.01893   2.76423 
 H                    -1.21331   2.00721   3.62597 
 H                    -2.91177   2.12428   3.14921 
 H                    -1.6684    2.91574   2.17595 
 C                    -3.7709   -0.60394   2.74067 
 H                    -4.19968   0.34542   3.08539 
 H                    -4.14596  -0.74346   1.71753 
 C                    -4.3089   -1.71894   3.65624 
 H                    -5.40654  -1.65024   3.68597 
 H                    -3.96604  -1.52123   4.68221 
 C                    -3.92936  -3.16908   3.28723 
 H                    -2.83268  -3.24358   3.26316 
 C                    -4.46106  -3.58021   1.90507 
 H                    -4.05918  -2.95175   1.10382 
 H                    -4.1932   -4.61774   1.67508 
 H                    -5.55577  -3.50438   1.87128 
 C                    -4.43203  -4.13976   4.36794 
 H                    -4.0284   -3.88342   5.35425 
 H                    -4.13967  -5.17198   4.14368 
 H                    -5.52704  -4.11257   4.43916 
 
 NAtoms=     74 NQM=       74 NQMF=       0 NMMI=      0 NMMIF=      0
                NMic=       0 NMicF=      0.
                    Isotopes and Nuclear Properties:
 (Nuclear quadrupole moments (NQMom) in fm**2, nuclear magnetic moments (NMagM)
  in nuclear magnetons)

  Atom         1           2           3           4           5           6           7           8           9          10
 IAtWgt=          16           1          12          12           1          12           1          12           1          12
 AtmWgt=  15.9949146   1.0078250  12.0000000  12.0000000   1.0078250  12.0000000   1.0078250  12.0000000   1.0078250  12.0000000
 NucSpn=           0           1           0           0           1           0           1           0           1           0
 AtZEff=   0.0000000   0.0000000   0.0000000   0.0000000   0.0000000   0.0000000   0.0000000   0.0000000   0.0000000   0.0000000
 NQMom=    0.0000000   0.0000000   0.0000000   0.0000000   0.0000000   0.0000000   0.0000000   0.0000000   0.0000000   0.0000000
 NMagM=    0.0000000   2.7928460   0.0000000   0.0000000   2.7928460   0.0000000   2.7928460   0.0000000   2.7928460   0.0000000
 AtZNuc=   8.0000000   1.0000000   6.0000000   6.0000000   1.0000000   6.0000000   1.0000000   6.0000000   1.0000000   6.0000000

  Atom        11          12          13          14          15          16          17          18          19          20
 IAtWgt=           1          12           1           1          12          12           1           1          12           1
 AtmWgt=   1.0078250  12.0000000   1.0078250   1.0078250  12.0000000  12.0000000   1.0078250   1.0078250  12.0000000   1.0078250
 NucSpn=           1           0           1           1           0           0           1           1           0           1
 AtZEff=   0.0000000   0.0000000   0.0000000   0.0000000   0.0000000   0.0000000   0.0000000   0.0000000   0.0000000   0.0000000
 NQMom=    0.0000000   0.0000000   0.0000000   0.0000000   0.0000000   0.0000000   0.0000000   0.0000000   0.0000000   0.0000000
 NMagM=    2.7928460   0.0000000   2.7928460   2.7928460   0.0000000   0.0000000   2.7928460   2.7928460   0.0000000   2.7928460
 AtZNuc=   1.0000000   6.0000000   1.0000000   1.0000000   6.0000000   6.0000000   1.0000000   1.0000000   6.0000000   1.0000000

  Atom        21          22          23          24          25          26          27          28          29          30
 IAtWgt=           1          12           1           1          12           1           1          12           1          12
 AtmWgt=   1.0078250  12.0000000   1.0078250   1.0078250  12.0000000   1.0078250   1.0078250  12.0000000   1.0078250  12.0000000
 NucSpn=           1           0           1           1           0           1           1           0           1           0
 AtZEff=   0.0000000   0.0000000   0.0000000   0.0000000   0.0000000   0.0000000   0.0000000   0.0000000   0.0000000   0.0000000
 NQMom=    0.0000000   0.0000000   0.0000000   0.0000000   0.0000000   0.0000000   0.0000000   0.0000000   0.0000000   0.0000000
 NMagM=    2.7928460   0.0000000   2.7928460   2.7928460   0.0000000   2.7928460   2.7928460   0.0000000   2.7928460   0.0000000
 AtZNuc=   1.0000000   6.0000000   1.0000000   1.0000000   6.0000000   1.0000000   1.0000000   6.0000000   1.0000000   6.0000000

  Atom        31          32          33          34          35          36          37          38          39          40
 IAtWgt=           1           1           1          12          12           1           1          12           1          12
 AtmWgt=   1.0078250   1.0078250   1.0078250  12.0000000  12.0000000   1.0078250   1.0078250  12.0000000   1.0078250  12.0000000
 NucSpn=           1           1           1           0           0           1           1           0           1           0
 AtZEff=   0.0000000   0.0000000   0.0000000   0.0000000   0.0000000   0.0000000   0.0000000   0.0000000   0.0000000   0.0000000
 NQMom=    0.0000000   0.0000000   0.0000000   0.0000000   0.0000000   0.0000000   0.0000000   0.0000000   0.0000000   0.0000000
 NMagM=    2.7928460   2.7928460   2.7928460   0.0000000   0.0000000   2.7928460   2.7928460   0.0000000   2.7928460   0.0000000
 AtZNuc=   1.0000000   1.0000000   1.0000000   6.0000000   6.0000000   1.0000000   1.0000000   6.0000000   1.0000000   6.0000000

  Atom        41          42          43          44          45          46          47          48          49          50
 IAtWgt=           1           1           1          12           1           1          12           1           1          12
 AtmWgt=   1.0078250   1.0078250   1.0078250  12.0000000   1.0078250   1.0078250  12.0000000   1.0078250   1.0078250  12.0000000
 NucSpn=           1           1           1           0           1           1           0           1           1           0
 AtZEff=   0.0000000   0.0000000   0.0000000   0.0000000   0.0000000   0.0000000   0.0000000   0.0000000   0.0000000   0.0000000
 NQMom=    0.0000000   0.0000000   0.0000000   0.0000000   0.0000000   0.0000000   0.0000000   0.0000000   0.0000000   0.0000000
 NMagM=    2.7928460   2.7928460   2.7928460   0.0000000   2.7928460   2.7928460   0.0000000   2.7928460   2.7928460   0.0000000
 AtZNuc=   1.0000000   1.0000000   1.0000000   6.0000000   1.0000000   1.0000000   6.0000000   1.0000000   1.0000000   6.0000000

  Atom        51          52          53          54          55          56          57          58          59          60
 IAtWgt=           1           1          12           1          12           1           1           1          12           1
 AtmWgt=   1.0078250   1.0078250  12.0000000   1.0078250  12.0000000   1.0078250   1.0078250   1.0078250  12.0000000   1.0078250
 NucSpn=           1           1           0           1           0           1           1           1           0           1
 AtZEff=   0.0000000   0.0000000   0.0000000   0.0000000   0.0000000   0.0000000   0.0000000   0.0000000   0.0000000   0.0000000
 NQMom=    0.0000000   0.0000000   0.0000000   0.0000000   0.0000000   0.0000000   0.0000000   0.0000000   0.0000000   0.0000000
 NMagM=    2.7928460   2.7928460   0.0000000   2.7928460   0.0000000   2.7928460   2.7928460   2.7928460   0.0000000   2.7928460
 AtZNuc=   1.0000000   1.0000000   6.0000000   1.0000000   6.0000000   1.0000000   1.0000000   1.0000000   6.0000000   1.0000000

  Atom        61          62          63          64          65          66          67          68          69          70
 IAtWgt=           1          12           1           1          12           1          12           1           1           1
 AtmWgt=   1.0078250  12.0000000   1.0078250   1.0078250  12.0000000   1.0078250  12.0000000   1.0078250   1.0078250   1.0078250
 NucSpn=           1           0           1           1           0           1           0           1           1           1
 AtZEff=   0.0000000   0.0000000   0.0000000   0.0000000   0.0000000   0.0000000   0.0000000   0.0000000   0.0000000   0.0000000
 NQMom=    0.0000000   0.0000000   0.0000000   0.0000000   0.0000000   0.0000000   0.0000000   0.0000000   0.0000000   0.0000000
 NMagM=    2.7928460   0.0000000   2.7928460   2.7928460   0.0000000   2.7928460   0.0000000   2.7928460   2.7928460   2.7928460
 AtZNuc=   1.0000000   6.0000000   1.0000000   1.0000000   6.0000000   1.0000000   6.0000000   1.0000000   1.0000000   1.0000000

  Atom        71          72          73          74
 IAtWgt=          12           1           1           1
 AtmWgt=  12.0000000   1.0078250   1.0078250   1.0078250
 NucSpn=           0           1           1           1
 AtZEff=   0.0000000   0.0000000   0.0000000   0.0000000
 NQMom=    0.0000000   0.0000000   0.0000000   0.0000000
 NMagM=    0.0000000   2.7928460   2.7928460   2.7928460
 AtZNuc=   6.0000000   1.0000000   1.0000000   1.0000000
 Leave Link  101 at Mon Mar 20 12:21:25 2017, MaxMem=    33554432 cpu:         1.0
 (Enter /home/michal/g09/l202.exe)
 Symmetry turned off by external request.
 Stoichiometry    C27H46O
 Framework group  C1[X(C27H46O)]
 Deg. of freedom   216
 Full point group                 C1      NOp   1
                          Input orientation:                          
 ---------------------------------------------------------------------
 Center     Atomic      Atomic             Coordinates (Angstroms)
 Number     Number       Type             X           Y           Z
 ---------------------------------------------------------------------
      1          8           0        4.907295   -0.183284   -7.294366
      2          1           0        5.859700   -0.277437   -7.160189
      3          6           0        0.000000    0.000000    0.000000
      4          6           0        1.549926    0.000000    0.000000
      5          1           0        1.838765    1.064995    0.000000
      6          6           0        2.193486   -0.597349   -1.257190
      7          1           0        1.922388   -1.659664   -1.335490
      8          6           0        1.677782    0.156748   -2.514463
      9          1           0        2.096006    1.173920   -2.434998
     10          6           0       -0.260224    0.647698    1.395778
     11          1           0        0.068591    1.689797    1.271253
     12          6           0       -0.455394    0.843345   -1.203959
     13          1           0       -0.129891    1.882393   -1.049817
     14          1           0       -1.550681    0.866862   -1.283222
     15          6           0        2.253671   -0.434641   -3.849725
     16          6           0        1.928879   -0.549073    1.389108
     17          1           0        2.916409   -0.206899    1.714298
     18          1           0        1.963846   -1.645570    1.378082
     19          6           0        0.135713    0.311310   -2.526664
     20          1           0       -0.333237   -0.650491   -2.757788
     21          1           0       -0.156974    0.989152   -3.336277
     22          6           0        0.789237   -0.038743    2.325950
     23          1           0        0.348203   -0.872828    2.878940
     24          1           0        1.167430    0.663228    3.076371
     25          6           0        3.726154   -0.506440   -1.189333
     26          1           0        4.115285   -1.241435   -0.472072
     27          1           0        4.018011    0.477172   -0.784932
     28          6           0       -1.723254    0.740036    1.918253
     29          1           0       -2.367149    0.852687    1.032374
     30          6           0       -0.594437   -1.422690   -0.092689
     31          1           0       -1.688906   -1.380710   -0.082273
     32          1           0       -0.301755   -1.931761   -1.014090
     33          1           0       -0.278559   -2.059305    0.738593
     34          6           0        3.759641   -0.698244   -3.706321
     35          6           0        2.050670    0.614039   -4.987716
     36          1           0        2.385034    1.592539   -4.615572
     37          1           0        0.981746    0.713253   -5.205474
     38          6           0        4.389278   -0.708021   -2.522147
     39          1           0        5.466554   -0.877265   -2.506571
     40          6           0        1.550285   -1.762752   -4.238483
     41          1           0        0.509101   -1.593911   -4.530794
     42          1           0        2.045866   -2.246491   -5.083834
     43          1           0        1.562504   -2.474450   -3.407240
     44          6           0        4.529861   -0.952804   -4.988795
     45          1           0        5.600679   -1.034913   -4.762005
     46          1           0        4.228620   -1.907840   -5.442058
     47          6           0        2.798682    0.306331   -6.293045
     48          1           0        2.420781   -0.611841   -6.759919
     49          1           0        2.638273    1.114430   -7.015764
     50          6           0       -2.237083   -0.492409    2.702877
     51          1           0       -1.828324   -1.410424    2.272595
     52          1           0       -1.856894   -0.446359    3.733914
     53          6           0        4.291424    0.139348   -6.041367
     54          1           0        4.699783    1.092559   -5.666672
     55          6           0       -1.892341    2.018932    2.764231
     56          1           0       -1.213310    2.007205    3.625966
     57          1           0       -2.911773    2.124280    3.149214
     58          1           0       -1.668403    2.915738    2.175946
     59          6           0       -3.770898   -0.603938    2.740667
     60          1           0       -4.199679    0.345424    3.085392
     61          1           0       -4.145958   -0.743459    1.717530
     62          6           0       -4.308902   -1.718943    3.656237
     63          1           0       -5.406544   -1.650238    3.685968
     64          1           0       -3.966042   -1.521235    4.682209
     65          6           0       -3.929361   -3.169076    3.287226
     66          1           0       -2.832684   -3.243580    3.263163
     67          6           0       -4.461063   -3.580206    1.905070
     68          1           0       -4.059177   -2.951751    1.103821
     69          1           0       -4.193203   -4.617742    1.675079
     70          1           0       -5.555771   -3.504376    1.871277
     71          6           0       -4.432025   -4.139760    4.367944
     72          1           0       -4.028401   -3.883423    5.354249
     73          1           0       -4.139666   -5.171984    4.143677
     74          1           0       -5.527042   -4.112567    4.439163
 ---------------------------------------------------------------------
 Rotational constants (GHZ):      0.3892805      0.0643004      0.0620884
 Leave Link  202 at Mon Mar 20 12:21:25 2017, MaxMem=    33554432 cpu:         0.0
 (Enter /home/michal/g09/l301.exe)
 Standard basis: 6-31G(d) (6D, 7F)
 Ernie: Thresh=  0.10000D-02 Tol=  0.10000D-05 Strict=F.
 AO basis set in the form of general basis input (Overlap normalization):
      1 0
 S   6 1.00       0.000000000000
      0.5484671660D+04  0.1831074430D-02
      0.8252349460D+03  0.1395017220D-01
      0.1880469580D+03  0.6844507810D-01
      0.5296450000D+02  0.2327143360D+00
      0.1689757040D+02  0.4701928980D+00
      0.5799635340D+01  0.3585208530D+00
 SP   3 1.00       0.000000000000
      0.1553961625D+02 -0.1107775495D+00  0.7087426823D-01
      0.3599933586D+01 -0.1480262627D+00  0.3397528391D+00
      0.1013761750D+01  0.1130767015D+01  0.7271585773D+00
 SP   1 1.00       0.000000000000
      0.2700058226D+00  0.1000000000D+01  0.1000000000D+01
 D   1 1.00       0.000000000000
      0.8000000000D+00  0.1000000000D+01
 ****
      2 0
 S   3 1.00       0.000000000000
      0.1873113696D+02  0.3349460434D-01
      0.2825394365D+01  0.2347269535D+00
      0.6401216923D+00  0.8137573261D+00
 S   1 1.00       0.000000000000
      0.1612777588D+00  0.1000000000D+01
 ****
      3 0
 S   6 1.00       0.000000000000
      0.3047524880D+04  0.1834737132D-02
      0.4573695180D+03  0.1403732281D-01
      0.1039486850D+03  0.6884262226D-01
      0.2921015530D+02  0.2321844432D+00
      0.9286662960D+01  0.4679413484D+00
      0.3163926960D+01  0.3623119853D+00
 SP   3 1.00       0.000000000000
      0.7868272350D+01 -0.1193324198D+00  0.6899906659D-01
      0.1881288540D+01 -0.1608541517D+00  0.3164239610D+00
      0.5442492580D+00  0.1143456438D+01  0.7443082909D+00
 SP   1 1.00       0.000000000000
      0.1687144782D+00  0.1000000000D+01  0.1000000000D+01
 D   1 1.00       0.000000000000
      0.8000000000D+00  0.1000000000D+01
 ****
      4 0
 S   6 1.00       0.000000000000
      0.3047524880D+04  0.1834737132D-02
      0.4573695180D+03  0.1403732281D-01
      0.1039486850D+03  0.6884262226D-01
      0.2921015530D+02  0.2321844432D+00
      0.9286662960D+01  0.4679413484D+00
      0.3163926960D+01  0.3623119853D+00
 SP   3 1.00       0.000000000000
      0.7868272350D+01 -0.1193324198D+00  0.6899906659D-01
      0.1881288540D+01 -0.1608541517D+00  0.3164239610D+00
      0.5442492580D+00  0.1143456438D+01  0.7443082909D+00
 SP   1 1.00       0.000000000000
      0.1687144782D+00  0.1000000000D+01  0.1000000000D+01
 D   1 1.00       0.000000000000
      0.8000000000D+00  0.1000000000D+01
 ****
      5 0
 S   3 1.00       0.000000000000
      0.1873113696D+02  0.3349460434D-01
      0.2825394365D+01  0.2347269535D+00
      0.6401216923D+00  0.8137573261D+00
 S   1 1.00       0.000000000000
      0.1612777588D+00  0.1000000000D+01
 ****
      6 0
 S   6 1.00       0.000000000000
      0.3047524880D+04  0.1834737132D-02
      0.4573695180D+03  0.1403732281D-01
      0.1039486850D+03  0.6884262226D-01
      0.2921015530D+02  0.2321844432D+00
      0.9286662960D+01  0.4679413484D+00
      0.3163926960D+01  0.3623119853D+00
 SP   3 1.00       0.000000000000
      0.7868272350D+01 -0.1193324198D+00  0.6899906659D-01
      0.1881288540D+01 -0.1608541517D+00  0.3164239610D+00
      0.5442492580D+00  0.1143456438D+01  0.7443082909D+00
 SP   1 1.00       0.000000000000
      0.1687144782D+00  0.1000000000D+01  0.1000000000D+01
 D   1 1.00       0.000000000000
      0.8000000000D+00  0.1000000000D+01
 ****
      7 0
 S   3 1.00       0.000000000000
      0.1873113696D+02  0.3349460434D-01
      0.2825394365D+01  0.2347269535D+00
      0.6401216923D+00  0.8137573261D+00
 S   1 1.00       0.000000000000
      0.1612777588D+00  0.1000000000D+01
 ****
      8 0
 S   6 1.00       0.000000000000
      0.3047524880D+04  0.1834737132D-02
      0.4573695180D+03  0.1403732281D-01
      0.1039486850D+03  0.6884262226D-01
      0.2921015530D+02  0.2321844432D+00
      0.9286662960D+01  0.4679413484D+00
      0.3163926960D+01  0.3623119853D+00
 SP   3 1.00       0.000000000000
      0.7868272350D+01 -0.1193324198D+00  0.6899906659D-01
      0.1881288540D+01 -0.1608541517D+00  0.3164239610D+00
      0.5442492580D+00  0.1143456438D+01  0.7443082909D+00
 SP   1 1.00       0.000000000000
      0.1687144782D+00  0.1000000000D+01  0.1000000000D+01
 D   1 1.00       0.000000000000
      0.8000000000D+00  0.1000000000D+01
 ****
      9 0
 S   3 1.00       0.000000000000
      0.1873113696D+02  0.3349460434D-01
      0.2825394365D+01  0.2347269535D+00
      0.6401216923D+00  0.8137573261D+00
 S   1 1.00       0.000000000000
      0.1612777588D+00  0.1000000000D+01
 ****
     10 0
 S   6 1.00       0.000000000000
      0.3047524880D+04  0.1834737132D-02
      0.4573695180D+03  0.1403732281D-01
      0.1039486850D+03  0.6884262226D-01
      0.2921015530D+02  0.2321844432D+00
      0.9286662960D+01  0.4679413484D+00
      0.3163926960D+01  0.3623119853D+00
 SP   3 1.00       0.000000000000
      0.7868272350D+01 -0.1193324198D+00  0.6899906659D-01
      0.1881288540D+01 -0.1608541517D+00  0.3164239610D+00
      0.5442492580D+00  0.1143456438D+01  0.7443082909D+00
 SP   1 1.00       0.000000000000
      0.1687144782D+00  0.1000000000D+01  0.1000000000D+01
 D   1 1.00       0.000000000000
      0.8000000000D+00  0.1000000000D+01
 ****
     11 0
 S   3 1.00       0.000000000000
      0.1873113696D+02  0.3349460434D-01
      0.2825394365D+01  0.2347269535D+00
      0.6401216923D+00  0.8137573261D+00
 S   1 1.00       0.000000000000
      0.1612777588D+00  0.1000000000D+01
 ****
     12 0
 S   6 1.00       0.000000000000
      0.3047524880D+04  0.1834737132D-02
      0.4573695180D+03  0.1403732281D-01
      0.1039486850D+03  0.6884262226D-01
      0.2921015530D+02  0.2321844432D+00
      0.9286662960D+01  0.4679413484D+00
      0.3163926960D+01  0.3623119853D+00
 SP   3 1.00       0.000000000000
      0.7868272350D+01 -0.1193324198D+00  0.6899906659D-01
      0.1881288540D+01 -0.1608541517D+00  0.3164239610D+00
      0.5442492580D+00  0.1143456438D+01  0.7443082909D+00
 SP   1 1.00       0.000000000000
      0.1687144782D+00  0.1000000000D+01  0.1000000000D+01
 D   1 1.00       0.000000000000
      0.8000000000D+00  0.1000000000D+01
 ****
     13 0
 S   3 1.00       0.000000000000
      0.1873113696D+02  0.3349460434D-01
      0.2825394365D+01  0.2347269535D+00
      0.6401216923D+00  0.8137573261D+00
 S   1 1.00       0.000000000000
      0.1612777588D+00  0.1000000000D+01
 ****
     14 0
 S   3 1.00       0.000000000000
      0.1873113696D+02  0.3349460434D-01
      0.2825394365D+01  0.2347269535D+00
      0.6401216923D+00  0.8137573261D+00
 S   1 1.00       0.000000000000
      0.1612777588D+00  0.1000000000D+01
 ****
     15 0
 S   6 1.00       0.000000000000
      0.3047524880D+04  0.1834737132D-02
      0.4573695180D+03  0.1403732281D-01
      0.1039486850D+03  0.6884262226D-01
      0.2921015530D+02  0.2321844432D+00
      0.9286662960D+01  0.4679413484D+00
      0.3163926960D+01  0.3623119853D+00
 SP   3 1.00       0.000000000000
      0.7868272350D+01 -0.1193324198D+00  0.6899906659D-01
      0.1881288540D+01 -0.1608541517D+00  0.3164239610D+00
      0.5442492580D+00  0.1143456438D+01  0.7443082909D+00
 SP   1 1.00       0.000000000000
      0.1687144782D+00  0.1000000000D+01  0.1000000000D+01
 D   1 1.00       0.000000000000
      0.8000000000D+00  0.1000000000D+01
 ****
     16 0
 S   6 1.00       0.000000000000
      0.3047524880D+04  0.1834737132D-02
      0.4573695180D+03  0.1403732281D-01
      0.1039486850D+03  0.6884262226D-01
      0.2921015530D+02  0.2321844432D+00
      0.9286662960D+01  0.4679413484D+00
      0.3163926960D+01  0.3623119853D+00
 SP   3 1.00       0.000000000000
      0.7868272350D+01 -0.1193324198D+00  0.6899906659D-01
      0.1881288540D+01 -0.1608541517D+00  0.3164239610D+00
      0.5442492580D+00  0.1143456438D+01  0.7443082909D+00
 SP   1 1.00       0.000000000000
      0.1687144782D+00  0.1000000000D+01  0.1000000000D+01
 D   1 1.00       0.000000000000
      0.8000000000D+00  0.1000000000D+01
 ****
     17 0
 S   3 1.00       0.000000000000
      0.1873113696D+02  0.3349460434D-01
      0.2825394365D+01  0.2347269535D+00
      0.6401216923D+00  0.8137573261D+00
 S   1 1.00       0.000000000000
      0.1612777588D+00  0.1000000000D+01
 ****
     18 0
 S   3 1.00       0.000000000000
      0.1873113696D+02  0.3349460434D-01
      0.2825394365D+01  0.2347269535D+00
      0.6401216923D+00  0.8137573261D+00
 S   1 1.00       0.000000000000
      0.1612777588D+00  0.1000000000D+01
 ****
     19 0
 S   6 1.00       0.000000000000
      0.3047524880D+04  0.1834737132D-02
      0.4573695180D+03  0.1403732281D-01
      0.1039486850D+03  0.6884262226D-01
      0.2921015530D+02  0.2321844432D+00
      0.9286662960D+01  0.4679413484D+00
      0.3163926960D+01  0.3623119853D+00
 SP   3 1.00       0.000000000000
      0.7868272350D+01 -0.1193324198D+00  0.6899906659D-01
      0.1881288540D+01 -0.1608541517D+00  0.3164239610D+00
      0.5442492580D+00  0.1143456438D+01  0.7443082909D+00
 SP   1 1.00       0.000000000000
      0.1687144782D+00  0.1000000000D+01  0.1000000000D+01
 D   1 1.00       0.000000000000
      0.8000000000D+00  0.1000000000D+01
 ****
     20 0
 S   3 1.00       0.000000000000
      0.1873113696D+02  0.3349460434D-01
      0.2825394365D+01  0.2347269535D+00
      0.6401216923D+00  0.8137573261D+00
 S   1 1.00       0.000000000000
      0.1612777588D+00  0.1000000000D+01
 ****
     21 0
 S   3 1.00       0.000000000000
      0.1873113696D+02  0.3349460434D-01
      0.2825394365D+01  0.2347269535D+00
      0.6401216923D+00  0.8137573261D+00
 S   1 1.00       0.000000000000
      0.1612777588D+00  0.1000000000D+01
 ****
     22 0
 S   6 1.00       0.000000000000
      0.3047524880D+04  0.1834737132D-02
      0.4573695180D+03  0.1403732281D-01
      0.1039486850D+03  0.6884262226D-01
      0.2921015530D+02  0.2321844432D+00
      0.9286662960D+01  0.4679413484D+00
      0.3163926960D+01  0.3623119853D+00
 SP   3 1.00       0.000000000000
      0.7868272350D+01 -0.1193324198D+00  0.6899906659D-01
      0.1881288540D+01 -0.1608541517D+00  0.3164239610D+00
      0.5442492580D+00  0.1143456438D+01  0.7443082909D+00
 SP   1 1.00       0.000000000000
      0.1687144782D+00  0.1000000000D+01  0.1000000000D+01
 D   1 1.00       0.000000000000
      0.8000000000D+00  0.1000000000D+01
 ****
     23 0
 S   3 1.00       0.000000000000
      0.1873113696D+02  0.3349460434D-01
      0.2825394365D+01  0.2347269535D+00
      0.6401216923D+00  0.8137573261D+00
 S   1 1.00       0.000000000000
      0.1612777588D+00  0.1000000000D+01
 ****
     24 0
 S   3 1.00       0.000000000000
      0.1873113696D+02  0.3349460434D-01
      0.2825394365D+01  0.2347269535D+00
      0.6401216923D+00  0.8137573261D+00
 S   1 1.00       0.000000000000
      0.1612777588D+00  0.1000000000D+01
 ****
     25 0
 S   6 1.00       0.000000000000
      0.3047524880D+04  0.1834737132D-02
      0.4573695180D+03  0.1403732281D-01
      0.1039486850D+03  0.6884262226D-01
      0.2921015530D+02  0.2321844432D+00
      0.9286662960D+01  0.4679413484D+00
      0.3163926960D+01  0.3623119853D+00
 SP   3 1.00       0.000000000000
      0.7868272350D+01 -0.1193324198D+00  0.6899906659D-01
      0.1881288540D+01 -0.1608541517D+00  0.3164239610D+00
      0.5442492580D+00  0.1143456438D+01  0.7443082909D+00
 SP   1 1.00       0.000000000000
      0.1687144782D+00  0.1000000000D+01  0.1000000000D+01
 D   1 1.00       0.000000000000
      0.8000000000D+00  0.1000000000D+01
 ****
     26 0
 S   3 1.00       0.000000000000
      0.1873113696D+02  0.3349460434D-01
      0.2825394365D+01  0.2347269535D+00
      0.6401216923D+00  0.8137573261D+00
 S   1 1.00       0.000000000000
      0.1612777588D+00  0.1000000000D+01
 ****
     27 0
 S   3 1.00       0.000000000000
      0.1873113696D+02  0.3349460434D-01
      0.2825394365D+01  0.2347269535D+00
      0.6401216923D+00  0.8137573261D+00
 S   1 1.00       0.000000000000
      0.1612777588D+00  0.1000000000D+01
 ****
     28 0
 S   6 1.00       0.000000000000
      0.3047524880D+04  0.1834737132D-02
      0.4573695180D+03  0.1403732281D-01
      0.1039486850D+03  0.6884262226D-01
      0.2921015530D+02  0.2321844432D+00
      0.9286662960D+01  0.4679413484D+00
      0.3163926960D+01  0.3623119853D+00
 SP   3 1.00       0.000000000000
      0.7868272350D+01 -0.1193324198D+00  0.6899906659D-01
      0.1881288540D+01 -0.1608541517D+00  0.3164239610D+00
      0.5442492580D+00  0.1143456438D+01  0.7443082909D+00
 SP   1 1.00       0.000000000000
      0.1687144782D+00  0.1000000000D+01  0.1000000000D+01
 D   1 1.00       0.000000000000
      0.8000000000D+00  0.1000000000D+01
 ****
     29 0
 S   3 1.00       0.000000000000
      0.1873113696D+02  0.3349460434D-01
      0.2825394365D+01  0.2347269535D+00
      0.6401216923D+00  0.8137573261D+00
 S   1 1.00       0.000000000000
      0.1612777588D+00  0.1000000000D+01
 ****
     30 0
 S   6 1.00       0.000000000000
      0.3047524880D+04  0.1834737132D-02
      0.4573695180D+03  0.1403732281D-01
      0.1039486850D+03  0.6884262226D-01
      0.2921015530D+02  0.2321844432D+00
      0.9286662960D+01  0.4679413484D+00
      0.3163926960D+01  0.3623119853D+00
 SP   3 1.00       0.000000000000
      0.7868272350D+01 -0.1193324198D+00  0.6899906659D-01
      0.1881288540D+01 -0.1608541517D+00  0.3164239610D+00
      0.5442492580D+00  0.1143456438D+01  0.7443082909D+00
 SP   1 1.00       0.000000000000
      0.1687144782D+00  0.1000000000D+01  0.1000000000D+01
 D   1 1.00       0.000000000000
      0.8000000000D+00  0.1000000000D+01
 ****
     31 0
 S   3 1.00       0.000000000000
      0.1873113696D+02  0.3349460434D-01
      0.2825394365D+01  0.2347269535D+00
      0.6401216923D+00  0.8137573261D+00
 S   1 1.00       0.000000000000
      0.1612777588D+00  0.1000000000D+01
 ****
     32 0
 S   3 1.00       0.000000000000
      0.1873113696D+02  0.3349460434D-01
      0.2825394365D+01  0.2347269535D+00
      0.6401216923D+00  0.8137573261D+00
 S   1 1.00       0.000000000000
      0.1612777588D+00  0.1000000000D+01
 ****
     33 0
 S   3 1.00       0.000000000000
      0.1873113696D+02  0.3349460434D-01
      0.2825394365D+01  0.2347269535D+00
      0.6401216923D+00  0.8137573261D+00
 S   1 1.00       0.000000000000
      0.1612777588D+00  0.1000000000D+01
 ****
     34 0
 S   6 1.00       0.000000000000
      0.3047524880D+04  0.1834737132D-02
      0.4573695180D+03  0.1403732281D-01
      0.1039486850D+03  0.6884262226D-01
      0.2921015530D+02  0.2321844432D+00
      0.9286662960D+01  0.4679413484D+00
      0.3163926960D+01  0.3623119853D+00
 SP   3 1.00       0.000000000000
      0.7868272350D+01 -0.1193324198D+00  0.6899906659D-01
      0.1881288540D+01 -0.1608541517D+00  0.3164239610D+00
      0.5442492580D+00  0.1143456438D+01  0.7443082909D+00
 SP   1 1.00       0.000000000000
      0.1687144782D+00  0.1000000000D+01  0.1000000000D+01
 D   1 1.00       0.000000000000
      0.8000000000D+00  0.1000000000D+01
 ****
     35 0
 S   6 1.00       0.000000000000
      0.3047524880D+04  0.1834737132D-02
      0.4573695180D+03  0.1403732281D-01
      0.1039486850D+03  0.6884262226D-01
      0.2921015530D+02  0.2321844432D+00
      0.9286662960D+01  0.4679413484D+00
      0.3163926960D+01  0.3623119853D+00
 SP   3 1.00       0.000000000000
      0.7868272350D+01 -0.1193324198D+00  0.6899906659D-01
      0.1881288540D+01 -0.1608541517D+00  0.3164239610D+00
      0.5442492580D+00  0.1143456438D+01  0.7443082909D+00
 SP   1 1.00       0.000000000000
      0.1687144782D+00  0.1000000000D+01  0.1000000000D+01
 D   1 1.00       0.000000000000
      0.8000000000D+00  0.1000000000D+01
 ****
     36 0
 S   3 1.00       0.000000000000
      0.1873113696D+02  0.3349460434D-01
      0.2825394365D+01  0.2347269535D+00
      0.6401216923D+00  0.8137573261D+00
 S   1 1.00       0.000000000000
      0.1612777588D+00  0.1000000000D+01
 ****
     37 0
 S   3 1.00       0.000000000000
      0.1873113696D+02  0.3349460434D-01
      0.2825394365D+01  0.2347269535D+00
      0.6401216923D+00  0.8137573261D+00
 S   1 1.00       0.000000000000
      0.1612777588D+00  0.1000000000D+01
 ****
     38 0
 S   6 1.00       0.000000000000
      0.3047524880D+04  0.1834737132D-02
      0.4573695180D+03  0.1403732281D-01
      0.1039486850D+03  0.6884262226D-01
      0.2921015530D+02  0.2321844432D+00
      0.9286662960D+01  0.4679413484D+00
      0.3163926960D+01  0.3623119853D+00
 SP   3 1.00       0.000000000000
      0.7868272350D+01 -0.1193324198D+00  0.6899906659D-01
      0.1881288540D+01 -0.1608541517D+00  0.3164239610D+00
      0.5442492580D+00  0.1143456438D+01  0.7443082909D+00
 SP   1 1.00       0.000000000000
      0.1687144782D+00  0.1000000000D+01  0.1000000000D+01
 D   1 1.00       0.000000000000
      0.8000000000D+00  0.1000000000D+01
 ****
     39 0
 S   3 1.00       0.000000000000
      0.1873113696D+02  0.3349460434D-01
      0.2825394365D+01  0.2347269535D+00
      0.6401216923D+00  0.8137573261D+00
 S   1 1.00       0.000000000000
      0.1612777588D+00  0.1000000000D+01
 ****
     40 0
 S   6 1.00       0.000000000000
      0.3047524880D+04  0.1834737132D-02
      0.4573695180D+03  0.1403732281D-01
      0.1039486850D+03  0.6884262226D-01
      0.2921015530D+02  0.2321844432D+00
      0.9286662960D+01  0.4679413484D+00
      0.3163926960D+01  0.3623119853D+00
 SP   3 1.00       0.000000000000
      0.7868272350D+01 -0.1193324198D+00  0.6899906659D-01
      0.1881288540D+01 -0.1608541517D+00  0.3164239610D+00
      0.5442492580D+00  0.1143456438D+01  0.7443082909D+00
 SP   1 1.00       0.000000000000
      0.1687144782D+00  0.1000000000D+01  0.1000000000D+01
 D   1 1.00       0.000000000000
      0.8000000000D+00  0.1000000000D+01
 ****
     41 0
 S   3 1.00       0.000000000000
      0.1873113696D+02  0.3349460434D-01
      0.2825394365D+01  0.2347269535D+00
      0.6401216923D+00  0.8137573261D+00
 S   1 1.00       0.000000000000
      0.1612777588D+00  0.1000000000D+01
 ****
     42 0
 S   3 1.00       0.000000000000
      0.1873113696D+02  0.3349460434D-01
      0.2825394365D+01  0.2347269535D+00
      0.6401216923D+00  0.8137573261D+00
 S   1 1.00       0.000000000000
      0.1612777588D+00  0.1000000000D+01
 ****
     43 0
 S   3 1.00       0.000000000000
      0.1873113696D+02  0.3349460434D-01
      0.2825394365D+01  0.2347269535D+00
      0.6401216923D+00  0.8137573261D+00
 S   1 1.00       0.000000000000
      0.1612777588D+00  0.1000000000D+01
 ****
     44 0
 S   6 1.00       0.000000000000
      0.3047524880D+04  0.1834737132D-02
      0.4573695180D+03  0.1403732281D-01
      0.1039486850D+03  0.6884262226D-01
      0.2921015530D+02  0.2321844432D+00
      0.9286662960D+01  0.4679413484D+00
      0.3163926960D+01  0.3623119853D+00
 SP   3 1.00       0.000000000000
      0.7868272350D+01 -0.1193324198D+00  0.6899906659D-01
      0.1881288540D+01 -0.1608541517D+00  0.3164239610D+00
      0.5442492580D+00  0.1143456438D+01  0.7443082909D+00
 SP   1 1.00       0.000000000000
      0.1687144782D+00  0.1000000000D+01  0.1000000000D+01
 D   1 1.00       0.000000000000
      0.8000000000D+00  0.1000000000D+01
 ****
     45 0
 S   3 1.00       0.000000000000
      0.1873113696D+02  0.3349460434D-01
      0.2825394365D+01  0.2347269535D+00
      0.6401216923D+00  0.8137573261D+00
 S   1 1.00       0.000000000000
      0.1612777588D+00  0.1000000000D+01
 ****
     46 0
 S   3 1.00       0.000000000000
      0.1873113696D+02  0.3349460434D-01
      0.2825394365D+01  0.2347269535D+00
      0.6401216923D+00  0.8137573261D+00
 S   1 1.00       0.000000000000
      0.1612777588D+00  0.1000000000D+01
 ****
     47 0
 S   6 1.00       0.000000000000
      0.3047524880D+04  0.1834737132D-02
      0.4573695180D+03  0.1403732281D-01
      0.1039486850D+03  0.6884262226D-01
      0.2921015530D+02  0.2321844432D+00
      0.9286662960D+01  0.4679413484D+00
      0.3163926960D+01  0.3623119853D+00
 SP   3 1.00       0.000000000000
      0.7868272350D+01 -0.1193324198D+00  0.6899906659D-01
      0.1881288540D+01 -0.1608541517D+00  0.3164239610D+00
      0.5442492580D+00  0.1143456438D+01  0.7443082909D+00
 SP   1 1.00       0.000000000000
      0.1687144782D+00  0.1000000000D+01  0.1000000000D+01
 D   1 1.00       0.000000000000
      0.8000000000D+00  0.1000000000D+01
 ****
     48 0
 S   3 1.00       0.000000000000
      0.1873113696D+02  0.3349460434D-01
      0.2825394365D+01  0.2347269535D+00
      0.6401216923D+00  0.8137573261D+00
 S   1 1.00       0.000000000000
      0.1612777588D+00  0.1000000000D+01
 ****
     49 0
 S   3 1.00       0.000000000000
      0.1873113696D+02  0.3349460434D-01
      0.2825394365D+01  0.2347269535D+00
      0.6401216923D+00  0.8137573261D+00
 S   1 1.00       0.000000000000
      0.1612777588D+00  0.1000000000D+01
 ****
     50 0
 S   6 1.00       0.000000000000
      0.3047524880D+04  0.1834737132D-02
      0.4573695180D+03  0.1403732281D-01
      0.1039486850D+03  0.6884262226D-01
      0.2921015530D+02  0.2321844432D+00
      0.9286662960D+01  0.4679413484D+00
      0.3163926960D+01  0.3623119853D+00
 SP   3 1.00       0.000000000000
      0.7868272350D+01 -0.1193324198D+00  0.6899906659D-01
      0.1881288540D+01 -0.1608541517D+00  0.3164239610D+00
      0.5442492580D+00  0.1143456438D+01  0.7443082909D+00
 SP   1 1.00       0.000000000000
      0.1687144782D+00  0.1000000000D+01  0.1000000000D+01
 D   1 1.00       0.000000000000
      0.8000000000D+00  0.1000000000D+01
 ****
     51 0
 S   3 1.00       0.000000000000
      0.1873113696D+02  0.3349460434D-01
      0.2825394365D+01  0.2347269535D+00
      0.6401216923D+00  0.8137573261D+00
 S   1 1.00       0.000000000000
      0.1612777588D+00  0.1000000000D+01
 ****
     52 0
 S   3 1.00       0.000000000000
      0.1873113696D+02  0.3349460434D-01
      0.2825394365D+01  0.2347269535D+00
      0.6401216923D+00  0.8137573261D+00
 S   1 1.00       0.000000000000
      0.1612777588D+00  0.1000000000D+01
 ****
     53 0
 S   6 1.00       0.000000000000
      0.3047524880D+04  0.1834737132D-02
      0.4573695180D+03  0.1403732281D-01
      0.1039486850D+03  0.6884262226D-01
      0.2921015530D+02  0.2321844432D+00
      0.9286662960D+01  0.4679413484D+00
      0.3163926960D+01  0.3623119853D+00
 SP   3 1.00       0.000000000000
      0.7868272350D+01 -0.1193324198D+00  0.6899906659D-01
      0.1881288540D+01 -0.1608541517D+00  0.3164239610D+00
      0.5442492580D+00  0.1143456438D+01  0.7443082909D+00
 SP   1 1.00       0.000000000000
      0.1687144782D+00  0.1000000000D+01  0.1000000000D+01
 D   1 1.00       0.000000000000
      0.8000000000D+00  0.1000000000D+01
 ****
     54 0
 S   3 1.00       0.000000000000
      0.1873113696D+02  0.3349460434D-01
      0.2825394365D+01  0.2347269535D+00
      0.6401216923D+00  0.8137573261D+00
 S   1 1.00       0.000000000000
      0.1612777588D+00  0.1000000000D+01
 ****
     55 0
 S   6 1.00       0.000000000000
      0.3047524880D+04  0.1834737132D-02
      0.4573695180D+03  0.1403732281D-01
      0.1039486850D+03  0.6884262226D-01
      0.2921015530D+02  0.2321844432D+00
      0.9286662960D+01  0.4679413484D+00
      0.3163926960D+01  0.3623119853D+00
 SP   3 1.00       0.000000000000
      0.7868272350D+01 -0.1193324198D+00  0.6899906659D-01
      0.1881288540D+01 -0.1608541517D+00  0.3164239610D+00
      0.5442492580D+00  0.1143456438D+01  0.7443082909D+00
 SP   1 1.00       0.000000000000
      0.1687144782D+00  0.1000000000D+01  0.1000000000D+01
 D   1 1.00       0.000000000000
      0.8000000000D+00  0.1000000000D+01
 ****
     56 0
 S   3 1.00       0.000000000000
      0.1873113696D+02  0.3349460434D-01
      0.2825394365D+01  0.2347269535D+00
      0.6401216923D+00  0.8137573261D+00
 S   1 1.00       0.000000000000
      0.1612777588D+00  0.1000000000D+01
 ****
     57 0
 S   3 1.00       0.000000000000
      0.1873113696D+02  0.3349460434D-01
      0.2825394365D+01  0.2347269535D+00
      0.6401216923D+00  0.8137573261D+00
 S   1 1.00       0.000000000000
      0.1612777588D+00  0.1000000000D+01
 ****
     58 0
 S   3 1.00       0.000000000000
      0.1873113696D+02  0.3349460434D-01
      0.2825394365D+01  0.2347269535D+00
      0.6401216923D+00  0.8137573261D+00
 S   1 1.00       0.000000000000
      0.1612777588D+00  0.1000000000D+01
 ****
     59 0
 S   6 1.00       0.000000000000
      0.3047524880D+04  0.1834737132D-02
      0.4573695180D+03  0.1403732281D-01
      0.1039486850D+03  0.6884262226D-01
      0.2921015530D+02  0.2321844432D+00
      0.9286662960D+01  0.4679413484D+00
      0.3163926960D+01  0.3623119853D+00
 SP   3 1.00       0.000000000000
      0.7868272350D+01 -0.1193324198D+00  0.6899906659D-01
      0.1881288540D+01 -0.1608541517D+00  0.3164239610D+00
      0.5442492580D+00  0.1143456438D+01  0.7443082909D+00
 SP   1 1.00       0.000000000000
      0.1687144782D+00  0.1000000000D+01  0.1000000000D+01
 D   1 1.00       0.000000000000
      0.8000000000D+00  0.1000000000D+01
 ****
     60 0
 S   3 1.00       0.000000000000
      0.1873113696D+02  0.3349460434D-01
      0.2825394365D+01  0.2347269535D+00
      0.6401216923D+00  0.8137573261D+00
 S   1 1.00       0.000000000000
      0.1612777588D+00  0.1000000000D+01
 ****
     61 0
 S   3 1.00       0.000000000000
      0.1873113696D+02  0.3349460434D-01
      0.2825394365D+01  0.2347269535D+00
      0.6401216923D+00  0.8137573261D+00
 S   1 1.00       0.000000000000
      0.1612777588D+00  0.1000000000D+01
 ****
     62 0
 S   6 1.00       0.000000000000
      0.3047524880D+04  0.1834737132D-02
      0.4573695180D+03  0.1403732281D-01
      0.1039486850D+03  0.6884262226D-01
      0.2921015530D+02  0.2321844432D+00
      0.9286662960D+01  0.4679413484D+00
      0.3163926960D+01  0.3623119853D+00
 SP   3 1.00       0.000000000000
      0.7868272350D+01 -0.1193324198D+00  0.6899906659D-01
      0.1881288540D+01 -0.1608541517D+00  0.3164239610D+00
      0.5442492580D+00  0.1143456438D+01  0.7443082909D+00
 SP   1 1.00       0.000000000000
      0.1687144782D+00  0.1000000000D+01  0.1000000000D+01
 D   1 1.00       0.000000000000
      0.8000000000D+00  0.1000000000D+01
 ****
     63 0
 S   3 1.00       0.000000000000
      0.1873113696D+02  0.3349460434D-01
      0.2825394365D+01  0.2347269535D+00
      0.6401216923D+00  0.8137573261D+00
 S   1 1.00       0.000000000000
      0.1612777588D+00  0.1000000000D+01
 ****
     64 0
 S   3 1.00       0.000000000000
      0.1873113696D+02  0.3349460434D-01
      0.2825394365D+01  0.2347269535D+00
      0.6401216923D+00  0.8137573261D+00
 S   1 1.00       0.000000000000
      0.1612777588D+00  0.1000000000D+01
 ****
     65 0
 S   6 1.00       0.000000000000
      0.3047524880D+04  0.1834737132D-02
      0.4573695180D+03  0.1403732281D-01
      0.1039486850D+03  0.6884262226D-01
      0.2921015530D+02  0.2321844432D+00
      0.9286662960D+01  0.4679413484D+00
      0.3163926960D+01  0.3623119853D+00
 SP   3 1.00       0.000000000000
      0.7868272350D+01 -0.1193324198D+00  0.6899906659D-01
      0.1881288540D+01 -0.1608541517D+00  0.3164239610D+00
      0.5442492580D+00  0.1143456438D+01  0.7443082909D+00
 SP   1 1.00       0.000000000000
      0.1687144782D+00  0.1000000000D+01  0.1000000000D+01
 D   1 1.00       0.000000000000
      0.8000000000D+00  0.1000000000D+01
 ****
     66 0
 S   3 1.00       0.000000000000
      0.1873113696D+02  0.3349460434D-01
      0.2825394365D+01  0.2347269535D+00
      0.6401216923D+00  0.8137573261D+00
 S   1 1.00       0.000000000000
      0.1612777588D+00  0.1000000000D+01
 ****
     67 0
 S   6 1.00       0.000000000000
      0.3047524880D+04  0.1834737132D-02
      0.4573695180D+03  0.1403732281D-01
      0.1039486850D+03  0.6884262226D-01
      0.2921015530D+02  0.2321844432D+00
      0.9286662960D+01  0.4679413484D+00
      0.3163926960D+01  0.3623119853D+00
 SP   3 1.00       0.000000000000
      0.7868272350D+01 -0.1193324198D+00  0.6899906659D-01
      0.1881288540D+01 -0.1608541517D+00  0.3164239610D+00
      0.5442492580D+00  0.1143456438D+01  0.7443082909D+00
 SP   1 1.00       0.000000000000
      0.1687144782D+00  0.1000000000D+01  0.1000000000D+01
 D   1 1.00       0.000000000000
      0.8000000000D+00  0.1000000000D+01
 ****
     68 0
 S   3 1.00       0.000000000000
      0.1873113696D+02  0.3349460434D-01
      0.2825394365D+01  0.2347269535D+00
      0.6401216923D+00  0.8137573261D+00
 S   1 1.00       0.000000000000
      0.1612777588D+00  0.1000000000D+01
 ****
     69 0
 S   3 1.00       0.000000000000
      0.1873113696D+02  0.3349460434D-01
      0.2825394365D+01  0.2347269535D+00
      0.6401216923D+00  0.8137573261D+00
 S   1 1.00       0.000000000000
      0.1612777588D+00  0.1000000000D+01
 ****
     70 0
 S   3 1.00       0.000000000000
      0.1873113696D+02  0.3349460434D-01
      0.2825394365D+01  0.2347269535D+00
      0.6401216923D+00  0.8137573261D+00
 S   1 1.00       0.000000000000
      0.1612777588D+00  0.1000000000D+01
 ****
     71 0
 S   6 1.00       0.000000000000
      0.3047524880D+04  0.1834737132D-02
      0.4573695180D+03  0.1403732281D-01
      0.1039486850D+03  0.6884262226D-01
      0.2921015530D+02  0.2321844432D+00
      0.9286662960D+01  0.4679413484D+00
      0.3163926960D+01  0.3623119853D+00
 SP   3 1.00       0.000000000000
      0.7868272350D+01 -0.1193324198D+00  0.6899906659D-01
      0.1881288540D+01 -0.1608541517D+00  0.3164239610D+00
      0.5442492580D+00  0.1143456438D+01  0.7443082909D+00
 SP   1 1.00       0.000000000000
      0.1687144782D+00  0.1000000000D+01  0.1000000000D+01
 D   1 1.00       0.000000000000
      0.8000000000D+00  0.1000000000D+01
 ****
     72 0
 S   3 1.00       0.000000000000
      0.1873113696D+02  0.3349460434D-01
      0.2825394365D+01  0.2347269535D+00
      0.6401216923D+00  0.8137573261D+00
 S   1 1.00       0.000000000000
      0.1612777588D+00  0.1000000000D+01
 ****
     73 0
 S   3 1.00       0.000000000000
      0.1873113696D+02  0.3349460434D-01
      0.2825394365D+01  0.2347269535D+00
      0.6401216923D+00  0.8137573261D+00
 S   1 1.00       0.000000000000
      0.1612777588D+00  0.1000000000D+01
 ****
     74 0
 S   3 1.00       0.000000000000
      0.1873113696D+02  0.3349460434D-01
      0.2825394365D+01  0.2347269535D+00
      0.6401216923D+00  0.8137573261D+00
 S   1 1.00       0.000000000000
      0.1612777588D+00  0.1000000000D+01
 ****

 AO basis set (Overlap normalization):
 Atom O1       Shell     1 S   6     bf    1 -     1          9.273444075711         -0.346357169252        -13.784354468772
      0.5484671660D+04  0.1831074430D-02
      0.8252349460D+03  0.1395017220D-01
      0.1880469580D+03  0.6844507810D-01
      0.5296450000D+02  0.2327143360D+00
      0.1689757040D+02  0.4701928980D+00
      0.5799635340D+01  0.3585208530D+00
 Atom O1       Shell     2 SP   3    bf    2 -     5          9.273444075711         -0.346357169252        -13.784354468772
      0.1553961625D+02 -0.1107775495D+00  0.7087426823D-01
      0.3599933586D+01 -0.1480262627D+00  0.3397528391D+00
      0.1013761750D+01  0.1130767015D+01  0.7271585773D+00
 Atom O1       Shell     3 SP   1    bf    6 -     9          9.273444075711         -0.346357169252        -13.784354468772
      0.2700058226D+00  0.1000000000D+01  0.1000000000D+01
 Atom O1       Shell     4 D   1     bf   10 -    15          9.273444075711         -0.346357169252        -13.784354468772
      0.8000000000D+00  0.1000000000D+01
 Atom H2       Shell     5 S   3     bf   16 -    16         11.073227975206         -0.524280213691        -13.530796817721
      0.1873113696D+02  0.3349460434D-01
      0.2825394365D+01  0.2347269535D+00
      0.6401216923D+00  0.8137573261D+00
 Atom H2       Shell     6 S   1     bf   17 -    17         11.073227975206         -0.524280213691        -13.530796817721
      0.1612777588D+00  0.1000000000D+01
 Atom C3       Shell     7 S   6     bf   18 -    18          0.000000000000          0.000000000000          0.000000000000
      0.3047524880D+04  0.1834737132D-02
      0.4573695180D+03  0.1403732281D-01
      0.1039486850D+03  0.6884262226D-01
      0.2921015530D+02  0.2321844432D+00
      0.9286662960D+01  0.4679413484D+00
      0.3163926960D+01  0.3623119853D+00
 Atom C3       Shell     8 SP   3    bf   19 -    22          0.000000000000          0.000000000000          0.000000000000
      0.7868272350D+01 -0.1193324198D+00  0.6899906659D-01
      0.1881288540D+01 -0.1608541517D+00  0.3164239610D+00
      0.5442492580D+00  0.1143456438D+01  0.7443082909D+00
 Atom C3       Shell     9 SP   1    bf   23 -    26          0.000000000000          0.000000000000          0.000000000000
      0.1687144782D+00  0.1000000000D+01  0.1000000000D+01
 Atom C3       Shell    10 D   1     bf   27 -    32          0.000000000000          0.000000000000          0.000000000000
      0.8000000000D+00  0.1000000000D+01
 Atom C4       Shell    11 S   6     bf   33 -    33          2.928935760725          0.000000000000          0.000000000000
      0.3047524880D+04  0.1834737132D-02
      0.4573695180D+03  0.1403732281D-01
      0.1039486850D+03  0.6884262226D-01
      0.2921015530D+02  0.2321844432D+00
      0.9286662960D+01  0.4679413484D+00
      0.3163926960D+01  0.3623119853D+00
 Atom C4       Shell    12 SP   3    bf   34 -    37          2.928935760725          0.000000000000          0.000000000000
      0.7868272350D+01 -0.1193324198D+00  0.6899906659D-01
      0.1881288540D+01 -0.1608541517D+00  0.3164239610D+00
      0.5442492580D+00  0.1143456438D+01  0.7443082909D+00
 Atom C4       Shell    13 SP   1    bf   38 -    41          2.928935760725          0.000000000000          0.000000000000
      0.1687144782D+00  0.1000000000D+01  0.1000000000D+01
 Atom C4       Shell    14 D   1     bf   42 -    47          2.928935760725          0.000000000000          0.000000000000
      0.8000000000D+00  0.1000000000D+01
 Atom H5       Shell    15 S   3     bf   48 -    48          3.474761592434          2.012548032516          0.000000000000
      0.1873113696D+02  0.3349460434D-01
      0.2825394365D+01  0.2347269535D+00
      0.6401216923D+00  0.8137573261D+00
 Atom H5       Shell    16 S   1     bf   49 -    49          3.474761592434          2.012548032516          0.000000000000
      0.1612777588D+00  0.1000000000D+01
 Atom C6       Shell    17 S   6     bf   50 -    50          4.145087891908         -1.128826658260         -2.375744721413
      0.3047524880D+04  0.1834737132D-02
      0.4573695180D+03  0.1403732281D-01
      0.1039486850D+03  0.6884262226D-01
      0.2921015530D+02  0.2321844432D+00
      0.9286662960D+01  0.4679413484D+00
      0.3163926960D+01  0.3623119853D+00
 Atom C6       Shell    18 SP   3    bf   51 -    54          4.145087891908         -1.128826658260         -2.375744721413
      0.7868272350D+01 -0.1193324198D+00  0.6899906659D-01
      0.1881288540D+01 -0.1608541517D+00  0.3164239610D+00
      0.5442492580D+00  0.1143456438D+01  0.7443082909D+00
 Atom C6       Shell    19 SP   1    bf   55 -    58          4.145087891908         -1.128826658260         -2.375744721413
      0.1687144782D+00  0.1000000000D+01  0.1000000000D+01
 Atom C6       Shell    20 D   1     bf   59 -    64          4.145087891908         -1.128826658260         -2.375744721413
      0.8000000000D+00  0.1000000000D+01
 Atom H7       Shell    21 S   3     bf   65 -    65          3.632786330920         -3.136309695616         -2.523710750050
      0.1873113696D+02  0.3349460434D-01
      0.2825394365D+01  0.2347269535D+00
      0.6401216923D+00  0.8137573261D+00
 Atom H7       Shell    22 S   1     bf   66 -    66          3.632786330920         -3.136309695616         -2.523710750050
      0.1612777588D+00  0.1000000000D+01
 Atom C8       Shell    23 S   6     bf   67 -    67          3.170548811939          0.296210678494         -4.751645647589
      0.3047524880D+04  0.1834737132D-02
      0.4573695180D+03  0.1403732281D-01
      0.1039486850D+03  0.6884262226D-01
      0.2921015530D+02  0.2321844432D+00
      0.9286662960D+01  0.4679413484D+00
      0.3163926960D+01  0.3623119853D+00
 Atom C8       Shell    24 SP   3    bf   68 -    71          3.170548811939          0.296210678494         -4.751645647589
      0.7868272350D+01 -0.1193324198D+00  0.6899906659D-01
      0.1881288540D+01 -0.1608541517D+00  0.3164239610D+00
      0.5442492580D+00  0.1143456438D+01  0.7443082909D+00
 Atom C8       Shell    25 SP   1    bf   72 -    75          3.170548811939          0.296210678494         -4.751645647589
      0.1687144782D+00  0.1000000000D+01  0.1000000000D+01
 Atom C8       Shell    26 D   1     bf   76 -    81          3.170548811939          0.296210678494         -4.751645647589
      0.8000000000D+00  0.1000000000D+01
 Atom H9       Shell    27 S   3     bf   82 -    82          3.960877218399          2.218386394849         -4.601479410816
      0.1873113696D+02  0.3349460434D-01
      0.2825394365D+01  0.2347269535D+00
      0.6401216923D+00  0.8137573261D+00
 Atom H9       Shell    28 S   1     bf   83 -    83          3.960877218399          2.218386394849         -4.601479410816
      0.1612777588D+00  0.1000000000D+01
 Atom C10      Shell    29 S   6     bf   84 -    84         -0.491751998718          1.223972536016          2.637638389074
      0.3047524880D+04  0.1834737132D-02
      0.4573695180D+03  0.1403732281D-01
      0.1039486850D+03  0.6884262226D-01
      0.2921015530D+02  0.2321844432D+00
      0.9286662960D+01  0.4679413484D+00
      0.3163926960D+01  0.3623119853D+00
 Atom C10      Shell    30 SP   3    bf   85 -    88         -0.491751998718          1.223972536016          2.637638389074
      0.7868272350D+01 -0.1193324198D+00  0.6899906659D-01
      0.1881288540D+01 -0.1608541517D+00  0.3164239610D+00
      0.5442492580D+00  0.1143456438D+01  0.7443082909D+00
 Atom C10      Shell    31 SP   1    bf   89 -    92         -0.491751998718          1.223972536016          2.637638389074
      0.1687144782D+00  0.1000000000D+01  0.1000000000D+01
 Atom C10      Shell    32 D   1     bf   93 -    98         -0.491751998718          1.223972536016          2.637638389074
      0.8000000000D+00  0.1000000000D+01
 Atom H11      Shell    33 S   3     bf   99 -    99          0.129618904379          3.193253228918          2.402320677013
      0.1873113696D+02  0.3349460434D-01
      0.2825394365D+01  0.2347269535D+00
      0.6401216923D+00  0.8137573261D+00
 Atom H11      Shell    34 S   1     bf  100 -   100          0.129618904379          3.193253228918          2.402320677013
      0.1612777588D+00  0.1000000000D+01
 Atom C12      Shell    35 S   6     bf  101 -   101         -0.860569016594          1.593690858771         -2.275153200963
      0.3047524880D+04  0.1834737132D-02
      0.4573695180D+03  0.1403732281D-01
      0.1039486850D+03  0.6884262226D-01
      0.2921015530D+02  0.2321844432D+00
      0.9286662960D+01  0.4679413484D+00
      0.3163926960D+01  0.3623119853D+00
 Atom C12      Shell    36 SP   3    bf  102 -   105         -0.860569016594          1.593690858771         -2.275153200963
      0.7868272350D+01 -0.1193324198D+00  0.6899906659D-01
      0.1881288540D+01 -0.1608541517D+00  0.3164239610D+00
      0.5442492580D+00  0.1143456438D+01  0.7443082909D+00
 Atom C12      Shell    37 SP   1    bf  106 -   109         -0.860569016594          1.593690858771         -2.275153200963
      0.1687144782D+00  0.1000000000D+01  0.1000000000D+01
 Atom C12      Shell    38 D   1     bf  110 -   115         -0.860569016594          1.593690858771         -2.275153200963
      0.8000000000D+00  0.1000000000D+01
 Atom H13      Shell    39 S   3     bf  116 -   116         -0.245458341538          3.557208151530         -1.983866487367
      0.1873113696D+02  0.3349460434D-01
      0.2825394365D+01  0.2347269535D+00
      0.6401216923D+00  0.8137573261D+00
 Atom H13      Shell    40 S   1     bf  117 -   117         -0.245458341538          3.557208151530         -1.983866487367
      0.1612777588D+00  0.1000000000D+01
 Atom H14      Shell    41 S   3     bf  118 -   118         -2.930363278743          1.638132568690         -2.424938903584
      0.1873113696D+02  0.3349460434D-01
      0.2825394365D+01  0.2347269535D+00
      0.6401216923D+00  0.8137573261D+00
 Atom H14      Shell    42 S   1     bf  119 -   119         -2.930363278743          1.638132568690         -2.424938903584
      0.1612777588D+00  0.1000000000D+01
 Atom C15      Shell    43 S   6     bf  120 -   120          4.258820756859         -0.821352040384         -7.274925918026
      0.3047524880D+04  0.1834737132D-02
      0.4573695180D+03  0.1403732281D-01
      0.1039486850D+03  0.6884262226D-01
      0.2921015530D+02  0.2321844432D+00
      0.9286662960D+01  0.4679413484D+00
      0.3163926960D+01  0.3623119853D+00
 Atom C15      Shell    44 SP   3    bf  121 -   124          4.258820756859         -0.821352040384         -7.274925918026
      0.7868272350D+01 -0.1193324198D+00  0.6899906659D-01
      0.1881288540D+01 -0.1608541517D+00  0.3164239610D+00
      0.5442492580D+00  0.1143456438D+01  0.7443082909D+00
 Atom C15      Shell    45 SP   1    bf  125 -   128          4.258820756859         -0.821352040384         -7.274925918026
      0.1687144782D+00  0.1000000000D+01  0.1000000000D+01
 Atom C15      Shell    46 D   1     bf  129 -   134          4.258820756859         -0.821352040384         -7.274925918026
      0.8000000000D+00  0.1000000000D+01
 Atom C16      Shell    47 S   6     bf  135 -   135          3.645053903851         -1.037597861524          2.625034369302
      0.3047524880D+04  0.1834737132D-02
      0.4573695180D+03  0.1403732281D-01
      0.1039486850D+03  0.6884262226D-01
      0.2921015530D+02  0.2321844432D+00
      0.9286662960D+01  0.4679413484D+00
      0.3163926960D+01  0.3623119853D+00
 Atom C16      Shell    48 SP   3    bf  136 -   139          3.645053903851         -1.037597861524          2.625034369302
      0.7868272350D+01 -0.1193324198D+00  0.6899906659D-01
      0.1881288540D+01 -0.1608541517D+00  0.3164239610D+00
      0.5442492580D+00  0.1143456438D+01  0.7443082909D+00
 Atom C16      Shell    49 SP   1    bf  140 -   143          3.645053903851         -1.037597861524          2.625034369302
      0.1687144782D+00  0.1000000000D+01  0.1000000000D+01
 Atom C16      Shell    50 D   1     bf  144 -   149          3.645053903851         -1.037597861524          2.625034369302
      0.8000000000D+00  0.1000000000D+01
 Atom H17      Shell    51 S   3     bf  150 -   150          5.511213696771         -0.390982466065          3.239553938023
      0.1873113696D+02  0.3349460434D-01
      0.2825394365D+01  0.2347269535D+00
      0.6401216923D+00  0.8137573261D+00
 Atom H17      Shell    52 S   1     bf  151 -   151          5.511213696771         -0.390982466065          3.239553938023
      0.1612777588D+00  0.1000000000D+01
 Atom H18      Shell    53 S   3     bf  152 -   152          3.711131976437         -3.109675933294          2.604197077331
      0.1873113696D+02  0.3349460434D-01
      0.2825394365D+01  0.2347269535D+00
      0.6401216923D+00  0.8137573261D+00
 Atom H18      Shell    54 S   1     bf  153 -   153          3.711131976437         -3.109675933294          2.604197077331
      0.1612777588D+00  0.1000000000D+01
 Atom C19      Shell    55 S   6     bf  154 -   154          0.256460894001          0.588290510148         -4.774702857541
      0.3047524880D+04  0.1834737132D-02
      0.4573695180D+03  0.1403732281D-01
      0.1039486850D+03  0.6884262226D-01
      0.2921015530D+02  0.2321844432D+00
      0.9286662960D+01  0.4679413484D+00
      0.3163926960D+01  0.3623119853D+00
 Atom C19      Shell    56 SP   3    bf  155 -   158          0.256460894001          0.588290510148         -4.774702857541
      0.7868272350D+01 -0.1193324198D+00  0.6899906659D-01
      0.1881288540D+01 -0.1608541517D+00  0.3164239610D+00
      0.5442492580D+00  0.1143456438D+01  0.7443082909D+00
 Atom C19      Shell    57 SP   1    bf  159 -   162          0.256460894001          0.588290510148         -4.774702857541
      0.1687144782D+00  0.1000000000D+01  0.1000000000D+01
 Atom C19      Shell    58 D   1     bf  163 -   168          0.256460894001          0.588290510148         -4.774702857541
      0.8000000000D+00  0.1000000000D+01
 Atom H20      Shell    59 S   3     bf  169 -   169         -0.629725987043         -1.229250200955         -5.211463958072
      0.1873113696D+02  0.3349460434D-01
      0.2825394365D+01  0.2347269535D+00
      0.6401216923D+00  0.8137573261D+00
 Atom H20      Shell    60 S   1     bf  170 -   170         -0.629725987043         -1.229250200955         -5.211463958072
      0.1612777588D+00  0.1000000000D+01
 Atom H21      Shell    61 S   3     bf  171 -   171         -0.296637964470          1.869225741289         -6.304649720062
      0.1873113696D+02  0.3349460434D-01
      0.2825394365D+01  0.2347269535D+00
      0.6401216923D+00  0.8137573261D+00
 Atom H21      Shell    62 S   1     bf  172 -   172         -0.296637964470          1.869225741289         -6.304649720062
      0.1612777588D+00  0.1000000000D+01
 Atom C22      Shell    63 S   6     bf  173 -   173          1.491442218577         -0.073212714703          4.395408838936
      0.3047524880D+04  0.1834737132D-02
      0.4573695180D+03  0.1403732281D-01
      0.1039486850D+03  0.6884262226D-01
      0.2921015530D+02  0.2321844432D+00
      0.9286662960D+01  0.4679413484D+00
      0.3163926960D+01  0.3623119853D+00
 Atom C22      Shell    64 SP   3    bf  174 -   177          1.491442218577         -0.073212714703          4.395408838936
      0.7868272350D+01 -0.1193324198D+00  0.6899906659D-01
      0.1881288540D+01 -0.1608541517D+00  0.3164239610D+00
      0.5442492580D+00  0.1143456438D+01  0.7443082909D+00
 Atom C22      Shell    65 SP   1    bf  178 -   181          1.491442218577         -0.073212714703          4.395408838936
      0.1687144782D+00  0.1000000000D+01  0.1000000000D+01
 Atom C22      Shell    66 D   1     bf  182 -   187          1.491442218577         -0.073212714703          4.395408838936
      0.8000000000D+00  0.1000000000D+01
 Atom H23      Shell    67 S   3     bf  188 -   188          0.658007817320         -1.649405295299          5.440408474263
      0.1873113696D+02  0.3349460434D-01
      0.2825394365D+01  0.2347269535D+00
      0.6401216923D+00  0.8137573261D+00
 Atom H23      Shell    68 S   1     bf  189 -   189          0.658007817320         -1.649405295299          5.440408474263
      0.1612777588D+00  0.1000000000D+01
 Atom H24      Shell    69 S   3     bf  190 -   190          2.206123640719          1.253319642709          5.813498692049
      0.1873113696D+02  0.3349460434D-01
      0.2825394365D+01  0.2347269535D+00
      0.6401216923D+00  0.8137573261D+00
 Atom H24      Shell    70 S   1     bf  191 -   191          2.206123640719          1.253319642709          5.813498692049
      0.1612777588D+00  0.1000000000D+01
 Atom C25      Shell    71 S   6     bf  192 -   192          7.041411439333         -0.957032789355         -2.247513253961
      0.3047524880D+04  0.1834737132D-02
      0.4573695180D+03  0.1403732281D-01
      0.1039486850D+03  0.6884262226D-01
      0.2921015530D+02  0.2321844432D+00
      0.9286662960D+01  0.4679413484D+00
      0.3163926960D+01  0.3623119853D+00
 Atom C25      Shell    72 SP   3    bf  193 -   196          7.041411439333         -0.957032789355         -2.247513253961
      0.7868272350D+01 -0.1193324198D+00  0.6899906659D-01
      0.1881288540D+01 -0.1608541517D+00  0.3164239610D+00
      0.5442492580D+00  0.1143456438D+01  0.7443082909D+00
 Atom C25      Shell    73 SP   1    bf  197 -   200          7.041411439333         -0.957032789355         -2.247513253961
      0.1687144782D+00  0.1000000000D+01  0.1000000000D+01
 Atom C25      Shell    74 D   1     bf  201 -   206          7.041411439333         -0.957032789355         -2.247513253961
      0.8000000000D+00  0.1000000000D+01
 Atom H26      Shell    75 S   3     bf  207 -   207          7.776762364663         -2.345971386991         -0.892086643826
      0.1873113696D+02  0.3349460434D-01
      0.2825394365D+01  0.2347269535D+00
      0.6401216923D+00  0.8137573261D+00
 Atom H26      Shell    76 S   1     bf  208 -   208          7.776762364663         -2.345971386991         -0.892086643826
      0.1612777588D+00  0.1000000000D+01
 Atom H27      Shell    77 S   3     bf  209 -   209          7.592940388922          0.901723869158         -1.483305889329
      0.1873113696D+02  0.3349460434D-01
      0.2825394365D+01  0.2347269535D+00
      0.6401216923D+00  0.8137573261D+00
 Atom H27      Shell    78 S   1     bf  210 -   210          7.592940388922          0.901723869158         -1.483305889329
      0.1612777588D+00  0.1000000000D+01
 Atom C28      Shell    79 S   6     bf  211 -   211         -3.256478098502          1.398464499202          3.624972464538
      0.3047524880D+04  0.1834737132D-02
      0.4573695180D+03  0.1403732281D-01
      0.1039486850D+03  0.6884262226D-01
      0.2921015530D+02  0.2321844432D+00
      0.9286662960D+01  0.4679413484D+00
      0.3163926960D+01  0.3623119853D+00
 Atom C28      Shell    80 SP   3    bf  212 -   215         -3.256478098502          1.398464499202          3.624972464538
      0.7868272350D+01 -0.1193324198D+00  0.6899906659D-01
      0.1881288540D+01 -0.1608541517D+00  0.3164239610D+00
      0.5442492580D+00  0.1143456438D+01  0.7443082909D+00
 Atom C28      Shell    81 SP   1    bf  216 -   219         -3.256478098502          1.398464499202          3.624972464538
      0.1687144782D+00  0.1000000000D+01  0.1000000000D+01
 Atom C28      Shell    82 D   1     bf  220 -   225         -3.256478098502          1.398464499202          3.624972464538
      0.8000000000D+00  0.1000000000D+01
 Atom H29      Shell    83 S   3     bf  226 -   226         -4.473264138316          1.611345719654          1.950903824356
      0.1873113696D+02  0.3349460434D-01
      0.2825394365D+01  0.2347269535D+00
      0.6401216923D+00  0.8137573261D+00
 Atom H29      Shell    84 S   1     bf  227 -   227         -4.473264138316          1.611345719654          1.950903824356
      0.1612777588D+00  0.1000000000D+01
 Atom C30      Shell    85 S   6     bf  228 -   228         -1.123322755309         -2.688493697207         -0.175156371997
      0.3047524880D+04  0.1834737132D-02
      0.4573695180D+03  0.1403732281D-01
      0.1039486850D+03  0.6884262226D-01
      0.2921015530D+02  0.2321844432D+00
      0.9286662960D+01  0.4679413484D+00
      0.3163926960D+01  0.3623119853D+00
 Atom C30      Shell    86 SP   3    bf  229 -   232         -1.123322755309         -2.688493697207         -0.175156371997
      0.7868272350D+01 -0.1193324198D+00  0.6899906659D-01
      0.1881288540D+01 -0.1608541517D+00  0.3164239610D+00
      0.5442492580D+00  0.1143456438D+01  0.7443082909D+00
 Atom C30      Shell    87 SP   1    bf  233 -   236         -1.123322755309         -2.688493697207         -0.175156371997
      0.1687144782D+00  0.1000000000D+01  0.1000000000D+01
 Atom C30      Shell    88 D   1     bf  237 -   242         -1.123322755309         -2.688493697207         -0.175156371997
      0.8000000000D+00  0.1000000000D+01
 Atom H31      Shell    89 S   3     bf  243 -   243         -3.191569445139         -2.609164203574         -0.155472946802
      0.1873113696D+02  0.3349460434D-01
      0.2825394365D+01  0.2347269535D+00
      0.6401216923D+00  0.8137573261D+00
 Atom H31      Shell    90 S   1     bf  244 -   244         -3.191569445139         -2.609164203574         -0.155472946802
      0.1612777588D+00  0.1000000000D+01
 Atom H32      Shell    91 S   3     bf  245 -   245         -0.570234063565         -3.650499093011         -1.916351731591
      0.1873113696D+02  0.3349460434D-01
      0.2825394365D+01  0.2347269535D+00
      0.6401216923D+00  0.8137573261D+00
 Atom H32      Shell    92 S   1     bf  246 -   246         -0.570234063565         -3.650499093011         -1.916351731591
      0.1612777588D+00  0.1000000000D+01
 Atom H33      Shell    93 S   3     bf  247 -   247         -0.526401015535         -3.891523022103          1.395739344043
      0.1873113696D+02  0.3349460434D-01
      0.2825394365D+01  0.2347269535D+00
      0.6401216923D+00  0.8137573261D+00
 Atom H33      Shell    94 S   1     bf  248 -   248         -0.526401015535         -3.891523022103          1.395739344043
      0.1612777588D+00  0.1000000000D+01
 Atom C34      Shell    95 S   6     bf  249 -   249          7.104692169222         -1.319489064657         -7.003932085200
      0.3047524880D+04  0.1834737132D-02
      0.4573695180D+03  0.1403732281D-01
      0.1039486850D+03  0.6884262226D-01
      0.2921015530D+02  0.2321844432D+00
      0.9286662960D+01  0.4679413484D+00
      0.3163926960D+01  0.3623119853D+00
 Atom C34      Shell    96 SP   3    bf  250 -   253          7.104692169222         -1.319489064657         -7.003932085200
      0.7868272350D+01 -0.1193324198D+00  0.6899906659D-01
      0.1881288540D+01 -0.1608541517D+00  0.3164239610D+00
      0.5442492580D+00  0.1143456438D+01  0.7443082909D+00
 Atom C34      Shell    97 SP   1    bf  254 -   257          7.104692169222         -1.319489064657         -7.003932085200
      0.1687144782D+00  0.1000000000D+01  0.1000000000D+01
 Atom C34      Shell    98 D   1     bf  258 -   263          7.104692169222         -1.319489064657         -7.003932085200
      0.8000000000D+00  0.1000000000D+01
 Atom C35      Shell    99 S   6     bf  264 -   264          3.875205236945          1.160365166966         -9.425417759941
      0.3047524880D+04  0.1834737132D-02
      0.4573695180D+03  0.1403732281D-01
      0.1039486850D+03  0.6884262226D-01
      0.2921015530D+02  0.2321844432D+00
      0.9286662960D+01  0.4679413484D+00
      0.3163926960D+01  0.3623119853D+00
 Atom C35      Shell   100 SP   3    bf  265 -   268          3.875205236945          1.160365166966         -9.425417759941
      0.7868272350D+01 -0.1193324198D+00  0.6899906659D-01
      0.1881288540D+01 -0.1608541517D+00  0.3164239610D+00
      0.5442492580D+00  0.1143456438D+01  0.7443082909D+00
 Atom C35      Shell   101 SP   1    bf  269 -   272          3.875205236945          1.160365166966         -9.425417759941
      0.1687144782D+00  0.1000000000D+01  0.1000000000D+01
 Atom C35      Shell   102 D   1     bf  273 -   278          3.875205236945          1.160365166966         -9.425417759941
      0.8000000000D+00  0.1000000000D+01
 Atom H36      Shell   103 S   3     bf  279 -   279          4.507060510703          3.009462282481         -8.722167517944
      0.1873113696D+02  0.3349460434D-01
      0.2825394365D+01  0.2347269535D+00
      0.6401216923D+00  0.8137573261D+00
 Atom H36      Shell   104 S   1     bf  280 -   280          4.507060510703          3.009462282481         -8.722167517944
      0.1612777588D+00  0.1000000000D+01
 Atom H37      Shell   105 S   3     bf  281 -   281          1.855230353960          1.347852153158         -9.836919382583
      0.1873113696D+02  0.3349460434D-01
      0.2825394365D+01  0.2347269535D+00
      0.6401216923D+00  0.8137573261D+00
 Atom H37      Shell   106 S   1     bf  282 -   282          1.855230353960          1.347852153158         -9.836919382583
      0.1612777588D+00  0.1000000000D+01
 Atom C38      Shell   107 S   6     bf  283 -   283          8.294533095436         -1.337966409941         -4.766167607105
      0.3047524880D+04  0.1834737132D-02
      0.4573695180D+03  0.1403732281D-01
      0.1039486850D+03  0.6884262226D-01
      0.2921015530D+02  0.2321844432D+00
      0.9286662960D+01  0.4679413484D+00
      0.3163926960D+01  0.3623119853D+00
 Atom C38      Shell   108 SP   3    bf  284 -   287          8.294533095436         -1.337966409941         -4.766167607105
      0.7868272350D+01 -0.1193324198D+00  0.6899906659D-01
      0.1881288540D+01 -0.1608541517D+00  0.3164239610D+00
      0.5442492580D+00  0.1143456438D+01  0.7443082909D+00
 Atom C38      Shell   109 SP   1    bf  288 -   291          8.294533095436         -1.337966409941         -4.766167607105
      0.1687144782D+00  0.1000000000D+01  0.1000000000D+01
 Atom C38      Shell   110 D   1     bf  292 -   297          8.294533095436         -1.337966409941         -4.766167607105
      0.8000000000D+00  0.1000000000D+01
 Atom H39      Shell   111 S   3     bf  298 -   298         10.330290423062         -1.657790066843         -4.736732325791
      0.1873113696D+02  0.3349460434D-01
      0.2825394365D+01  0.2347269535D+00
      0.6401216923D+00  0.8137573261D+00
 Atom H39      Shell   112 S   1     bf  299 -   299         10.330290423062         -1.657790066843         -4.736732325791
      0.1612777588D+00  0.1000000000D+01
 Atom C40      Shell   113 S   6     bf  300 -   300          2.929614455866         -3.331119408368         -8.009571748741
      0.3047524880D+04  0.1834737132D-02
      0.4573695180D+03  0.1403732281D-01
      0.1039486850D+03  0.6884262226D-01
      0.2921015530D+02  0.2321844432D+00
      0.9286662960D+01  0.4679413484D+00
      0.3163926960D+01  0.3623119853D+00
 Atom C40      Shell   114 SP   3    bf  301 -   304          2.929614455866         -3.331119408368         -8.009571748741
      0.7868272350D+01 -0.1193324198D+00  0.6899906659D-01
      0.1881288540D+01 -0.1608541517D+00  0.3164239610D+00
      0.5442492580D+00  0.1143456438D+01  0.7443082909D+00
[...]
 **** Fit       0.010091
 **** Fit       0.009191
 **** Fit       0.008564
 **** Fit       0.008120
 **** Fit       0.007726
 **** Fit       0.007272
 **** Fit       0.006716
 **** Fit       0.006087
 **** Fit       0.005446
 **** Fit       0.004848
 **** Fit       0.004321
 **** Fit       0.001667
 **** Fit       0.004621
 **** Fit       0.008604
 **** Fit       0.013658
 **** Fit       0.019548
 **** Fit       0.025588
 **** Fit       0.030647
 **** Fit       0.033547
 **** Fit       0.033746
 **** Fit       0.031666
 **** Fit       0.028299
 **** Fit       0.024591
 **** Fit       0.021129
 **** Fit       0.018150
 **** Fit       0.015667
 **** Fit       0.013599
 **** Fit       0.011856
 **** Fit       0.010391
 **** Fit       0.009200
 **** Fit       0.008281
 **** Fit       0.007607
 **** Fit       0.007111
 **** Fit       0.006701
 **** Fit       0.006294
 **** Fit       0.005847
 **** Fit       0.005366
 **** Fit       0.004879
 **** Fit       0.004418
 **** Fit       0.001074
 **** Fit       0.003698
 **** Fit       0.007204
 **** Fit       0.011608
 **** Fit       0.016686
 **** Fit       0.021863
 **** Fit       0.026238
 **** Fit       0.028890
 **** Fit       0.029376
 **** Fit       0.027961
 **** Fit       0.025369
 **** Fit       0.022340
 **** Fit       0.019373
 **** Fit       0.016710
 **** Fit       0.014415
 **** Fit       0.012461
 **** Fit       0.010799
 **** Fit       0.009398
 **** Fit       0.008244
 **** Fit       0.007329
 **** Fit       0.006632
 **** Fit       0.006109
 **** Fit       0.005698
 **** Fit       0.005339
 **** Fit       0.004992
 **** Fit       0.004643
 **** Fit       0.004298
 **** Fit       0.003967
 **** Fit       0.002592
 **** Fit       0.005510
 **** Fit       0.009121
 **** Fit       0.013230
 **** Fit       0.017396
 **** Fit       0.020967
 **** Fit       0.023295
 **** Fit       0.024044
 **** Fit       0.023336
 **** Fit       0.021623
 **** Fit       0.019417
 **** Fit       0.017108
 **** Fit       0.014920
 **** Fit       0.012949
 **** Fit       0.011213
 **** Fit       0.009704
 **** Fit       0.008409
 **** Fit       0.007322
 **** Fit       0.006440
 **** Fit       0.005751
 **** Fit       0.005228
 **** Fit       0.004831
 **** Fit       0.004516
 **** Fit       0.004247
 **** Fit       0.004001
 **** Fit       0.003769
 **** Fit       0.001486
 **** Fit       0.003816
 **** Fit       0.006656
 **** Fit       0.009850
 **** Fit       0.013081
 **** Fit       0.015911
 **** Fit       0.017909
 **** Fit       0.018825
 **** Fit       0.018688
 **** Fit       0.017742
 **** Fit       0.016307
 **** Fit       0.014660
 **** Fit       0.012991
 **** Fit       0.011402
 **** Fit       0.009941
 **** Fit       0.008629
 **** Fit       0.004510
 **** Fit       0.004137
 **** Fit       0.003861
 **** Fit       0.003650
 **** Fit       0.002328
 **** Fit       0.004512
 **** Fit       0.006948
 **** Fit       0.009420
 **** Fit       0.011644
 **** Fit       0.013336
 **** Fit       0.014317
 **** Fit       0.014562
 **** Fit       0.014185
 **** Fit       0.013367
 **** Fit       0.012290
 **** Fit       0.002810
 **** Fit       0.004664
 **** Fit       0.006560
 **** Fit       0.008314
 **** Fit       0.009740
 **** Fit       0.010706
 **** Fit       0.011168
 **** Fit       0.011165
 **** Fit       0.010790
 **** Fit       0.004444
 **** Fit       0.005841
 **** Fit       0.007039
 **** Fit       0.007943
 **** Fit       0.008504
 **** Fit       0.006763
 **** Fit       0.006498
 **** Fit       0.006206
 **** Fit       0.005897
 **** Fit       0.005586
 **** Fit       0.008612
 **** Fit       0.008255
 **** Fit       0.007866
 **** Fit       0.007461
 **** Fit       0.007046
 **** Fit       0.006637
 **** Fit       0.006253
 **** Fit       0.005340
 **** Fit       0.005085
 **** Fit       0.004823
 **** Fit       0.004545
 **** Fit       0.006810
 **** Fit       0.008410
 **** Fit       0.009778
 **** Fit       0.010785
 **** Fit       0.011365
 **** Fit       0.011531
 **** Fit       0.011362
 **** Fit       0.010972
 **** Fit       0.010468
 **** Fit       0.009924
 **** Fit       0.009375
 **** Fit       0.008826
 **** Fit       0.008280
 **** Fit       0.007751
 **** Fit       0.007265
 **** Fit       0.006842
 **** Fit       0.006485
 **** Fit       0.006173
 **** Fit       0.005871
 **** Fit       0.005550
 **** Fit       0.005198
 **** Fit       0.004821
 **** Fit       0.006702
 **** Fit       0.008839
 **** Fit       0.010872
 **** Fit       0.012579
 **** Fit       0.013771
 **** Fit       0.014356
 **** Fit       0.014369
 **** Fit       0.013944
 **** Fit       0.013259
 **** Fit       0.012474
 **** Fit       0.011687
 **** Fit       0.010934
 **** Fit       0.010209
 **** Fit       0.009505
 **** Fit       0.008836
 **** Fit       0.008236
 **** Fit       0.007730
 **** Fit       0.007317
 **** Fit       0.006964
 **** Fit       0.006621
 **** Fit       0.006244
 **** Fit       0.005817
 **** Fit       0.005352
 **** Fit       0.004878
 **** Fit       0.005876
 **** Fit       0.008406
 **** Fit       0.011076
 **** Fit       0.013624
 **** Fit       0.015732
 **** Fit       0.017129
 **** Fit       0.017688
 **** Fit       0.017474
 **** Fit       0.016702
 **** Fit       0.015633
 **** Fit       0.014489
 **** Fit       0.013399
 **** Fit       0.012400
 **** Fit       0.011471
 **** Fit       0.010591
 **** Fit       0.009774
 **** Fit       0.009056
 **** Fit       0.008467
 **** Fit       0.008002
 **** Fit       0.007613
 **** Fit       0.007235
 **** Fit       0.006810
 **** Fit       0.006318
 **** Fit       0.005777
 **** Fit       0.005225
 **** Fit       0.004700
 **** Fit       0.004421
 **** Fit       0.007038
 **** Fit       0.010066
 **** Fit       0.013303
 **** Fit       0.016408
 **** Fit       0.018953
 **** Fit       0.020562
 **** Fit       0.021065
 **** Fit       0.020569
 **** Fit       0.019382
 **** Fit       0.017867
 **** Fit       0.016314
 **** Fit       0.014881
 **** Fit       0.013605
 **** Fit       0.012455
 **** Fit       0.011398
 **** Fit       0.010438
 **** Fit       0.009612
 **** Fit       0.008948
 **** Fit       0.008435
 **** Fit       0.008015
 **** Fit       0.007610
 **** Fit       0.007152
 **** Fit       0.006618
 **** Fit       0.006028
 **** Fit       0.005427
 **** Fit       0.004857
 **** Fit       0.005011
 **** Fit       0.007966
 **** Fit       0.011434
 **** Fit       0.015185
 **** Fit       0.018808
 **** Fit       0.021764
 **** Fit       0.023568
 **** Fit       0.024004
 **** Fit       0.023220
 **** Fit       0.021625
 **** Fit       0.019677
 **** Fit       0.017724
 **** Fit       0.015952
 **** Fit       0.014403
 **** Fit       0.013040
 **** Fit       0.011822
 **** Fit       0.010744
 **** Fit       0.009832
 **** Fit       0.009106
 **** Fit       0.008549
 **** Fit       0.008099
 **** Fit       0.007673
 **** Fit       0.007201
 **** Fit       0.006656
 **** Fit       0.006058
 **** Fit       0.005450
 **** Fit       0.004875
 **** Fit       0.005315
 **** Fit       0.008485
 **** Fit       0.012240
 **** Fit       0.016339
 **** Fit       0.020322
 **** Fit       0.023572
 **** Fit       0.025519
 **** Fit       0.025911
 **** Fit       0.024925
 **** Fit       0.023037
 **** Fit       0.020772
 **** Fit       0.018519
 **** Fit       0.016482
 **** Fit       0.014713
 **** Fit       0.013179
 **** Fit       0.011839
 **** Fit       0.010678
 **** Fit       0.009707
 **** Fit       0.008934
 **** Fit       0.008338
 **** Fit       0.007859
 **** Fit       0.007419
 **** Fit       0.006952
 **** Fit       0.006429
 **** Fit       0.005865
 **** Fit       0.005294
 **** Fit       0.004753
 **** Fit       0.005261
 **** Fit       0.008469
 **** Fit       0.012287
 **** Fit       0.016471
 **** Fit       0.020554
 **** Fit       0.023896
 **** Fit       0.025903
 **** Fit       0.026306
 **** Fit       0.025282
 **** Fit       0.023320
 **** Fit       0.020954
 **** Fit       0.018583
 **** Fit       0.016421
 **** Fit       0.014533
 **** Fit       0.012903
 **** Fit       0.011497
 **** Fit       0.010294
 **** Fit       0.009292
 **** Fit       0.008490
 **** Fit       0.007862
 **** Fit       0.007359
 **** Fit       0.006913
 **** Fit       0.006466
 **** Fit       0.005991
 **** Fit       0.005492
 **** Fit       0.004991
 **** Fit       0.004517
 **** Fit       0.004847
 **** Fit       0.007907
 **** Fit       0.011542
 **** Fit       0.015525
 **** Fit       0.019416
 **** Fit       0.022623
 **** Fit       0.024593
 **** Fit       0.025069
 **** Fit       0.024196
 **** Fit       0.022407
 **** Fit       0.020189
 **** Fit       0.017915
 **** Fit       0.015800
 **** Fit       0.013923
 **** Fit       0.012292
 **** Fit       0.010884
 **** Fit       0.009683
 **** Fit       0.008680
 **** Fit       0.007868
 **** Fit       0.007223
 **** Fit       0.006704
 **** Fit       0.006261
 **** Fit       0.005846
 **** Fit       0.005432
 **** Fit       0.005012
 **** Fit       0.004599
 **** Fit       0.004141
 **** Fit       0.006902
 **** Fit       0.010162
 **** Fit       0.013716
 **** Fit       0.017189
 **** Fit       0.020080
 **** Fit       0.021932
 **** Fit       0.022516
 **** Fit       0.021927
 **** Fit       0.020499
 **** Fit       0.018629
 **** Fit       0.016636
 **** Fit       0.014723
 **** Fit       0.012982
 **** Fit       0.011440
 **** Fit       0.010096
 **** Fit       0.008939
 **** Fit       0.007965
 **** Fit       0.006520
 **** Fit       0.006002
 **** Fit       0.005572
 **** Fit       0.005194
 **** Fit       0.004841
 **** Fit       0.004501
 **** Fit       0.003262
 **** Fit       0.005637
 **** Fit       0.008417
 **** Fit       0.011429
 **** Fit       0.014371
 **** Fit       0.016860
 **** Fit       0.018542
 **** Fit       0.019228
 **** Fit       0.018964
 **** Fit       0.017975
 **** Fit       0.016551
 **** Fit       0.014946
 **** Fit       0.011820
 **** Fit       0.010440
 **** Fit       0.004309
 **** Fit       0.006593
 **** Fit       0.009052
 **** Fit       0.011461
 **** Fit       0.013540
 **** Fit       0.015031
 **** Fit       0.015786
 **** Fit       0.015810
 **** Fit       0.015236
 **** Fit       0.014259
 **** Fit       0.013065
 **** Fit       0.004903
 **** Fit       0.006869
 **** Fit       0.008805
 **** Fit       0.010516
 **** Fit       0.011818
 **** Fit       0.012596
 **** Fit       0.012832
 **** Fit       0.012594
 **** Fit       0.012001
 **** Fit       0.006572
 **** Fit       0.007973
 **** Fit       0.009100
 **** Fit       0.009862
 **** Fit       0.010232
 **** Fit       0.009089
 **** Fit       0.008611
 **** Fit       0.008125
 **** Fit       0.007645
 **** Fit       0.007183
 **** Fit       0.009469
 **** Fit       0.010792
 **** Fit       0.011746
 **** Fit       0.012270
 **** Fit       0.012380
 **** Fit       0.011106
 **** Fit       0.010472
 **** Fit       0.009831
 **** Fit       0.009204
 **** Fit       0.008600
 **** Fit       0.008031
 **** Fit       0.007513
 **** Fit       0.005954
 **** Fit       0.005604
 **** Fit       0.007497
 **** Fit       0.009513
 **** Fit       0.011402
 **** Fit       0.012971
 **** Fit       0.014056
 **** Fit       0.014582
 **** Fit       0.014575
 **** Fit       0.014148
 **** Fit       0.013455
 **** Fit       0.012635
 **** Fit       0.011786
 **** Fit       0.010961
 **** Fit       0.010176
 **** Fit       0.009438
 **** Fit       0.008758
 **** Fit       0.008150
 **** Fit       0.007174
 **** Fit       0.006775
 **** Fit       0.006395
 **** Fit       0.006005
 **** Fit       0.005592
 **** Fit       0.008690
 **** Fit       0.011046
 **** Fit       0.013258
 **** Fit       0.015076
 **** Fit       0.016290
 **** Fit       0.016803
 **** Fit       0.016658
 **** Fit       0.016011
 **** Fit       0.015061
 **** Fit       0.013987
 **** Fit       0.012911
 **** Fit       0.011891
 **** Fit       0.010945
 **** Fit       0.010075
 **** Fit       0.009288
 **** Fit       0.008596
 **** Fit       0.008007
 **** Fit       0.007510
 **** Fit       0.007076
 **** Fit       0.006667
 **** Fit       0.006249
 **** Fit       0.005806
 **** Fit       0.005344
 **** Fit       0.007091
 **** Fit       0.009638
 **** Fit       0.012289
 **** Fit       0.014783
 **** Fit       0.016821
 **** Fit       0.018147
 **** Fit       0.018642
 **** Fit       0.018366
 **** Fit       0.017512
 **** Fit       0.016324
 **** Fit       0.015016
 **** Fit       0.013727
 **** Fit       0.012527
 **** Fit       0.011433
 **** Fit       0.010445
 **** Fit       0.009566
 **** Fit       0.008805
 **** Fit       0.007627
 **** Fit       0.007164
 **** Fit       0.006734
 **** Fit       0.006301
 **** Fit       0.005847
 **** Fit       0.005377
 **** Fit       0.007465
 **** Fit       0.010183
 **** Fit       0.013025
 **** Fit       0.015709
 **** Fit       0.017897
 **** Fit       0.019301
 **** Fit       0.019787
 **** Fit       0.019422
 **** Fit       0.018425
 **** Fit       0.017070
 **** Fit       0.015591
 **** Fit       0.014145
 **** Fit       0.012807
 **** Fit       0.011600
 **** Fit       0.010524
 **** Fit       0.009578
 **** Fit       0.008766
 **** Fit       0.007518
 **** Fit       0.007034
 **** Fit       0.006593
 **** Fit       0.006159
 **** Fit       0.005715
 **** Fit       0.005261
 **** Fit       0.007457
 **** Fit       0.010212
 **** Fit       0.013102
 **** Fit       0.015838
 **** Fit       0.018074
 **** Fit       0.019511
 **** Fit       0.020006
 **** Fit       0.019626
 **** Fit       0.018592
 **** Fit       0.017183
 **** Fit       0.015639
 **** Fit       0.014122
 **** Fit       0.012716
 **** Fit       0.011449
 **** Fit       0.010327
 **** Fit       0.009346
 **** Fit       0.008506
 **** Fit       0.006720
 **** Fit       0.006277
 **** Fit       0.005855
 **** Fit       0.005436
 **** Fit       0.007060
 **** Fit       0.009711
 **** Fit       0.012493
 **** Fit       0.015132
 **** Fit       0.017303
 **** Fit       0.018720
 **** Fit       0.019246
 **** Fit       0.018933
 **** Fit       0.017981
 **** Fit       0.016647
 **** Fit       0.015159
 **** Fit       0.013675
 **** Fit       0.012283
 **** Fit       0.011021
 **** Fit       0.009899
 **** Fit       0.006336
 **** Fit       0.008765
 **** Fit       0.011310
 **** Fit       0.013730
 **** Fit       0.015740
 **** Fit       0.017093
 **** Fit       0.017661
 **** Fit       0.017477
 **** Fit       0.016702
 **** Fit       0.015552
 **** Fit       0.014225
 **** Fit       0.007533
 **** Fit       0.009763
 **** Fit       0.011890
 **** Fit       0.013683
 **** Fit       0.014938
 **** Fit       0.015545
 **** Fit       0.015517
 **** Fit       0.014968
 **** Fit       0.014065
 **** Fit       0.008082
 **** Fit       0.009895
 **** Fit       0.011450
 **** Fit       0.012589
 **** Fit       0.013221
 **** Fit       0.013339
 **** Fit       0.013019
 **** Fit       0.007971
 **** Fit       0.009297
 **** Fit       0.010315
 **** Fit       0.010949
 **** Fit       0.011185
 **** Fit       0.011627
 **** Fit       0.010843
 **** Fit       0.012186
 **** Fit       0.013127
 **** Fit       0.013606
 **** Fit       0.013638
 **** Fit       0.010065
 **** Fit       0.011850
 **** Fit       0.013319
 **** Fit       0.014327
 **** Fit       0.014806
 **** Fit       0.014776
 **** Fit       0.014334
 **** Fit       0.010552
 **** Fit       0.012443
 **** Fit       0.013995
 **** Fit       0.015050
 **** Fit       0.015531
 **** Fit       0.015459
 **** Fit       0.014944
 **** Fit       0.008535
 **** Fit       0.010599
 **** Fit       0.012519
 **** Fit       0.014098
 **** Fit       0.015172
 **** Fit       0.015659
 **** Fit       0.015581
 **** Fit       0.015046
 **** Fit       0.010192
 **** Fit       0.012060
 **** Fit       0.013604
 **** Fit       0.014666
 **** Fit       0.015166
 **** Fit       0.015119
 **** Fit       0.014625
 **** Fit       0.009395
 **** Fit       0.011140
 **** Fit       0.012595
 **** Fit       0.013618
 **** Fit       0.014133
 **** Fit       0.014149
 **** Fit       0.013745
 **** Fit       0.009900
 **** Fit       0.011229
 **** Fit       0.012192
 **** Fit       0.012720
 **** Fit       0.012812
 -----------------------------------------------------------------
 Leave Link  602 at Mon Mar 20 12:22:21 2017, MaxMem=    33554432 cpu:        36.0
 (Enter /home/michal/g09/l9999.exe)

 Test job not archived.
 1\1\GINC-LINUX\SP\RHF\6-31G(d)\C27H46O1\MICHAL\20-Mar-2017\0\\#P HF/6-
 31G* SCF(Conver=6) NoSymm Test Pop=chelpg IOp(6/33=2) GFInput GFPrint\
 \MEP - Input generated by R.E.D.-III.x MOLECULE\\0,1\O,0,4.90729525,-0
 .18328432,-7.29436622\H,0,5.85969987,-0.27743714,-7.16018929\C,0,0.,0.
 ,0.\C,0,1.54992605,0.,0.\H,0,1.83876464,1.06499455,0.\C,0,2.19348604,-
 0.59734934,-1.25718996\H,0,1.92238773,-1.65966361,-1.33549021\C,0,1.67
 778217,0.15674794,-2.51446258\H,0,2.09600595,1.17391952,-2.43499803\C,
 0,-0.26022395,0.64769837,1.39577812\H,0,0.06859137,1.68979683,1.271253
 35\C,0,-0.45539351,0.84334488,-1.20395922\H,0,-0.12989096,1.88239348,-
 1.04981693\H,0,-1.55068146,0.86686242,-1.2832224\C,0,2.25367088,-0.434
 64078,-3.84972499\C,0,1.92887945,-0.54907314,1.38910836\H,0,2.91640868
 ,-0.20689901,1.71429811\H,0,1.96384646,-1.64556963,1.37808174\C,0,0.13
 571326,0.31130993,-2.52666393\H,0,-0.33323664,-0.65049119,-2.75778795\
 H,0,-0.15697405,0.98915166,-3.33627694\C,0,0.78923723,-0.0387425,2.325
 95018\H,0,0.34820274,-0.87282769,2.87894017\H,0,1.16743035,0.66322819,
 3.07637101\C,0,3.72615445,-0.50643994,-1.18933279\H,0,4.1152854,-1.241
 43459,-0.47207192\H,0,4.018011,0.47717172,-0.78493167\C,0,-1.72325399,
 0.74003554,1.91825281\H,0,-2.36714943,0.85268743,1.03237384\C,0,-0.594
 4368,-1.42268959,-0.09268876\H,0,-1.68890581,-1.38071023,-0.08227274\H
 ,0,-0.30175487,-1.93176092,-1.01408966\H,0,-0.27855942,-2.05930529,0.7
 3859345\C,0,3.75964117,-0.69824354,-3.70632123\C,0,2.05067029,0.614038
 8,-4.98771626\H,0,2.3850337,1.59253885,-4.61557226\H,0,0.98174562,0.71
 325264,-5.20547354\C,0,4.38927787,-0.70802133,-2.52214727\H,0,5.466554
 25,-0.87726472,-2.50657079\C,0,1.5502852,-1.76275247,-4.23848282\H,0,0
 .50910093,-1.5939109,-4.53079427\H,0,2.04586641,-2.24649121,-5.0838337
 7\H,0,1.56250428,-2.47444965,-3.40724013\C,0,4.52986149,-0.95280406,-4
 .98879544\H,0,5.60067939,-1.03491254,-4.76200522\H,0,4.22861963,-1.907
 84002,-5.44205766\C,0,2.79868198,0.30633103,-6.29304507\H,0,2.42078096
 ,-0.61184083,-6.75991943\H,0,2.63827265,1.11442953,-7.0157638\C,0,-2.2
 3708272,-0.49240893,2.70287727\H,0,-1.82832369,-1.41042441,2.27259468\
 H,0,-1.85689379,-0.44635858,3.73391362\C,0,4.29142427,0.13934824,-6.04
 136652\H,0,4.69978343,1.0925587,-5.66667234\C,0,-1.892341,2.01893189,2
 .76423094\H,0,-1.21331008,2.00720508,3.62596584\H,0,-2.91177323,2.1242
 8027,3.1492138\H,0,-1.66840253,2.9157384,2.17594577\C,0,-3.77089779,-0
 .60393764,2.74066728\H,0,-4.19967949,0.34542371,3.08539151\H,0,-4.1459
 5845,-0.74345943,1.7175297\C,0,-4.30890213,-1.71894336,3.65623746\H,0,
 -5.40654444,-1.65023753,3.68596777\H,0,-3.96604174,-1.52123455,4.68220
 871\C,0,-3.92936068,-3.1690755,3.28722634\H,0,-2.83268426,-3.24357976,
 3.26316292\C,0,-4.46106326,-3.58020613,1.90506984\H,0,-4.05917669,-2.9
 5175072,1.10382104\H,0,-4.19320309,-4.6177418,1.67507941\H,0,-5.555771
 42,-3.50437631,1.87127659\C,0,-4.43202512,-4.13975981,4.3679435\H,0,-4
 .0284012,-3.8834231,5.35424923\H,0,-4.13966622,-5.17198445,4.14367702\
 H,0,-5.5270417,-4.11256655,4.43916299\\Version=EM64L-G09RevD.01\HF=-11
 24.0763859\RMSD=4.756e-07\Dipole=0.2262975,0.0845484,0.6044412\Quadrup
 ole=10.1326247,2.6864554,-12.8190801,-0.1826357,2.7910513,-0.7427544\P
 G=C01 [X(C27H46O1)]\\@


 Until you make peace with who you are,
 you'll never be content with what you have.
                           -- Doris Mortman
 Job cpu time:       0 days  0 hours 11 minutes  3.2 seconds.
 File lengths (MBytes):  RWF=    142 Int=      0 D2E=      0 Chk=     10 Scr=      1
 Normal termination of Gaussian 09 at Mon Mar 20 12:22:21 2017.
