 Entering Gaussian System, Link 0=/home/michal/g09/g09
 Input=JOB2-gau_m1-17-3.com
 Output=JOB2-gau_m1-17-3.log
 Initial command:
 /home/michal/g09/l1.exe "/home/michal/gauss_scratch/Gau-23054.inp" -scrdir="/home/michal/gauss_scratch/"
 Entering Link 1 = /home/michal/g09/l1.exe PID=     23055.
  
 Copyright (c) 1988,1990,1992,1993,1995,1998,2003,2009,2013,
            Gaussian, Inc.  All Rights Reserved.
  
 This is part of the Gaussian(R) 09 program.  It is based on
 the Gaussian(R) 03 system (copyright 2003, Gaussian, Inc.),
 the Gaussian(R) 98 system (copyright 1998, Gaussian, Inc.),
 the Gaussian(R) 94 system (copyright 1995, Gaussian, Inc.),
 the Gaussian 92(TM) system (copyright 1992, Gaussian, Inc.),
 the Gaussian 90(TM) system (copyright 1990, Gaussian, Inc.),
 the Gaussian 88(TM) system (copyright 1988, Gaussian, Inc.),
 the Gaussian 86(TM) system (copyright 1986, Carnegie Mellon
 University), and the Gaussian 82(TM) system (copyright 1983,
 Carnegie Mellon University). Gaussian is a federally registered
 trademark of Gaussian, Inc.
  
 This software contains proprietary and confidential information,
 including trade secrets, belonging to Gaussian, Inc.
  
 This software is provided under written license and may be
 used, copied, transmitted, or stored only in accord with that
 written license.
  
 The following legend is applicable only to US Government
 contracts under FAR:
  
                    RESTRICTED RIGHTS LEGEND
  
 Use, reproduction and disclosure by the US Government is
 subject to restrictions as set forth in subparagraphs (a)
 and (c) of the Commercial Computer Software - Restricted
 Rights clause in FAR 52.227-19.
  
 Gaussian, Inc.
 340 Quinnipiac St., Bldg. 40, Wallingford CT 06492
  
  
 ---------------------------------------------------------------
 Warning -- This program may not be used in any manner that
 competes with the business of Gaussian, Inc. or will provide
 assistance to any competitor of Gaussian, Inc.  The licensee
 of this program is prohibited from giving any competitor of
 Gaussian, Inc. access to this program.  By using this program,
 the user acknowledges that Gaussian, Inc. is engaged in the
 business of creating and licensing software in the field of
 computational chemistry and represents and warrants to the
 licensee that it is not a competitor of Gaussian, Inc. and that
 it will not use this program in any manner prohibited above.
 ---------------------------------------------------------------
  

 Cite this work as:
 Gaussian 09, Revision D.01,
 M. J. Frisch, G. W. Trucks, H. B. Schlegel, G. E. Scuseria, 
 M. A. Robb, J. R. Cheeseman, G. Scalmani, V. Barone, B. Mennucci, 
 G. A. Petersson, H. Nakatsuji, M. Caricato, X. Li, H. P. Hratchian, 
 A. F. Izmaylov, J. Bloino, G. Zheng, J. L. Sonnenberg, M. Hada, 
 M. Ehara, K. Toyota, R. Fukuda, J. Hasegawa, M. Ishida, T. Nakajima, 
 Y. Honda, O. Kitao, H. Nakai, T. Vreven, J. A. Montgomery, Jr., 
 J. E. Peralta, F. Ogliaro, M. Bearpark, J. J. Heyd, E. Brothers, 
 K. N. Kudin, V. N. Staroverov, T. Keith, R. Kobayashi, J. Normand, 
 K. Raghavachari, A. Rendell, J. C. Burant, S. S. Iyengar, J. Tomasi, 
 M. Cossi, N. Rega, J. M. Millam, M. Klene, J. E. Knox, J. B. Cross, 
 V. Bakken, C. Adamo, J. Jaramillo, R. Gomperts, R. E. Stratmann, 
 O. Yazyev, A. J. Austin, R. Cammi, C. Pomelli, J. W. Ochterski, 
 R. L. Martin, K. Morokuma, V. G. Zakrzewski, G. A. Voth, 
 P. Salvador, J. J. Dannenberg, S. Dapprich, A. D. Daniels, 
 O. Farkas, J. B. Foresman, J. V. Ortiz, J. Cioslowski, 
 and D. J. Fox, Gaussian, Inc., Wallingford CT, 2013.
 
 ******************************************
 Gaussian 09:  EM64L-G09RevD.01 24-Apr-2013
                20-Mar-2017 
 ******************************************
 %Mem=256MB
 %NProc=12
 Will use up to   12 processors via shared memory.
 ----------------------------------------------------------------------
 #P HF/6-31G* SCF(Conver=6) NoSymm Test Pop=chelpg IOp(6/33=2) GFInput 
 GFPrint
 ----------------------------------------------------------------------
 1/38=1/1;
 2/12=2,15=1,17=6,18=5,40=1/2;
 3/5=1,6=6,7=1,11=9,16=1,24=110,25=1,30=1/1,2,3;
 4//1;
 5/5=2,6=6,38=5/2;
 6/7=2,8=2,9=2,10=2,15=8,20=3,28=1,33=2/1,2;
 99/5=1,9=1/99;
 Leave Link    1 at Mon Mar 20 12:42:19 2017, MaxMem=    33554432 cpu:         0.6
 (Enter /home/michal/g09/l101.exe)
 ----------------------------------------------
 MEP - Input generated by R.E.D.-III.x MOLECULE
 ----------------------------------------------
 Symbolic Z-matrix:
 Charge =  0 Multiplicity = 1
 O                    -3.73988  -3.58839  -4.13699 
 H                    -3.88639  -4.43346  -3.69164 
 C                     1.59827   2.06719   0. 
 C                     1.32607   0.60952   0.47361 
 H                     2.11445   0.        0. 
 C                     0.        0.        0. 
 H                    -0.83667   0.56697   0.43166 
 C                    -0.08662   0.06454  -1.54845 
 H                     0.69321  -0.62362  -1.9149 
 C                     2.99227   2.29081   0.68329 
 H                     3.66979   1.61674   0.14098 
 C                     1.58821   2.04167  -1.54076 
 H                     2.42699   1.42478  -1.8928 
 H                     1.73926   3.04463  -1.95748 
 C                    -1.44293  -0.49796  -2.10255 
 C                     1.64159   0.63449   1.98023 
 H                     1.91622  -0.35304   2.36429 
 H                     0.76585   0.96385   2.55314 
 C                     0.26721   1.46852  -2.09414 
 H                    -0.54104   2.17153  -1.86722 
 H                     0.33591   1.43178  -3.18717 
 C                     2.80587   1.65952   2.10034 
 H                     2.57295   2.42431   2.84813 
 H                     3.73652   1.18394   2.4291 
 C                    -0.13261  -1.4578    0.46949 
 H                    -0.33997  -1.48912   1.54744 
 H                     0.83373  -1.97412   0.34402 
 C                     3.73952   3.65508   0.72253 
 H                     4.63517   3.43977   1.32572 
 C                     0.52487   3.05118   0.52154 
 H                     0.63654   4.03132   0.04896 
 H                    -0.48823   2.70489   0.30268 
 H                     0.58771   3.19869   1.60277 
 C                    -1.80308  -1.80974  -1.39087 
 C                    -1.27064  -0.80343  -3.62334 
 H                    -0.33446  -1.36346  -3.7561 
 H                    -1.1508    0.13655  -4.17291 
 C                    -1.19807  -2.21972  -0.26629 
 H                    -1.4927   -3.17756   0.16405 
 C                    -2.6047    0.51246  -1.90597 
 H                    -2.4776    1.39602  -2.53935 
 H                    -3.56982   0.06922  -2.16349 
 H                    -2.6691    0.84302  -0.86469 
 C                    -2.89648  -2.64855  -2.02599 
 H                    -2.99624  -3.59472  -1.4786 
 H                    -3.86838  -2.13965  -1.95751 
 C                    -2.41495  -1.60873  -4.25616 
 H                    -3.3539   -1.04128  -4.24373 
 H                    -2.18874  -1.81733  -5.30801 
 C                     4.2432    4.15441  -0.65374 
 H                     3.37954   4.37408  -1.29418 
 H                     4.73511   5.123    -0.49087 
 C                    -2.63527  -2.9207   -3.51454 
 H                    -1.72964  -3.54226  -3.61081 
 C                     3.02809   4.81883   1.44237 
 H                     2.23891   5.26224   0.82829 
 H                     3.75177   5.61269   1.6599 
 H                     2.58151   4.51806   2.39456 
 C                     5.20795   3.23849  -1.43198 
 H                     4.69566   2.30987  -1.71006 
 H                     5.44632   3.73191  -2.383 
 C                     6.51682   2.86402  -0.71014 
 H                     7.09435   2.19908  -1.36943 
 H                     6.28159   2.26606   0.18077 
 C                     7.43132   4.03185  -0.28372 
 H                     6.86055   4.68916   0.38818 
 C                     7.90218   4.87591  -1.47884 
 H                     7.0661    5.33591  -2.01536 
 H                     8.56646   5.68321  -1.15007 
 H                     8.45944   4.25846  -2.19543 
 C                     8.63668   3.50016   0.50845 
 H                     8.31694   2.9269    1.3863 
 H                     9.27671   4.31864   0.85724 
 H                     9.25275   2.83885  -0.11441 
 
 NAtoms=     74 NQM=       74 NQMF=       0 NMMI=      0 NMMIF=      0
                NMic=       0 NMicF=      0.
                    Isotopes and Nuclear Properties:
 (Nuclear quadrupole moments (NQMom) in fm**2, nuclear magnetic moments (NMagM)
  in nuclear magnetons)

  Atom         1           2           3           4           5           6           7           8           9          10
 IAtWgt=          16           1          12          12           1          12           1          12           1          12
 AtmWgt=  15.9949146   1.0078250  12.0000000  12.0000000   1.0078250  12.0000000   1.0078250  12.0000000   1.0078250  12.0000000
 NucSpn=           0           1           0           0           1           0           1           0           1           0
 AtZEff=   0.0000000   0.0000000   0.0000000   0.0000000   0.0000000   0.0000000   0.0000000   0.0000000   0.0000000   0.0000000
 NQMom=    0.0000000   0.0000000   0.0000000   0.0000000   0.0000000   0.0000000   0.0000000   0.0000000   0.0000000   0.0000000
 NMagM=    0.0000000   2.7928460   0.0000000   0.0000000   2.7928460   0.0000000   2.7928460   0.0000000   2.7928460   0.0000000
 AtZNuc=   8.0000000   1.0000000   6.0000000   6.0000000   1.0000000   6.0000000   1.0000000   6.0000000   1.0000000   6.0000000

  Atom        11          12          13          14          15          16          17          18          19          20
 IAtWgt=           1          12           1           1          12          12           1           1          12           1
 AtmWgt=   1.0078250  12.0000000   1.0078250   1.0078250  12.0000000  12.0000000   1.0078250   1.0078250  12.0000000   1.0078250
 NucSpn=           1           0           1           1           0           0           1           1           0           1
 AtZEff=   0.0000000   0.0000000   0.0000000   0.0000000   0.0000000   0.0000000   0.0000000   0.0000000   0.0000000   0.0000000
 NQMom=    0.0000000   0.0000000   0.0000000   0.0000000   0.0000000   0.0000000   0.0000000   0.0000000   0.0000000   0.0000000
 NMagM=    2.7928460   0.0000000   2.7928460   2.7928460   0.0000000   0.0000000   2.7928460   2.7928460   0.0000000   2.7928460
 AtZNuc=   1.0000000   6.0000000   1.0000000   1.0000000   6.0000000   6.0000000   1.0000000   1.0000000   6.0000000   1.0000000

  Atom        21          22          23          24          25          26          27          28          29          30
 IAtWgt=           1          12           1           1          12           1           1          12           1          12
 AtmWgt=   1.0078250  12.0000000   1.0078250   1.0078250  12.0000000   1.0078250   1.0078250  12.0000000   1.0078250  12.0000000
 NucSpn=           1           0           1           1           0           1           1           0           1           0
 AtZEff=   0.0000000   0.0000000   0.0000000   0.0000000   0.0000000   0.0000000   0.0000000   0.0000000   0.0000000   0.0000000
 NQMom=    0.0000000   0.0000000   0.0000000   0.0000000   0.0000000   0.0000000   0.0000000   0.0000000   0.0000000   0.0000000
 NMagM=    2.7928460   0.0000000   2.7928460   2.7928460   0.0000000   2.7928460   2.7928460   0.0000000   2.7928460   0.0000000
 AtZNuc=   1.0000000   6.0000000   1.0000000   1.0000000   6.0000000   1.0000000   1.0000000   6.0000000   1.0000000   6.0000000

  Atom        31          32          33          34          35          36          37          38          39          40
 IAtWgt=           1           1           1          12          12           1           1          12           1          12
 AtmWgt=   1.0078250   1.0078250   1.0078250  12.0000000  12.0000000   1.0078250   1.0078250  12.0000000   1.0078250  12.0000000
 NucSpn=           1           1           1           0           0           1           1           0           1           0
 AtZEff=   0.0000000   0.0000000   0.0000000   0.0000000   0.0000000   0.0000000   0.0000000   0.0000000   0.0000000   0.0000000
 NQMom=    0.0000000   0.0000000   0.0000000   0.0000000   0.0000000   0.0000000   0.0000000   0.0000000   0.0000000   0.0000000
 NMagM=    2.7928460   2.7928460   2.7928460   0.0000000   0.0000000   2.7928460   2.7928460   0.0000000   2.7928460   0.0000000
 AtZNuc=   1.0000000   1.0000000   1.0000000   6.0000000   6.0000000   1.0000000   1.0000000   6.0000000   1.0000000   6.0000000

  Atom        41          42          43          44          45          46          47          48          49          50
 IAtWgt=           1           1           1          12           1           1          12           1           1          12
 AtmWgt=   1.0078250   1.0078250   1.0078250  12.0000000   1.0078250   1.0078250  12.0000000   1.0078250   1.0078250  12.0000000
 NucSpn=           1           1           1           0           1           1           0           1           1           0
 AtZEff=   0.0000000   0.0000000   0.0000000   0.0000000   0.0000000   0.0000000   0.0000000   0.0000000   0.0000000   0.0000000
 NQMom=    0.0000000   0.0000000   0.0000000   0.0000000   0.0000000   0.0000000   0.0000000   0.0000000   0.0000000   0.0000000
 NMagM=    2.7928460   2.7928460   2.7928460   0.0000000   2.7928460   2.7928460   0.0000000   2.7928460   2.7928460   0.0000000
 AtZNuc=   1.0000000   1.0000000   1.0000000   6.0000000   1.0000000   1.0000000   6.0000000   1.0000000   1.0000000   6.0000000

  Atom        51          52          53          54          55          56          57          58          59          60
 IAtWgt=           1           1          12           1          12           1           1           1          12           1
 AtmWgt=   1.0078250   1.0078250  12.0000000   1.0078250  12.0000000   1.0078250   1.0078250   1.0078250  12.0000000   1.0078250
 NucSpn=           1           1           0           1           0           1           1           1           0           1
 AtZEff=   0.0000000   0.0000000   0.0000000   0.0000000   0.0000000   0.0000000   0.0000000   0.0000000   0.0000000   0.0000000
 NQMom=    0.0000000   0.0000000   0.0000000   0.0000000   0.0000000   0.0000000   0.0000000   0.0000000   0.0000000   0.0000000
 NMagM=    2.7928460   2.7928460   0.0000000   2.7928460   0.0000000   2.7928460   2.7928460   2.7928460   0.0000000   2.7928460
 AtZNuc=   1.0000000   1.0000000   6.0000000   1.0000000   6.0000000   1.0000000   1.0000000   1.0000000   6.0000000   1.0000000

  Atom        61          62          63          64          65          66          67          68          69          70
 IAtWgt=           1          12           1           1          12           1          12           1           1           1
 AtmWgt=   1.0078250  12.0000000   1.0078250   1.0078250  12.0000000   1.0078250  12.0000000   1.0078250   1.0078250   1.0078250
 NucSpn=           1           0           1           1           0           1           0           1           1           1
 AtZEff=   0.0000000   0.0000000   0.0000000   0.0000000   0.0000000   0.0000000   0.0000000   0.0000000   0.0000000   0.0000000
 NQMom=    0.0000000   0.0000000   0.0000000   0.0000000   0.0000000   0.0000000   0.0000000   0.0000000   0.0000000   0.0000000
 NMagM=    2.7928460   0.0000000   2.7928460   2.7928460   0.0000000   2.7928460   0.0000000   2.7928460   2.7928460   2.7928460
 AtZNuc=   1.0000000   6.0000000   1.0000000   1.0000000   6.0000000   1.0000000   6.0000000   1.0000000   1.0000000   1.0000000

  Atom        71          72          73          74
 IAtWgt=          12           1           1           1
 AtmWgt=  12.0000000   1.0078250   1.0078250   1.0078250
 NucSpn=           0           1           1           1
 AtZEff=   0.0000000   0.0000000   0.0000000   0.0000000
 NQMom=    0.0000000   0.0000000   0.0000000   0.0000000
 NMagM=    0.0000000   2.7928460   2.7928460   2.7928460
 AtZNuc=   6.0000000   1.0000000   1.0000000   1.0000000
 Leave Link  101 at Mon Mar 20 12:42:19 2017, MaxMem=    33554432 cpu:         1.0
 (Enter /home/michal/g09/l202.exe)
 Symmetry turned off by external request.
 Stoichiometry    C27H46O
 Framework group  C1[X(C27H46O)]
 Deg. of freedom   216
 Full point group                 C1      NOp   1
                          Input orientation:                          
 ---------------------------------------------------------------------
 Center     Atomic      Atomic             Coordinates (Angstroms)
 Number     Number       Type             X           Y           Z
 ---------------------------------------------------------------------
      1          8           0       -3.739876   -3.588391   -4.136990
      2          1           0       -3.886385   -4.433460   -3.691639
      3          6           0        1.598267    2.067193    0.000000
      4          6           0        1.326070    0.609522    0.473607
      5          1           0        2.114454    0.000000    0.000000
      6          6           0        0.000000    0.000000    0.000000
      7          1           0       -0.836674    0.566972    0.431664
      8          6           0       -0.086623    0.064545   -1.548450
      9          1           0        0.693211   -0.623620   -1.914897
     10          6           0        2.992269    2.290814    0.683286
     11          1           0        3.669795    1.616739    0.140981
     12          6           0        1.588212    2.041669   -1.540764
     13          1           0        2.426995    1.424784   -1.892797
     14          1           0        1.739256    3.044632   -1.957476
     15          6           0       -1.442934   -0.497964   -2.102549
     16          6           0        1.641590    0.634486    1.980232
     17          1           0        1.916217   -0.353044    2.364291
     18          1           0        0.765848    0.963851    2.553137
     19          6           0        0.267208    1.468518   -2.094135
     20          1           0       -0.541042    2.171526   -1.867224
     21          1           0        0.335906    1.431777   -3.187172
     22          6           0        2.805867    1.659519    2.100343
     23          1           0        2.572950    2.424310    2.848129
     24          1           0        3.736517    1.183942    2.429099
     25          6           0       -0.132614   -1.457799    0.469487
     26          1           0       -0.339972   -1.489120    1.547436
     27          1           0        0.833731   -1.974118    0.344018
     28          6           0        3.739520    3.655081    0.722528
     29          1           0        4.635171    3.439767    1.325717
     30          6           0        0.524874    3.051184    0.521538
     31          1           0        0.636540    4.031316    0.048958
     32          1           0       -0.488228    2.704891    0.302677
     33          1           0        0.587707    3.198690    1.602771
     34          6           0       -1.803076   -1.809742   -1.390875
     35          6           0       -1.270637   -0.803425   -3.623343
     36          1           0       -0.334460   -1.363462   -3.756100
     37          1           0       -1.150796    0.136554   -4.172913
     38          6           0       -1.198069   -2.219721   -0.266285
     39          1           0       -1.492704   -3.177556    0.164047
     40          6           0       -2.604700    0.512458   -1.905969
     41          1           0       -2.477597    1.396017   -2.539354
     42          1           0       -3.569818    0.069222   -2.163488
     43          1           0       -2.669102    0.843020   -0.864694
     44          6           0       -2.896483   -2.648546   -2.025994
     45          1           0       -2.996244   -3.594722   -1.478598
     46          1           0       -3.868378   -2.139652   -1.957510
     47          6           0       -2.414950   -1.608727   -4.256158
     48          1           0       -3.353898   -1.041283   -4.243728
     49          1           0       -2.188742   -1.817330   -5.308010
     50          6           0        4.243196    4.154409   -0.653740
     51          1           0        3.379538    4.374079   -1.294176
     52          1           0        4.735109    5.122999   -0.490868
     53          6           0       -2.635265   -2.920701   -3.514538
     54          1           0       -1.729636   -3.542265   -3.610814
     55          6           0        3.028090    4.818826    1.442371
     56          1           0        2.238907    5.262240    0.828291
     57          1           0        3.751773    5.612687    1.659901
     58          1           0        2.581505    4.518056    2.394565
     59          6           0        5.207947    3.238491   -1.431983
     60          1           0        4.695659    2.309873   -1.710063
     61          1           0        5.446316    3.731912   -2.382995
     62          6           0        6.516816    2.864016   -0.710143
     63          1           0        7.094349    2.199078   -1.369433
     64          1           0        6.281593    2.266059    0.180772
     65          6           0        7.431324    4.031848   -0.283717
     66          1           0        6.860552    4.689156    0.388184
     67          6           0        7.902177    4.875911   -1.478843
     68          1           0        7.066096    5.335910   -2.015356
     69          1           0        8.566463    5.683210   -1.150073
     70          1           0        8.459440    4.258460   -2.195435
     71          6           0        8.636675    3.500164    0.508445
     72          1           0        8.316941    2.926903    1.386302
     73          1           0        9.276707    4.318643    0.857240
     74          1           0        9.252745    2.838855   -0.114407
 ---------------------------------------------------------------------
 Rotational constants (GHZ):      0.3848051      0.0673736      0.0641472
 Leave Link  202 at Mon Mar 20 12:42:19 2017, MaxMem=    33554432 cpu:         0.0
 (Enter /home/michal/g09/l301.exe)
 Standard basis: 6-31G(d) (6D, 7F)
 Ernie: Thresh=  0.10000D-02 Tol=  0.10000D-05 Strict=F.
 AO basis set in the form of general basis input (Overlap normalization):
      1 0
 S   6 1.00       0.000000000000
      0.5484671660D+04  0.1831074430D-02
      0.8252349460D+03  0.1395017220D-01
      0.1880469580D+03  0.6844507810D-01
      0.5296450000D+02  0.2327143360D+00
      0.1689757040D+02  0.4701928980D+00
      0.5799635340D+01  0.3585208530D+00
 SP   3 1.00       0.000000000000
      0.1553961625D+02 -0.1107775495D+00  0.7087426823D-01
      0.3599933586D+01 -0.1480262627D+00  0.3397528391D+00
      0.1013761750D+01  0.1130767015D+01  0.7271585773D+00
 SP   1 1.00       0.000000000000
      0.2700058226D+00  0.1000000000D+01  0.1000000000D+01
 D   1 1.00       0.000000000000
      0.8000000000D+00  0.1000000000D+01
 ****
      2 0
 S   3 1.00       0.000000000000
      0.1873113696D+02  0.3349460434D-01
      0.2825394365D+01  0.2347269535D+00
      0.6401216923D+00  0.8137573261D+00
 S   1 1.00       0.000000000000
      0.1612777588D+00  0.1000000000D+01
 ****
      3 0
 S   6 1.00       0.000000000000
      0.3047524880D+04  0.1834737132D-02
      0.4573695180D+03  0.1403732281D-01
      0.1039486850D+03  0.6884262226D-01
      0.2921015530D+02  0.2321844432D+00
      0.9286662960D+01  0.4679413484D+00
      0.3163926960D+01  0.3623119853D+00
 SP   3 1.00       0.000000000000
      0.7868272350D+01 -0.1193324198D+00  0.6899906659D-01
      0.1881288540D+01 -0.1608541517D+00  0.3164239610D+00
      0.5442492580D+00  0.1143456438D+01  0.7443082909D+00
 SP   1 1.00       0.000000000000
      0.1687144782D+00  0.1000000000D+01  0.1000000000D+01
 D   1 1.00       0.000000000000
      0.8000000000D+00  0.1000000000D+01
 ****
      4 0
 S   6 1.00       0.000000000000
      0.3047524880D+04  0.1834737132D-02
      0.4573695180D+03  0.1403732281D-01
      0.1039486850D+03  0.6884262226D-01
      0.2921015530D+02  0.2321844432D+00
      0.9286662960D+01  0.4679413484D+00
      0.3163926960D+01  0.3623119853D+00
 SP   3 1.00       0.000000000000
      0.7868272350D+01 -0.1193324198D+00  0.6899906659D-01
      0.1881288540D+01 -0.1608541517D+00  0.3164239610D+00
      0.5442492580D+00  0.1143456438D+01  0.7443082909D+00
 SP   1 1.00       0.000000000000
      0.1687144782D+00  0.1000000000D+01  0.1000000000D+01
 D   1 1.00       0.000000000000
      0.8000000000D+00  0.1000000000D+01
 ****
      5 0
 S   3 1.00       0.000000000000
      0.1873113696D+02  0.3349460434D-01
      0.2825394365D+01  0.2347269535D+00
      0.6401216923D+00  0.8137573261D+00
 S   1 1.00       0.000000000000
      0.1612777588D+00  0.1000000000D+01
 ****
      6 0
 S   6 1.00       0.000000000000
      0.3047524880D+04  0.1834737132D-02
      0.4573695180D+03  0.1403732281D-01
      0.1039486850D+03  0.6884262226D-01
      0.2921015530D+02  0.2321844432D+00
      0.9286662960D+01  0.4679413484D+00
      0.3163926960D+01  0.3623119853D+00
 SP   3 1.00       0.000000000000
      0.7868272350D+01 -0.1193324198D+00  0.6899906659D-01
      0.1881288540D+01 -0.1608541517D+00  0.3164239610D+00
      0.5442492580D+00  0.1143456438D+01  0.7443082909D+00
 SP   1 1.00       0.000000000000
      0.1687144782D+00  0.1000000000D+01  0.1000000000D+01
 D   1 1.00       0.000000000000
      0.8000000000D+00  0.1000000000D+01
 ****
      7 0
 S   3 1.00       0.000000000000
      0.1873113696D+02  0.3349460434D-01
      0.2825394365D+01  0.2347269535D+00
      0.6401216923D+00  0.8137573261D+00
 S   1 1.00       0.000000000000
      0.1612777588D+00  0.1000000000D+01
 ****
      8 0
 S   6 1.00       0.000000000000
      0.3047524880D+04  0.1834737132D-02
      0.4573695180D+03  0.1403732281D-01
      0.1039486850D+03  0.6884262226D-01
      0.2921015530D+02  0.2321844432D+00
      0.9286662960D+01  0.4679413484D+00
      0.3163926960D+01  0.3623119853D+00
 SP   3 1.00       0.000000000000
      0.7868272350D+01 -0.1193324198D+00  0.6899906659D-01
      0.1881288540D+01 -0.1608541517D+00  0.3164239610D+00
      0.5442492580D+00  0.1143456438D+01  0.7443082909D+00
 SP   1 1.00       0.000000000000
      0.1687144782D+00  0.1000000000D+01  0.1000000000D+01
 D   1 1.00       0.000000000000
      0.8000000000D+00  0.1000000000D+01
 ****
      9 0
 S   3 1.00       0.000000000000
      0.1873113696D+02  0.3349460434D-01
      0.2825394365D+01  0.2347269535D+00
      0.6401216923D+00  0.8137573261D+00
 S   1 1.00       0.000000000000
      0.1612777588D+00  0.1000000000D+01
 ****
     10 0
 S   6 1.00       0.000000000000
      0.3047524880D+04  0.1834737132D-02
      0.4573695180D+03  0.1403732281D-01
      0.1039486850D+03  0.6884262226D-01
      0.2921015530D+02  0.2321844432D+00
      0.9286662960D+01  0.4679413484D+00
      0.3163926960D+01  0.3623119853D+00
 SP   3 1.00       0.000000000000
      0.7868272350D+01 -0.1193324198D+00  0.6899906659D-01
      0.1881288540D+01 -0.1608541517D+00  0.3164239610D+00
      0.5442492580D+00  0.1143456438D+01  0.7443082909D+00
 SP   1 1.00       0.000000000000
      0.1687144782D+00  0.1000000000D+01  0.1000000000D+01
 D   1 1.00       0.000000000000
      0.8000000000D+00  0.1000000000D+01
 ****
     11 0
 S   3 1.00       0.000000000000
      0.1873113696D+02  0.3349460434D-01
      0.2825394365D+01  0.2347269535D+00
      0.6401216923D+00  0.8137573261D+00
 S   1 1.00       0.000000000000
      0.1612777588D+00  0.1000000000D+01
 ****
     12 0
 S   6 1.00       0.000000000000
      0.3047524880D+04  0.1834737132D-02
      0.4573695180D+03  0.1403732281D-01
      0.1039486850D+03  0.6884262226D-01
      0.2921015530D+02  0.2321844432D+00
      0.9286662960D+01  0.4679413484D+00
      0.3163926960D+01  0.3623119853D+00
 SP   3 1.00       0.000000000000
      0.7868272350D+01 -0.1193324198D+00  0.6899906659D-01
      0.1881288540D+01 -0.1608541517D+00  0.3164239610D+00
      0.5442492580D+00  0.1143456438D+01  0.7443082909D+00
 SP   1 1.00       0.000000000000
      0.1687144782D+00  0.1000000000D+01  0.1000000000D+01
 D   1 1.00       0.000000000000
      0.8000000000D+00  0.1000000000D+01
 ****
     13 0
 S   3 1.00       0.000000000000
      0.1873113696D+02  0.3349460434D-01
      0.2825394365D+01  0.2347269535D+00
      0.6401216923D+00  0.8137573261D+00
 S   1 1.00       0.000000000000
      0.1612777588D+00  0.1000000000D+01
 ****
     14 0
 S   3 1.00       0.000000000000
      0.1873113696D+02  0.3349460434D-01
      0.2825394365D+01  0.2347269535D+00
      0.6401216923D+00  0.8137573261D+00
 S   1 1.00       0.000000000000
      0.1612777588D+00  0.1000000000D+01
 ****
     15 0
 S   6 1.00       0.000000000000
      0.3047524880D+04  0.1834737132D-02
      0.4573695180D+03  0.1403732281D-01
      0.1039486850D+03  0.6884262226D-01
      0.2921015530D+02  0.2321844432D+00
      0.9286662960D+01  0.4679413484D+00
      0.3163926960D+01  0.3623119853D+00
 SP   3 1.00       0.000000000000
      0.7868272350D+01 -0.1193324198D+00  0.6899906659D-01
      0.1881288540D+01 -0.1608541517D+00  0.3164239610D+00
      0.5442492580D+00  0.1143456438D+01  0.7443082909D+00
 SP   1 1.00       0.000000000000
      0.1687144782D+00  0.1000000000D+01  0.1000000000D+01
 D   1 1.00       0.000000000000
      0.8000000000D+00  0.1000000000D+01
 ****
     16 0
 S   6 1.00       0.000000000000
      0.3047524880D+04  0.1834737132D-02
      0.4573695180D+03  0.1403732281D-01
      0.1039486850D+03  0.6884262226D-01
      0.2921015530D+02  0.2321844432D+00
      0.9286662960D+01  0.4679413484D+00
      0.3163926960D+01  0.3623119853D+00
 SP   3 1.00       0.000000000000
      0.7868272350D+01 -0.1193324198D+00  0.6899906659D-01
      0.1881288540D+01 -0.1608541517D+00  0.3164239610D+00
      0.5442492580D+00  0.1143456438D+01  0.7443082909D+00
 SP   1 1.00       0.000000000000
      0.1687144782D+00  0.1000000000D+01  0.1000000000D+01
 D   1 1.00       0.000000000000
      0.8000000000D+00  0.1000000000D+01
 ****
     17 0
 S   3 1.00       0.000000000000
      0.1873113696D+02  0.3349460434D-01
      0.2825394365D+01  0.2347269535D+00
      0.6401216923D+00  0.8137573261D+00
 S   1 1.00       0.000000000000
      0.1612777588D+00  0.1000000000D+01
 ****
     18 0
 S   3 1.00       0.000000000000
      0.1873113696D+02  0.3349460434D-01
      0.2825394365D+01  0.2347269535D+00
      0.6401216923D+00  0.8137573261D+00
 S   1 1.00       0.000000000000
      0.1612777588D+00  0.1000000000D+01
 ****
     19 0
 S   6 1.00       0.000000000000
      0.3047524880D+04  0.1834737132D-02
      0.4573695180D+03  0.1403732281D-01
      0.1039486850D+03  0.6884262226D-01
      0.2921015530D+02  0.2321844432D+00
      0.9286662960D+01  0.4679413484D+00
      0.3163926960D+01  0.3623119853D+00
 SP   3 1.00       0.000000000000
      0.7868272350D+01 -0.1193324198D+00  0.6899906659D-01
      0.1881288540D+01 -0.1608541517D+00  0.3164239610D+00
      0.5442492580D+00  0.1143456438D+01  0.7443082909D+00
 SP   1 1.00       0.000000000000
      0.1687144782D+00  0.1000000000D+01  0.1000000000D+01
 D   1 1.00       0.000000000000
      0.8000000000D+00  0.1000000000D+01
 ****
     20 0
 S   3 1.00       0.000000000000
      0.1873113696D+02  0.3349460434D-01
      0.2825394365D+01  0.2347269535D+00
      0.6401216923D+00  0.8137573261D+00
 S   1 1.00       0.000000000000
      0.1612777588D+00  0.1000000000D+01
 ****
     21 0
 S   3 1.00       0.000000000000
      0.1873113696D+02  0.3349460434D-01
      0.2825394365D+01  0.2347269535D+00
      0.6401216923D+00  0.8137573261D+00
 S   1 1.00       0.000000000000
      0.1612777588D+00  0.1000000000D+01
 ****
     22 0
 S   6 1.00       0.000000000000
      0.3047524880D+04  0.1834737132D-02
      0.4573695180D+03  0.1403732281D-01
      0.1039486850D+03  0.6884262226D-01
      0.2921015530D+02  0.2321844432D+00
      0.9286662960D+01  0.4679413484D+00
      0.3163926960D+01  0.3623119853D+00
 SP   3 1.00       0.000000000000
      0.7868272350D+01 -0.1193324198D+00  0.6899906659D-01
      0.1881288540D+01 -0.1608541517D+00  0.3164239610D+00
      0.5442492580D+00  0.1143456438D+01  0.7443082909D+00
 SP   1 1.00       0.000000000000
      0.1687144782D+00  0.1000000000D+01  0.1000000000D+01
 D   1 1.00       0.000000000000
      0.8000000000D+00  0.1000000000D+01
 ****
     23 0
 S   3 1.00       0.000000000000
      0.1873113696D+02  0.3349460434D-01
      0.2825394365D+01  0.2347269535D+00
      0.6401216923D+00  0.8137573261D+00
 S   1 1.00       0.000000000000
      0.1612777588D+00  0.1000000000D+01
 ****
     24 0
 S   3 1.00       0.000000000000
      0.1873113696D+02  0.3349460434D-01
      0.2825394365D+01  0.2347269535D+00
      0.6401216923D+00  0.8137573261D+00
 S   1 1.00       0.000000000000
      0.1612777588D+00  0.1000000000D+01
 ****
     25 0
 S   6 1.00       0.000000000000
      0.3047524880D+04  0.1834737132D-02
      0.4573695180D+03  0.1403732281D-01
      0.1039486850D+03  0.6884262226D-01
      0.2921015530D+02  0.2321844432D+00
      0.9286662960D+01  0.4679413484D+00
      0.3163926960D+01  0.3623119853D+00
 SP   3 1.00       0.000000000000
      0.7868272350D+01 -0.1193324198D+00  0.6899906659D-01
      0.1881288540D+01 -0.1608541517D+00  0.3164239610D+00
      0.5442492580D+00  0.1143456438D+01  0.7443082909D+00
 SP   1 1.00       0.000000000000
      0.1687144782D+00  0.1000000000D+01  0.1000000000D+01
 D   1 1.00       0.000000000000
      0.8000000000D+00  0.1000000000D+01
 ****
     26 0
 S   3 1.00       0.000000000000
      0.1873113696D+02  0.3349460434D-01
      0.2825394365D+01  0.2347269535D+00
      0.6401216923D+00  0.8137573261D+00
 S   1 1.00       0.000000000000
      0.1612777588D+00  0.1000000000D+01
 ****
     27 0
 S   3 1.00       0.000000000000
      0.1873113696D+02  0.3349460434D-01
      0.2825394365D+01  0.2347269535D+00
      0.6401216923D+00  0.8137573261D+00
 S   1 1.00       0.000000000000
      0.1612777588D+00  0.1000000000D+01
 ****
     28 0
 S   6 1.00       0.000000000000
      0.3047524880D+04  0.1834737132D-02
      0.4573695180D+03  0.1403732281D-01
      0.1039486850D+03  0.6884262226D-01
      0.2921015530D+02  0.2321844432D+00
      0.9286662960D+01  0.4679413484D+00
      0.3163926960D+01  0.3623119853D+00
 SP   3 1.00       0.000000000000
      0.7868272350D+01 -0.1193324198D+00  0.6899906659D-01
      0.1881288540D+01 -0.1608541517D+00  0.3164239610D+00
      0.5442492580D+00  0.1143456438D+01  0.7443082909D+00
 SP   1 1.00       0.000000000000
      0.1687144782D+00  0.1000000000D+01  0.1000000000D+01
 D   1 1.00       0.000000000000
      0.8000000000D+00  0.1000000000D+01
 ****
     29 0
 S   3 1.00       0.000000000000
      0.1873113696D+02  0.3349460434D-01
      0.2825394365D+01  0.2347269535D+00
      0.6401216923D+00  0.8137573261D+00
 S   1 1.00       0.000000000000
      0.1612777588D+00  0.1000000000D+01
 ****
     30 0
 S   6 1.00       0.000000000000
      0.3047524880D+04  0.1834737132D-02
      0.4573695180D+03  0.1403732281D-01
      0.1039486850D+03  0.6884262226D-01
      0.2921015530D+02  0.2321844432D+00
      0.9286662960D+01  0.4679413484D+00
      0.3163926960D+01  0.3623119853D+00
 SP   3 1.00       0.000000000000
      0.7868272350D+01 -0.1193324198D+00  0.6899906659D-01
      0.1881288540D+01 -0.1608541517D+00  0.3164239610D+00
      0.5442492580D+00  0.1143456438D+01  0.7443082909D+00
 SP   1 1.00       0.000000000000
      0.1687144782D+00  0.1000000000D+01  0.1000000000D+01
 D   1 1.00       0.000000000000
      0.8000000000D+00  0.1000000000D+01
 ****
     31 0
 S   3 1.00       0.000000000000
      0.1873113696D+02  0.3349460434D-01
      0.2825394365D+01  0.2347269535D+00
      0.6401216923D+00  0.8137573261D+00
 S   1 1.00       0.000000000000
      0.1612777588D+00  0.1000000000D+01
 ****
     32 0
 S   3 1.00       0.000000000000
      0.1873113696D+02  0.3349460434D-01
      0.2825394365D+01  0.2347269535D+00
      0.6401216923D+00  0.8137573261D+00
 S   1 1.00       0.000000000000
      0.1612777588D+00  0.1000000000D+01
 ****
     33 0
 S   3 1.00       0.000000000000
      0.1873113696D+02  0.3349460434D-01
      0.2825394365D+01  0.2347269535D+00
      0.6401216923D+00  0.8137573261D+00
 S   1 1.00       0.000000000000
      0.1612777588D+00  0.1000000000D+01
 ****
     34 0
 S   6 1.00       0.000000000000
      0.3047524880D+04  0.1834737132D-02
      0.4573695180D+03  0.1403732281D-01
      0.1039486850D+03  0.6884262226D-01
      0.2921015530D+02  0.2321844432D+00
      0.9286662960D+01  0.4679413484D+00
      0.3163926960D+01  0.3623119853D+00
 SP   3 1.00       0.000000000000
      0.7868272350D+01 -0.1193324198D+00  0.6899906659D-01
      0.1881288540D+01 -0.1608541517D+00  0.3164239610D+00
      0.5442492580D+00  0.1143456438D+01  0.7443082909D+00
 SP   1 1.00       0.000000000000
      0.1687144782D+00  0.1000000000D+01  0.1000000000D+01
 D   1 1.00       0.000000000000
      0.8000000000D+00  0.1000000000D+01
 ****
     35 0
 S   6 1.00       0.000000000000
      0.3047524880D+04  0.1834737132D-02
      0.4573695180D+03  0.1403732281D-01
      0.1039486850D+03  0.6884262226D-01
      0.2921015530D+02  0.2321844432D+00
      0.9286662960D+01  0.4679413484D+00
      0.3163926960D+01  0.3623119853D+00
 SP   3 1.00       0.000000000000
      0.7868272350D+01 -0.1193324198D+00  0.6899906659D-01
      0.1881288540D+01 -0.1608541517D+00  0.3164239610D+00
      0.5442492580D+00  0.1143456438D+01  0.7443082909D+00
 SP   1 1.00       0.000000000000
      0.1687144782D+00  0.1000000000D+01  0.1000000000D+01
 D   1 1.00       0.000000000000
      0.8000000000D+00  0.1000000000D+01
 ****
     36 0
 S   3 1.00       0.000000000000
      0.1873113696D+02  0.3349460434D-01
      0.2825394365D+01  0.2347269535D+00
      0.6401216923D+00  0.8137573261D+00
 S   1 1.00       0.000000000000
      0.1612777588D+00  0.1000000000D+01
 ****
     37 0
 S   3 1.00       0.000000000000
      0.1873113696D+02  0.3349460434D-01
      0.2825394365D+01  0.2347269535D+00
      0.6401216923D+00  0.8137573261D+00
 S   1 1.00       0.000000000000
      0.1612777588D+00  0.1000000000D+01
 ****
     38 0
 S   6 1.00       0.000000000000
      0.3047524880D+04  0.1834737132D-02
      0.4573695180D+03  0.1403732281D-01
      0.1039486850D+03  0.6884262226D-01
      0.2921015530D+02  0.2321844432D+00
      0.9286662960D+01  0.4679413484D+00
      0.3163926960D+01  0.3623119853D+00
 SP   3 1.00       0.000000000000
      0.7868272350D+01 -0.1193324198D+00  0.6899906659D-01
      0.1881288540D+01 -0.1608541517D+00  0.3164239610D+00
      0.5442492580D+00  0.1143456438D+01  0.7443082909D+00
 SP   1 1.00       0.000000000000
      0.1687144782D+00  0.1000000000D+01  0.1000000000D+01
 D   1 1.00       0.000000000000
      0.8000000000D+00  0.1000000000D+01
 ****
     39 0
 S   3 1.00       0.000000000000
      0.1873113696D+02  0.3349460434D-01
      0.2825394365D+01  0.2347269535D+00
      0.6401216923D+00  0.8137573261D+00
 S   1 1.00       0.000000000000
      0.1612777588D+00  0.1000000000D+01
 ****
     40 0
 S   6 1.00       0.000000000000
      0.3047524880D+04  0.1834737132D-02
      0.4573695180D+03  0.1403732281D-01
      0.1039486850D+03  0.6884262226D-01
      0.2921015530D+02  0.2321844432D+00
      0.9286662960D+01  0.4679413484D+00
      0.3163926960D+01  0.3623119853D+00
 SP   3 1.00       0.000000000000
      0.7868272350D+01 -0.1193324198D+00  0.6899906659D-01
      0.1881288540D+01 -0.1608541517D+00  0.3164239610D+00
      0.5442492580D+00  0.1143456438D+01  0.7443082909D+00
 SP   1 1.00       0.000000000000
      0.1687144782D+00  0.1000000000D+01  0.1000000000D+01
 D   1 1.00       0.000000000000
      0.8000000000D+00  0.1000000000D+01
 ****
     41 0
 S   3 1.00       0.000000000000
      0.1873113696D+02  0.3349460434D-01
      0.2825394365D+01  0.2347269535D+00
      0.6401216923D+00  0.8137573261D+00
 S   1 1.00       0.000000000000
      0.1612777588D+00  0.1000000000D+01
 ****
     42 0
 S   3 1.00       0.000000000000
      0.1873113696D+02  0.3349460434D-01
      0.2825394365D+01  0.2347269535D+00
      0.6401216923D+00  0.8137573261D+00
 S   1 1.00       0.000000000000
      0.1612777588D+00  0.1000000000D+01
 ****
     43 0
 S   3 1.00       0.000000000000
      0.1873113696D+02  0.3349460434D-01
      0.2825394365D+01  0.2347269535D+00
      0.6401216923D+00  0.8137573261D+00
 S   1 1.00       0.000000000000
      0.1612777588D+00  0.1000000000D+01
 ****
     44 0
 S   6 1.00       0.000000000000
      0.3047524880D+04  0.1834737132D-02
      0.4573695180D+03  0.1403732281D-01
      0.1039486850D+03  0.6884262226D-01
      0.2921015530D+02  0.2321844432D+00
      0.9286662960D+01  0.4679413484D+00
      0.3163926960D+01  0.3623119853D+00
 SP   3 1.00       0.000000000000
      0.7868272350D+01 -0.1193324198D+00  0.6899906659D-01
      0.1881288540D+01 -0.1608541517D+00  0.3164239610D+00
      0.5442492580D+00  0.1143456438D+01  0.7443082909D+00
 SP   1 1.00       0.000000000000
      0.1687144782D+00  0.1000000000D+01  0.1000000000D+01
 D   1 1.00       0.000000000000
      0.8000000000D+00  0.1000000000D+01
 ****
     45 0
 S   3 1.00       0.000000000000
      0.1873113696D+02  0.3349460434D-01
      0.2825394365D+01  0.2347269535D+00
      0.6401216923D+00  0.8137573261D+00
 S   1 1.00       0.000000000000
      0.1612777588D+00  0.1000000000D+01
 ****
     46 0
 S   3 1.00       0.000000000000
      0.1873113696D+02  0.3349460434D-01
      0.2825394365D+01  0.2347269535D+00
      0.6401216923D+00  0.8137573261D+00
 S   1 1.00       0.000000000000
      0.1612777588D+00  0.1000000000D+01
 ****
     47 0
 S   6 1.00       0.000000000000
      0.3047524880D+04  0.1834737132D-02
      0.4573695180D+03  0.1403732281D-01
      0.1039486850D+03  0.6884262226D-01
      0.2921015530D+02  0.2321844432D+00
      0.9286662960D+01  0.4679413484D+00
      0.3163926960D+01  0.3623119853D+00
 SP   3 1.00       0.000000000000
      0.7868272350D+01 -0.1193324198D+00  0.6899906659D-01
      0.1881288540D+01 -0.1608541517D+00  0.3164239610D+00
      0.5442492580D+00  0.1143456438D+01  0.7443082909D+00
 SP   1 1.00       0.000000000000
      0.1687144782D+00  0.1000000000D+01  0.1000000000D+01
 D   1 1.00       0.000000000000
      0.8000000000D+00  0.1000000000D+01
 ****
     48 0
 S   3 1.00       0.000000000000
      0.1873113696D+02  0.3349460434D-01
      0.2825394365D+01  0.2347269535D+00
      0.6401216923D+00  0.8137573261D+00
 S   1 1.00       0.000000000000
      0.1612777588D+00  0.1000000000D+01
 ****
     49 0
 S   3 1.00       0.000000000000
      0.1873113696D+02  0.3349460434D-01
      0.2825394365D+01  0.2347269535D+00
      0.6401216923D+00  0.8137573261D+00
 S   1 1.00       0.000000000000
      0.1612777588D+00  0.1000000000D+01
 ****
     50 0
 S   6 1.00       0.000000000000
      0.3047524880D+04  0.1834737132D-02
      0.4573695180D+03  0.1403732281D-01
      0.1039486850D+03  0.6884262226D-01
      0.2921015530D+02  0.2321844432D+00
      0.9286662960D+01  0.4679413484D+00
      0.3163926960D+01  0.3623119853D+00
 SP   3 1.00       0.000000000000
      0.7868272350D+01 -0.1193324198D+00  0.6899906659D-01
      0.1881288540D+01 -0.1608541517D+00  0.3164239610D+00
      0.5442492580D+00  0.1143456438D+01  0.7443082909D+00
 SP   1 1.00       0.000000000000
      0.1687144782D+00  0.1000000000D+01  0.1000000000D+01
 D   1 1.00       0.000000000000
      0.8000000000D+00  0.1000000000D+01
 ****
     51 0
 S   3 1.00       0.000000000000
      0.1873113696D+02  0.3349460434D-01
      0.2825394365D+01  0.2347269535D+00
      0.6401216923D+00  0.8137573261D+00
 S   1 1.00       0.000000000000
      0.1612777588D+00  0.1000000000D+01
 ****
     52 0
 S   3 1.00       0.000000000000
      0.1873113696D+02  0.3349460434D-01
      0.2825394365D+01  0.2347269535D+00
      0.6401216923D+00  0.8137573261D+00
 S   1 1.00       0.000000000000
      0.1612777588D+00  0.1000000000D+01
 ****
     53 0
 S   6 1.00       0.000000000000
      0.3047524880D+04  0.1834737132D-02
      0.4573695180D+03  0.1403732281D-01
      0.1039486850D+03  0.6884262226D-01
      0.2921015530D+02  0.2321844432D+00
      0.9286662960D+01  0.4679413484D+00
      0.3163926960D+01  0.3623119853D+00
 SP   3 1.00       0.000000000000
      0.7868272350D+01 -0.1193324198D+00  0.6899906659D-01
      0.1881288540D+01 -0.1608541517D+00  0.3164239610D+00
      0.5442492580D+00  0.1143456438D+01  0.7443082909D+00
 SP   1 1.00       0.000000000000
      0.1687144782D+00  0.1000000000D+01  0.1000000000D+01
 D   1 1.00       0.000000000000
      0.8000000000D+00  0.1000000000D+01
 ****
     54 0
 S   3 1.00       0.000000000000
      0.1873113696D+02  0.3349460434D-01
      0.2825394365D+01  0.2347269535D+00
      0.6401216923D+00  0.8137573261D+00
 S   1 1.00       0.000000000000
      0.1612777588D+00  0.1000000000D+01
 ****
     55 0
 S   6 1.00       0.000000000000
      0.3047524880D+04  0.1834737132D-02
      0.4573695180D+03  0.1403732281D-01
      0.1039486850D+03  0.6884262226D-01
      0.2921015530D+02  0.2321844432D+00
      0.9286662960D+01  0.4679413484D+00
      0.3163926960D+01  0.3623119853D+00
 SP   3 1.00       0.000000000000
      0.7868272350D+01 -0.1193324198D+00  0.6899906659D-01
      0.1881288540D+01 -0.1608541517D+00  0.3164239610D+00
      0.5442492580D+00  0.1143456438D+01  0.7443082909D+00
 SP   1 1.00       0.000000000000
      0.1687144782D+00  0.1000000000D+01  0.1000000000D+01
 D   1 1.00       0.000000000000
      0.8000000000D+00  0.1000000000D+01
 ****
     56 0
 S   3 1.00       0.000000000000
      0.1873113696D+02  0.3349460434D-01
      0.2825394365D+01  0.2347269535D+00
      0.6401216923D+00  0.8137573261D+00
 S   1 1.00       0.000000000000
      0.1612777588D+00  0.1000000000D+01
 ****
     57 0
 S   3 1.00       0.000000000000
      0.1873113696D+02  0.3349460434D-01
      0.2825394365D+01  0.2347269535D+00
      0.6401216923D+00  0.8137573261D+00
 S   1 1.00       0.000000000000
      0.1612777588D+00  0.1000000000D+01
 ****
     58 0
 S   3 1.00       0.000000000000
      0.1873113696D+02  0.3349460434D-01
      0.2825394365D+01  0.2347269535D+00
      0.6401216923D+00  0.8137573261D+00
 S   1 1.00       0.000000000000
      0.1612777588D+00  0.1000000000D+01
 ****
     59 0
 S   6 1.00       0.000000000000
      0.3047524880D+04  0.1834737132D-02
      0.4573695180D+03  0.1403732281D-01
      0.1039486850D+03  0.6884262226D-01
      0.2921015530D+02  0.2321844432D+00
      0.9286662960D+01  0.4679413484D+00
      0.3163926960D+01  0.3623119853D+00
 SP   3 1.00       0.000000000000
      0.7868272350D+01 -0.1193324198D+00  0.6899906659D-01
      0.1881288540D+01 -0.1608541517D+00  0.3164239610D+00
      0.5442492580D+00  0.1143456438D+01  0.7443082909D+00
 SP   1 1.00       0.000000000000
      0.1687144782D+00  0.1000000000D+01  0.1000000000D+01
 D   1 1.00       0.000000000000
      0.8000000000D+00  0.1000000000D+01
 ****
     60 0
 S   3 1.00       0.000000000000
      0.1873113696D+02  0.3349460434D-01
      0.2825394365D+01  0.2347269535D+00
      0.6401216923D+00  0.8137573261D+00
 S   1 1.00       0.000000000000
      0.1612777588D+00  0.1000000000D+01
 ****
     61 0
 S   3 1.00       0.000000000000
      0.1873113696D+02  0.3349460434D-01
      0.2825394365D+01  0.2347269535D+00
      0.6401216923D+00  0.8137573261D+00
 S   1 1.00       0.000000000000
      0.1612777588D+00  0.1000000000D+01
 ****
     62 0
 S   6 1.00       0.000000000000
      0.3047524880D+04  0.1834737132D-02
      0.4573695180D+03  0.1403732281D-01
      0.1039486850D+03  0.6884262226D-01
      0.2921015530D+02  0.2321844432D+00
      0.9286662960D+01  0.4679413484D+00
      0.3163926960D+01  0.3623119853D+00
 SP   3 1.00       0.000000000000
      0.7868272350D+01 -0.1193324198D+00  0.6899906659D-01
      0.1881288540D+01 -0.1608541517D+00  0.3164239610D+00
      0.5442492580D+00  0.1143456438D+01  0.7443082909D+00
 SP   1 1.00       0.000000000000
      0.1687144782D+00  0.1000000000D+01  0.1000000000D+01
 D   1 1.00       0.000000000000
      0.8000000000D+00  0.1000000000D+01
 ****
     63 0
 S   3 1.00       0.000000000000
      0.1873113696D+02  0.3349460434D-01
      0.2825394365D+01  0.2347269535D+00
      0.6401216923D+00  0.8137573261D+00
 S   1 1.00       0.000000000000
      0.1612777588D+00  0.1000000000D+01
 ****
     64 0
 S   3 1.00       0.000000000000
      0.1873113696D+02  0.3349460434D-01
      0.2825394365D+01  0.2347269535D+00
      0.6401216923D+00  0.8137573261D+00
 S   1 1.00       0.000000000000
      0.1612777588D+00  0.1000000000D+01
 ****
     65 0
 S   6 1.00       0.000000000000
      0.3047524880D+04  0.1834737132D-02
      0.4573695180D+03  0.1403732281D-01
      0.1039486850D+03  0.6884262226D-01
      0.2921015530D+02  0.2321844432D+00
      0.9286662960D+01  0.4679413484D+00
      0.3163926960D+01  0.3623119853D+00
 SP   3 1.00       0.000000000000
      0.7868272350D+01 -0.1193324198D+00  0.6899906659D-01
      0.1881288540D+01 -0.1608541517D+00  0.3164239610D+00
      0.5442492580D+00  0.1143456438D+01  0.7443082909D+00
 SP   1 1.00       0.000000000000
      0.1687144782D+00  0.1000000000D+01  0.1000000000D+01
 D   1 1.00       0.000000000000
      0.8000000000D+00  0.1000000000D+01
 ****
     66 0
 S   3 1.00       0.000000000000
      0.1873113696D+02  0.3349460434D-01
      0.2825394365D+01  0.2347269535D+00
      0.6401216923D+00  0.8137573261D+00
 S   1 1.00       0.000000000000
      0.1612777588D+00  0.1000000000D+01
 ****
     67 0
 S   6 1.00       0.000000000000
      0.3047524880D+04  0.1834737132D-02
      0.4573695180D+03  0.1403732281D-01
      0.1039486850D+03  0.6884262226D-01
      0.2921015530D+02  0.2321844432D+00
      0.9286662960D+01  0.4679413484D+00
      0.3163926960D+01  0.3623119853D+00
 SP   3 1.00       0.000000000000
      0.7868272350D+01 -0.1193324198D+00  0.6899906659D-01
      0.1881288540D+01 -0.1608541517D+00  0.3164239610D+00
      0.5442492580D+00  0.1143456438D+01  0.7443082909D+00
 SP   1 1.00       0.000000000000
      0.1687144782D+00  0.1000000000D+01  0.1000000000D+01
 D   1 1.00       0.000000000000
      0.8000000000D+00  0.1000000000D+01
 ****
     68 0
 S   3 1.00       0.000000000000
      0.1873113696D+02  0.3349460434D-01
      0.2825394365D+01  0.2347269535D+00
      0.6401216923D+00  0.8137573261D+00
 S   1 1.00       0.000000000000
      0.1612777588D+00  0.1000000000D+01
 ****
     69 0
 S   3 1.00       0.000000000000
      0.1873113696D+02  0.3349460434D-01
      0.2825394365D+01  0.2347269535D+00
      0.6401216923D+00  0.8137573261D+00
 S   1 1.00       0.000000000000
      0.1612777588D+00  0.1000000000D+01
 ****
     70 0
 S   3 1.00       0.000000000000
      0.1873113696D+02  0.3349460434D-01
      0.2825394365D+01  0.2347269535D+00
      0.6401216923D+00  0.8137573261D+00
 S   1 1.00       0.000000000000
      0.1612777588D+00  0.1000000000D+01
 ****
     71 0
 S   6 1.00       0.000000000000
      0.3047524880D+04  0.1834737132D-02
      0.4573695180D+03  0.1403732281D-01
      0.1039486850D+03  0.6884262226D-01
      0.2921015530D+02  0.2321844432D+00
      0.9286662960D+01  0.4679413484D+00
      0.3163926960D+01  0.3623119853D+00
 SP   3 1.00       0.000000000000
      0.7868272350D+01 -0.1193324198D+00  0.6899906659D-01
      0.1881288540D+01 -0.1608541517D+00  0.3164239610D+00
      0.5442492580D+00  0.1143456438D+01  0.7443082909D+00
 SP   1 1.00       0.000000000000
      0.1687144782D+00  0.1000000000D+01  0.1000000000D+01
 D   1 1.00       0.000000000000
      0.8000000000D+00  0.1000000000D+01
 ****
     72 0
 S   3 1.00       0.000000000000
      0.1873113696D+02  0.3349460434D-01
      0.2825394365D+01  0.2347269535D+00
      0.6401216923D+00  0.8137573261D+00
 S   1 1.00       0.000000000000
      0.1612777588D+00  0.1000000000D+01
 ****
     73 0
 S   3 1.00       0.000000000000
      0.1873113696D+02  0.3349460434D-01
      0.2825394365D+01  0.2347269535D+00
      0.6401216923D+00  0.8137573261D+00
 S   1 1.00       0.000000000000
      0.1612777588D+00  0.1000000000D+01
 ****
     74 0
 S   3 1.00       0.000000000000
      0.1873113696D+02  0.3349460434D-01
      0.2825394365D+01  0.2347269535D+00
      0.6401216923D+00  0.8137573261D+00
 S   1 1.00       0.000000000000
      0.1612777588D+00  0.1000000000D+01
 ****

 AO basis set (Overlap normalization):
 Atom O1       Shell     1 S   6     bf    1 -     1         -7.067340541678         -6.781076625657         -7.817778568021
      0.5484671660D+04  0.1831074430D-02
      0.8252349460D+03  0.1395017220D-01
      0.1880469580D+03  0.6844507810D-01
      0.5296450000D+02  0.2327143360D+00
      0.1689757040D+02  0.4701928980D+00
      0.5799635340D+01  0.3585208530D+00
 Atom O1       Shell     2 SP   3    bf    2 -     5         -7.067340541678         -6.781076625657         -7.817778568021
      0.1553961625D+02 -0.1107775495D+00  0.7087426823D-01
      0.3599933586D+01 -0.1480262627D+00  0.3397528391D+00
      0.1013761750D+01  0.1130767015D+01  0.7271585773D+00
 Atom O1       Shell     3 SP   1    bf    6 -     9         -7.067340541678         -6.781076625657         -7.817778568021
      0.2700058226D+00  0.1000000000D+01  0.1000000000D+01
 Atom O1       Shell     4 D   1     bf   10 -    15         -7.067340541678         -6.781076625657         -7.817778568021
      0.8000000000D+00  0.1000000000D+01
 Atom H2       Shell     5 S   3     bf   16 -    16         -7.344203807181         -8.378025825816         -6.976186899350
      0.1873113696D+02  0.3349460434D-01
      0.2825394365D+01  0.2347269535D+00
      0.6401216923D+00  0.8137573261D+00
 Atom H2       Shell     6 S   1     bf   17 -    17         -7.344203807181         -8.378025825816         -6.976186899350
      0.1612777588D+00  0.1000000000D+01
 Atom C3       Shell     7 S   6     bf   18 -    18          3.020287030612          3.906428180284          0.000000000000
      0.3047524880D+04  0.1834737132D-02
      0.4573695180D+03  0.1403732281D-01
      0.1039486850D+03  0.6884262226D-01
      0.2921015530D+02  0.2321844432D+00
      0.9286662960D+01  0.4679413484D+00
      0.3163926960D+01  0.3623119853D+00
 Atom C3       Shell     8 SP   3    bf   19 -    22          3.020287030612          3.906428180284          0.000000000000
      0.7868272350D+01 -0.1193324198D+00  0.6899906659D-01
      0.1881288540D+01 -0.1608541517D+00  0.3164239610D+00
      0.5442492580D+00  0.1143456438D+01  0.7443082909D+00
 Atom C3       Shell     9 SP   1    bf   23 -    26          3.020287030612          3.906428180284          0.000000000000
      0.1687144782D+00  0.1000000000D+01  0.1000000000D+01
 Atom C3       Shell    10 D   1     bf   27 -    32          3.020287030612          3.906428180284          0.000000000000
      0.8000000000D+00  0.1000000000D+01
 Atom C4       Shell    11 S   6     bf   33 -    33          2.505909265316          1.151829746455          0.894987864768
      0.3047524880D+04  0.1834737132D-02
      0.4573695180D+03  0.1403732281D-01
      0.1039486850D+03  0.6884262226D-01
      0.2921015530D+02  0.2321844432D+00
      0.9286662960D+01  0.4679413484D+00
      0.3163926960D+01  0.3623119853D+00
 Atom C4       Shell    12 SP   3    bf   34 -    37          2.505909265316          1.151829746455          0.894987864768
      0.7868272350D+01 -0.1193324198D+00  0.6899906659D-01
      0.1881288540D+01 -0.1608541517D+00  0.3164239610D+00
      0.5442492580D+00  0.1143456438D+01  0.7443082909D+00
 Atom C4       Shell    13 SP   1    bf   38 -    41          2.505909265316          1.151829746455          0.894987864768
      0.1687144782D+00  0.1000000000D+01  0.1000000000D+01
 Atom C4       Shell    14 D   1     bf   42 -    47          2.505909265316          1.151829746455          0.894987864768
      0.8000000000D+00  0.1000000000D+01
 Atom H5       Shell    15 S   3     bf   48 -    48          3.995739226249          0.000000000000          0.000000000000
      0.1873113696D+02  0.3349460434D-01
      0.2825394365D+01  0.2347269535D+00
      0.6401216923D+00  0.8137573261D+00
 Atom H5       Shell    16 S   1     bf   49 -    49          3.995739226249          0.000000000000          0.000000000000
      0.1612777588D+00  0.1000000000D+01
 Atom C6       Shell    17 S   6     bf   50 -    50          0.000000000000          0.000000000000          0.000000000000
      0.3047524880D+04  0.1834737132D-02
      0.4573695180D+03  0.1403732281D-01
      0.1039486850D+03  0.6884262226D-01
      0.2921015530D+02  0.2321844432D+00
      0.9286662960D+01  0.4679413484D+00
      0.3163926960D+01  0.3623119853D+00
 Atom C6       Shell    18 SP   3    bf   51 -    54          0.000000000000          0.000000000000          0.000000000000
      0.7868272350D+01 -0.1193324198D+00  0.6899906659D-01
      0.1881288540D+01 -0.1608541517D+00  0.3164239610D+00
      0.5442492580D+00  0.1143456438D+01  0.7443082909D+00
 Atom C6       Shell    19 SP   1    bf   55 -    58          0.000000000000          0.000000000000          0.000000000000
      0.1687144782D+00  0.1000000000D+01  0.1000000000D+01
 Atom C6       Shell    20 D   1     bf   59 -    64          0.000000000000          0.000000000000          0.000000000000
      0.8000000000D+00  0.1000000000D+01
 Atom H7       Shell    21 S   3     bf   65 -    65         -1.581085535088          1.071422712083          0.815726911501
      0.1873113696D+02  0.3349460434D-01
      0.2825394365D+01  0.2347269535D+00
      0.6401216923D+00  0.8137573261D+00
 Atom H7       Shell    22 S   1     bf   66 -    66         -1.581085535088          1.071422712083          0.815726911501
      0.1612777588D+00  0.1000000000D+01
 Atom C8       Shell    23 S   6     bf   67 -    67         -0.163693009816          0.121972146480         -2.926145712371
      0.3047524880D+04  0.1834737132D-02
      0.4573695180D+03  0.1403732281D-01
      0.1039486850D+03  0.6884262226D-01
      0.2921015530D+02  0.2321844432D+00
      0.9286662960D+01  0.4679413484D+00
      0.3163926960D+01  0.3623119853D+00
 Atom C8       Shell    24 SP   3    bf   68 -    71         -0.163693009816          0.121972146480         -2.926145712371
      0.7868272350D+01 -0.1193324198D+00  0.6899906659D-01
      0.1881288540D+01 -0.1608541517D+00  0.3164239610D+00
      0.5442492580D+00  0.1143456438D+01  0.7443082909D+00
 Atom C8       Shell    25 SP   1    bf   72 -    75         -0.163693009816          0.121972146480         -2.926145712371
      0.1687144782D+00  0.1000000000D+01  0.1000000000D+01
 Atom C8       Shell    26 D   1     bf   76 -    81         -0.163693009816          0.121972146480         -2.926145712371
      0.8000000000D+00  0.1000000000D+01
 Atom H9       Shell    27 S   3     bf   82 -    82          1.309978828920         -1.178471048785         -3.618631753061
      0.1873113696D+02  0.3349460434D-01
      0.2825394365D+01  0.2347269535D+00
      0.6401216923D+00  0.8137573261D+00
 Atom H9       Shell    28 S   1     bf   83 -    83          1.309978828920         -1.178471048785         -3.618631753061
      0.1612777588D+00  0.1000000000D+01
 Atom C10      Shell    29 S   6     bf   84 -    84          5.654569492841          4.329011327045          1.291223637202
      0.3047524880D+04  0.1834737132D-02
      0.4573695180D+03  0.1403732281D-01
      0.1039486850D+03  0.6884262226D-01
      0.2921015530D+02  0.2321844432D+00
      0.9286662960D+01  0.4679413484D+00
      0.3163926960D+01  0.3623119853D+00
 Atom C10      Shell    30 SP   3    bf   85 -    88          5.654569492841          4.329011327045          1.291223637202
      0.7868272350D+01 -0.1193324198D+00  0.6899906659D-01
      0.1881288540D+01 -0.1608541517D+00  0.3164239610D+00
      0.5442492580D+00  0.1143456438D+01  0.7443082909D+00
 Atom C10      Shell    31 SP   1    bf   89 -    92          5.654569492841          4.329011327045          1.291223637202
      0.1687144782D+00  0.1000000000D+01  0.1000000000D+01
 Atom C10      Shell    32 D   1     bf   93 -    98          5.654569492841          4.329011327045          1.291223637202
      0.8000000000D+00  0.1000000000D+01
 Atom H11      Shell    33 S   3     bf   99 -    99          6.934906946915          3.055194467479          0.266415536632
      0.1873113696D+02  0.3349460434D-01
      0.2825394365D+01  0.2347269535D+00
      0.6401216923D+00  0.8137573261D+00
 Atom H11      Shell    34 S   1     bf  100 -   100          6.934906946915          3.055194467479          0.266415536632
      0.1612777588D+00  0.1000000000D+01
 Atom C12      Shell    35 S   6     bf  101 -   101          3.001285872141          3.858194829365         -2.911621352903
      0.3047524880D+04  0.1834737132D-02
      0.4573695180D+03  0.1403732281D-01
      0.1039486850D+03  0.6884262226D-01
      0.2921015530D+02  0.2321844432D+00
      0.9286662960D+01  0.4679413484D+00
      0.3163926960D+01  0.3623119853D+00
 Atom C12      Shell    36 SP   3    bf  102 -   105          3.001285872141          3.858194829365         -2.911621352903
      0.7868272350D+01 -0.1193324198D+00  0.6899906659D-01
      0.1881288540D+01 -0.1608541517D+00  0.3164239610D+00
      0.5442492580D+00  0.1143456438D+01  0.7443082909D+00
 Atom C12      Shell    37 SP   1    bf  106 -   109          3.001285872141          3.858194829365         -2.911621352903
      0.1687144782D+00  0.1000000000D+01  0.1000000000D+01
 Atom C12      Shell    38 D   1     bf  110 -   115          3.001285872141          3.858194829365         -2.911621352903
      0.8000000000D+00  0.1000000000D+01
 Atom H13      Shell    39 S   3     bf  116 -   116          4.586355535732          2.692451539620         -3.576868181915
      0.1873113696D+02  0.3349460434D-01
      0.2825394365D+01  0.2347269535D+00
      0.6401216923D+00  0.8137573261D+00
 Atom H13      Shell    40 S   1     bf  117 -   117          4.586355535732          2.692451539620         -3.576868181915
      0.1612777588D+00  0.1000000000D+01
 Atom H14      Shell    41 S   3     bf  118 -   118          3.286717514978          5.753521316824         -3.699093400518
      0.1873113696D+02  0.3349460434D-01
      0.2825394365D+01  0.2347269535D+00
      0.6401216923D+00  0.8137573261D+00
 Atom H14      Shell    42 S   1     bf  119 -   119          3.286717514978          5.753521316824         -3.699093400518
      0.1612777588D+00  0.1000000000D+01
 Atom C15      Shell    43 S   6     bf  120 -   120         -2.726749502014         -0.941015829701         -3.973242017740
      0.3047524880D+04  0.1834737132D-02
      0.4573695180D+03  0.1403732281D-01
      0.1039486850D+03  0.6884262226D-01
      0.2921015530D+02  0.2321844432D+00
      0.9286662960D+01  0.4679413484D+00
      0.3163926960D+01  0.3623119853D+00
 Atom C15      Shell    44 SP   3    bf  121 -   124         -2.726749502014         -0.941015829701         -3.973242017740
      0.7868272350D+01 -0.1193324198D+00  0.6899906659D-01
      0.1881288540D+01 -0.1608541517D+00  0.3164239610D+00
      0.5442492580D+00  0.1143456438D+01  0.7443082909D+00
 Atom C15      Shell    45 SP   1    bf  125 -   128         -2.726749502014         -0.941015829701         -3.973242017740
      0.1687144782D+00  0.1000000000D+01  0.1000000000D+01
 Atom C15      Shell    46 D   1     bf  129 -   134         -2.726749502014         -0.941015829701         -3.973242017740
      0.8000000000D+00  0.1000000000D+01
 Atom C16      Shell    47 S   6     bf  135 -   135          3.102155843737          1.199005682219          3.742096329652
      0.3047524880D+04  0.1834737132D-02
      0.4573695180D+03  0.1403732281D-01
      0.1039486850D+03  0.6884262226D-01
      0.2921015530D+02  0.2321844432D+00
      0.9286662960D+01  0.4679413484D+00
      0.3163926960D+01  0.3623119853D+00
 Atom C16      Shell    48 SP   3    bf  136 -   139          3.102155843737          1.199005682219          3.742096329652
      0.7868272350D+01 -0.1193324198D+00  0.6899906659D-01
      0.1881288540D+01 -0.1608541517D+00  0.3164239610D+00
      0.5442492580D+00  0.1143456438D+01  0.7443082909D+00
 Atom C16      Shell    49 SP   1    bf  140 -   143          3.102155843737          1.199005682219          3.742096329652
      0.1687144782D+00  0.1000000000D+01  0.1000000000D+01
 Atom C16      Shell    50 D   1     bf  144 -   149          3.102155843737          1.199005682219          3.742096329652
      0.8000000000D+00  0.1000000000D+01
 Atom H17      Shell    51 S   3     bf  150 -   150          3.621125719125         -0.667156510653          4.467861959323
      0.1873113696D+02  0.3349460434D-01
      0.2825394365D+01  0.2347269535D+00
      0.6401216923D+00  0.8137573261D+00
 Atom H17      Shell    52 S   1     bf  151 -   151          3.621125719125         -0.667156510653          4.467861959323
      0.1612777588D+00  0.1000000000D+01
 Atom H18      Shell    53 S   3     bf  152 -   152          1.447243168391          1.821414989826          4.824728783771
      0.1873113696D+02  0.3349460434D-01
      0.2825394365D+01  0.2347269535D+00
      0.6401216923D+00  0.8137573261D+00
 Atom H18      Shell    54 S   1     bf  153 -   153          1.447243168391          1.821414989826          4.824728783771
      0.1612777588D+00  0.1000000000D+01
 Atom C19      Shell    55 S   6     bf  154 -   154          0.504950866482          2.775096652240         -3.957341956544
      0.3047524880D+04  0.1834737132D-02
      0.4573695180D+03  0.1403732281D-01
      0.1039486850D+03  0.6884262226D-01
      0.2921015530D+02  0.2321844432D+00
      0.9286662960D+01  0.4679413484D+00
      0.3163926960D+01  0.3623119853D+00
 Atom C19      Shell    56 SP   3    bf  155 -   158          0.504950866482          2.775096652240         -3.957341956544
      0.7868272350D+01 -0.1193324198D+00  0.6899906659D-01
      0.1881288540D+01 -0.1608541517D+00  0.3164239610D+00
      0.5442492580D+00  0.1143456438D+01  0.7443082909D+00
 Atom C19      Shell    57 SP   1    bf  159 -   162          0.504950866482          2.775096652240         -3.957341956544
      0.1687144782D+00  0.1000000000D+01  0.1000000000D+01
 Atom C19      Shell    58 D   1     bf  163 -   168          0.504950866482          2.775096652240         -3.957341956544
      0.8000000000D+00  0.1000000000D+01
 Atom H20      Shell    59 S   3     bf  169 -   169         -1.022420941827          4.103590072948         -3.528541138375
      0.1873113696D+02  0.3349460434D-01
      0.2825394365D+01  0.2347269535D+00
      0.6401216923D+00  0.8137573261D+00
 Atom H20      Shell    60 S   1     bf  170 -   170         -1.022420941827          4.103590072948         -3.528541138375
      0.1612777588D+00  0.1000000000D+01
 Atom H21      Shell    61 S   3     bf  171 -   171          0.634770894414          2.705665997625         -6.022881556997
      0.1873113696D+02  0.3349460434D-01
      0.2825394365D+01  0.2347269535D+00
      0.6401216923D+00  0.8137573261D+00
 Atom H21      Shell    62 S   1     bf  172 -   172          0.634770894414          2.705665997625         -6.022881556997
      0.1612777588D+00  0.1000000000D+01
 Atom C22      Shell    63 S   6     bf  173 -   173          5.302320800014          3.136036403423          3.969072337028
      0.3047524880D+04  0.1834737132D-02
      0.4573695180D+03  0.1403732281D-01
      0.1039486850D+03  0.6884262226D-01
      0.2921015530D+02  0.2321844432D+00
      0.9286662960D+01  0.4679413484D+00
      0.3163926960D+01  0.3623119853D+00
 Atom C22      Shell    64 SP   3    bf  174 -   177          5.302320800014          3.136036403423          3.969072337028
      0.7868272350D+01 -0.1193324198D+00  0.6899906659D-01
      0.1881288540D+01 -0.1608541517D+00  0.3164239610D+00
      0.5442492580D+00  0.1143456438D+01  0.7443082909D+00
 Atom C22      Shell    65 SP   1    bf  178 -   181          5.302320800014          3.136036403423          3.969072337028
      0.1687144782D+00  0.1000000000D+01  0.1000000000D+01
 Atom C22      Shell    66 D   1     bf  182 -   187          5.302320800014          3.136036403423          3.969072337028
      0.8000000000D+00  0.1000000000D+01
 Atom H23      Shell    67 S   3     bf  188 -   188          4.862170381177          4.581282868285          5.382184027897
      0.1873113696D+02  0.3349460434D-01
      0.2825394365D+01  0.2347269535D+00
      0.6401216923D+00  0.8137573261D+00
 Atom H23      Shell    68 S   1     bf  189 -   189          4.862170381177          4.581282868285          5.382184027897
      0.1612777588D+00  0.1000000000D+01
 Atom H24      Shell    69 S   3     bf  190 -   190          7.060994709043          2.237325494714          4.590331935255
      0.1873113696D+02  0.3349460434D-01
      0.2825394365D+01  0.2347269535D+00
      0.6401216923D+00  0.8137573261D+00
 Atom H24      Shell    70 S   1     bf  191 -   191          7.060994709043          2.237325494714          4.590331935255
      0.1612777588D+00  0.1000000000D+01
 Atom C25      Shell    71 S   6     bf  192 -   192         -0.250603650058         -2.754840280979          0.887201059265
      0.3047524880D+04  0.1834737132D-02
      0.4573695180D+03  0.1403732281D-01
      0.1039486850D+03  0.6884262226D-01
      0.2921015530D+02  0.2321844432D+00
      0.9286662960D+01  0.4679413484D+00
      0.3163926960D+01  0.3623119853D+00
 Atom C25      Shell    72 SP   3    bf  193 -   196         -0.250603650058         -2.754840280979          0.887201059265
      0.7868272350D+01 -0.1193324198D+00  0.6899906659D-01
      0.1881288540D+01 -0.1608541517D+00  0.3164239610D+00
      0.5442492580D+00  0.1143456438D+01  0.7443082909D+00
 Atom C25      Shell    73 SP   1    bf  197 -   200         -0.250603650058         -2.754840280979          0.887201059265
      0.1687144782D+00  0.1000000000D+01  0.1000000000D+01
 Atom C25      Shell    74 D   1     bf  201 -   206         -0.250603650058         -2.754840280979          0.887201059265
      0.8000000000D+00  0.1000000000D+01
 Atom H26      Shell    75 S   3     bf  207 -   207         -0.642454124027         -2.814028525468          2.924230418243
      0.1873113696D+02  0.3349460434D-01
      0.2825394365D+01  0.2347269535D+00
      0.6401216923D+00  0.8137573261D+00
 Atom H26      Shell    76 S   1     bf  208 -   208         -0.642454124027         -2.814028525468          2.924230418243
      0.1612777588D+00  0.1000000000D+01
 Atom H27      Shell    77 S   3     bf  209 -   209          1.575523825415         -3.730543129890          0.650099181173
      0.1873113696D+02  0.3349460434D-01
      0.2825394365D+01  0.2347269535D+00
      0.6401216923D+00  0.8137573261D+00
 Atom H27      Shell    78 S   1     bf  210 -   210          1.575523825415         -3.730543129890          0.650099181173
      0.1612777588D+00  0.1000000000D+01
 Atom C28      Shell    79 S   6     bf  211 -   211          7.066667855866          6.907102631534          1.365379570910
      0.3047524880D+04  0.1834737132D-02
      0.4573695180D+03  0.1403732281D-01
      0.1039486850D+03  0.6884262226D-01
      0.2921015530D+02  0.2321844432D+00
      0.9286662960D+01  0.4679413484D+00
      0.3163926960D+01  0.3623119853D+00
 Atom C28      Shell    80 SP   3    bf  212 -   215          7.066667855866          6.907102631534          1.365379570910
      0.7868272350D+01 -0.1193324198D+00  0.6899906659D-01
      0.1881288540D+01 -0.1608541517D+00  0.3164239610D+00
      0.5442492580D+00  0.1143456438D+01  0.7443082909D+00
 Atom C28      Shell    81 SP   1    bf  216 -   219          7.066667855866          6.907102631534          1.365379570910
      0.1687144782D+00  0.1000000000D+01  0.1000000000D+01
 Atom C28      Shell    82 D   1     bf  220 -   225          7.066667855866          6.907102631534          1.365379570910
      0.8000000000D+00  0.1000000000D+01
 Atom H29      Shell    83 S   3     bf  226 -   226          8.759202937614          6.500216929534          2.505241436101
      0.1873113696D+02  0.3349460434D-01
      0.2825394365D+01  0.2347269535D+00
      0.6401216923D+00  0.8137573261D+00
 Atom H29      Shell    84 S   1     bf  227 -   227          8.759202937614          6.500216929534          2.505241436101
      0.1612777588D+00  0.1000000000D+01
 Atom C30      Shell    85 S   6     bf  228 -   228          0.991867358382          5.765902537885          0.985564535913
      0.3047524880D+04  0.1834737132D-02
      0.4573695180D+03  0.1403732281D-01
      0.1039486850D+03  0.6884262226D-01
      0.2921015530D+02  0.2321844432D+00
      0.9286662960D+01  0.4679413484D+00
      0.3163926960D+01  0.3623119853D+00
 Atom C30      Shell    86 SP   3    bf  229 -   232          0.991867358382          5.765902537885          0.985564535913
      0.7868272350D+01 -0.1193324198D+00  0.6899906659D-01
      0.1881288540D+01 -0.1608541517D+00  0.3164239610D+00
      0.5442492580D+00  0.1143456438D+01  0.7443082909D+00
 Atom C30      Shell    87 SP   1    bf  233 -   236          0.991867358382          5.765902537885          0.985564535913
      0.1687144782D+00  0.1000000000D+01  0.1000000000D+01
 Atom C30      Shell    88 D   1     bf  237 -   242          0.991867358382          5.765902537885          0.985564535913
      0.8000000000D+00  0.1000000000D+01
 Atom H31      Shell    89 S   3     bf  243 -   243          1.202887179696          7.618082836072          0.092518100185
      0.1873113696D+02  0.3349460434D-01
      0.2825394365D+01  0.2347269535D+00
      0.6401216923D+00  0.8137573261D+00
 Atom H31      Shell    90 S   1     bf  244 -   244          1.202887179696          7.618082836072          0.092518100185
      0.1612777588D+00  0.1000000000D+01
 Atom H32      Shell    91 S   3     bf  245 -   245         -0.922617834016          5.111502793567          0.571976391059
      0.1873113696D+02  0.3349460434D-01
      0.2825394365D+01  0.2347269535D+00
      0.6401216923D+00  0.8137573261D+00
 Atom H32      Shell    92 S   1     bf  246 -   246         -0.922617834016          5.111502793567          0.571976391059
      0.1612777588D+00  0.1000000000D+01
 Atom H33      Shell    93 S   3     bf  247 -   247          1.110605824400          6.044648613123          3.028798035861
      0.1873113696D+02  0.3349460434D-01
      0.2825394365D+01  0.2347269535D+00
      0.6401216923D+00  0.8137573261D+00
 Atom H33      Shell    94 S   1     bf  248 -   248          1.110605824400          6.044648613123          3.028798035861
      0.1612777588D+00  0.1000000000D+01
 Atom C34      Shell    95 S   6     bf  249 -   249         -3.407320309210         -3.419916581105         -2.628372116981
      0.3047524880D+04  0.1834737132D-02
      0.4573695180D+03  0.1403732281D-01
      0.1039486850D+03  0.6884262226D-01
      0.2921015530D+02  0.2321844432D+00
      0.9286662960D+01  0.4679413484D+00
      0.3163926960D+01  0.3623119853D+00
 Atom C34      Shell    96 SP   3    bf  250 -   253         -3.407320309210         -3.419916581105         -2.628372116981
      0.7868272350D+01 -0.1193324198D+00  0.6899906659D-01
      0.1881288540D+01 -0.1608541517D+00  0.3164239610D+00
      0.5442492580D+00  0.1143456438D+01  0.7443082909D+00
 Atom C34      Shell    97 SP   1    bf  254 -   257         -3.407320309210         -3.419916581105         -2.628372116981
      0.1687144782D+00  0.1000000000D+01  0.1000000000D+01
 Atom C34      Shell    98 D   1     bf  258 -   263         -3.407320309210         -3.419916581105         -2.628372116981
      0.8000000000D+00  0.1000000000D+01
 Atom C35      Shell    99 S   6     bf  264 -   264         -2.401155641955         -1.518253728540         -6.847125426385
      0.3047524880D+04  0.1834737132D-02
      0.4573695180D+03  0.1403732281D-01
      0.1039486850D+03  0.6884262226D-01
      0.2921015530D+02  0.2321844432D+00
      0.9286662960D+01  0.4679413484D+00
      0.3163926960D+01  0.3623119853D+00
 Atom C35      Shell   100 SP   3    bf  265 -   268         -2.401155641955         -1.518253728540         -6.847125426385
      0.7868272350D+01 -0.1193324198D+00  0.6899906659D-01
      0.1881288540D+01 -0.1608541517D+00  0.3164239610D+00
      0.5442492580D+00  0.1143456438D+01  0.7443082909D+00
 Atom C35      Shell   101 SP   1    bf  269 -   272         -2.401155641955         -1.518253728540         -6.847125426385
      0.1687144782D+00  0.1000000000D+01  0.1000000000D+01
 Atom C35      Shell   102 D   1     bf  273 -   278         -2.401155641955         -1.518253728540         -6.847125426385
      0.8000000000D+00  0.1000000000D+01
 Atom H36      Shell   103 S   3     bf  279 -   279         -0.632038388220         -2.576569885980         -7.097999704122
      0.1873113696D+02  0.3349460434D-01
      0.2825394365D+01  0.2347269535D+00
      0.6401216923D+00  0.8137573261D+00
 Atom H36      Shell   104 S   1     bf  280 -   280         -0.632038388220         -2.576569885980         -7.097999704122
      0.1612777588D+00  0.1000000000D+01
 Atom H37      Shell   105 S   3     bf  281 -   281         -2.174688859081          0.258050569419         -7.885662387310
      0.1873113696D+02  0.3349460434D-01
      0.2825394365D+01  0.2347269535D+00
      0.6401216923D+00  0.8137573261D+00
 Atom H37      Shell   106 S   1     bf  282 -   282         -2.174688859081          0.258050569419         -7.885662387310
      0.1612777588D+00  0.1000000000D+01
 Atom C38      Shell   107 S   6     bf  283 -   283         -2.264022336095         -4.194664214497         -0.503205723295
      0.3047524880D+04  0.1834737132D-02
      0.4573695180D+03  0.1403732281D-01
      0.1039486850D+03  0.6884262226D-01
      0.2921015530D+02  0.2321844432D+00
      0.9286662960D+01  0.4679413484D+00
      0.3163926960D+01  0.3623119853D+00
 Atom C38      Shell   108 SP   3    bf  284 -   287         -2.264022336095         -4.194664214497         -0.503205723295
      0.7868272350D+01 -0.1193324198D+00  0.6899906659D-01
      0.1881288540D+01 -0.1608541517D+00  0.3164239610D+00
      0.5442492580D+00  0.1143456438D+01  0.7443082909D+00
 Atom C38      Shell   109 SP   1    bf  288 -   291         -2.264022336095         -4.194664214497         -0.503205723295
      0.1687144782D+00  0.1000000000D+01  0.1000000000D+01
 Atom C38      Shell   110 D   1     bf  292 -   297         -2.264022336095         -4.194664214497         -0.503205723295
      0.8000000000D+00  0.1000000000D+01
 Atom H39      Shell   111 S   3     bf  298 -   298         -2.820802286586         -6.004710895366          0.310003468284
      0.1873113696D+02  0.3349460434D-01
      0.2825394365D+01  0.2347269535D+00
      0.6401216923D+00  0.8137573261D+00
 Atom H39      Shell   112 S   1     bf  299 -   299         -2.820802286586         -6.004710895366          0.310003468284
      0.1612777588D+00  0.1000000000D+01
 Atom C40      Shell   113 S   6     bf  300 -   300         -4.922168845745          0.968404480921         -3.601760259249
      0.3047524880D+04  0.1834737132D-02
      0.4573695180D+03  0.1403732281D-01
      0.1039486850D+03  0.6884262226D-01
      0.2921015530D+02  0.2321844432D+00
      0.9286662960D+01  0.4679413484D+00
      0.3163926960D+01  0.3623119853D+00
 Atom C40      Shell   114 SP   3    bf  301 -   304         -4.922168845745          0.968404480921         -3.601760259249
      0.7868272350D+01 -0.1193324198D+00  0.6899906659D-01
      0.1881288540D+01 -0.1608541517D+00  0.3164239610D+00
      0.5442492580D+00  0.1143456438D+01  0.7443082909D+00
[...]
 **** Fit      -0.000581
 **** Fit      -0.000908
 **** Fit      -0.001256
 **** Fit      -0.001631
 **** Fit      -0.002046
 **** Fit      -0.002479
 **** Fit      -0.002827
 **** Fit      -0.002911
 **** Fit      -0.002587
 **** Fit      -0.001917
 **** Fit      -0.001203
 **** Fit      -0.000748
 **** Fit      -0.000610
 **** Fit      -0.000639
 **** Fit      -0.000676
 **** Fit      -0.000653
 **** Fit      -0.000571
 **** Fit      -0.000456
 **** Fit      -0.000032
 **** Fit      -0.000180
 **** Fit      -0.000387
 **** Fit      -0.000647
 **** Fit      -0.000938
 **** Fit      -0.001231
 **** Fit      -0.001504
 **** Fit      -0.001758
 **** Fit      -0.001999
 **** Fit      -0.002197
 **** Fit      -0.002249
 **** Fit      -0.001996
 **** Fit      -0.001346
 **** Fit      -0.000433
 **** Fit       0.000371
 **** Fit       0.000742
 **** Fit       0.000671
 **** Fit       0.000385
 **** Fit       0.000103
 **** Fit      -0.000079
 **** Fit      -0.000157
 **** Fit      -0.000160
 **** Fit      -0.000290
 **** Fit      -0.000465
 **** Fit      -0.000686
 **** Fit      -0.000937
 **** Fit      -0.001189
 **** Fit      -0.001406
 **** Fit      -0.001566
 **** Fit      -0.001665
 **** Fit      -0.001708
 **** Fit      -0.001670
 **** Fit      -0.001468
 **** Fit      -0.000986
 **** Fit      -0.000180
 **** Fit       0.000783
 **** Fit       0.001547
 **** Fit       0.001824
 **** Fit       0.001629
 **** Fit       0.001199
 **** Fit       0.000765
 **** Fit       0.000438
 **** Fit       0.000236
 **** Fit       0.000132
 **** Fit      -0.000686
 **** Fit      -0.000895
 **** Fit      -0.001109
 **** Fit      -0.001292
 **** Fit      -0.001409
 **** Fit      -0.001441
 **** Fit      -0.001387
 **** Fit      -0.001259
 **** Fit      -0.001043
 **** Fit      -0.000685
 **** Fit      -0.000115
 **** Fit       0.000669
 **** Fit       0.001515
 **** Fit       0.002145
 **** Fit       0.002344
 **** Fit       0.002127
 **** Fit       0.001683
 **** Fit       0.001213
 **** Fit       0.000827
 **** Fit       0.000556
 **** Fit       0.000385
 **** Fit      -0.000988
 **** Fit      -0.001140
 **** Fit      -0.001235
 **** Fit      -0.001242
 **** Fit      -0.001152
 **** Fit      -0.000973
 **** Fit      -0.000725
 **** Fit      -0.000410
 **** Fit       0.000000
 **** Fit       0.000538
 **** Fit       0.001191
 **** Fit       0.001841
 **** Fit       0.002302
 **** Fit       0.002436
 **** Fit       0.002250
 **** Fit       0.001871
 **** Fit       0.001446
 **** Fit       0.001070
 **** Fit       0.000782
 **** Fit      -0.001043
 **** Fit      -0.001044
 **** Fit      -0.000949
 **** Fit      -0.000758
 **** Fit      -0.000492
 **** Fit      -0.000180
 **** Fit       0.000164
 **** Fit       0.000550
 **** Fit       0.000993
 **** Fit       0.001477
 **** Fit       0.001927
 **** Fit       0.002232
 **** Fit       0.002309
 **** Fit       0.002162
 **** Fit       0.001865
 **** Fit       0.001516
 **** Fit       0.001187
 **** Fit       0.000918
 **** Fit      -0.000859
 **** Fit      -0.000777
 **** Fit      -0.000599
 **** Fit      -0.000338
 **** Fit      -0.000025
 **** Fit       0.000305
 **** Fit       0.000631
 **** Fit       0.000955
 **** Fit       0.001286
 **** Fit       0.001615
 **** Fit       0.001899
 **** Fit       0.002078
 **** Fit       0.002108
 **** Fit       0.001988
 **** Fit       0.001761
 **** Fit       0.001487
 **** Fit       0.001217
 **** Fit      -0.000637
 **** Fit      -0.000493
 **** Fit      -0.000264
 **** Fit       0.000032
 **** Fit       0.000357
 **** Fit       0.000674
 **** Fit       0.000960
 **** Fit       0.001216
 **** Fit       0.001447
 **** Fit       0.001654
 **** Fit       0.001817
 **** Fit       0.001907
 **** Fit       0.001900
 **** Fit       0.001798
 **** Fit       0.001622
 **** Fit       0.001410
 **** Fit      -0.000241
 **** Fit       0.000009
 **** Fit       0.000307
 **** Fit       0.000617
 **** Fit       0.000904
 **** Fit       0.001147
 **** Fit       0.001344
 **** Fit       0.001501
 **** Fit       0.001624
 **** Fit       0.001707
 **** Fit       0.001739
 **** Fit       0.001709
 **** Fit       0.001618
 **** Fit      -0.000044
 **** Fit       0.000201
 **** Fit       0.000479
 **** Fit       0.000758
 **** Fit       0.001008
 **** Fit       0.001211
 **** Fit       0.001364
 **** Fit       0.000563
 **** Fit       0.000804
 **** Fit       0.001017
 **** Fit       0.000908
 **** Fit       0.000750
 **** Fit       0.000530
 **** Fit       0.000264
 **** Fit      -0.000019
 **** Fit      -0.000278
 **** Fit       0.001099
 **** Fit       0.001002
 **** Fit       0.000826
 **** Fit       0.000563
 **** Fit       0.000229
 **** Fit      -0.000132
 **** Fit      -0.000464
 **** Fit      -0.000718
 **** Fit      -0.000867
 **** Fit       0.001189
 **** Fit       0.001163
 **** Fit       0.001070
 **** Fit       0.000878
 **** Fit       0.000568
 **** Fit       0.000159
 **** Fit      -0.000291
 **** Fit      -0.000703
 **** Fit      -0.001007
 **** Fit      -0.001175
 **** Fit      -0.001210
 **** Fit       0.001164
 **** Fit       0.001181
 **** Fit       0.001161
 **** Fit       0.001068
 **** Fit       0.000857
 **** Fit       0.000499
 **** Fit       0.000012
 **** Fit      -0.000527
 **** Fit      -0.001011
 **** Fit      -0.001354
 **** Fit      -0.001521
 **** Fit      -0.001530
 **** Fit       0.001079
 **** Fit       0.001081
 **** Fit       0.001048
 **** Fit       0.000937
 **** Fit       0.000697
 **** Fit       0.000290
 **** Fit      -0.000266
 **** Fit      -0.000874
 **** Fit      -0.001402
 **** Fit      -0.001750
 **** Fit      -0.001888
 **** Fit      -0.001850
 **** Fit      -0.001689
 **** Fit       0.000905
 **** Fit       0.000867
 **** Fit       0.000790
 **** Fit       0.000633
 **** Fit       0.000344
 **** Fit      -0.000114
 **** Fit      -0.000714
 **** Fit      -0.001346
 **** Fit      -0.001861
 **** Fit      -0.002161
 **** Fit      -0.002234
 **** Fit      -0.002127
 **** Fit      -0.001906
 **** Fit       0.000645
 **** Fit       0.000543
 **** Fit       0.000394
 **** Fit       0.000163
 **** Fit      -0.000193
 **** Fit      -0.000696
 **** Fit      -0.001302
 **** Fit      -0.001890
 **** Fit      -0.002321
 **** Fit      -0.002516
 **** Fit      -0.002488
 **** Fit      -0.002300
 **** Fit      -0.002023
 **** Fit      -0.001706
 **** Fit       0.000320
 **** Fit       0.000145
 **** Fit      -0.000085
 **** Fit      -0.000396
 **** Fit      -0.000815
 **** Fit      -0.001336
 **** Fit      -0.001894
 **** Fit      -0.002370
 **** Fit      -0.002651
 **** Fit      -0.002698
 **** Fit      -0.002555
 **** Fit      -0.002296
 **** Fit      -0.001983
 **** Fit      -0.001658
 **** Fit      -0.001342
 **** Fit      -0.000032
 **** Fit      -0.000266
 **** Fit      -0.000555
 **** Fit      -0.000917
 **** Fit      -0.001357
 **** Fit      -0.001843
 **** Fit      -0.002293
 **** Fit      -0.002601
 **** Fit      -0.002694
 **** Fit      -0.002582
 **** Fit      -0.002339
 **** Fit      -0.002043
 **** Fit      -0.001740
 **** Fit      -0.001449
 **** Fit      -0.001175
 **** Fit      -0.000370
 **** Fit      -0.000629
 **** Fit      -0.000931
 **** Fit      -0.001285
 **** Fit      -0.001677
 **** Fit      -0.002061
 **** Fit      -0.002348
 **** Fit      -0.002454
 **** Fit      -0.002350
 **** Fit      -0.002098
 **** Fit      -0.001796
 **** Fit      -0.001518
 **** Fit      -0.001282
 **** Fit      -0.001077
 **** Fit      -0.000887
 **** Fit      -0.000708
 **** Fit      -0.000430
 **** Fit      -0.000898
 **** Fit      -0.001161
 **** Fit      -0.001442
 **** Fit      -0.001723
 **** Fit      -0.001949
 **** Fit      -0.002040
 **** Fit      -0.001938
 **** Fit      -0.001659
 **** Fit      -0.001305
 **** Fit      -0.000994
 **** Fit      -0.000786
 **** Fit      -0.000664
 **** Fit      -0.000583
 **** Fit      -0.000508
 **** Fit      -0.000425
 **** Fit      -0.000469
 **** Fit      -0.000662
 **** Fit      -0.001230
 **** Fit      -0.001397
 **** Fit      -0.001529
 **** Fit      -0.001577
 **** Fit      -0.001477
 **** Fit      -0.001200
 **** Fit      -0.000797
 **** Fit      -0.000393
 **** Fit      -0.000113
 **** Fit       0.000003
 **** Fit       0.000000
 **** Fit      -0.000050
 **** Fit      -0.000094
 **** Fit      -0.000110
 **** Fit      -0.001193
 **** Fit      -0.001177
 **** Fit      -0.001067
 **** Fit      -0.000822
 **** Fit      -0.000438
 **** Fit       0.000018
 **** Fit       0.000417
 **** Fit       0.000646
 **** Fit       0.000681
 **** Fit       0.000581
 **** Fit       0.000431
 **** Fit       0.000292
 **** Fit       0.000192
 **** Fit      -0.000977
 **** Fit      -0.000956
 **** Fit      -0.000883
 **** Fit      -0.000749
 **** Fit      -0.000532
 **** Fit      -0.000211
 **** Fit       0.000203
 **** Fit       0.000641
 **** Fit       0.000991
 **** Fit       0.001165
 **** Fit       0.001149
 **** Fit       0.000999
 **** Fit       0.000796
 **** Fit       0.000602
 **** Fit       0.000448
 **** Fit      -0.000834
 **** Fit      -0.000782
 **** Fit      -0.000676
 **** Fit      -0.000519
 **** Fit      -0.000312
 **** Fit      -0.000044
 **** Fit       0.000289
 **** Fit       0.000671
 **** Fit       0.001042
 **** Fit       0.001321
 **** Fit       0.001443
 **** Fit       0.001401
 **** Fit       0.001241
 **** Fit       0.001028
 **** Fit       0.000817
 **** Fit      -0.000643
 **** Fit      -0.000524
 **** Fit      -0.000356
 **** Fit      -0.000149
 **** Fit       0.000089
 **** Fit       0.000360
 **** Fit       0.000662
 **** Fit       0.000976
 **** Fit       0.001262
 **** Fit       0.001464
 **** Fit       0.001542
 **** Fit       0.001490
 **** Fit       0.001341
 **** Fit       0.001145
 **** Fit       0.000944
 **** Fit      -0.000415
 **** Fit      -0.000248
 **** Fit      -0.000043
 **** Fit       0.000184
 **** Fit       0.000423
 **** Fit       0.000668
 **** Fit       0.000917
 **** Fit       0.001156
 **** Fit       0.001359
 **** Fit       0.001492
 **** Fit       0.001532
 **** Fit       0.001477
 **** Fit       0.001348
 **** Fit       0.001179
 **** Fit       0.000005
 **** Fit       0.000225
 **** Fit       0.000451
 **** Fit       0.000671
 **** Fit       0.001243
 **** Fit       0.001377
 **** Fit       0.001456
 **** Fit       0.001468
 **** Fit       0.001412
 **** Fit       0.000424
 **** Fit       0.000576
 **** Fit       0.000370
 **** Fit       0.000125
 **** Fit      -0.000130
 **** Fit       0.000724
 **** Fit       0.000550
 **** Fit       0.000310
 **** Fit       0.000020
 **** Fit      -0.000284
 **** Fit      -0.000557
 **** Fit      -0.000764
 **** Fit       0.000786
 **** Fit       0.000662
 **** Fit       0.000465
 **** Fit       0.000190
 **** Fit      -0.000143
 **** Fit      -0.000490
 **** Fit      -0.000796
 **** Fit      -0.001017
 **** Fit      -0.001132
 **** Fit       0.000750
 **** Fit       0.000664
 **** Fit       0.000519
 **** Fit       0.000294
 **** Fit      -0.000015
 **** Fit      -0.000383
 **** Fit      -0.000759
 **** Fit      -0.001078
 **** Fit      -0.001292
 **** Fit      -0.001385
 **** Fit       0.000575
 **** Fit       0.000459
 **** Fit       0.000281
 **** Fit       0.000024
 **** Fit      -0.000313
 **** Fit      -0.000700
 **** Fit      -0.001079
 **** Fit      -0.001381
 **** Fit      -0.001562
 **** Fit      -0.001612
 **** Fit      -0.001552
 **** Fit       0.000337
 **** Fit       0.000181
 **** Fit      -0.000035
 **** Fit      -0.000323
 **** Fit      -0.000676
 **** Fit      -0.001058
 **** Fit      -0.001406
 **** Fit      -0.001658
 **** Fit      -0.001777
 **** Fit      -0.001767
 **** Fit      -0.001657
 **** Fit       0.000061
 **** Fit      -0.000133
 **** Fit      -0.000381
 **** Fit      -0.000688
 **** Fit      -0.001035
 **** Fit      -0.001381
 **** Fit      -0.001665
 **** Fit      -0.001835
 **** Fit      -0.001873
 **** Fit      -0.001797
 **** Fit      -0.001642
 **** Fit      -0.001442
 **** Fit      -0.000216
 **** Fit      -0.000433
 **** Fit      -0.000693
 **** Fit      -0.000990
 **** Fit      -0.001301
 **** Fit      -0.001577
 **** Fit      -0.001768
 **** Fit      -0.001838
 **** Fit      -0.001790
 **** Fit      -0.001654
 **** Fit      -0.001471
 **** Fit      -0.001271
 **** Fit      -0.001070
 **** Fit      -0.000670
 **** Fit      -0.000910
 **** Fit      -0.001163
 **** Fit      -0.001402
 **** Fit      -0.001581
 **** Fit      -0.001660
 **** Fit      -0.001626
 **** Fit      -0.001499
 **** Fit      -0.001324
 **** Fit      -0.001140
 **** Fit      -0.000966
 **** Fit      -0.000809
 **** Fit      -0.000664
 **** Fit      -0.001000
 **** Fit      -0.001178
 **** Fit      -0.001318
 **** Fit      -0.001383
 **** Fit      -0.001348
 **** Fit      -0.001218
 **** Fit      -0.001033
 **** Fit      -0.000843
 **** Fit      -0.000684
 **** Fit      -0.000563
 **** Fit      -0.000470
 **** Fit      -0.000390
 **** Fit      -0.001048
 **** Fit      -0.001080
 **** Fit      -0.001033
 **** Fit      -0.000899
 **** Fit      -0.000697
 **** Fit      -0.000479
 **** Fit      -0.000296
 **** Fit      -0.000179
 **** Fit      -0.000121
 **** Fit      -0.000100
 **** Fit      -0.000090
 **** Fit      -0.000813
 **** Fit      -0.000749
 **** Fit      -0.000613
 **** Fit      -0.000409
 **** Fit      -0.000168
 **** Fit       0.000057
 **** Fit       0.000216
 **** Fit       0.000289
 **** Fit       0.000289
 **** Fit       0.000249
 **** Fit       0.000197
 **** Fit      -0.000524
 **** Fit      -0.000388
 **** Fit      -0.000197
 **** Fit       0.000039
 **** Fit       0.000285
 **** Fit       0.000493
 **** Fit       0.000621
 **** Fit       0.000657
 **** Fit       0.000617
 **** Fit       0.000534
 **** Fit      -0.000046
 **** Fit       0.000166
 **** Fit       0.000399
 **** Fit       0.000624
 **** Fit       0.000800
 **** Fit       0.000896
 **** Fit       0.000904
 **** Fit       0.000842
 **** Fit       0.000739
 **** Fit       0.000454
 **** Fit       0.000661
 **** Fit       0.000848
 **** Fit       0.000986
 **** Fit       0.001052
 **** Fit       0.001043
 **** Fit       0.000973
 **** Fit       0.000980
 **** Fit       0.001080
 **** Fit       0.001120
 **** Fit       0.000265
 **** Fit       0.000060
 **** Fit      -0.000172
 **** Fit      -0.000404
 **** Fit       0.000302
 **** Fit       0.000120
 **** Fit      -0.000106
 **** Fit      -0.000355
 **** Fit      -0.000599
 **** Fit      -0.000803
 **** Fit       0.000125
 **** Fit      -0.000075
 **** Fit      -0.000314
 **** Fit      -0.000570
 **** Fit      -0.000810
 **** Fit      -0.001001
 **** Fit      -0.001119
 **** Fit      -0.000088
 **** Fit      -0.000302
 **** Fit      -0.000544
 **** Fit      -0.000791
 **** Fit      -0.001009
 **** Fit      -0.001168
 **** Fit      -0.001249
 **** Fit      -0.000310
 **** Fit      -0.000525
 **** Fit      -0.000755
 **** Fit      -0.000975
 **** Fit      -0.001153
 **** Fit      -0.001264
 **** Fit      -0.001298
 **** Fit      -0.000503
 **** Fit      -0.000703
 **** Fit      -0.000903
 **** Fit      -0.001077
 **** Fit      -0.001199
 **** Fit      -0.001252
 **** Fit      -0.001235
 **** Fit      -0.001161
 **** Fit      -0.001051
 **** Fit      -0.000951
 **** Fit      -0.001065
 **** Fit      -0.001121
 **** Fit      -0.001113
 **** Fit      -0.001049
 **** Fit      -0.000949
 **** Fit      -0.000832
 **** Fit      -0.000714
 **** Fit      -0.000935
 **** Fit      -0.000924
 **** Fit      -0.000859
 **** Fit      -0.000758
 **** Fit      -0.000644
 **** Fit      -0.000535
 **** Fit      -0.000442
 **** Fit      -0.000711
 **** Fit      -0.000640
 **** Fit      -0.000531
 **** Fit      -0.000407
 **** Fit      -0.000291
 **** Fit      -0.000202
 **** Fit      -0.000141
 **** Fit      -0.000436
 **** Fit      -0.000320
 **** Fit      -0.000183
 **** Fit      -0.000050
 **** Fit       0.000056
 **** Fit       0.000122
 **** Fit       0.000151
 **** Fit      -0.000153
 **** Fit      -0.000012
 **** Fit       0.000135
 **** Fit       0.000265
 **** Fit       0.000355
 **** Fit       0.000399
 **** Fit       0.000396
 **** Fit       0.000511
 **** Fit       0.000584
 -----------------------------------------------------------------
 Leave Link  602 at Mon Mar 20 12:43:16 2017, MaxMem=    33554432 cpu:        36.0
 (Enter /home/michal/g09/l9999.exe)

 Test job not archived.
 1\1\GINC-LINUX\SP\RHF\6-31G(d)\C27H46O1\MICHAL\20-Mar-2017\0\\#P HF/6-
 31G* SCF(Conver=6) NoSymm Test Pop=chelpg IOp(6/33=2) GFInput GFPrint\
 \MEP - Input generated by R.E.D.-III.x MOLECULE\\0,1\O,0,-3.73987554,-
 3.5883912,-4.13699024\H,0,-3.88638527,-4.43346032,-3.69163911\C,0,1.59
 826706,2.06719276,0.\C,0,1.32607007,0.60952205,0.47360718\H,0,2.114454
 13,0.,0.\C,0,0.,0.,0.\H,0,-0.83667443,0.56697248,0.43166409\C,0,-0.086
 62261,0.06454488,-1.54844962\H,0,0.69321094,-0.62362002,-1.91489745\C,
 0,2.9922693,2.29081413,0.68328612\H,0,3.6697947,1.61673928,0.14098103\
 C,0,1.58821208,2.04166877,-1.54076366\H,0,2.42699482,1.42478399,-1.892
 79712\H,0,1.739256,3.04463235,-1.95747592\C,0,-1.44293369,-0.49796413,
 -2.10254912\C,0,1.64159017,0.63448648,1.98023209\H,0,1.9162172,-0.3530
 4402,2.36429072\H,0,0.7658481,0.9638513,2.55313651\C,0,0.26720849,1.46
 85179,-2.09413517\H,0,-0.54104186,2.17152634,-1.86722355\H,0,0.3359062
 9,1.43177678,-3.18717165\C,0,2.80586732,1.65951899,2.10034262\H,0,2.57
 294975,2.42431048,2.84812912\H,0,3.73651747,1.18394166,2.42909904\C,0,
 -0.13261374,-1.45779869,0.46948658\H,0,-0.33997208,-1.48911976,1.54743
 609\H,0,0.8337313,-1.9741184,0.34401767\C,0,3.73951957,3.65508129,0.72
 252775\H,0,4.63517056,3.43976665,1.32571667\C,0,0.5248736,3.05118421,0
 .52153829\H,0,0.63654048,4.03131581,0.04895847\H,0,-0.48822833,2.70489
 078,0.30267687\H,0,0.58770729,3.19869028,1.60277089\C,0,-1.80307625,-1
 .80974191,-1.39087462\C,0,-1.27063684,-0.80342527,-3.62334272\H,0,-0.3
 3446031,-1.36346206,-3.75609967\H,0,-1.15079578,0.13655448,-4.17291281
 \C,0,-1.19806902,-2.2197207,-0.266285\H,0,-1.49270428,-3.17755615,0.16
 404677\C,0,-2.60469957,0.51245758,-1.90596944\H,0,-2.47759712,1.396016
 8,-2.53935419\H,0,-3.56981824,0.06922232,-2.16348768\H,0,-2.66910176,0
 .84301984,-0.86469435\C,0,-2.89648293,-2.64854582,-2.02599405\H,0,-2.9
 9624446,-3.59472202,-1.47859809\H,0,-3.86837761,-2.13965179,-1.9575097
 3\C,0,-2.41495014,-1.60872719,-4.256158\H,0,-3.35389786,-1.04128251,-4
 .24372781\H,0,-2.18874175,-1.81732984,-5.30800961\C,0,4.24319627,4.154
 40923,-0.65374012\H,0,3.37953818,4.37407936,-1.29417604\H,0,4.73510917
 ,5.1229991,-0.49086753\C,0,-2.63526548,-2.92070119,-3.51453792\H,0,-1.
 72963594,-3.54226478,-3.61081445\C,0,3.02809028,4.81882567,1.44237064\
 H,0,2.23890693,5.26223999,0.82829125\H,0,3.75177263,5.6126871,1.659901
 45\H,0,2.58150506,4.51805612,2.39456461\C,0,5.20794704,3.23849108,-1.4
 319834\H,0,4.6956587,2.30987349,-1.71006271\H,0,5.4463162,3.73191165,-
 2.38299523\C,0,6.5168161,2.86401572,-0.71014292\H,0,7.09434926,2.19907
 775,-1.36943345\H,0,6.28159266,2.2660586,0.18077186\C,0,7.43132371,4.0
 3184802,-0.28371723\H,0,6.86055171,4.68915638,0.38818418\C,0,7.9021767
 6,4.87591098,-1.47884251\H,0,7.06609577,5.33591021,-2.01535583\H,0,8.5
 6646311,5.68321041,-1.15007337\H,0,8.4594404,4.25846042,-2.19543457\C,
 0,8.63667528,3.50016351,0.50844545\H,0,8.31694062,2.92690287,1.3863023
 3\H,0,9.27670651,4.31864266,0.8572401\H,0,9.25274518,2.83885458,-0.114
 40705\\Version=EM64L-G09RevD.01\HF=-1124.0712085\RMSD=4.740e-07\Dipole
 =0.4007477,-0.1155703,0.50805\Quadrupole=-2.5496074,7.2521886,-4.70258
 12,-0.5100932,-6.1209891,-3.1737342\PG=C01 [X(C27H46O1)]\\@


 I WANT TO KNOW HOW GOD CREATED THE WORLD.  I AM NOT INTERESTED IN
 THIS OR THAT PHENOMENON, IN THE SPECTRUM OF THIS OR THAT ELEMENT.
 I WANT TO KNOW HIS THOUGHTS, THE REST ARE DETAILS.
     -- ALBERT EINSTEIN
 Job cpu time:       0 days  0 hours 11 minutes 25.2 seconds.
 File lengths (MBytes):  RWF=    142 Int=      0 D2E=      0 Chk=     10 Scr=      1
 Normal termination of Gaussian 09 at Mon Mar 20 12:43:16 2017.
