 Entering Gaussian System, Link 0=/home/michal/g09/g09
 Input=JOB2-gau_m1-9-2.com
 Output=JOB2-gau_m1-9-2.log
 Initial command:
 /home/michal/g09/l1.exe "/home/michal/gauss_scratch/Gau-18901.inp" -scrdir="/home/michal/gauss_scratch/"
 Entering Link 1 = /home/michal/g09/l1.exe PID=     18902.
  
 Copyright (c) 1988,1990,1992,1993,1995,1998,2003,2009,2013,
            Gaussian, Inc.  All Rights Reserved.
  
 This is part of the Gaussian(R) 09 program.  It is based on
 the Gaussian(R) 03 system (copyright 2003, Gaussian, Inc.),
 the Gaussian(R) 98 system (copyright 1998, Gaussian, Inc.),
 the Gaussian(R) 94 system (copyright 1995, Gaussian, Inc.),
 the Gaussian 92(TM) system (copyright 1992, Gaussian, Inc.),
 the Gaussian 90(TM) system (copyright 1990, Gaussian, Inc.),
 the Gaussian 88(TM) system (copyright 1988, Gaussian, Inc.),
 the Gaussian 86(TM) system (copyright 1986, Carnegie Mellon
 University), and the Gaussian 82(TM) system (copyright 1983,
 Carnegie Mellon University). Gaussian is a federally registered
 trademark of Gaussian, Inc.
  
 This software contains proprietary and confidential information,
 including trade secrets, belonging to Gaussian, Inc.
  
 This software is provided under written license and may be
 used, copied, transmitted, or stored only in accord with that
 written license.
  
 The following legend is applicable only to US Government
 contracts under FAR:
  
                    RESTRICTED RIGHTS LEGEND
  
 Use, reproduction and disclosure by the US Government is
 subject to restrictions as set forth in subparagraphs (a)
 and (c) of the Commercial Computer Software - Restricted
 Rights clause in FAR 52.227-19.
  
 Gaussian, Inc.
 340 Quinnipiac St., Bldg. 40, Wallingford CT 06492
  
  
 ---------------------------------------------------------------
 Warning -- This program may not be used in any manner that
 competes with the business of Gaussian, Inc. or will provide
 assistance to any competitor of Gaussian, Inc.  The licensee
 of this program is prohibited from giving any competitor of
 Gaussian, Inc. access to this program.  By using this program,
 the user acknowledges that Gaussian, Inc. is engaged in the
 business of creating and licensing software in the field of
 computational chemistry and represents and warrants to the
 licensee that it is not a competitor of Gaussian, Inc. and that
 it will not use this program in any manner prohibited above.
 ---------------------------------------------------------------
  

 Cite this work as:
 Gaussian 09, Revision D.01,
 M. J. Frisch, G. W. Trucks, H. B. Schlegel, G. E. Scuseria, 
 M. A. Robb, J. R. Cheeseman, G. Scalmani, V. Barone, B. Mennucci, 
 G. A. Petersson, H. Nakatsuji, M. Caricato, X. Li, H. P. Hratchian, 
 A. F. Izmaylov, J. Bloino, G. Zheng, J. L. Sonnenberg, M. Hada, 
 M. Ehara, K. Toyota, R. Fukuda, J. Hasegawa, M. Ishida, T. Nakajima, 
 Y. Honda, O. Kitao, H. Nakai, T. Vreven, J. A. Montgomery, Jr., 
 J. E. Peralta, F. Ogliaro, M. Bearpark, J. J. Heyd, E. Brothers, 
 K. N. Kudin, V. N. Staroverov, T. Keith, R. Kobayashi, J. Normand, 
 K. Raghavachari, A. Rendell, J. C. Burant, S. S. Iyengar, J. Tomasi, 
 M. Cossi, N. Rega, J. M. Millam, M. Klene, J. E. Knox, J. B. Cross, 
 V. Bakken, C. Adamo, J. Jaramillo, R. Gomperts, R. E. Stratmann, 
 O. Yazyev, A. J. Austin, R. Cammi, C. Pomelli, J. W. Ochterski, 
 R. L. Martin, K. Morokuma, V. G. Zakrzewski, G. A. Voth, 
 P. Salvador, J. J. Dannenberg, S. Dapprich, A. D. Daniels, 
 O. Farkas, J. B. Foresman, J. V. Ortiz, J. Cioslowski, 
 and D. J. Fox, Gaussian, Inc., Wallingford CT, 2013.
 
 ******************************************
 Gaussian 09:  EM64L-G09RevD.01 24-Apr-2013
                20-Mar-2017 
 ******************************************
 %Mem=256MB
 %NProc=12
 Will use up to   12 processors via shared memory.
 ----------------------------------------------------------------------
 #P HF/6-31G* SCF(Conver=6) NoSymm Test Pop=chelpg IOp(6/33=2) GFInput 
 GFPrint
 ----------------------------------------------------------------------
 1/38=1/1;
 2/12=2,15=1,17=6,18=5,40=1/2;
 3/5=1,6=6,7=1,11=9,16=1,24=110,25=1,30=1/1,2,3;
 4//1;
 5/5=2,6=6,38=5/2;
 6/7=2,8=2,9=2,10=2,15=8,20=3,28=1,33=2/1,2;
 99/5=1,9=1/99;
 Leave Link    1 at Mon Mar 20 12:11:12 2017, MaxMem=    33554432 cpu:         0.6
 (Enter /home/michal/g09/l101.exe)
 ----------------------------------------------
 MEP - Input generated by R.E.D.-III.x MOLECULE
 ----------------------------------------------
 Symbolic Z-matrix:
 Charge =  0 Multiplicity = 1
 O                     0.44658  -3.37903   7.25919 
 H                     0.28238  -4.3203    7.11432 
 C                     1.50624   1.50162   0. 
 C                     1.10375   0.        0. 
 H                     0.        0.        0. 
 C                     1.51647  -0.79225   1.24731 
 H                     2.61343  -0.81161   1.3164 
 C                     0.93796  -0.11512   2.5174 
 H                    -0.15499  -0.24309   2.44665 
 C                     0.9529    1.92636  -1.40481 
 H                    -0.14187   1.94978  -1.2963 
 C                     0.8257    2.13506   1.23094 
 H                    -0.26432   2.09007   1.09215 
 H                     1.08258   3.19405   1.33607 
 C                     1.36599  -0.84398   3.83951 
 C                     1.53653  -0.51347  -1.38241 
 H                     0.95884  -1.38641  -1.70238 
 H                     2.58994  -0.81986  -1.37014 
 C                     1.20819   1.40735   2.53664 
 H                     2.26754   1.59458   2.74146 
 H                     0.65682   1.86886   3.36367 
 C                     1.32185   0.70991  -2.31677 
 H                     2.23353   0.92552  -2.88628 
 H                     0.53711   0.52046  -3.05581 
 C                     1.02524  -2.24647   1.1625 
 H                     1.62801  -2.8066    0.43528 
 H                    -0.00265  -2.2641    0.76332 
 C                     1.38421   3.28128  -2.01845 
 H                     2.47776   3.24884  -2.1351 
 C                     3.03752   1.7059    0.05919 
 H                     3.28288   2.77221   0.10832 
 H                     3.4866    1.23213   0.93553 
 H                     3.54106   1.29642  -0.82181 
 C                     1.21858  -2.36354   3.67735 
 C                     0.4181   -0.38419   4.99078 
 H                    -0.61696  -0.4429    4.62615 
 H                     0.6073    0.67025   5.21958 
 C                     1.05217  -2.95684   2.48608 
 H                     0.92872  -4.04005   2.45648 
 C                     2.83633  -0.52306   4.22006 
 H                     2.95225   0.52247   4.52252 
 H                     3.178    -1.13851   5.05597 
 H                     3.51244  -0.71471   3.38111 
 C                     1.26877  -3.19049   4.94862 
 H                     1.06032  -4.24139   4.70984 
 H                     2.2733   -3.16083   5.39398 
 C                     0.52685  -1.20325   6.28516 
 H                     1.51639  -1.08889   6.74511 
 H                    -0.20344  -0.84311   7.01868 
 C                     0.84541   3.46946  -3.46676 
 H                     1.22109   4.43174  -3.83903 
 H                     1.32424   2.71173  -4.09838 
 C                     0.28866  -2.68338   6.01638 
 H                    -0.74208  -2.81861   5.64888 
 C                     1.07422   4.4936   -1.1192 
 H                     0.03985   4.49034  -0.76131 
 H                     1.23525   5.43019  -1.66467 
 H                     1.72294   4.51761  -0.23944 
 C                    -0.6751    3.37644  -3.72884 
 H                    -0.80914   3.21589  -4.8064 
 H                    -1.07175   2.46931  -3.25573 
 C                    -1.56445   4.56278  -3.3037 
 H                    -1.54507   4.67103  -2.21311 
 H                    -2.60446   4.30801  -3.55829 
 C                    -1.24577   5.93447  -3.93582 
 H                    -0.21306   6.20507  -3.67403 
 C                    -2.16635   7.015    -3.34564 
 H                    -2.07305   7.06743  -2.25481 
 H                    -1.92888   8.00534  -3.75074 
 H                    -3.21767   6.80354  -3.57989 
 C                    -1.35161   5.91597  -5.46916 
 H                    -0.64237   5.21738  -5.92453 
 H                    -1.14943   6.90888  -5.88678 
 H                    -2.36071   5.62175  -5.78631 
 
 NAtoms=     74 NQM=       74 NQMF=       0 NMMI=      0 NMMIF=      0
                NMic=       0 NMicF=      0.
                    Isotopes and Nuclear Properties:
 (Nuclear quadrupole moments (NQMom) in fm**2, nuclear magnetic moments (NMagM)
  in nuclear magnetons)

  Atom         1           2           3           4           5           6           7           8           9          10
 IAtWgt=          16           1          12          12           1          12           1          12           1          12
 AtmWgt=  15.9949146   1.0078250  12.0000000  12.0000000   1.0078250  12.0000000   1.0078250  12.0000000   1.0078250  12.0000000
 NucSpn=           0           1           0           0           1           0           1           0           1           0
 AtZEff=   0.0000000   0.0000000   0.0000000   0.0000000   0.0000000   0.0000000   0.0000000   0.0000000   0.0000000   0.0000000
 NQMom=    0.0000000   0.0000000   0.0000000   0.0000000   0.0000000   0.0000000   0.0000000   0.0000000   0.0000000   0.0000000
 NMagM=    0.0000000   2.7928460   0.0000000   0.0000000   2.7928460   0.0000000   2.7928460   0.0000000   2.7928460   0.0000000
 AtZNuc=   8.0000000   1.0000000   6.0000000   6.0000000   1.0000000   6.0000000   1.0000000   6.0000000   1.0000000   6.0000000

  Atom        11          12          13          14          15          16          17          18          19          20
 IAtWgt=           1          12           1           1          12          12           1           1          12           1
 AtmWgt=   1.0078250  12.0000000   1.0078250   1.0078250  12.0000000  12.0000000   1.0078250   1.0078250  12.0000000   1.0078250
 NucSpn=           1           0           1           1           0           0           1           1           0           1
 AtZEff=   0.0000000   0.0000000   0.0000000   0.0000000   0.0000000   0.0000000   0.0000000   0.0000000   0.0000000   0.0000000
 NQMom=    0.0000000   0.0000000   0.0000000   0.0000000   0.0000000   0.0000000   0.0000000   0.0000000   0.0000000   0.0000000
 NMagM=    2.7928460   0.0000000   2.7928460   2.7928460   0.0000000   0.0000000   2.7928460   2.7928460   0.0000000   2.7928460
 AtZNuc=   1.0000000   6.0000000   1.0000000   1.0000000   6.0000000   6.0000000   1.0000000   1.0000000   6.0000000   1.0000000

  Atom        21          22          23          24          25          26          27          28          29          30
 IAtWgt=           1          12           1           1          12           1           1          12           1          12
 AtmWgt=   1.0078250  12.0000000   1.0078250   1.0078250  12.0000000   1.0078250   1.0078250  12.0000000   1.0078250  12.0000000
 NucSpn=           1           0           1           1           0           1           1           0           1           0
 AtZEff=   0.0000000   0.0000000   0.0000000   0.0000000   0.0000000   0.0000000   0.0000000   0.0000000   0.0000000   0.0000000
 NQMom=    0.0000000   0.0000000   0.0000000   0.0000000   0.0000000   0.0000000   0.0000000   0.0000000   0.0000000   0.0000000
 NMagM=    2.7928460   0.0000000   2.7928460   2.7928460   0.0000000   2.7928460   2.7928460   0.0000000   2.7928460   0.0000000
 AtZNuc=   1.0000000   6.0000000   1.0000000   1.0000000   6.0000000   1.0000000   1.0000000   6.0000000   1.0000000   6.0000000

  Atom        31          32          33          34          35          36          37          38          39          40
 IAtWgt=           1           1           1          12          12           1           1          12           1          12
 AtmWgt=   1.0078250   1.0078250   1.0078250  12.0000000  12.0000000   1.0078250   1.0078250  12.0000000   1.0078250  12.0000000
 NucSpn=           1           1           1           0           0           1           1           0           1           0
 AtZEff=   0.0000000   0.0000000   0.0000000   0.0000000   0.0000000   0.0000000   0.0000000   0.0000000   0.0000000   0.0000000
 NQMom=    0.0000000   0.0000000   0.0000000   0.0000000   0.0000000   0.0000000   0.0000000   0.0000000   0.0000000   0.0000000
 NMagM=    2.7928460   2.7928460   2.7928460   0.0000000   0.0000000   2.7928460   2.7928460   0.0000000   2.7928460   0.0000000
 AtZNuc=   1.0000000   1.0000000   1.0000000   6.0000000   6.0000000   1.0000000   1.0000000   6.0000000   1.0000000   6.0000000

  Atom        41          42          43          44          45          46          47          48          49          50
 IAtWgt=           1           1           1          12           1           1          12           1           1          12
 AtmWgt=   1.0078250   1.0078250   1.0078250  12.0000000   1.0078250   1.0078250  12.0000000   1.0078250   1.0078250  12.0000000
 NucSpn=           1           1           1           0           1           1           0           1           1           0
 AtZEff=   0.0000000   0.0000000   0.0000000   0.0000000   0.0000000   0.0000000   0.0000000   0.0000000   0.0000000   0.0000000
 NQMom=    0.0000000   0.0000000   0.0000000   0.0000000   0.0000000   0.0000000   0.0000000   0.0000000   0.0000000   0.0000000
 NMagM=    2.7928460   2.7928460   2.7928460   0.0000000   2.7928460   2.7928460   0.0000000   2.7928460   2.7928460   0.0000000
 AtZNuc=   1.0000000   1.0000000   1.0000000   6.0000000   1.0000000   1.0000000   6.0000000   1.0000000   1.0000000   6.0000000

  Atom        51          52          53          54          55          56          57          58          59          60
 IAtWgt=           1           1          12           1          12           1           1           1          12           1
 AtmWgt=   1.0078250   1.0078250  12.0000000   1.0078250  12.0000000   1.0078250   1.0078250   1.0078250  12.0000000   1.0078250
 NucSpn=           1           1           0           1           0           1           1           1           0           1
 AtZEff=   0.0000000   0.0000000   0.0000000   0.0000000   0.0000000   0.0000000   0.0000000   0.0000000   0.0000000   0.0000000
 NQMom=    0.0000000   0.0000000   0.0000000   0.0000000   0.0000000   0.0000000   0.0000000   0.0000000   0.0000000   0.0000000
 NMagM=    2.7928460   2.7928460   0.0000000   2.7928460   0.0000000   2.7928460   2.7928460   2.7928460   0.0000000   2.7928460
 AtZNuc=   1.0000000   1.0000000   6.0000000   1.0000000   6.0000000   1.0000000   1.0000000   1.0000000   6.0000000   1.0000000

  Atom        61          62          63          64          65          66          67          68          69          70
 IAtWgt=           1          12           1           1          12           1          12           1           1           1
 AtmWgt=   1.0078250  12.0000000   1.0078250   1.0078250  12.0000000   1.0078250  12.0000000   1.0078250   1.0078250   1.0078250
 NucSpn=           1           0           1           1           0           1           0           1           1           1
 AtZEff=   0.0000000   0.0000000   0.0000000   0.0000000   0.0000000   0.0000000   0.0000000   0.0000000   0.0000000   0.0000000
 NQMom=    0.0000000   0.0000000   0.0000000   0.0000000   0.0000000   0.0000000   0.0000000   0.0000000   0.0000000   0.0000000
 NMagM=    2.7928460   0.0000000   2.7928460   2.7928460   0.0000000   2.7928460   0.0000000   2.7928460   2.7928460   2.7928460
 AtZNuc=   1.0000000   6.0000000   1.0000000   1.0000000   6.0000000   1.0000000   6.0000000   1.0000000   1.0000000   1.0000000

  Atom        71          72          73          74
 IAtWgt=          12           1           1           1
 AtmWgt=  12.0000000   1.0078250   1.0078250   1.0078250
 NucSpn=           0           1           1           1
 AtZEff=   0.0000000   0.0000000   0.0000000   0.0000000
 NQMom=    0.0000000   0.0000000   0.0000000   0.0000000
 NMagM=    0.0000000   2.7928460   2.7928460   2.7928460
 AtZNuc=   6.0000000   1.0000000   1.0000000   1.0000000
 Leave Link  101 at Mon Mar 20 12:11:12 2017, MaxMem=    33554432 cpu:         1.0
 (Enter /home/michal/g09/l202.exe)
 Symmetry turned off by external request.
 Stoichiometry    C27H46O
 Framework group  C1[X(C27H46O)]
 Deg. of freedom   216
 Full point group                 C1      NOp   1
                          Input orientation:                          
 ---------------------------------------------------------------------
 Center     Atomic      Atomic             Coordinates (Angstroms)
 Number     Number       Type             X           Y           Z
 ---------------------------------------------------------------------
      1          8           0        0.446578   -3.379026    7.259187
      2          1           0        0.282385   -4.320302    7.114322
      3          6           0        1.506241    1.501618    0.000000
      4          6           0        1.103746    0.000000    0.000000
      5          1           0        0.000000    0.000000    0.000000
      6          6           0        1.516466   -0.792253    1.247306
      7          1           0        2.613431   -0.811608    1.316399
      8          6           0        0.937963   -0.115118    2.517397
      9          1           0       -0.154994   -0.243092    2.446647
     10          6           0        0.952899    1.926355   -1.404810
     11          1           0       -0.141867    1.949779   -1.296299
     12          6           0        0.825702    2.135061    1.230943
     13          1           0       -0.264318    2.090075    1.092150
     14          1           0        1.082578    3.194050    1.336070
     15          6           0        1.365986   -0.843983    3.839512
     16          6           0        1.536529   -0.513471   -1.382415
     17          1           0        0.958838   -1.386412   -1.702381
     18          1           0        2.589945   -0.819856   -1.370142
     19          6           0        1.208190    1.407355    2.536639
     20          1           0        2.267536    1.594582    2.741460
     21          1           0        0.656817    1.868861    3.363674
     22          6           0        1.321846    0.709909   -2.316773
     23          1           0        2.233526    0.925524   -2.886284
     24          1           0        0.537111    0.520464   -3.055807
     25          6           0        1.025237   -2.246466    1.162497
     26          1           0        1.628010   -2.806601    0.435281
     27          1           0       -0.002652   -2.264103    0.763317
     28          6           0        1.384215    3.281280   -2.018451
     29          1           0        2.477757    3.248837   -2.135100
     30          6           0        3.037518    1.705900    0.059186
     31          1           0        3.282881    2.772210    0.108316
     32          1           0        3.486600    1.232126    0.935526
     33          1           0        3.541058    1.296419   -0.821808
     34          6           0        1.218582   -2.363536    3.677354
     35          6           0        0.418099   -0.384185    4.990777
     36          1           0       -0.616962   -0.442899    4.626147
     37          1           0        0.607296    0.670250    5.219577
     38          6           0        1.052170   -2.956840    2.486083
     39          1           0        0.928720   -4.040052    2.456478
     40          6           0        2.836327   -0.523061    4.220061
     41          1           0        2.952252    0.522471    4.522523
     42          1           0        3.178001   -1.138511    5.055974
     43          1           0        3.512445   -0.714706    3.381113
     44          6           0        1.268771   -3.190491    4.948625
     45          1           0        1.060324   -4.241395    4.709840
     46          1           0        2.273301   -3.160829    5.393978
     47          6           0        0.526848   -1.203247    6.285163
     48          1           0        1.516395   -1.088887    6.745112
     49          1           0       -0.203440   -0.843114    7.018683
     50          6           0        0.845409    3.469461   -3.466757
     51          1           0        1.221092    4.431744   -3.839030
     52          1           0        1.324235    2.711731   -4.098381
     53          6           0        0.288663   -2.683381    6.016382
     54          1           0       -0.742078   -2.818614    5.648883
     55          6           0        1.074224    4.493596   -1.119205
     56          1           0        0.039847    4.490342   -0.761306
     57          1           0        1.235251    5.430190   -1.664667
     58          1           0        1.722940    4.517611   -0.239437
     59          6           0       -0.675104    3.376441   -3.728839
     60          1           0       -0.809139    3.215889   -4.806397
     61          1           0       -1.071747    2.469306   -3.255730
     62          6           0       -1.564454    4.562776   -3.303696
     63          1           0       -1.545071    4.671035   -2.213111
     64          1           0       -2.604465    4.308011   -3.558286
     65          6           0       -1.245774    5.934472   -3.935818
     66          1           0       -0.213062    6.205065   -3.674031
     67          6           0       -2.166346    7.015001   -3.345641
     68          1           0       -2.073050    7.067432   -2.254813
     69          1           0       -1.928877    8.005338   -3.750740
     70          1           0       -3.217674    6.803541   -3.579887
     71          6           0       -1.351610    5.915972   -5.469159
     72          1           0       -0.642373    5.217379   -5.924534
     73          1           0       -1.149434    6.908883   -5.886776
     74          1           0       -2.360712    5.621748   -5.786310
 ---------------------------------------------------------------------
 Rotational constants (GHZ):      0.4450595      0.0618148      0.0590955
 Leave Link  202 at Mon Mar 20 12:11:12 2017, MaxMem=    33554432 cpu:         0.0
 (Enter /home/michal/g09/l301.exe)
 Standard basis: 6-31G(d) (6D, 7F)
 Ernie: Thresh=  0.10000D-02 Tol=  0.10000D-05 Strict=F.
 AO basis set in the form of general basis input (Overlap normalization):
      1 0
 S   6 1.00       0.000000000000
      0.5484671660D+04  0.1831074430D-02
      0.8252349460D+03  0.1395017220D-01
      0.1880469580D+03  0.6844507810D-01
      0.5296450000D+02  0.2327143360D+00
      0.1689757040D+02  0.4701928980D+00
      0.5799635340D+01  0.3585208530D+00
 SP   3 1.00       0.000000000000
      0.1553961625D+02 -0.1107775495D+00  0.7087426823D-01
      0.3599933586D+01 -0.1480262627D+00  0.3397528391D+00
      0.1013761750D+01  0.1130767015D+01  0.7271585773D+00
 SP   1 1.00       0.000000000000
      0.2700058226D+00  0.1000000000D+01  0.1000000000D+01
 D   1 1.00       0.000000000000
      0.8000000000D+00  0.1000000000D+01
 ****
      2 0
 S   3 1.00       0.000000000000
      0.1873113696D+02  0.3349460434D-01
      0.2825394365D+01  0.2347269535D+00
      0.6401216923D+00  0.8137573261D+00
 S   1 1.00       0.000000000000
      0.1612777588D+00  0.1000000000D+01
 ****
      3 0
 S   6 1.00       0.000000000000
      0.3047524880D+04  0.1834737132D-02
      0.4573695180D+03  0.1403732281D-01
      0.1039486850D+03  0.6884262226D-01
      0.2921015530D+02  0.2321844432D+00
      0.9286662960D+01  0.4679413484D+00
      0.3163926960D+01  0.3623119853D+00
 SP   3 1.00       0.000000000000
      0.7868272350D+01 -0.1193324198D+00  0.6899906659D-01
      0.1881288540D+01 -0.1608541517D+00  0.3164239610D+00
      0.5442492580D+00  0.1143456438D+01  0.7443082909D+00
 SP   1 1.00       0.000000000000
      0.1687144782D+00  0.1000000000D+01  0.1000000000D+01
 D   1 1.00       0.000000000000
      0.8000000000D+00  0.1000000000D+01
 ****
      4 0
 S   6 1.00       0.000000000000
      0.3047524880D+04  0.1834737132D-02
      0.4573695180D+03  0.1403732281D-01
      0.1039486850D+03  0.6884262226D-01
      0.2921015530D+02  0.2321844432D+00
      0.9286662960D+01  0.4679413484D+00
      0.3163926960D+01  0.3623119853D+00
 SP   3 1.00       0.000000000000
      0.7868272350D+01 -0.1193324198D+00  0.6899906659D-01
      0.1881288540D+01 -0.1608541517D+00  0.3164239610D+00
      0.5442492580D+00  0.1143456438D+01  0.7443082909D+00
 SP   1 1.00       0.000000000000
      0.1687144782D+00  0.1000000000D+01  0.1000000000D+01
 D   1 1.00       0.000000000000
      0.8000000000D+00  0.1000000000D+01
 ****
      5 0
 S   3 1.00       0.000000000000
      0.1873113696D+02  0.3349460434D-01
      0.2825394365D+01  0.2347269535D+00
      0.6401216923D+00  0.8137573261D+00
 S   1 1.00       0.000000000000
      0.1612777588D+00  0.1000000000D+01
 ****
      6 0
 S   6 1.00       0.000000000000
      0.3047524880D+04  0.1834737132D-02
      0.4573695180D+03  0.1403732281D-01
      0.1039486850D+03  0.6884262226D-01
      0.2921015530D+02  0.2321844432D+00
      0.9286662960D+01  0.4679413484D+00
      0.3163926960D+01  0.3623119853D+00
 SP   3 1.00       0.000000000000
      0.7868272350D+01 -0.1193324198D+00  0.6899906659D-01
      0.1881288540D+01 -0.1608541517D+00  0.3164239610D+00
      0.5442492580D+00  0.1143456438D+01  0.7443082909D+00
 SP   1 1.00       0.000000000000
      0.1687144782D+00  0.1000000000D+01  0.1000000000D+01
 D   1 1.00       0.000000000000
      0.8000000000D+00  0.1000000000D+01
 ****
      7 0
 S   3 1.00       0.000000000000
      0.1873113696D+02  0.3349460434D-01
      0.2825394365D+01  0.2347269535D+00
      0.6401216923D+00  0.8137573261D+00
 S   1 1.00       0.000000000000
      0.1612777588D+00  0.1000000000D+01
 ****
      8 0
 S   6 1.00       0.000000000000
      0.3047524880D+04  0.1834737132D-02
      0.4573695180D+03  0.1403732281D-01
      0.1039486850D+03  0.6884262226D-01
      0.2921015530D+02  0.2321844432D+00
      0.9286662960D+01  0.4679413484D+00
      0.3163926960D+01  0.3623119853D+00
 SP   3 1.00       0.000000000000
      0.7868272350D+01 -0.1193324198D+00  0.6899906659D-01
      0.1881288540D+01 -0.1608541517D+00  0.3164239610D+00
      0.5442492580D+00  0.1143456438D+01  0.7443082909D+00
 SP   1 1.00       0.000000000000
      0.1687144782D+00  0.1000000000D+01  0.1000000000D+01
 D   1 1.00       0.000000000000
      0.8000000000D+00  0.1000000000D+01
 ****
      9 0
 S   3 1.00       0.000000000000
      0.1873113696D+02  0.3349460434D-01
      0.2825394365D+01  0.2347269535D+00
      0.6401216923D+00  0.8137573261D+00
 S   1 1.00       0.000000000000
      0.1612777588D+00  0.1000000000D+01
 ****
     10 0
 S   6 1.00       0.000000000000
      0.3047524880D+04  0.1834737132D-02
      0.4573695180D+03  0.1403732281D-01
      0.1039486850D+03  0.6884262226D-01
      0.2921015530D+02  0.2321844432D+00
      0.9286662960D+01  0.4679413484D+00
      0.3163926960D+01  0.3623119853D+00
 SP   3 1.00       0.000000000000
      0.7868272350D+01 -0.1193324198D+00  0.6899906659D-01
      0.1881288540D+01 -0.1608541517D+00  0.3164239610D+00
      0.5442492580D+00  0.1143456438D+01  0.7443082909D+00
 SP   1 1.00       0.000000000000
      0.1687144782D+00  0.1000000000D+01  0.1000000000D+01
 D   1 1.00       0.000000000000
      0.8000000000D+00  0.1000000000D+01
 ****
     11 0
 S   3 1.00       0.000000000000
      0.1873113696D+02  0.3349460434D-01
      0.2825394365D+01  0.2347269535D+00
      0.6401216923D+00  0.8137573261D+00
 S   1 1.00       0.000000000000
      0.1612777588D+00  0.1000000000D+01
 ****
     12 0
 S   6 1.00       0.000000000000
      0.3047524880D+04  0.1834737132D-02
      0.4573695180D+03  0.1403732281D-01
      0.1039486850D+03  0.6884262226D-01
      0.2921015530D+02  0.2321844432D+00
      0.9286662960D+01  0.4679413484D+00
      0.3163926960D+01  0.3623119853D+00
 SP   3 1.00       0.000000000000
      0.7868272350D+01 -0.1193324198D+00  0.6899906659D-01
      0.1881288540D+01 -0.1608541517D+00  0.3164239610D+00
      0.5442492580D+00  0.1143456438D+01  0.7443082909D+00
 SP   1 1.00       0.000000000000
      0.1687144782D+00  0.1000000000D+01  0.1000000000D+01
 D   1 1.00       0.000000000000
      0.8000000000D+00  0.1000000000D+01
 ****
     13 0
 S   3 1.00       0.000000000000
      0.1873113696D+02  0.3349460434D-01
      0.2825394365D+01  0.2347269535D+00
      0.6401216923D+00  0.8137573261D+00
 S   1 1.00       0.000000000000
      0.1612777588D+00  0.1000000000D+01
 ****
     14 0
 S   3 1.00       0.000000000000
      0.1873113696D+02  0.3349460434D-01
      0.2825394365D+01  0.2347269535D+00
      0.6401216923D+00  0.8137573261D+00
 S   1 1.00       0.000000000000
      0.1612777588D+00  0.1000000000D+01
 ****
     15 0
 S   6 1.00       0.000000000000
      0.3047524880D+04  0.1834737132D-02
      0.4573695180D+03  0.1403732281D-01
      0.1039486850D+03  0.6884262226D-01
      0.2921015530D+02  0.2321844432D+00
      0.9286662960D+01  0.4679413484D+00
      0.3163926960D+01  0.3623119853D+00
 SP   3 1.00       0.000000000000
      0.7868272350D+01 -0.1193324198D+00  0.6899906659D-01
      0.1881288540D+01 -0.1608541517D+00  0.3164239610D+00
      0.5442492580D+00  0.1143456438D+01  0.7443082909D+00
 SP   1 1.00       0.000000000000
      0.1687144782D+00  0.1000000000D+01  0.1000000000D+01
 D   1 1.00       0.000000000000
      0.8000000000D+00  0.1000000000D+01
 ****
     16 0
 S   6 1.00       0.000000000000
      0.3047524880D+04  0.1834737132D-02
      0.4573695180D+03  0.1403732281D-01
      0.1039486850D+03  0.6884262226D-01
      0.2921015530D+02  0.2321844432D+00
      0.9286662960D+01  0.4679413484D+00
      0.3163926960D+01  0.3623119853D+00
 SP   3 1.00       0.000000000000
      0.7868272350D+01 -0.1193324198D+00  0.6899906659D-01
      0.1881288540D+01 -0.1608541517D+00  0.3164239610D+00
      0.5442492580D+00  0.1143456438D+01  0.7443082909D+00
 SP   1 1.00       0.000000000000
      0.1687144782D+00  0.1000000000D+01  0.1000000000D+01
 D   1 1.00       0.000000000000
      0.8000000000D+00  0.1000000000D+01
 ****
     17 0
 S   3 1.00       0.000000000000
      0.1873113696D+02  0.3349460434D-01
      0.2825394365D+01  0.2347269535D+00
      0.6401216923D+00  0.8137573261D+00
 S   1 1.00       0.000000000000
      0.1612777588D+00  0.1000000000D+01
 ****
     18 0
 S   3 1.00       0.000000000000
      0.1873113696D+02  0.3349460434D-01
      0.2825394365D+01  0.2347269535D+00
      0.6401216923D+00  0.8137573261D+00
 S   1 1.00       0.000000000000
      0.1612777588D+00  0.1000000000D+01
 ****
     19 0
 S   6 1.00       0.000000000000
      0.3047524880D+04  0.1834737132D-02
      0.4573695180D+03  0.1403732281D-01
      0.1039486850D+03  0.6884262226D-01
      0.2921015530D+02  0.2321844432D+00
      0.9286662960D+01  0.4679413484D+00
      0.3163926960D+01  0.3623119853D+00
 SP   3 1.00       0.000000000000
      0.7868272350D+01 -0.1193324198D+00  0.6899906659D-01
      0.1881288540D+01 -0.1608541517D+00  0.3164239610D+00
      0.5442492580D+00  0.1143456438D+01  0.7443082909D+00
 SP   1 1.00       0.000000000000
      0.1687144782D+00  0.1000000000D+01  0.1000000000D+01
 D   1 1.00       0.000000000000
      0.8000000000D+00  0.1000000000D+01
 ****
     20 0
 S   3 1.00       0.000000000000
      0.1873113696D+02  0.3349460434D-01
      0.2825394365D+01  0.2347269535D+00
      0.6401216923D+00  0.8137573261D+00
 S   1 1.00       0.000000000000
      0.1612777588D+00  0.1000000000D+01
 ****
     21 0
 S   3 1.00       0.000000000000
      0.1873113696D+02  0.3349460434D-01
      0.2825394365D+01  0.2347269535D+00
      0.6401216923D+00  0.8137573261D+00
 S   1 1.00       0.000000000000
      0.1612777588D+00  0.1000000000D+01
 ****
     22 0
 S   6 1.00       0.000000000000
      0.3047524880D+04  0.1834737132D-02
      0.4573695180D+03  0.1403732281D-01
      0.1039486850D+03  0.6884262226D-01
      0.2921015530D+02  0.2321844432D+00
      0.9286662960D+01  0.4679413484D+00
      0.3163926960D+01  0.3623119853D+00
 SP   3 1.00       0.000000000000
      0.7868272350D+01 -0.1193324198D+00  0.6899906659D-01
      0.1881288540D+01 -0.1608541517D+00  0.3164239610D+00
      0.5442492580D+00  0.1143456438D+01  0.7443082909D+00
 SP   1 1.00       0.000000000000
      0.1687144782D+00  0.1000000000D+01  0.1000000000D+01
 D   1 1.00       0.000000000000
      0.8000000000D+00  0.1000000000D+01
 ****
     23 0
 S   3 1.00       0.000000000000
      0.1873113696D+02  0.3349460434D-01
      0.2825394365D+01  0.2347269535D+00
      0.6401216923D+00  0.8137573261D+00
 S   1 1.00       0.000000000000
      0.1612777588D+00  0.1000000000D+01
 ****
     24 0
 S   3 1.00       0.000000000000
      0.1873113696D+02  0.3349460434D-01
      0.2825394365D+01  0.2347269535D+00
      0.6401216923D+00  0.8137573261D+00
 S   1 1.00       0.000000000000
      0.1612777588D+00  0.1000000000D+01
 ****
     25 0
 S   6 1.00       0.000000000000
      0.3047524880D+04  0.1834737132D-02
      0.4573695180D+03  0.1403732281D-01
      0.1039486850D+03  0.6884262226D-01
      0.2921015530D+02  0.2321844432D+00
      0.9286662960D+01  0.4679413484D+00
      0.3163926960D+01  0.3623119853D+00
 SP   3 1.00       0.000000000000
      0.7868272350D+01 -0.1193324198D+00  0.6899906659D-01
      0.1881288540D+01 -0.1608541517D+00  0.3164239610D+00
      0.5442492580D+00  0.1143456438D+01  0.7443082909D+00
 SP   1 1.00       0.000000000000
      0.1687144782D+00  0.1000000000D+01  0.1000000000D+01
 D   1 1.00       0.000000000000
      0.8000000000D+00  0.1000000000D+01
 ****
     26 0
 S   3 1.00       0.000000000000
      0.1873113696D+02  0.3349460434D-01
      0.2825394365D+01  0.2347269535D+00
      0.6401216923D+00  0.8137573261D+00
 S   1 1.00       0.000000000000
      0.1612777588D+00  0.1000000000D+01
 ****
     27 0
 S   3 1.00       0.000000000000
      0.1873113696D+02  0.3349460434D-01
      0.2825394365D+01  0.2347269535D+00
      0.6401216923D+00  0.8137573261D+00
 S   1 1.00       0.000000000000
      0.1612777588D+00  0.1000000000D+01
 ****
     28 0
 S   6 1.00       0.000000000000
      0.3047524880D+04  0.1834737132D-02
      0.4573695180D+03  0.1403732281D-01
      0.1039486850D+03  0.6884262226D-01
      0.2921015530D+02  0.2321844432D+00
      0.9286662960D+01  0.4679413484D+00
      0.3163926960D+01  0.3623119853D+00
 SP   3 1.00       0.000000000000
      0.7868272350D+01 -0.1193324198D+00  0.6899906659D-01
      0.1881288540D+01 -0.1608541517D+00  0.3164239610D+00
      0.5442492580D+00  0.1143456438D+01  0.7443082909D+00
 SP   1 1.00       0.000000000000
      0.1687144782D+00  0.1000000000D+01  0.1000000000D+01
 D   1 1.00       0.000000000000
      0.8000000000D+00  0.1000000000D+01
 ****
     29 0
 S   3 1.00       0.000000000000
      0.1873113696D+02  0.3349460434D-01
      0.2825394365D+01  0.2347269535D+00
      0.6401216923D+00  0.8137573261D+00
 S   1 1.00       0.000000000000
      0.1612777588D+00  0.1000000000D+01
 ****
     30 0
 S   6 1.00       0.000000000000
      0.3047524880D+04  0.1834737132D-02
      0.4573695180D+03  0.1403732281D-01
      0.1039486850D+03  0.6884262226D-01
      0.2921015530D+02  0.2321844432D+00
      0.9286662960D+01  0.4679413484D+00
      0.3163926960D+01  0.3623119853D+00
 SP   3 1.00       0.000000000000
      0.7868272350D+01 -0.1193324198D+00  0.6899906659D-01
      0.1881288540D+01 -0.1608541517D+00  0.3164239610D+00
      0.5442492580D+00  0.1143456438D+01  0.7443082909D+00
 SP   1 1.00       0.000000000000
      0.1687144782D+00  0.1000000000D+01  0.1000000000D+01
 D   1 1.00       0.000000000000
      0.8000000000D+00  0.1000000000D+01
 ****
     31 0
 S   3 1.00       0.000000000000
      0.1873113696D+02  0.3349460434D-01
      0.2825394365D+01  0.2347269535D+00
      0.6401216923D+00  0.8137573261D+00
 S   1 1.00       0.000000000000
      0.1612777588D+00  0.1000000000D+01
 ****
     32 0
 S   3 1.00       0.000000000000
      0.1873113696D+02  0.3349460434D-01
      0.2825394365D+01  0.2347269535D+00
      0.6401216923D+00  0.8137573261D+00
 S   1 1.00       0.000000000000
      0.1612777588D+00  0.1000000000D+01
 ****
     33 0
 S   3 1.00       0.000000000000
      0.1873113696D+02  0.3349460434D-01
      0.2825394365D+01  0.2347269535D+00
      0.6401216923D+00  0.8137573261D+00
 S   1 1.00       0.000000000000
      0.1612777588D+00  0.1000000000D+01
 ****
     34 0
 S   6 1.00       0.000000000000
      0.3047524880D+04  0.1834737132D-02
      0.4573695180D+03  0.1403732281D-01
      0.1039486850D+03  0.6884262226D-01
      0.2921015530D+02  0.2321844432D+00
      0.9286662960D+01  0.4679413484D+00
      0.3163926960D+01  0.3623119853D+00
 SP   3 1.00       0.000000000000
      0.7868272350D+01 -0.1193324198D+00  0.6899906659D-01
      0.1881288540D+01 -0.1608541517D+00  0.3164239610D+00
      0.5442492580D+00  0.1143456438D+01  0.7443082909D+00
 SP   1 1.00       0.000000000000
      0.1687144782D+00  0.1000000000D+01  0.1000000000D+01
 D   1 1.00       0.000000000000
      0.8000000000D+00  0.1000000000D+01
 ****
     35 0
 S   6 1.00       0.000000000000
      0.3047524880D+04  0.1834737132D-02
      0.4573695180D+03  0.1403732281D-01
      0.1039486850D+03  0.6884262226D-01
      0.2921015530D+02  0.2321844432D+00
      0.9286662960D+01  0.4679413484D+00
      0.3163926960D+01  0.3623119853D+00
 SP   3 1.00       0.000000000000
      0.7868272350D+01 -0.1193324198D+00  0.6899906659D-01
      0.1881288540D+01 -0.1608541517D+00  0.3164239610D+00
      0.5442492580D+00  0.1143456438D+01  0.7443082909D+00
 SP   1 1.00       0.000000000000
      0.1687144782D+00  0.1000000000D+01  0.1000000000D+01
 D   1 1.00       0.000000000000
      0.8000000000D+00  0.1000000000D+01
 ****
     36 0
 S   3 1.00       0.000000000000
      0.1873113696D+02  0.3349460434D-01
      0.2825394365D+01  0.2347269535D+00
      0.6401216923D+00  0.8137573261D+00
 S   1 1.00       0.000000000000
      0.1612777588D+00  0.1000000000D+01
 ****
     37 0
 S   3 1.00       0.000000000000
      0.1873113696D+02  0.3349460434D-01
      0.2825394365D+01  0.2347269535D+00
      0.6401216923D+00  0.8137573261D+00
 S   1 1.00       0.000000000000
      0.1612777588D+00  0.1000000000D+01
 ****
     38 0
 S   6 1.00       0.000000000000
      0.3047524880D+04  0.1834737132D-02
      0.4573695180D+03  0.1403732281D-01
      0.1039486850D+03  0.6884262226D-01
      0.2921015530D+02  0.2321844432D+00
      0.9286662960D+01  0.4679413484D+00
      0.3163926960D+01  0.3623119853D+00
 SP   3 1.00       0.000000000000
      0.7868272350D+01 -0.1193324198D+00  0.6899906659D-01
      0.1881288540D+01 -0.1608541517D+00  0.3164239610D+00
      0.5442492580D+00  0.1143456438D+01  0.7443082909D+00
 SP   1 1.00       0.000000000000
      0.1687144782D+00  0.1000000000D+01  0.1000000000D+01
 D   1 1.00       0.000000000000
      0.8000000000D+00  0.1000000000D+01
 ****
     39 0
 S   3 1.00       0.000000000000
      0.1873113696D+02  0.3349460434D-01
      0.2825394365D+01  0.2347269535D+00
      0.6401216923D+00  0.8137573261D+00
 S   1 1.00       0.000000000000
      0.1612777588D+00  0.1000000000D+01
 ****
     40 0
 S   6 1.00       0.000000000000
      0.3047524880D+04  0.1834737132D-02
      0.4573695180D+03  0.1403732281D-01
      0.1039486850D+03  0.6884262226D-01
      0.2921015530D+02  0.2321844432D+00
      0.9286662960D+01  0.4679413484D+00
      0.3163926960D+01  0.3623119853D+00
 SP   3 1.00       0.000000000000
      0.7868272350D+01 -0.1193324198D+00  0.6899906659D-01
      0.1881288540D+01 -0.1608541517D+00  0.3164239610D+00
      0.5442492580D+00  0.1143456438D+01  0.7443082909D+00
 SP   1 1.00       0.000000000000
      0.1687144782D+00  0.1000000000D+01  0.1000000000D+01
 D   1 1.00       0.000000000000
      0.8000000000D+00  0.1000000000D+01
 ****
     41 0
 S   3 1.00       0.000000000000
      0.1873113696D+02  0.3349460434D-01
      0.2825394365D+01  0.2347269535D+00
      0.6401216923D+00  0.8137573261D+00
 S   1 1.00       0.000000000000
      0.1612777588D+00  0.1000000000D+01
 ****
     42 0
 S   3 1.00       0.000000000000
      0.1873113696D+02  0.3349460434D-01
      0.2825394365D+01  0.2347269535D+00
      0.6401216923D+00  0.8137573261D+00
 S   1 1.00       0.000000000000
      0.1612777588D+00  0.1000000000D+01
 ****
     43 0
 S   3 1.00       0.000000000000
      0.1873113696D+02  0.3349460434D-01
      0.2825394365D+01  0.2347269535D+00
      0.6401216923D+00  0.8137573261D+00
 S   1 1.00       0.000000000000
      0.1612777588D+00  0.1000000000D+01
 ****
     44 0
 S   6 1.00       0.000000000000
      0.3047524880D+04  0.1834737132D-02
      0.4573695180D+03  0.1403732281D-01
      0.1039486850D+03  0.6884262226D-01
      0.2921015530D+02  0.2321844432D+00
      0.9286662960D+01  0.4679413484D+00
      0.3163926960D+01  0.3623119853D+00
 SP   3 1.00       0.000000000000
      0.7868272350D+01 -0.1193324198D+00  0.6899906659D-01
      0.1881288540D+01 -0.1608541517D+00  0.3164239610D+00
      0.5442492580D+00  0.1143456438D+01  0.7443082909D+00
 SP   1 1.00       0.000000000000
      0.1687144782D+00  0.1000000000D+01  0.1000000000D+01
 D   1 1.00       0.000000000000
      0.8000000000D+00  0.1000000000D+01
 ****
     45 0
 S   3 1.00       0.000000000000
      0.1873113696D+02  0.3349460434D-01
      0.2825394365D+01  0.2347269535D+00
      0.6401216923D+00  0.8137573261D+00
 S   1 1.00       0.000000000000
      0.1612777588D+00  0.1000000000D+01
 ****
     46 0
 S   3 1.00       0.000000000000
      0.1873113696D+02  0.3349460434D-01
      0.2825394365D+01  0.2347269535D+00
      0.6401216923D+00  0.8137573261D+00
 S   1 1.00       0.000000000000
      0.1612777588D+00  0.1000000000D+01
 ****
     47 0
 S   6 1.00       0.000000000000
      0.3047524880D+04  0.1834737132D-02
      0.4573695180D+03  0.1403732281D-01
      0.1039486850D+03  0.6884262226D-01
      0.2921015530D+02  0.2321844432D+00
      0.9286662960D+01  0.4679413484D+00
      0.3163926960D+01  0.3623119853D+00
 SP   3 1.00       0.000000000000
      0.7868272350D+01 -0.1193324198D+00  0.6899906659D-01
      0.1881288540D+01 -0.1608541517D+00  0.3164239610D+00
      0.5442492580D+00  0.1143456438D+01  0.7443082909D+00
 SP   1 1.00       0.000000000000
      0.1687144782D+00  0.1000000000D+01  0.1000000000D+01
 D   1 1.00       0.000000000000
      0.8000000000D+00  0.1000000000D+01
 ****
     48 0
 S   3 1.00       0.000000000000
      0.1873113696D+02  0.3349460434D-01
      0.2825394365D+01  0.2347269535D+00
      0.6401216923D+00  0.8137573261D+00
 S   1 1.00       0.000000000000
      0.1612777588D+00  0.1000000000D+01
 ****
     49 0
 S   3 1.00       0.000000000000
      0.1873113696D+02  0.3349460434D-01
      0.2825394365D+01  0.2347269535D+00
      0.6401216923D+00  0.8137573261D+00
 S   1 1.00       0.000000000000
      0.1612777588D+00  0.1000000000D+01
 ****
     50 0
 S   6 1.00       0.000000000000
      0.3047524880D+04  0.1834737132D-02
      0.4573695180D+03  0.1403732281D-01
      0.1039486850D+03  0.6884262226D-01
      0.2921015530D+02  0.2321844432D+00
      0.9286662960D+01  0.4679413484D+00
      0.3163926960D+01  0.3623119853D+00
 SP   3 1.00       0.000000000000
      0.7868272350D+01 -0.1193324198D+00  0.6899906659D-01
      0.1881288540D+01 -0.1608541517D+00  0.3164239610D+00
      0.5442492580D+00  0.1143456438D+01  0.7443082909D+00
 SP   1 1.00       0.000000000000
      0.1687144782D+00  0.1000000000D+01  0.1000000000D+01
 D   1 1.00       0.000000000000
      0.8000000000D+00  0.1000000000D+01
 ****
     51 0
 S   3 1.00       0.000000000000
      0.1873113696D+02  0.3349460434D-01
      0.2825394365D+01  0.2347269535D+00
      0.6401216923D+00  0.8137573261D+00
 S   1 1.00       0.000000000000
      0.1612777588D+00  0.1000000000D+01
 ****
     52 0
 S   3 1.00       0.000000000000
      0.1873113696D+02  0.3349460434D-01
      0.2825394365D+01  0.2347269535D+00
      0.6401216923D+00  0.8137573261D+00
 S   1 1.00       0.000000000000
      0.1612777588D+00  0.1000000000D+01
 ****
     53 0
 S   6 1.00       0.000000000000
      0.3047524880D+04  0.1834737132D-02
      0.4573695180D+03  0.1403732281D-01
      0.1039486850D+03  0.6884262226D-01
      0.2921015530D+02  0.2321844432D+00
      0.9286662960D+01  0.4679413484D+00
      0.3163926960D+01  0.3623119853D+00
 SP   3 1.00       0.000000000000
      0.7868272350D+01 -0.1193324198D+00  0.6899906659D-01
      0.1881288540D+01 -0.1608541517D+00  0.3164239610D+00
      0.5442492580D+00  0.1143456438D+01  0.7443082909D+00
 SP   1 1.00       0.000000000000
      0.1687144782D+00  0.1000000000D+01  0.1000000000D+01
 D   1 1.00       0.000000000000
      0.8000000000D+00  0.1000000000D+01
 ****
     54 0
 S   3 1.00       0.000000000000
      0.1873113696D+02  0.3349460434D-01
      0.2825394365D+01  0.2347269535D+00
      0.6401216923D+00  0.8137573261D+00
 S   1 1.00       0.000000000000
      0.1612777588D+00  0.1000000000D+01
 ****
     55 0
 S   6 1.00       0.000000000000
      0.3047524880D+04  0.1834737132D-02
      0.4573695180D+03  0.1403732281D-01
      0.1039486850D+03  0.6884262226D-01
      0.2921015530D+02  0.2321844432D+00
      0.9286662960D+01  0.4679413484D+00
      0.3163926960D+01  0.3623119853D+00
 SP   3 1.00       0.000000000000
      0.7868272350D+01 -0.1193324198D+00  0.6899906659D-01
      0.1881288540D+01 -0.1608541517D+00  0.3164239610D+00
      0.5442492580D+00  0.1143456438D+01  0.7443082909D+00
 SP   1 1.00       0.000000000000
      0.1687144782D+00  0.1000000000D+01  0.1000000000D+01
 D   1 1.00       0.000000000000
      0.8000000000D+00  0.1000000000D+01
 ****
     56 0
 S   3 1.00       0.000000000000
      0.1873113696D+02  0.3349460434D-01
      0.2825394365D+01  0.2347269535D+00
      0.6401216923D+00  0.8137573261D+00
 S   1 1.00       0.000000000000
      0.1612777588D+00  0.1000000000D+01
 ****
     57 0
 S   3 1.00       0.000000000000
      0.1873113696D+02  0.3349460434D-01
      0.2825394365D+01  0.2347269535D+00
      0.6401216923D+00  0.8137573261D+00
 S   1 1.00       0.000000000000
      0.1612777588D+00  0.1000000000D+01
 ****
     58 0
 S   3 1.00       0.000000000000
      0.1873113696D+02  0.3349460434D-01
      0.2825394365D+01  0.2347269535D+00
      0.6401216923D+00  0.8137573261D+00
 S   1 1.00       0.000000000000
      0.1612777588D+00  0.1000000000D+01
 ****
     59 0
 S   6 1.00       0.000000000000
      0.3047524880D+04  0.1834737132D-02
      0.4573695180D+03  0.1403732281D-01
      0.1039486850D+03  0.6884262226D-01
      0.2921015530D+02  0.2321844432D+00
      0.9286662960D+01  0.4679413484D+00
      0.3163926960D+01  0.3623119853D+00
 SP   3 1.00       0.000000000000
      0.7868272350D+01 -0.1193324198D+00  0.6899906659D-01
      0.1881288540D+01 -0.1608541517D+00  0.3164239610D+00
      0.5442492580D+00  0.1143456438D+01  0.7443082909D+00
 SP   1 1.00       0.000000000000
      0.1687144782D+00  0.1000000000D+01  0.1000000000D+01
 D   1 1.00       0.000000000000
      0.8000000000D+00  0.1000000000D+01
 ****
     60 0
 S   3 1.00       0.000000000000
      0.1873113696D+02  0.3349460434D-01
      0.2825394365D+01  0.2347269535D+00
      0.6401216923D+00  0.8137573261D+00
 S   1 1.00       0.000000000000
      0.1612777588D+00  0.1000000000D+01
 ****
     61 0
 S   3 1.00       0.000000000000
      0.1873113696D+02  0.3349460434D-01
      0.2825394365D+01  0.2347269535D+00
      0.6401216923D+00  0.8137573261D+00
 S   1 1.00       0.000000000000
      0.1612777588D+00  0.1000000000D+01
 ****
     62 0
 S   6 1.00       0.000000000000
      0.3047524880D+04  0.1834737132D-02
      0.4573695180D+03  0.1403732281D-01
      0.1039486850D+03  0.6884262226D-01
      0.2921015530D+02  0.2321844432D+00
      0.9286662960D+01  0.4679413484D+00
      0.3163926960D+01  0.3623119853D+00
 SP   3 1.00       0.000000000000
      0.7868272350D+01 -0.1193324198D+00  0.6899906659D-01
      0.1881288540D+01 -0.1608541517D+00  0.3164239610D+00
      0.5442492580D+00  0.1143456438D+01  0.7443082909D+00
 SP   1 1.00       0.000000000000
      0.1687144782D+00  0.1000000000D+01  0.1000000000D+01
 D   1 1.00       0.000000000000
      0.8000000000D+00  0.1000000000D+01
 ****
     63 0
 S   3 1.00       0.000000000000
      0.1873113696D+02  0.3349460434D-01
      0.2825394365D+01  0.2347269535D+00
      0.6401216923D+00  0.8137573261D+00
 S   1 1.00       0.000000000000
      0.1612777588D+00  0.1000000000D+01
 ****
     64 0
 S   3 1.00       0.000000000000
      0.1873113696D+02  0.3349460434D-01
      0.2825394365D+01  0.2347269535D+00
      0.6401216923D+00  0.8137573261D+00
 S   1 1.00       0.000000000000
      0.1612777588D+00  0.1000000000D+01
 ****
     65 0
 S   6 1.00       0.000000000000
      0.3047524880D+04  0.1834737132D-02
      0.4573695180D+03  0.1403732281D-01
      0.1039486850D+03  0.6884262226D-01
      0.2921015530D+02  0.2321844432D+00
      0.9286662960D+01  0.4679413484D+00
      0.3163926960D+01  0.3623119853D+00
 SP   3 1.00       0.000000000000
      0.7868272350D+01 -0.1193324198D+00  0.6899906659D-01
      0.1881288540D+01 -0.1608541517D+00  0.3164239610D+00
      0.5442492580D+00  0.1143456438D+01  0.7443082909D+00
 SP   1 1.00       0.000000000000
      0.1687144782D+00  0.1000000000D+01  0.1000000000D+01
 D   1 1.00       0.000000000000
      0.8000000000D+00  0.1000000000D+01
 ****
     66 0
 S   3 1.00       0.000000000000
      0.1873113696D+02  0.3349460434D-01
      0.2825394365D+01  0.2347269535D+00
      0.6401216923D+00  0.8137573261D+00
 S   1 1.00       0.000000000000
      0.1612777588D+00  0.1000000000D+01
 ****
     67 0
 S   6 1.00       0.000000000000
      0.3047524880D+04  0.1834737132D-02
      0.4573695180D+03  0.1403732281D-01
      0.1039486850D+03  0.6884262226D-01
      0.2921015530D+02  0.2321844432D+00
      0.9286662960D+01  0.4679413484D+00
      0.3163926960D+01  0.3623119853D+00
 SP   3 1.00       0.000000000000
      0.7868272350D+01 -0.1193324198D+00  0.6899906659D-01
      0.1881288540D+01 -0.1608541517D+00  0.3164239610D+00
      0.5442492580D+00  0.1143456438D+01  0.7443082909D+00
 SP   1 1.00       0.000000000000
      0.1687144782D+00  0.1000000000D+01  0.1000000000D+01
 D   1 1.00       0.000000000000
      0.8000000000D+00  0.1000000000D+01
 ****
     68 0
 S   3 1.00       0.000000000000
      0.1873113696D+02  0.3349460434D-01
      0.2825394365D+01  0.2347269535D+00
      0.6401216923D+00  0.8137573261D+00
 S   1 1.00       0.000000000000
      0.1612777588D+00  0.1000000000D+01
 ****
     69 0
 S   3 1.00       0.000000000000
      0.1873113696D+02  0.3349460434D-01
      0.2825394365D+01  0.2347269535D+00
      0.6401216923D+00  0.8137573261D+00
 S   1 1.00       0.000000000000
      0.1612777588D+00  0.1000000000D+01
 ****
     70 0
 S   3 1.00       0.000000000000
      0.1873113696D+02  0.3349460434D-01
      0.2825394365D+01  0.2347269535D+00
      0.6401216923D+00  0.8137573261D+00
 S   1 1.00       0.000000000000
      0.1612777588D+00  0.1000000000D+01
 ****
     71 0
 S   6 1.00       0.000000000000
      0.3047524880D+04  0.1834737132D-02
      0.4573695180D+03  0.1403732281D-01
      0.1039486850D+03  0.6884262226D-01
      0.2921015530D+02  0.2321844432D+00
      0.9286662960D+01  0.4679413484D+00
      0.3163926960D+01  0.3623119853D+00
 SP   3 1.00       0.000000000000
      0.7868272350D+01 -0.1193324198D+00  0.6899906659D-01
      0.1881288540D+01 -0.1608541517D+00  0.3164239610D+00
      0.5442492580D+00  0.1143456438D+01  0.7443082909D+00
 SP   1 1.00       0.000000000000
      0.1687144782D+00  0.1000000000D+01  0.1000000000D+01
 D   1 1.00       0.000000000000
      0.8000000000D+00  0.1000000000D+01
 ****
     72 0
 S   3 1.00       0.000000000000
      0.1873113696D+02  0.3349460434D-01
      0.2825394365D+01  0.2347269535D+00
      0.6401216923D+00  0.8137573261D+00
 S   1 1.00       0.000000000000
      0.1612777588D+00  0.1000000000D+01
 ****
     73 0
 S   3 1.00       0.000000000000
      0.1873113696D+02  0.3349460434D-01
      0.2825394365D+01  0.2347269535D+00
      0.6401216923D+00  0.8137573261D+00
 S   1 1.00       0.000000000000
      0.1612777588D+00  0.1000000000D+01
 ****
     74 0
 S   3 1.00       0.000000000000
      0.1873113696D+02  0.3349460434D-01
      0.2825394365D+01  0.2347269535D+00
      0.6401216923D+00  0.8137573261D+00
 S   1 1.00       0.000000000000
      0.1612777588D+00  0.1000000000D+01
 ****

 AO basis set (Overlap normalization):
 Atom O1       Shell     1 S   6     bf    1 -     1          0.843910816170         -6.385432791037         13.717875698657
      0.5484671660D+04  0.1831074430D-02
      0.8252349460D+03  0.1395017220D-01
      0.1880469580D+03  0.6844507810D-01
      0.5296450000D+02  0.2327143360D+00
      0.1689757040D+02  0.4701928980D+00
      0.5799635340D+01  0.3585208530D+00
 Atom O1       Shell     2 SP   3    bf    2 -     5          0.843910816170         -6.385432791037         13.717875698657
      0.1553961625D+02 -0.1107775495D+00  0.7087426823D-01
      0.3599933586D+01 -0.1480262627D+00  0.3397528391D+00
      0.1013761750D+01  0.1130767015D+01  0.7271585773D+00
 Atom O1       Shell     3 SP   1    bf    6 -     9          0.843910816170         -6.385432791037         13.717875698657
      0.2700058226D+00  0.1000000000D+01  0.1000000000D+01
 Atom O1       Shell     4 D   1     bf   10 -    15          0.843910816170         -6.385432791037         13.717875698657
      0.8000000000D+00  0.1000000000D+01
 Atom H2       Shell     5 S   3     bf   16 -    16          0.533629369172         -8.164188271660         13.444119407478
      0.1873113696D+02  0.3349460434D-01
      0.2825394365D+01  0.2347269535D+00
      0.6401216923D+00  0.8137573261D+00
 Atom H2       Shell     6 S   1     bf   17 -    17          0.533629369172         -8.164188271660         13.444119407478
      0.1612777588D+00  0.1000000000D+01
 Atom C3       Shell     7 S   6     bf   18 -    18          2.846382828946          2.837647607691          0.000000000000
      0.3047524880D+04  0.1834737132D-02
      0.4573695180D+03  0.1403732281D-01
      0.1039486850D+03  0.6884262226D-01
      0.2921015530D+02  0.2321844432D+00
      0.9286662960D+01  0.4679413484D+00
      0.3163926960D+01  0.3623119853D+00
 Atom C3       Shell     8 SP   3    bf   19 -    22          2.846382828946          2.837647607691          0.000000000000
      0.7868272350D+01 -0.1193324198D+00  0.6899906659D-01
      0.1881288540D+01 -0.1608541517D+00  0.3164239610D+00
      0.5442492580D+00  0.1143456438D+01  0.7443082909D+00
 Atom C3       Shell     9 SP   1    bf   23 -    26          2.846382828946          2.837647607691          0.000000000000
      0.1687144782D+00  0.1000000000D+01  0.1000000000D+01
 Atom C3       Shell    10 D   1     bf   27 -    32          2.846382828946          2.837647607691          0.000000000000
      0.8000000000D+00  0.1000000000D+01
 Atom C4       Shell    11 S   6     bf   33 -    33          2.085777263426          0.000000000000          0.000000000000
      0.3047524880D+04  0.1834737132D-02
      0.4573695180D+03  0.1403732281D-01
      0.1039486850D+03  0.6884262226D-01
      0.2921015530D+02  0.2321844432D+00
      0.9286662960D+01  0.4679413484D+00
      0.3163926960D+01  0.3623119853D+00
 Atom C4       Shell    12 SP   3    bf   34 -    37          2.085777263426          0.000000000000          0.000000000000
      0.7868272350D+01 -0.1193324198D+00  0.6899906659D-01
      0.1881288540D+01 -0.1608541517D+00  0.3164239610D+00
      0.5442492580D+00  0.1143456438D+01  0.7443082909D+00
 Atom C4       Shell    13 SP   1    bf   38 -    41          2.085777263426          0.000000000000          0.000000000000
      0.1687144782D+00  0.1000000000D+01  0.1000000000D+01
 Atom C4       Shell    14 D   1     bf   42 -    47          2.085777263426          0.000000000000          0.000000000000
      0.8000000000D+00  0.1000000000D+01
 Atom H5       Shell    15 S   3     bf   48 -    48          0.000000000000          0.000000000000          0.000000000000
      0.1873113696D+02  0.3349460434D-01
      0.2825394365D+01  0.2347269535D+00
      0.6401216923D+00  0.8137573261D+00
 Atom H5       Shell    16 S   1     bf   49 -    49          0.000000000000          0.000000000000          0.000000000000
      0.1612777588D+00  0.1000000000D+01
 Atom C6       Shell    17 S   6     bf   50 -    50          2.865705184168         -1.497141575902          2.357066082501
      0.3047524880D+04  0.1834737132D-02
      0.4573695180D+03  0.1403732281D-01
      0.1039486850D+03  0.6884262226D-01
      0.2921015530D+02  0.2321844432D+00
      0.9286662960D+01  0.4679413484D+00
      0.3163926960D+01  0.3623119853D+00
 Atom C6       Shell    18 SP   3    bf   51 -    54          2.865705184168         -1.497141575902          2.357066082501
      0.7868272350D+01 -0.1193324198D+00  0.6899906659D-01
      0.1881288540D+01 -0.1608541517D+00  0.3164239610D+00
      0.5442492580D+00  0.1143456438D+01  0.7443082909D+00
 Atom C6       Shell    19 SP   1    bf   55 -    58          2.865705184168         -1.497141575902          2.357066082501
      0.1687144782D+00  0.1000000000D+01  0.1000000000D+01
 Atom C6       Shell    20 D   1     bf   59 -    64          2.865705184168         -1.497141575902          2.357066082501
      0.8000000000D+00  0.1000000000D+01
 Atom H7       Shell    21 S   3     bf   65 -    65          4.938668724913         -1.533717281896          2.487633856166
      0.1873113696D+02  0.3349460434D-01
      0.2825394365D+01  0.2347269535D+00
      0.6401216923D+00  0.8137573261D+00
 Atom H7       Shell    22 S   1     bf   66 -    66          4.938668724913         -1.533717281896          2.487633856166
      0.1612777588D+00  0.1000000000D+01
 Atom C8       Shell    23 S   6     bf   67 -    67          1.772494118746         -0.217541303993          4.757191351282
      0.3047524880D+04  0.1834737132D-02
      0.4573695180D+03  0.1403732281D-01
      0.1039486850D+03  0.6884262226D-01
      0.2921015530D+02  0.2321844432D+00
      0.9286662960D+01  0.4679413484D+00
      0.3163926960D+01  0.3623119853D+00
 Atom C8       Shell    24 SP   3    bf   68 -    71          1.772494118746         -0.217541303993          4.757191351282
      0.7868272350D+01 -0.1193324198D+00  0.6899906659D-01
      0.1881288540D+01 -0.1608541517D+00  0.3164239610D+00
      0.5442492580D+00  0.1143456438D+01  0.7443082909D+00
 Atom C8       Shell    25 SP   1    bf   72 -    75          1.772494118746         -0.217541303993          4.757191351282
      0.1687144782D+00  0.1000000000D+01  0.1000000000D+01
 Atom C8       Shell    26 D   1     bf   76 -    81          1.772494118746         -0.217541303993          4.757191351282
      0.8000000000D+00  0.1000000000D+01
 Atom H9       Shell    27 S   3     bf   82 -    82         -0.292897100412         -0.459376889356          4.623493170689
      0.1873113696D+02  0.3349460434D-01
      0.2825394365D+01  0.2347269535D+00
      0.6401216923D+00  0.8137573261D+00
 Atom H9       Shell    28 S   1     bf   83 -    83         -0.292897100412         -0.459376889356          4.623493170689
      0.1612777588D+00  0.1000000000D+01
 Atom C10      Shell    29 S   6     bf   84 -    84          1.800717405307          3.640283630379         -2.654705771897
      0.3047524880D+04  0.1834737132D-02
      0.4573695180D+03  0.1403732281D-01
      0.1039486850D+03  0.6884262226D-01
      0.2921015530D+02  0.2321844432D+00
      0.9286662960D+01  0.4679413484D+00
      0.3163926960D+01  0.3623119853D+00
 Atom C10      Shell    30 SP   3    bf   85 -    88          1.800717405307          3.640283630379         -2.654705771897
      0.7868272350D+01 -0.1193324198D+00  0.6899906659D-01
      0.1881288540D+01 -0.1608541517D+00  0.3164239610D+00
      0.5442492580D+00  0.1143456438D+01  0.7443082909D+00
 Atom C10      Shell    31 SP   1    bf   89 -    92          1.800717405307          3.640283630379         -2.654705771897
      0.1687144782D+00  0.1000000000D+01  0.1000000000D+01
 Atom C10      Shell    32 D   1     bf   93 -    98          1.800717405307          3.640283630379         -2.654705771897
      0.8000000000D+00  0.1000000000D+01
 Atom H11      Shell    33 S   3     bf   99 -    99         -0.268090117445          3.684549123337         -2.449650663251
      0.1873113696D+02  0.3349460434D-01
      0.2825394365D+01  0.2347269535D+00
      0.6401216923D+00  0.8137573261D+00
 Atom H11      Shell    34 S   1     bf  100 -   100         -0.268090117445          3.684549123337         -2.449650663251
      0.1612777588D+00  0.1000000000D+01
 Atom C12      Shell    35 S   6     bf  101 -   101          1.560351403266          4.034680000087          2.326145004015
      0.3047524880D+04  0.1834737132D-02
      0.4573695180D+03  0.1403732281D-01
      0.1039486850D+03  0.6884262226D-01
      0.2921015530D+02  0.2321844432D+00
      0.9286662960D+01  0.4679413484D+00
      0.3163926960D+01  0.3623119853D+00
 Atom C12      Shell    36 SP   3    bf  102 -   105          1.560351403266          4.034680000087          2.326145004015
      0.7868272350D+01 -0.1193324198D+00  0.6899906659D-01
      0.1881288540D+01 -0.1608541517D+00  0.3164239610D+00
      0.5442492580D+00  0.1143456438D+01  0.7443082909D+00
 Atom C12      Shell    37 SP   1    bf  106 -   109          1.560351403266          4.034680000087          2.326145004015
      0.1687144782D+00  0.1000000000D+01  0.1000000000D+01
 Atom C12      Shell    38 D   1     bf  110 -   115          1.560351403266          4.034680000087          2.326145004015
      0.8000000000D+00  0.1000000000D+01
 Atom H13      Shell    39 S   3     bf  116 -   116         -0.499488575300          3.949669309396          2.063864849565
      0.1873113696D+02  0.3349460434D-01
      0.2825394365D+01  0.2347269535D+00
      0.6401216923D+00  0.8137573261D+00
 Atom H13      Shell    40 S   1     bf  117 -   117         -0.499488575300          3.949669309396          2.063864849565
      0.1612777588D+00  0.1000000000D+01
 Atom H14      Shell    41 S   3     bf  118 -   118          2.045775710720          6.035880605120          2.524806337673
      0.1873113696D+02  0.3349460434D-01
      0.2825394365D+01  0.2347269535D+00
      0.6401216923D+00  0.8137573261D+00
 Atom H14      Shell    42 S   1     bf  119 -   119          2.045775710720          6.035880605120          2.524806337673
      0.1612777588D+00  0.1000000000D+01
 Atom C15      Shell    43 S   6     bf  120 -   120          2.581338553185         -1.594896126099          7.255625918264
      0.3047524880D+04  0.1834737132D-02
      0.4573695180D+03  0.1403732281D-01
      0.1039486850D+03  0.6884262226D-01
      0.2921015530D+02  0.2321844432D+00
      0.9286662960D+01  0.4679413484D+00
      0.3163926960D+01  0.3623119853D+00
 Atom C15      Shell    44 SP   3    bf  121 -   124          2.581338553185         -1.594896126099          7.255625918264
      0.7868272350D+01 -0.1193324198D+00  0.6899906659D-01
      0.1881288540D+01 -0.1608541517D+00  0.3164239610D+00
      0.5442492580D+00  0.1143456438D+01  0.7443082909D+00
 Atom C15      Shell    45 SP   1    bf  125 -   128          2.581338553185         -1.594896126099          7.255625918264
      0.1687144782D+00  0.1000000000D+01  0.1000000000D+01
 Atom C15      Shell    46 D   1     bf  129 -   134          2.581338553185         -1.594896126099          7.255625918264
      0.8000000000D+00  0.1000000000D+01
 Atom C16      Shell    47 S   6     bf  135 -   135          2.903618948545         -0.970320077405         -2.612385733096
      0.3047524880D+04  0.1834737132D-02
      0.4573695180D+03  0.1403732281D-01
      0.1039486850D+03  0.6884262226D-01
      0.2921015530D+02  0.2321844432D+00
      0.9286662960D+01  0.4679413484D+00
      0.3163926960D+01  0.3623119853D+00
 Atom C16      Shell    48 SP   3    bf  136 -   139          2.903618948545         -0.970320077405         -2.612385733096
      0.7868272350D+01 -0.1193324198D+00  0.6899906659D-01
      0.1881288540D+01 -0.1608541517D+00  0.3164239610D+00
      0.5442492580D+00  0.1143456438D+01  0.7443082909D+00
 Atom C16      Shell    49 SP   1    bf  140 -   143          2.903618948545         -0.970320077405         -2.612385733096
      0.1687144782D+00  0.1000000000D+01  0.1000000000D+01
 Atom C16      Shell    50 D   1     bf  144 -   149          2.903618948545         -0.970320077405         -2.612385733096
      0.8000000000D+00  0.1000000000D+01
 Atom H17      Shell    51 S   3     bf  150 -   150          1.811941925002         -2.619939346394         -3.217034392951
      0.1873113696D+02  0.3349460434D-01
      0.2825394365D+01  0.2347269535D+00
      0.6401216923D+00  0.8137573261D+00
 Atom H17      Shell    52 S   1     bf  151 -   151          1.811941925002         -2.619939346394         -3.217034392951
      0.1612777588D+00  0.1000000000D+01
 Atom H18      Shell    53 S   3     bf  152 -   152          4.894285955552         -1.549303383992         -2.589192916397
      0.1873113696D+02  0.3349460434D-01
      0.2825394365D+01  0.2347269535D+00
      0.6401216923D+00  0.8137573261D+00
 Atom H18      Shell    54 S   1     bf  153 -   153          4.894285955552         -1.549303383992         -2.589192916397
      0.1612777588D+00  0.1000000000D+01
 Atom C19      Shell    55 S   6     bf  154 -   154          2.283148235388          2.659515030418          4.793553518223
      0.3047524880D+04  0.1834737132D-02
      0.4573695180D+03  0.1403732281D-01
      0.1039486850D+03  0.6884262226D-01
      0.2921015530D+02  0.2321844432D+00
      0.9286662960D+01  0.4679413484D+00
      0.3163926960D+01  0.3623119853D+00
 Atom C19      Shell    56 SP   3    bf  155 -   158          2.283148235388          2.659515030418          4.793553518223
      0.7868272350D+01 -0.1193324198D+00  0.6899906659D-01
      0.1881288540D+01 -0.1608541517D+00  0.3164239610D+00
      0.5442492580D+00  0.1143456438D+01  0.7443082909D+00
 Atom C19      Shell    57 SP   1    bf  159 -   162          2.283148235388          2.659515030418          4.793553518223
      0.1687144782D+00  0.1000000000D+01  0.1000000000D+01
 Atom C19      Shell    58 D   1     bf  163 -   168          2.283148235388          2.659515030418          4.793553518223
      0.8000000000D+00  0.1000000000D+01
 Atom H20      Shell    59 S   3     bf  169 -   169          4.285021204979          3.013322879587          5.180608453083
      0.1873113696D+02  0.3349460434D-01
      0.2825394365D+01  0.2347269535D+00
      0.6401216923D+00  0.8137573261D+00
 Atom H20      Shell    60 S   1     bf  170 -   170          4.285021204979          3.013322879587          5.180608453083
      0.1612777588D+00  0.1000000000D+01
 Atom H21      Shell    61 S   3     bf  171 -   171          1.241203701403          3.531634979102          6.356421885520
      0.1873113696D+02  0.3349460434D-01
      0.2825394365D+01  0.2347269535D+00
      0.6401216923D+00  0.8137573261D+00
 Atom H21      Shell    62 S   1     bf  172 -   172          1.241203701403          3.531634979102          6.356421885520
      0.1612777588D+00  0.1000000000D+01
 Atom C22      Shell    63 S   6     bf  173 -   173          2.497927723535          1.341533589271         -4.378066727728
      0.3047524880D+04  0.1834737132D-02
      0.4573695180D+03  0.1403732281D-01
      0.1039486850D+03  0.6884262226D-01
      0.2921015530D+02  0.2321844432D+00
      0.9286662960D+01  0.4679413484D+00
      0.3163926960D+01  0.3623119853D+00
 Atom C22      Shell    64 SP   3    bf  174 -   177          2.497927723535          1.341533589271         -4.378066727728
      0.7868272350D+01 -0.1193324198D+00  0.6899906659D-01
      0.1881288540D+01 -0.1608541517D+00  0.3164239610D+00
      0.5442492580D+00  0.1143456438D+01  0.7443082909D+00
 Atom C22      Shell    65 SP   1    bf  178 -   181          2.497927723535          1.341533589271         -4.378066727728
      0.1687144782D+00  0.1000000000D+01  0.1000000000D+01
 Atom C22      Shell    66 D   1     bf  182 -   187          2.497927723535          1.341533589271         -4.378066727728
      0.8000000000D+00  0.1000000000D+01
 Atom H23      Shell    67 S   3     bf  188 -   188          4.220752677447          1.748985963447         -5.454287227696
      0.1873113696D+02  0.3349460434D-01
      0.2825394365D+01  0.2347269535D+00
      0.6401216923D+00  0.8137573261D+00
 Atom H23      Shell    68 S   1     bf  189 -   189          4.220752677447          1.748985963447         -5.454287227696
      0.1612777588D+00  0.1000000000D+01
 Atom H24      Shell    69 S   3     bf  190 -   190          1.014991748097          0.983534932252         -5.774638571722
      0.1873113696D+02  0.3349460434D-01
      0.2825394365D+01  0.2347269535D+00
      0.6401216923D+00  0.8137573261D+00
 Atom H24      Shell    70 S   1     bf  191 -   191          1.014991748097          0.983534932252         -5.774638571722
      0.1612777588D+00  0.1000000000D+01
 Atom C25      Shell    71 S   6     bf  192 -   192          1.937417718219         -4.245206092654          2.196800620150
      0.3047524880D+04  0.1834737132D-02
      0.4573695180D+03  0.1403732281D-01
      0.1039486850D+03  0.6884262226D-01
      0.2921015530D+02  0.2321844432D+00
      0.9286662960D+01  0.4679413484D+00
      0.3163926960D+01  0.3623119853D+00
 Atom C25      Shell    72 SP   3    bf  193 -   196          1.937417718219         -4.245206092654          2.196800620150
      0.7868272350D+01 -0.1193324198D+00  0.6899906659D-01
      0.1881288540D+01 -0.1608541517D+00  0.3164239610D+00
      0.5442492580D+00  0.1143456438D+01  0.7443082909D+00
 Atom C25      Shell    73 SP   1    bf  197 -   200          1.937417718219         -4.245206092654          2.196800620150
      0.1687144782D+00  0.1000000000D+01  0.1000000000D+01
 Atom C25      Shell    74 D   1     bf  201 -   206          1.937417718219         -4.245206092654          2.196800620150
      0.8000000000D+00  0.1000000000D+01
 Atom H26      Shell    75 S   3     bf  207 -   207          3.076493948668         -5.303707235386          0.822562391075
      0.1873113696D+02  0.3349460434D-01
      0.2825394365D+01  0.2347269535D+00
      0.6401216923D+00  0.8137573261D+00
 Atom H26      Shell    76 S   1     bf  208 -   208          3.076493948668         -5.303707235386          0.822562391075
      0.1612777588D+00  0.1000000000D+01
 Atom H27      Shell    77 S   3     bf  209 -   209         -0.005011326937         -4.278533699576          1.442460989644
      0.1873113696D+02  0.3349460434D-01
      0.2825394365D+01  0.2347269535D+00
      0.6401216923D+00  0.8137573261D+00
 Atom H27      Shell    78 S   1     bf  210 -   210         -0.005011326937         -4.278533699576          1.442460989644
      0.1612777588D+00  0.1000000000D+01
 Atom C28      Shell    79 S   6     bf  211 -   211          2.615786994471          6.200719733836         -3.814319489266
      0.3047524880D+04  0.1834737132D-02
      0.4573695180D+03  0.1403732281D-01
      0.1039486850D+03  0.6884262226D-01
      0.2921015530D+02  0.2321844432D+00
      0.9286662960D+01  0.4679413484D+00
      0.3163926960D+01  0.3623119853D+00
 Atom C28      Shell    80 SP   3    bf  212 -   215          2.615786994471          6.200719733836         -3.814319489266
      0.7868272350D+01 -0.1193324198D+00  0.6899906659D-01
      0.1881288540D+01 -0.1608541517D+00  0.3164239610D+00
      0.5442492580D+00  0.1143456438D+01  0.7443082909D+00
 Atom C28      Shell    81 SP   1    bf  216 -   219          2.615786994471          6.200719733836         -3.814319489266
      0.1687144782D+00  0.1000000000D+01  0.1000000000D+01
 Atom C28      Shell    82 D   1     bf  220 -   225          2.615786994471          6.200719733836         -3.814319489266
      0.8000000000D+00  0.1000000000D+01
 Atom H29      Shell    83 S   3     bf  226 -   226          4.682281700306          6.139411613468         -4.034753982865
      0.1873113696D+02  0.3349460434D-01
      0.2825394365D+01  0.2347269535D+00
      0.6401216923D+00  0.8137573261D+00
 Atom H29      Shell    84 S   1     bf  227 -   227          4.682281700306          6.139411613468         -4.034753982865
      0.1612777588D+00  0.1000000000D+01
 Atom C30      Shell    85 S   6     bf  228 -   228          5.740076482306          3.223682884124          0.111844707291
      0.3047524880D+04  0.1834737132D-02
      0.4573695180D+03  0.1403732281D-01
      0.1039486850D+03  0.6884262226D-01
      0.2921015530D+02  0.2321844432D+00
      0.9286662960D+01  0.4679413484D+00
      0.3163926960D+01  0.3623119853D+00
 Atom C30      Shell    86 SP   3    bf  229 -   232          5.740076482306          3.223682884124          0.111844707291
      0.7868272350D+01 -0.1193324198D+00  0.6899906659D-01
      0.1881288540D+01 -0.1608541517D+00  0.3164239610D+00
      0.5442492580D+00  0.1143456438D+01  0.7443082909D+00
 Atom C30      Shell    87 SP   1    bf  233 -   236          5.740076482306          3.223682884124          0.111844707291
      0.1687144782D+00  0.1000000000D+01  0.1000000000D+01
 Atom C30      Shell    88 D   1     bf  237 -   242          5.740076482306          3.223682884124          0.111844707291
      0.8000000000D+00  0.1000000000D+01
 Atom H31      Shell    89 S   3     bf  243 -   243          6.203745903470          5.238717607258          0.204687292351
      0.1873113696D+02  0.3349460434D-01
      0.2825394365D+01  0.2347269535D+00
      0.6401216923D+00  0.8137573261D+00
 Atom H31      Shell    90 S   1     bf  244 -   244          6.203745903470          5.238717607258          0.204687292351
      0.1612777588D+00  0.1000000000D+01
 Atom H32      Shell    91 S   3     bf  245 -   245          6.588719682940          2.328380417749          1.767888119167
      0.1873113696D+02  0.3349460434D-01
      0.2825394365D+01  0.2347269535D+00
      0.6401216923D+00  0.8137573261D+00
 Atom H32      Shell    92 S   1     bf  246 -   246          6.588719682940          2.328380417749          1.767888119167
      0.1612777588D+00  0.1000000000D+01
 Atom H33      Shell    93 S   3     bf  247 -   247          6.691630502068          2.449876353243         -1.552991505794
      0.1873113696D+02  0.3349460434D-01
      0.2825394365D+01  0.2347269535D+00
      0.6401216923D+00  0.8137573261D+00
 Atom H33      Shell    94 S   1     bf  248 -   248          6.691630502068          2.449876353243         -1.552991505794
      0.1612777588D+00  0.1000000000D+01
 Atom C34      Shell    95 S   6     bf  249 -   249          2.302785664649         -4.466435461757          6.949192652870
      0.3047524880D+04  0.1834737132D-02
      0.4573695180D+03  0.1403732281D-01
      0.1039486850D+03  0.6884262226D-01
      0.2921015530D+02  0.2321844432D+00
      0.9286662960D+01  0.4679413484D+00
      0.3163926960D+01  0.3623119853D+00
 Atom C34      Shell    96 SP   3    bf  250 -   253          2.302785664649         -4.466435461757          6.949192652870
      0.7868272350D+01 -0.1193324198D+00  0.6899906659D-01
      0.1881288540D+01 -0.1608541517D+00  0.3164239610D+00
      0.5442492580D+00  0.1143456438D+01  0.7443082909D+00
 Atom C34      Shell    97 SP   1    bf  254 -   257          2.302785664649         -4.466435461757          6.949192652870
      0.1687144782D+00  0.1000000000D+01  0.1000000000D+01
 Atom C34      Shell    98 D   1     bf  258 -   263          2.302785664649         -4.466435461757          6.949192652870
      0.8000000000D+00  0.1000000000D+01
 Atom C35      Shell    99 S   6     bf  264 -   264          0.790091850543         -0.726004755616          9.431201361257
      0.3047524880D+04  0.1834737132D-02
      0.4573695180D+03  0.1403732281D-01
      0.1039486850D+03  0.6884262226D-01
      0.2921015530D+02  0.2321844432D+00
      0.9286662960D+01  0.4679413484D+00
      0.3163926960D+01  0.3623119853D+00
 Atom C35      Shell   100 SP   3    bf  265 -   268          0.790091850543         -0.726004755616          9.431201361257
      0.7868272350D+01 -0.1193324198D+00  0.6899906659D-01
      0.1881288540D+01 -0.1608541517D+00  0.3164239610D+00
      0.5442492580D+00  0.1143456438D+01  0.7443082909D+00
 Atom C35      Shell   101 SP   1    bf  269 -   272          0.790091850543         -0.726004755616          9.431201361257
      0.1687144782D+00  0.1000000000D+01  0.1000000000D+01
 Atom C35      Shell   102 D   1     bf  273 -   278          0.790091850543         -0.726004755616          9.431201361257
      0.8000000000D+00  0.1000000000D+01
 Atom H36      Shell   103 S   3     bf  279 -   279         -1.165889516754         -0.836957625556          8.742150483628
      0.1873113696D+02  0.3349460434D-01
      0.2825394365D+01  0.2347269535D+00
      0.6401216923D+00  0.8137573261D+00
 Atom H36      Shell   104 S   1     bf  280 -   280         -1.165889516754         -0.836957625556          8.742150483628
      0.1612777588D+00  0.1000000000D+01
 Atom H37      Shell   105 S   3     bf  281 -   281          1.147622479090          1.266588033498          9.863570284721
      0.1873113696D+02  0.3349460434D-01
      0.2825394365D+01  0.2347269535D+00
      0.6401216923D+00  0.8137573261D+00
 Atom H37      Shell   106 S   1     bf  282 -   282          1.147622479090          1.266588033498          9.863570284721
      0.1612777588D+00  0.1000000000D+01
 Atom C38      Shell   107 S   6     bf  283 -   283          1.988312521629         -5.587617762070          4.698016712821
      0.3047524880D+04  0.1834737132D-02
      0.4573695180D+03  0.1403732281D-01
      0.1039486850D+03  0.6884262226D-01
      0.2921015530D+02  0.2321844432D+00
      0.9286662960D+01  0.4679413484D+00
      0.3163926960D+01  0.3623119853D+00
 Atom C38      Shell   108 SP   3    bf  284 -   287          1.988312521629         -5.587617762070          4.698016712821
      0.7868272350D+01 -0.1193324198D+00  0.6899906659D-01
      0.1881288540D+01 -0.1608541517D+00  0.3164239610D+00
      0.5442492580D+00  0.1143456438D+01  0.7443082909D+00
 Atom C38      Shell   109 SP   1    bf  288 -   291          1.988312521629         -5.587617762070          4.698016712821
      0.1687144782D+00  0.1000000000D+01  0.1000000000D+01
 Atom C38      Shell   110 D   1     bf  292 -   297          1.988312521629         -5.587617762070          4.698016712821
      0.8000000000D+00  0.1000000000D+01
 Atom H39      Shell   111 S   3     bf  298 -   298          1.755027380099         -7.634591691439          4.642070614767
      0.1873113696D+02  0.3349460434D-01
      0.2825394365D+01  0.2347269535D+00
      0.6401216923D+00  0.8137573261D+00
 Atom H39      Shell   112 S   1     bf  299 -   299          1.755027380099         -7.634591691439          4.642070614767
      0.1612777588D+00  0.1000000000D+01
 Atom C40      Shell   113 S   6     bf  300 -   300          5.359881215515         -0.988442116382          7.974758968256
      0.3047524880D+04  0.1834737132D-02
      0.4573695180D+03  0.1403732281D-01
      0.1039486850D+03  0.6884262226D-01
      0.2921015530D+02  0.2321844432D+00
      0.9286662960D+01  0.4679413484D+00
      0.3163926960D+01  0.3623119853D+00
 Atom C40      Shell   114 SP   3    bf  301 -   304          5.359881215515         -0.988442116382          7.974758968256
      0.7868272350D+01 -0.1193324198D+00  0.6899906659D-01
      0.1881288540D+01 -0.1608541517D+00  0.3164239610D+00
      0.5442492580D+00  0.1143456438D+01  0.7443082909D+00
[...]
 **** Fit       0.002303
 **** Fit       0.002530
 **** Fit       0.002682
 **** Fit       0.002722
 **** Fit       0.002614
 **** Fit       0.002315
 **** Fit       0.001788
 **** Fit       0.001032
 **** Fit       0.000131
 **** Fit      -0.000754
 **** Fit      -0.001454
 **** Fit      -0.001876
 **** Fit      -0.002025
 **** Fit      -0.001972
 **** Fit      -0.001811
 **** Fit      -0.001630
 **** Fit      -0.001493
 **** Fit      -0.001435
 **** Fit       0.002752
 **** Fit       0.002666
 **** Fit       0.002471
 **** Fit       0.002185
 **** Fit       0.001863
 **** Fit       0.001583
 **** Fit       0.001424
 **** Fit       0.001434
 **** Fit       0.001613
 **** Fit       0.001910
 **** Fit       0.002247
 **** Fit       0.002543
 **** Fit       0.002733
 **** Fit       0.002777
 **** Fit       0.002646
 **** Fit       0.002313
 **** Fit       0.001760
 **** Fit       0.001004
 **** Fit       0.000134
 **** Fit      -0.000704
 **** Fit      -0.001367
 **** Fit      -0.001779
 **** Fit      -0.001949
 **** Fit      -0.001937
 **** Fit      -0.001819
 **** Fit      -0.001668
 **** Fit      -0.001541
 **** Fit      -0.001474
 **** Fit       0.002857
 **** Fit       0.002852
 **** Fit       0.002726
 **** Fit       0.002463
 **** Fit       0.002080
 **** Fit       0.001643
 **** Fit       0.001260
 **** Fit       0.001036
 **** Fit       0.001040
 **** Fit       0.001269
 **** Fit       0.001654
 **** Fit       0.002085
 **** Fit       0.002453
 **** Fit       0.002679
 **** Fit       0.002723
 **** Fit       0.002567
 **** Fit       0.002206
 **** Fit       0.001645
 **** Fit       0.000922
 **** Fit       0.000124
 **** Fit      -0.000624
 **** Fit      -0.001211
 **** Fit      -0.001587
 **** Fit      -0.001761
 **** Fit      -0.001781
 **** Fit      -0.001708
 **** Fit      -0.001599
 **** Fit      -0.001499
 **** Fit       0.002866
 **** Fit       0.002939
 **** Fit       0.002915
 **** Fit       0.002751
 **** Fit       0.002417
 **** Fit       0.001926
 **** Fit       0.001360
 **** Fit       0.000854
 **** Fit       0.000551
 **** Fit       0.000540
 **** Fit       0.000819
 **** Fit       0.001296
 **** Fit       0.001826
 **** Fit       0.002271
 **** Fit       0.002538
 **** Fit       0.002592
 **** Fit       0.002429
 **** Fit       0.002066
 **** Fit       0.001529
 **** Fit       0.000871
 **** Fit       0.000173
 **** Fit      -0.000466
 **** Fit      -0.000967
 **** Fit      -0.001296
 **** Fit      -0.001466
 **** Fit      -0.001514
 **** Fit      -0.001486
 **** Fit       0.002898
 **** Fit       0.002957
 **** Fit       0.002911
 **** Fit       0.002707
 **** Fit       0.002303
 **** Fit       0.001710
 **** Fit       0.001017
 **** Fit       0.000390
 **** Fit       0.000007
 **** Fit      -0.000024
 **** Fit       0.000294
 **** Fit       0.000851
 **** Fit       0.001474
 **** Fit       0.001996
 **** Fit       0.002315
 **** Fit       0.002399
 **** Fit       0.002260
 **** Fit       0.001931
 **** Fit       0.001456
 **** Fit       0.000889
 **** Fit       0.000305
 **** Fit      -0.000224
 **** Fit      -0.000640
 **** Fit      -0.000924
 **** Fit      -0.001089
 **** Fit      -0.001162
 **** Fit      -0.001179
 **** Fit       0.002852
 **** Fit       0.002884
 **** Fit       0.002802
 **** Fit       0.002551
 **** Fit       0.002082
 **** Fit       0.001403
 **** Fit       0.000612
 **** Fit      -0.000103
 **** Fit      -0.000545
 **** Fit      -0.000597
 **** Fit      -0.000261
 **** Fit       0.000344
 **** Fit       0.001031
 **** Fit       0.001620
 **** Fit       0.002000
 **** Fit       0.002141
 **** Fit       0.002062
 **** Fit       0.001806
 **** Fit       0.001421
 **** Fit       0.000964
 **** Fit       0.000495
 **** Fit       0.000072
 **** Fit      -0.000269
 **** Fit      -0.000514
 **** Fit      -0.000674
 **** Fit      -0.000772
 **** Fit      -0.000832
 **** Fit       0.002721
 **** Fit       0.002706
 **** Fit       0.002571
 **** Fit       0.002259
 **** Fit       0.001729
 **** Fit       0.000993
 **** Fit       0.000158
 **** Fit      -0.000586
 **** Fit      -0.001046
 **** Fit      -0.001113
 **** Fit      -0.000790
 **** Fit      -0.000185
 **** Fit       0.000523
 **** Fit       0.001157
 **** Fit       0.001601
 **** Fit       0.001820
 **** Fit       0.001830
 **** Fit       0.001673
 **** Fit       0.000371
 **** Fit       0.000096
 **** Fit      -0.000116
 **** Fit      -0.000274
 **** Fit      -0.000393
 **** Fit       0.002516
 **** Fit       0.002440
 **** Fit       0.002236
 **** Fit       0.001856
 **** Fit       0.001275
 **** Fit       0.000519
 **** Fit      -0.000300
 **** Fit      -0.001005
 **** Fit      -0.001436
 **** Fit      -0.001507
 **** Fit      -0.001222
 **** Fit      -0.000667
 **** Fit       0.000014
 **** Fit       0.000661
 **** Fit       0.001159
 **** Fit       0.001461
 **** Fit       0.001571
 **** Fit       0.001524
 **** Fit       0.002269
 **** Fit       0.002131
 **** Fit       0.001859
 **** Fit       0.001423
 **** Fit       0.000814
 **** Fit       0.000080
 **** Fit      -0.000671
 **** Fit      -0.001291
 **** Fit      -0.001660
 **** Fit      -0.001725
 **** Fit      -0.001489
 **** Fit      -0.001011
 **** Fit      -0.000397
 **** Fit       0.000226
 **** Fit       0.000749
 **** Fit       0.001115
 **** Fit       0.001313
 **** Fit       0.001365
 **** Fit       0.002020
 **** Fit       0.001834
 **** Fit       0.001519
 **** Fit       0.001057
 **** Fit       0.000462
 **** Fit      -0.000211
 **** Fit      -0.000860
 **** Fit      -0.001373
 **** Fit      -0.001670
 **** Fit      -0.001721
 **** Fit      -0.001534
 **** Fit      -0.001143
 **** Fit      -0.000619
 **** Fit      -0.000057
 **** Fit       0.000449
 **** Fit       0.000839
 **** Fit       0.001092
 **** Fit       0.001596
 **** Fit       0.001272
 **** Fit       0.000828
 **** Fit       0.000289
 **** Fit      -0.000286
 **** Fit      -0.000815
 **** Fit      -0.001216
 **** Fit      -0.001441
 **** Fit      -0.001478
 **** Fit      -0.001335
 **** Fit      -0.001033
 **** Fit      -0.000613
 **** Fit      -0.000144
 **** Fit       0.000303
 **** Fit       0.000672
 **** Fit       0.000937
 **** Fit       0.001136
 **** Fit       0.000748
 **** Fit       0.000300
 **** Fit      -0.000156
 **** Fit      -0.000555
 **** Fit      -0.000846
 **** Fit      -0.001004
 **** Fit      -0.001027
 **** Fit      -0.000926
 **** Fit      -0.000711
 **** Fit      -0.000405
 **** Fit      -0.000048
 **** Fit       0.000308
 **** Fit       0.000620
 **** Fit       0.000785
 **** Fit       0.000444
 **** Fit       0.000114
 **** Fit      -0.000161
 **** Fit      -0.000350
 **** Fit      -0.000446
 **** Fit      -0.000459
 **** Fit      -0.000396
 **** Fit      -0.000262
 **** Fit      -0.000065
 **** Fit       0.000175
 **** Fit       0.000648
 **** Fit       0.000433
 **** Fit       0.000268
 **** Fit       0.000164
 **** Fit       0.000117
 **** Fit       0.000114
 **** Fit       0.000145
 **** Fit       0.000211
 **** Fit       0.000316
 **** Fit       0.000452
 **** Fit       0.000726
 **** Fit       0.000645
 **** Fit       0.000604
 **** Fit       0.000594
 **** Fit       0.000598
 **** Fit       0.000608
 **** Fit       0.000627
 **** Fit       0.000663
 **** Fit       0.000720
 **** Fit       0.000948
 **** Fit       0.000924
 **** Fit       0.000926
 **** Fit       0.000939
 **** Fit       0.000949
 **** Fit       0.000949
 **** Fit       0.000941
 **** Fit       0.000935
 **** Fit       0.001124
 **** Fit       0.001151
 **** Fit       0.001166
 **** Fit       0.001163
 **** Fit      -0.000184
 **** Fit      -0.000496
 **** Fit      -0.000798
 **** Fit      -0.001050
 **** Fit       0.000746
 **** Fit       0.000483
 **** Fit       0.000157
 **** Fit      -0.000218
 **** Fit      -0.000602
 **** Fit      -0.000944
 **** Fit      -0.001193
 **** Fit      -0.001322
 **** Fit      -0.001340
 **** Fit      -0.001284
 **** Fit      -0.001207
 **** Fit       0.001125
 **** Fit       0.000859
 **** Fit       0.000502
 **** Fit       0.000067
 **** Fit      -0.000399
 **** Fit      -0.000831
 **** Fit      -0.001162
 **** Fit      -0.001354
 **** Fit      -0.001411
 **** Fit      -0.001371
 **** Fit      -0.001291
 **** Fit      -0.001228
 **** Fit       0.001620
 **** Fit       0.001458
 **** Fit       0.001192
 **** Fit       0.000808
 **** Fit       0.000324
 **** Fit      -0.000213
 **** Fit      -0.000722
 **** Fit      -0.001126
 **** Fit      -0.001377
 **** Fit      -0.001475
 **** Fit      -0.001457
 **** Fit      -0.001384
 **** Fit      -0.001312
 **** Fit       0.001858
 **** Fit       0.001710
 **** Fit       0.001440
 **** Fit       0.001037
 **** Fit       0.000517
 **** Fit      -0.000067
 **** Fit      -0.000628
 **** Fit      -0.001081
 **** Fit      -0.001377
 **** Fit      -0.001511
 **** Fit      -0.001520
 **** Fit      -0.001460
 **** Fit      -0.001388
 **** Fit       0.002000
 **** Fit       0.001859
 **** Fit       0.001584
 **** Fit       0.001168
 **** Fit       0.000631
 **** Fit       0.000031
 **** Fit      -0.000547
 **** Fit      -0.001020
 **** Fit      -0.001339
 **** Fit      -0.001499
 **** Fit      -0.001534
 **** Fit      -0.001495
 **** Fit       0.001881
 **** Fit       0.001660
 **** Fit       0.002048
 **** Fit       0.001910
 **** Fit       0.001630
 **** Fit       0.001211
 **** Fit       0.000679
 **** Fit       0.000092
 **** Fit      -0.000469
 **** Fit      -0.000931
 **** Fit      -0.001251
 **** Fit      -0.001425
 **** Fit       0.002246
 **** Fit       0.002044
 **** Fit       0.001777
 **** Fit       0.001489
 **** Fit       0.001240
 **** Fit       0.001091
 **** Fit       0.001077
 **** Fit       0.001197
 **** Fit       0.001413
 **** Fit       0.001663
 **** Fit       0.001879
 **** Fit       0.002008
 **** Fit       0.001882
 **** Fit       0.001607
 **** Fit       0.001199
 **** Fit       0.000693
 **** Fit       0.000146
 **** Fit      -0.000372
 **** Fit      -0.000800
 **** Fit      -0.001104
 **** Fit       0.002370
 **** Fit       0.002216
 **** Fit       0.001961
 **** Fit       0.001625
 **** Fit       0.001262
 **** Fit       0.000948
 **** Fit       0.000757
 **** Fit       0.000735
 **** Fit       0.000880
 **** Fit       0.001144
 **** Fit       0.001450
 **** Fit       0.001719
 **** Fit       0.001886
 **** Fit       0.001918
 **** Fit       0.001802
 **** Fit       0.001545
 **** Fit       0.001169
 **** Fit       0.000709
 **** Fit       0.000221
 **** Fit      -0.000238
 **** Fit      -0.000620
 **** Fit      -0.000898
 **** Fit       0.002412
 **** Fit       0.002325
 **** Fit       0.002132
 **** Fit       0.001824
 **** Fit       0.001422
 **** Fit       0.000988
 **** Fit       0.000610
 **** Fit       0.000378
 **** Fit       0.000345
 **** Fit       0.000508
 **** Fit       0.000814
 **** Fit       0.001172
 **** Fit       0.001491
 **** Fit       0.001702
 **** Fit       0.001769
 **** Fit       0.001142
 **** Fit       0.000745
 **** Fit       0.000327
 **** Fit      -0.000066
 **** Fit       0.002334
 **** Fit       0.002215
 **** Fit       0.001982
 **** Fit       0.001624
 **** Fit       0.001167
 **** Fit       0.000676
 **** Fit       0.000252
 **** Fit      -0.000012
 **** Fit      -0.000057
 **** Fit       0.000116
 **** Fit       0.000448
 **** Fit       0.000845
 **** Fit       0.001208
 **** Fit       0.001465
 **** Fit       0.001578
 **** Fit       0.001545
 **** Fit       0.002195
 **** Fit       0.002038
 **** Fit       0.001764
 **** Fit       0.001365
 **** Fit       0.000871
 **** Fit       0.000351
 **** Fit      -0.000095
 **** Fit      -0.000371
 **** Fit      -0.000424
 **** Fit      -0.000254
 **** Fit       0.000084
 **** Fit       0.000498
 **** Fit       0.000892
 **** Fit       0.001190
 **** Fit       0.001356
 **** Fit       0.001383
 **** Fit       0.002006
 **** Fit       0.001811
 **** Fit       0.001500
 **** Fit       0.001074
 **** Fit       0.000567
 **** Fit       0.000049
 **** Fit      -0.000387
 **** Fit      -0.000656
 **** Fit      -0.000711
 **** Fit      -0.000555
 **** Fit      -0.000233
 **** Fit       0.000174
 **** Fit       0.000579
 **** Fit       0.000908
 **** Fit       0.001122
 **** Fit       0.001210
 **** Fit       0.001795
 **** Fit       0.001567
 **** Fit       0.001233
 **** Fit       0.000800
 **** Fit       0.000306
 **** Fit      -0.000182
 **** Fit      -0.000581
 **** Fit      -0.000825
 **** Fit      -0.000878
 **** Fit      -0.000742
 **** Fit      -0.000453
 **** Fit      -0.000075
 **** Fit       0.000318
 **** Fit       0.000658
 **** Fit       0.000906
 **** Fit       0.001348
 **** Fit       0.001009
 **** Fit       0.000593
 **** Fit       0.000137
 **** Fit      -0.000296
 **** Fit      -0.000643
 **** Fit      -0.000852
 **** Fit      -0.000899
 **** Fit      -0.000786
 **** Fit      -0.000539
 **** Fit      -0.000207
 **** Fit       0.000151
 **** Fit       0.000479
 **** Fit       0.000737
 **** Fit       0.001183
 **** Fit       0.000863
 **** Fit       0.000487
 **** Fit       0.000091
 **** Fit      -0.000274
 **** Fit      -0.000559
 **** Fit      -0.000728
 **** Fit      -0.000767
 **** Fit      -0.000678
 **** Fit      -0.000479
 **** Fit      -0.000206
 **** Fit       0.000100
 **** Fit       0.000392
 **** Fit       0.000486
 **** Fit       0.000163
 **** Fit      -0.000126
 **** Fit      -0.000346
 **** Fit      -0.000475
 **** Fit      -0.000505
 **** Fit      -0.000440
 **** Fit      -0.000292
 **** Fit      -0.000082
 **** Fit       0.000107
 **** Fit      -0.000051
 **** Fit      -0.000141
 **** Fit      -0.000163
 **** Fit      -0.000120
 **** Fit      -0.000020
 **** Fit       0.000125
 **** Fit       0.000371
 **** Fit       0.000269
 **** Fit       0.000212
 **** Fit       0.000198
 **** Fit       0.000222
 **** Fit       0.000280
 **** Fit       0.000560
 **** Fit       0.000530
 **** Fit       0.000522
 **** Fit       0.000532
 **** Fit       0.000321
 **** Fit      -0.000003
 **** Fit      -0.000340
 **** Fit      -0.000651
 **** Fit       0.000832
 **** Fit       0.000531
 **** Fit       0.000175
 **** Fit      -0.000204
 **** Fit      -0.000561
 **** Fit      -0.000856
 **** Fit       0.001009
 **** Fit       0.000696
 **** Fit       0.000318
 **** Fit      -0.000088
 **** Fit      -0.000476
 **** Fit      -0.000802
 **** Fit       0.001125
 **** Fit       0.000807
 **** Fit       0.000421
 **** Fit       0.000004
 **** Fit      -0.000397
 **** Fit      -0.000738
 **** Fit       0.001181
 **** Fit       0.000868
 **** Fit       0.000488
 **** Fit       0.000077
 **** Fit      -0.000317
 **** Fit      -0.000655
 **** Fit       0.000893
 **** Fit       0.000532
 **** Fit       0.000145
 **** Fit      -0.000227
 **** Fit       0.001428
 **** Fit       0.001188
 **** Fit       0.001539
 **** Fit       0.001265
 **** Fit       0.000983
 **** Fit       0.000743
 **** Fit       0.000634
 **** Fit       0.000798
 **** Fit       0.000999
 **** Fit       0.001184
 **** Fit       0.001640
 **** Fit       0.001380
 **** Fit       0.001072
 **** Fit       0.000757
 **** Fit       0.000489
 **** Fit       0.000320
 **** Fit       0.000278
 **** Fit       0.000362
 **** Fit       0.000542
 **** Fit       0.000768
 **** Fit       0.000982
 **** Fit       0.001479
 **** Fit       0.001193
 **** Fit       0.000861
 **** Fit       0.000527
 **** Fit       0.000246
 **** Fit       0.000067
 **** Fit       0.000021
 **** Fit       0.000106
 **** Fit       0.000292
 **** Fit       0.000531
 **** Fit       0.000766
 **** Fit       0.000951
 **** Fit       0.001299
 **** Fit       0.000997
 **** Fit       0.000656
 **** Fit       0.000320
 **** Fit       0.000040
 **** Fit      -0.000137
 **** Fit      -0.000185
 **** Fit      -0.000104
 **** Fit       0.000078
 **** Fit       0.000317
 **** Fit       0.000561
 **** Fit       0.001123
 **** Fit       0.000819
 **** Fit       0.000485
 **** Fit       0.000163
 **** Fit      -0.000100
 **** Fit      -0.000266
 **** Fit      -0.000241
 **** Fit      -0.000073
 **** Fit       0.000154
 **** Fit       0.000395
 **** Fit       0.000684
 **** Fit       0.000373
 **** Fit       0.000080
 **** Fit      -0.000156
 -----------------------------------------------------------------
 Leave Link  602 at Mon Mar 20 12:12:08 2017, MaxMem=    33554432 cpu:        36.0
 (Enter /home/michal/g09/l9999.exe)

 Test job not archived.
 1\1\GINC-LINUX\SP\RHF\6-31G(d)\C27H46O1\MICHAL\20-Mar-2017\0\\#P HF/6-
 31G* SCF(Conver=6) NoSymm Test Pop=chelpg IOp(6/33=2) GFInput GFPrint\
 \MEP - Input generated by R.E.D.-III.x MOLECULE\\0,1\O,0,0.44657837,-3
 .3790255,7.25918717\H,0,0.2823845,-4.32030236,7.11432158\C,0,1.5062409
 2,1.50161844,0.\C,0,1.10374579,0.,0.\H,0,0.,0.,0.\C,0,1.51646587,-0.79
 22532,1.24730565\H,0,2.61343093,-0.81160823,1.31639914\C,0,0.93796349,
 -0.1151179,2.51739724\H,0,-0.15499447,-0.24309178,2.44664721\C,0,0.952
 89861,1.92635513,-1.40480979\H,0,-0.14186718,1.94977942,-1.2962993\C,0
 ,0.8257024,2.1350607,1.23094292\H,0,-0.26431797,2.09007498,1.09215024\
 H,0,1.08257788,3.19405045,1.33606997\C,0,1.36598553,-0.84398268,3.8395
 1187\C,0,1.53652897,-0.51347127,-1.38241499\H,0,0.95883837,-1.38641219
 ,-1.70238128\H,0,2.58994458,-0.81985604,-1.37014188\C,0,1.20819001,1.4
 0735474,2.53663927\H,0,2.26753556,1.59458179,2.74145992\H,0,0.65681671
 ,1.86886074,3.36367359\C,0,1.32184642,0.709909,-2.31677313\H,0,2.23352
 612,0.92552351,-2.88628449\H,0,0.5371105,0.52046427,-3.05580712\C,0,1.
 0252373,-2.24646631,1.16249682\H,0,1.62801048,-2.80660099,0.43528127\H
 ,0,-0.00265188,-2.26410252,0.76331748\C,0,1.38421486,3.28127956,-2.018
 45094\H,0,2.47775676,3.2488367,-2.13509985\C,0,3.03751765,1.70589951,0
 .05918567\H,0,3.28288094,2.77220996,0.10831585\H,0,3.48660029,1.232125
 85,0.9355261\H,0,3.54105835,1.29641873,-0.82180771\C,0,1.21858169,-2.3
 6353585,3.67735437\C,0,0.4180986,-0.38418517,4.99077681\H,0,-0.6169621
 6,-0.4428989,4.62614679\H,0,0.60729566,0.67024952,5.21957659\C,0,1.052
 16967,-2.95683997,2.48608337\H,0,0.92872049,-4.04005192,2.45647797\C,0
 ,2.83632698,-0.52306104,4.22006069\H,0,2.95225238,0.52247061,4.5225227
 2\H,0,3.17800139,-1.13851146,5.0559742\H,0,3.5124448,-0.71470624,3.381
 11329\C,0,1.26877118,-3.19049141,4.94862499\H,0,1.0603243,-4.24139469,
 4.70984048\H,0,2.27330076,-3.16082862,5.39397798\C,0,0.52684755,-1.203
 24746,6.2851629\H,0,1.51639453,-1.08888654,6.74511205\H,0,-0.20343966,
 -0.84311362,7.01868309\C,0,0.84540868,3.46946064,-3.46675658\H,0,1.221
 09197,4.43174354,-3.83903041\H,0,1.32423534,2.71173131,-4.09838137\C,0
 ,0.28866267,-2.68338122,6.01638151\H,0,-0.74207752,-2.81861435,5.64888
 348\C,0,1.07422394,4.49359567,-1.11920489\H,0,0.0398468,4.49034198,-0.
 761306\H,0,1.23525077,5.43019004,-1.66466708\H,0,1.72293951,4.51761095
 ,-0.23943747\C,0,-0.67510445,3.37644096,-3.72883909\H,0,-0.80913924,3.
 21588914,-4.80639682\H,0,-1.07174737,2.46930569,-3.2557304\C,0,-1.5644
 5445,4.56277585,-3.30369562\H,0,-1.54507055,4.67103463,-2.21311058\H,0
 ,-2.6044647,4.30801087,-3.55828555\C,0,-1.24577371,5.93447225,-3.93581
 838\H,0,-0.21306206,6.20506513,-3.67403138\C,0,-2.1663461,7.01500086,-
 3.34564088\H,0,-2.07305006,7.06743226,-2.25481344\H,0,-1.92887737,8.00
 533772,-3.75074001\H,0,-3.21767424,6.80354112,-3.5798869\C,0,-1.351610
 25,5.91597226,-5.46915926\H,0,-0.64237341,5.21737884,-5.92453405\H,0,-
 1.14943417,6.90888311,-5.88677578\H,0,-2.36071177,5.62174789,-5.786309
 97\\Version=EM64L-G09RevD.01\HF=-1124.0729172\RMSD=4.560e-07\Dipole=-0
 .073319,-0.1894787,-0.6372044\Quadrupole=3.5962217,8.6590926,-12.25531
 43,2.2101052,-2.5150532,1.2224325\PG=C01 [X(C27H46O1)]\\@


 THERE IS NO SUBJECT, HOWEVER COMPLEX,
 WHICH, IF STUDIED WITH PATIENCE AND INTELLIGIENCE
 WILL NOT BECOME
 MORE COMPLEX
                        QUOTED BY D. GORDON ROHMAN
 Job cpu time:       0 days  0 hours 11 minutes  5.1 seconds.
 File lengths (MBytes):  RWF=    142 Int=      0 D2E=      0 Chk=     10 Scr=      1
 Normal termination of Gaussian 09 at Mon Mar 20 12:12:08 2017.
