 Entering Gaussian System, Link 0=/home/michal/g09/g09
 Input=JOB2-gau_m1-20-3.com
 Output=JOB2-gau_m1-20-3.log
 Initial command:
 /home/michal/g09/l1.exe "/home/michal/gauss_scratch/Gau-24566.inp" -scrdir="/home/michal/gauss_scratch/"
 Entering Link 1 = /home/michal/g09/l1.exe PID=     24567.
  
 Copyright (c) 1988,1990,1992,1993,1995,1998,2003,2009,2013,
            Gaussian, Inc.  All Rights Reserved.
  
 This is part of the Gaussian(R) 09 program.  It is based on
 the Gaussian(R) 03 system (copyright 2003, Gaussian, Inc.),
 the Gaussian(R) 98 system (copyright 1998, Gaussian, Inc.),
 the Gaussian(R) 94 system (copyright 1995, Gaussian, Inc.),
 the Gaussian 92(TM) system (copyright 1992, Gaussian, Inc.),
 the Gaussian 90(TM) system (copyright 1990, Gaussian, Inc.),
 the Gaussian 88(TM) system (copyright 1988, Gaussian, Inc.),
 the Gaussian 86(TM) system (copyright 1986, Carnegie Mellon
 University), and the Gaussian 82(TM) system (copyright 1983,
 Carnegie Mellon University). Gaussian is a federally registered
 trademark of Gaussian, Inc.
  
 This software contains proprietary and confidential information,
 including trade secrets, belonging to Gaussian, Inc.
  
 This software is provided under written license and may be
 used, copied, transmitted, or stored only in accord with that
 written license.
  
 The following legend is applicable only to US Government
 contracts under FAR:
  
                    RESTRICTED RIGHTS LEGEND
  
 Use, reproduction and disclosure by the US Government is
 subject to restrictions as set forth in subparagraphs (a)
 and (c) of the Commercial Computer Software - Restricted
 Rights clause in FAR 52.227-19.
  
 Gaussian, Inc.
 340 Quinnipiac St., Bldg. 40, Wallingford CT 06492
  
  
 ---------------------------------------------------------------
 Warning -- This program may not be used in any manner that
 competes with the business of Gaussian, Inc. or will provide
 assistance to any competitor of Gaussian, Inc.  The licensee
 of this program is prohibited from giving any competitor of
 Gaussian, Inc. access to this program.  By using this program,
 the user acknowledges that Gaussian, Inc. is engaged in the
 business of creating and licensing software in the field of
 computational chemistry and represents and warrants to the
 licensee that it is not a competitor of Gaussian, Inc. and that
 it will not use this program in any manner prohibited above.
 ---------------------------------------------------------------
  

 Cite this work as:
 Gaussian 09, Revision D.01,
 M. J. Frisch, G. W. Trucks, H. B. Schlegel, G. E. Scuseria, 
 M. A. Robb, J. R. Cheeseman, G. Scalmani, V. Barone, B. Mennucci, 
 G. A. Petersson, H. Nakatsuji, M. Caricato, X. Li, H. P. Hratchian, 
 A. F. Izmaylov, J. Bloino, G. Zheng, J. L. Sonnenberg, M. Hada, 
 M. Ehara, K. Toyota, R. Fukuda, J. Hasegawa, M. Ishida, T. Nakajima, 
 Y. Honda, O. Kitao, H. Nakai, T. Vreven, J. A. Montgomery, Jr., 
 J. E. Peralta, F. Ogliaro, M. Bearpark, J. J. Heyd, E. Brothers, 
 K. N. Kudin, V. N. Staroverov, T. Keith, R. Kobayashi, J. Normand, 
 K. Raghavachari, A. Rendell, J. C. Burant, S. S. Iyengar, J. Tomasi, 
 M. Cossi, N. Rega, J. M. Millam, M. Klene, J. E. Knox, J. B. Cross, 
 V. Bakken, C. Adamo, J. Jaramillo, R. Gomperts, R. E. Stratmann, 
 O. Yazyev, A. J. Austin, R. Cammi, C. Pomelli, J. W. Ochterski, 
 R. L. Martin, K. Morokuma, V. G. Zakrzewski, G. A. Voth, 
 P. Salvador, J. J. Dannenberg, S. Dapprich, A. D. Daniels, 
 O. Farkas, J. B. Foresman, J. V. Ortiz, J. Cioslowski, 
 and D. J. Fox, Gaussian, Inc., Wallingford CT, 2013.
 
 ******************************************
 Gaussian 09:  EM64L-G09RevD.01 24-Apr-2013
                20-Mar-2017 
 ******************************************
 %Mem=256MB
 %NProc=12
 Will use up to   12 processors via shared memory.
 ----------------------------------------------------------------------
 #P HF/6-31G* SCF(Conver=6) NoSymm Test Pop=chelpg IOp(6/33=2) GFInput 
 GFPrint
 ----------------------------------------------------------------------
 1/38=1/1;
 2/12=2,15=1,17=6,18=5,40=1/2;
 3/5=1,6=6,7=1,11=9,16=1,24=110,25=1,30=1/1,2,3;
 4//1;
 5/5=2,6=6,38=5/2;
 6/7=2,8=2,9=2,10=2,15=8,20=3,28=1,33=2/1,2;
 99/5=1,9=1/99;
 Leave Link    1 at Mon Mar 20 12:53:28 2017, MaxMem=    33554432 cpu:         0.6
 (Enter /home/michal/g09/l101.exe)
 ----------------------------------------------
 MEP - Input generated by R.E.D.-III.x MOLECULE
 ----------------------------------------------
 Symbolic Z-matrix:
 Charge =  0 Multiplicity = 1
 O                    -3.72885  -3.61357  -4.12562 
 H                    -3.87924  -4.45478  -3.67427 
 C                     1.60042   2.06309   0. 
 C                     1.32679   0.60788   0.47332 
 H                     2.11724   0.        0. 
 C                     0.        0.        0. 
 H                    -0.83395   0.57885   0.42178 
 C                    -0.07811   0.04886  -1.54856 
 H                     0.70075  -0.64606  -1.90406 
 C                     2.98429   2.31495   0.69333 
 H                     3.7146    1.72239   0.12259 
 C                     1.5995    2.02733  -1.54202 
 H                     2.44555   1.4113   -1.8798 
 H                     1.74952   3.0235   -1.97068 
 C                    -1.43369  -0.51278  -2.10487 
 C                     1.64066   0.62884   1.97748 
 H                     1.90984  -0.36017   2.36156 
 H                     0.76746   0.96309   2.5515 
 C                     0.28473   1.44641  -2.10268 
 H                    -0.52573   2.15202  -1.89127 
 H                     0.36501   1.40032  -3.19465 
 C                     2.80996   1.64577   2.09711 
 H                     2.58664   2.40522   2.85571 
 H                     3.73591   1.15716   2.4162 
 C                    -0.14324  -1.4519    0.48431 
 H                    -0.35868  -1.47089   1.56096 
 H                     0.82183  -1.97357   0.37162 
 C                     3.53786   3.75827   0.79109 
 H                     2.81498   4.34633   1.37536 
 C                     0.54631   3.06573   0.52255 
 H                     0.73942   4.06903   0.12805 
 H                    -0.46937   2.79332   0.22556 
 H                     0.55443   3.13841   1.61438 
 C                    -1.80237  -1.81711  -1.38372 
 C                    -1.25495  -0.83119  -3.62218 
 H                    -0.32026  -1.39579  -3.74585 
 H                    -1.12879   0.10399  -4.17851 
 C                    -1.20606  -2.21785  -0.25121 
 H                    -1.50617  -3.17068   0.1864 
 C                    -2.5929    0.50321  -1.922 
 H                    -2.46234   1.37922  -2.56509 
 H                    -3.55886   0.05987  -2.17618 
 H                    -2.65833   0.84553  -0.88458 
 C                    -2.8941   -2.65871  -2.01811 
 H                    -2.99879  -3.60028  -1.46371 
 H                    -3.86532  -2.14737  -1.95878 
 C                    -2.3991   -1.63749  -4.25375 
 H                    -3.33632  -1.0671   -4.24902 
 H                    -2.16942  -1.85469  -5.3031 
 C                     4.86709   3.82472   1.59219 
 H                     5.14062   4.88558   1.68939 
 H                     4.68697   3.46987   2.6132 
 C                    -2.62595  -2.94319  -3.50304 
 H                    -1.72113  -3.5673   -3.58989 
 C                     3.69543   4.45702  -0.57261 
 H                     4.26281   3.84708  -1.28422 
 H                     4.22545   5.40974  -0.45548 
 H                     2.72849   4.6788   -1.031 
 C                     6.06538   3.06965   0.99185 
 H                     5.8632    1.99146   0.97749 
 H                     6.19263   3.36342  -0.05756 
 C                     7.39987   3.33815   1.71372 
 H                     7.60646   4.41735   1.6694 
 H                     8.20919   2.85201   1.14875 
 C                     7.5033    2.88319   3.1852 
 H                     6.6955    3.36537   3.75401 
 C                     8.83569   3.35158   3.79214 
 H                     8.94352   4.4404    3.72713 
 H                     8.91364   3.06915   4.84828 
 H                     9.68591   2.90083   3.26404 
 C                     7.3475    1.36204   3.34053 
 H                     6.37542   1.0074    2.98305 
 H                     7.44029   1.06398   4.3911 
 H                     8.12472   0.83174   2.7748 
 
 NAtoms=     74 NQM=       74 NQMF=       0 NMMI=      0 NMMIF=      0
                NMic=       0 NMicF=      0.
                    Isotopes and Nuclear Properties:
 (Nuclear quadrupole moments (NQMom) in fm**2, nuclear magnetic moments (NMagM)
  in nuclear magnetons)

  Atom         1           2           3           4           5           6           7           8           9          10
 IAtWgt=          16           1          12          12           1          12           1          12           1          12
 AtmWgt=  15.9949146   1.0078250  12.0000000  12.0000000   1.0078250  12.0000000   1.0078250  12.0000000   1.0078250  12.0000000
 NucSpn=           0           1           0           0           1           0           1           0           1           0
 AtZEff=   0.0000000   0.0000000   0.0000000   0.0000000   0.0000000   0.0000000   0.0000000   0.0000000   0.0000000   0.0000000
 NQMom=    0.0000000   0.0000000   0.0000000   0.0000000   0.0000000   0.0000000   0.0000000   0.0000000   0.0000000   0.0000000
 NMagM=    0.0000000   2.7928460   0.0000000   0.0000000   2.7928460   0.0000000   2.7928460   0.0000000   2.7928460   0.0000000
 AtZNuc=   8.0000000   1.0000000   6.0000000   6.0000000   1.0000000   6.0000000   1.0000000   6.0000000   1.0000000   6.0000000

  Atom        11          12          13          14          15          16          17          18          19          20
 IAtWgt=           1          12           1           1          12          12           1           1          12           1
 AtmWgt=   1.0078250  12.0000000   1.0078250   1.0078250  12.0000000  12.0000000   1.0078250   1.0078250  12.0000000   1.0078250
 NucSpn=           1           0           1           1           0           0           1           1           0           1
 AtZEff=   0.0000000   0.0000000   0.0000000   0.0000000   0.0000000   0.0000000   0.0000000   0.0000000   0.0000000   0.0000000
 NQMom=    0.0000000   0.0000000   0.0000000   0.0000000   0.0000000   0.0000000   0.0000000   0.0000000   0.0000000   0.0000000
 NMagM=    2.7928460   0.0000000   2.7928460   2.7928460   0.0000000   0.0000000   2.7928460   2.7928460   0.0000000   2.7928460
 AtZNuc=   1.0000000   6.0000000   1.0000000   1.0000000   6.0000000   6.0000000   1.0000000   1.0000000   6.0000000   1.0000000

  Atom        21          22          23          24          25          26          27          28          29          30
 IAtWgt=           1          12           1           1          12           1           1          12           1          12
 AtmWgt=   1.0078250  12.0000000   1.0078250   1.0078250  12.0000000   1.0078250   1.0078250  12.0000000   1.0078250  12.0000000
 NucSpn=           1           0           1           1           0           1           1           0           1           0
 AtZEff=   0.0000000   0.0000000   0.0000000   0.0000000   0.0000000   0.0000000   0.0000000   0.0000000   0.0000000   0.0000000
 NQMom=    0.0000000   0.0000000   0.0000000   0.0000000   0.0000000   0.0000000   0.0000000   0.0000000   0.0000000   0.0000000
 NMagM=    2.7928460   0.0000000   2.7928460   2.7928460   0.0000000   2.7928460   2.7928460   0.0000000   2.7928460   0.0000000
 AtZNuc=   1.0000000   6.0000000   1.0000000   1.0000000   6.0000000   1.0000000   1.0000000   6.0000000   1.0000000   6.0000000

  Atom        31          32          33          34          35          36          37          38          39          40
 IAtWgt=           1           1           1          12          12           1           1          12           1          12
 AtmWgt=   1.0078250   1.0078250   1.0078250  12.0000000  12.0000000   1.0078250   1.0078250  12.0000000   1.0078250  12.0000000
 NucSpn=           1           1           1           0           0           1           1           0           1           0
 AtZEff=   0.0000000   0.0000000   0.0000000   0.0000000   0.0000000   0.0000000   0.0000000   0.0000000   0.0000000   0.0000000
 NQMom=    0.0000000   0.0000000   0.0000000   0.0000000   0.0000000   0.0000000   0.0000000   0.0000000   0.0000000   0.0000000
 NMagM=    2.7928460   2.7928460   2.7928460   0.0000000   0.0000000   2.7928460   2.7928460   0.0000000   2.7928460   0.0000000
 AtZNuc=   1.0000000   1.0000000   1.0000000   6.0000000   6.0000000   1.0000000   1.0000000   6.0000000   1.0000000   6.0000000

  Atom        41          42          43          44          45          46          47          48          49          50
 IAtWgt=           1           1           1          12           1           1          12           1           1          12
 AtmWgt=   1.0078250   1.0078250   1.0078250  12.0000000   1.0078250   1.0078250  12.0000000   1.0078250   1.0078250  12.0000000
 NucSpn=           1           1           1           0           1           1           0           1           1           0
 AtZEff=   0.0000000   0.0000000   0.0000000   0.0000000   0.0000000   0.0000000   0.0000000   0.0000000   0.0000000   0.0000000
 NQMom=    0.0000000   0.0000000   0.0000000   0.0000000   0.0000000   0.0000000   0.0000000   0.0000000   0.0000000   0.0000000
 NMagM=    2.7928460   2.7928460   2.7928460   0.0000000   2.7928460   2.7928460   0.0000000   2.7928460   2.7928460   0.0000000
 AtZNuc=   1.0000000   1.0000000   1.0000000   6.0000000   1.0000000   1.0000000   6.0000000   1.0000000   1.0000000   6.0000000

  Atom        51          52          53          54          55          56          57          58          59          60
 IAtWgt=           1           1          12           1          12           1           1           1          12           1
 AtmWgt=   1.0078250   1.0078250  12.0000000   1.0078250  12.0000000   1.0078250   1.0078250   1.0078250  12.0000000   1.0078250
 NucSpn=           1           1           0           1           0           1           1           1           0           1
 AtZEff=   0.0000000   0.0000000   0.0000000   0.0000000   0.0000000   0.0000000   0.0000000   0.0000000   0.0000000   0.0000000
 NQMom=    0.0000000   0.0000000   0.0000000   0.0000000   0.0000000   0.0000000   0.0000000   0.0000000   0.0000000   0.0000000
 NMagM=    2.7928460   2.7928460   0.0000000   2.7928460   0.0000000   2.7928460   2.7928460   2.7928460   0.0000000   2.7928460
 AtZNuc=   1.0000000   1.0000000   6.0000000   1.0000000   6.0000000   1.0000000   1.0000000   1.0000000   6.0000000   1.0000000

  Atom        61          62          63          64          65          66          67          68          69          70
 IAtWgt=           1          12           1           1          12           1          12           1           1           1
 AtmWgt=   1.0078250  12.0000000   1.0078250   1.0078250  12.0000000   1.0078250  12.0000000   1.0078250   1.0078250   1.0078250
 NucSpn=           1           0           1           1           0           1           0           1           1           1
 AtZEff=   0.0000000   0.0000000   0.0000000   0.0000000   0.0000000   0.0000000   0.0000000   0.0000000   0.0000000   0.0000000
 NQMom=    0.0000000   0.0000000   0.0000000   0.0000000   0.0000000   0.0000000   0.0000000   0.0000000   0.0000000   0.0000000
 NMagM=    2.7928460   0.0000000   2.7928460   2.7928460   0.0000000   2.7928460   0.0000000   2.7928460   2.7928460   2.7928460
 AtZNuc=   1.0000000   6.0000000   1.0000000   1.0000000   6.0000000   1.0000000   6.0000000   1.0000000   1.0000000   1.0000000

  Atom        71          72          73          74
 IAtWgt=          12           1           1           1
 AtmWgt=  12.0000000   1.0078250   1.0078250   1.0078250
 NucSpn=           0           1           1           1
 AtZEff=   0.0000000   0.0000000   0.0000000   0.0000000
 NQMom=    0.0000000   0.0000000   0.0000000   0.0000000
 NMagM=    0.0000000   2.7928460   2.7928460   2.7928460
 AtZNuc=   6.0000000   1.0000000   1.0000000   1.0000000
 Leave Link  101 at Mon Mar 20 12:53:28 2017, MaxMem=    33554432 cpu:         1.0
 (Enter /home/michal/g09/l202.exe)
 Symmetry turned off by external request.
 Stoichiometry    C27H46O
 Framework group  C1[X(C27H46O)]
 Deg. of freedom   216
 Full point group                 C1      NOp   1
                          Input orientation:                          
 ---------------------------------------------------------------------
 Center     Atomic      Atomic             Coordinates (Angstroms)
 Number     Number       Type             X           Y           Z
 ---------------------------------------------------------------------
      1          8           0       -3.728855   -3.613574   -4.125617
      2          1           0       -3.879243   -4.454777   -3.674268
      3          6           0        1.600423    2.063095    0.000000
      4          6           0        1.326790    0.607882    0.473320
      5          1           0        2.117240    0.000000    0.000000
      6          6           0        0.000000    0.000000    0.000000
      7          1           0       -0.833953    0.578855    0.421782
      8          6           0       -0.078110    0.048863   -1.548558
      9          1           0        0.700754   -0.646056   -1.904058
     10          6           0        2.984289    2.314951    0.693328
     11          1           0        3.714599    1.722391    0.122588
     12          6           0        1.599499    2.027330   -1.542021
     13          1           0        2.445550    1.411305   -1.879802
     14          1           0        1.749516    3.023497   -1.970681
     15          6           0       -1.433692   -0.512780   -2.104871
     16          6           0        1.640665    0.628841    1.977481
     17          1           0        1.909838   -0.360170    2.361557
     18          1           0        0.767464    0.963085    2.551504
     19          6           0        0.284728    1.446409   -2.102678
     20          1           0       -0.525733    2.152021   -1.891274
     21          1           0        0.365014    1.400324   -3.194649
     22          6           0        2.809957    1.645766    2.097113
     23          1           0        2.586645    2.405215    2.855713
     24          1           0        3.735911    1.157163    2.416195
     25          6           0       -0.143244   -1.451898    0.484310
     26          1           0       -0.358681   -1.470895    1.560956
     27          1           0        0.821826   -1.973575    0.371623
     28          6           0        3.537860    3.758274    0.791094
     29          1           0        2.814981    4.346334    1.375358
     30          6           0        0.546309    3.065726    0.522548
     31          1           0        0.739423    4.069035    0.128050
     32          1           0       -0.469372    2.793321    0.225560
     33          1           0        0.554429    3.138411    1.614383
     34          6           0       -1.802366   -1.817108   -1.383723
     35          6           0       -1.254954   -0.831192   -3.622177
     36          1           0       -0.320256   -1.395789   -3.745848
     37          1           0       -1.128793    0.103989   -4.178514
     38          6           0       -1.206063   -2.217847   -0.251211
     39          1           0       -1.506174   -3.170680    0.186401
     40          6           0       -2.592903    0.503210   -1.921997
     41          1           0       -2.462343    1.379223   -2.565090
     42          1           0       -3.558861    0.059871   -2.176182
     43          1           0       -2.658330    0.845529   -0.884580
     44          6           0       -2.894096   -2.658709   -2.018107
     45          1           0       -2.998790   -3.600283   -1.463709
     46          1           0       -3.865323   -2.147367   -1.958783
     47          6           0       -2.399104   -1.637486   -4.253751
     48          1           0       -3.336321   -1.067101   -4.249017
     49          1           0       -2.169424   -1.854690   -5.303101
     50          6           0        4.867093    3.824724    1.592194
     51          1           0        5.140624    4.885582    1.689394
     52          1           0        4.686974    3.469866    2.613204
     53          6           0       -2.625955   -2.943189   -3.503041
     54          1           0       -1.721130   -3.567299   -3.589893
     55          6           0        3.695434    4.457023   -0.572614
     56          1           0        4.262811    3.847078   -1.284219
     57          1           0        4.225446    5.409745   -0.455476
     58          1           0        2.728491    4.678799   -1.031001
     59          6           0        6.065384    3.069650    0.991846
     60          1           0        5.863202    1.991455    0.977489
     61          1           0        6.192629    3.363424   -0.057558
     62          6           0        7.399874    3.338151    1.713721
     63          1           0        7.606458    4.417351    1.669403
     64          1           0        8.209187    2.852010    1.148751
     65          6           0        7.503302    2.883194    3.185200
     66          1           0        6.695499    3.365371    3.754010
     67          6           0        8.835693    3.351583    3.792142
     68          1           0        8.943524    4.440400    3.727131
     69          1           0        8.913635    3.069151    4.848281
     70          1           0        9.685913    2.900826    3.264038
     71          6           0        7.347497    1.362044    3.340528
     72          1           0        6.375419    1.007403    2.983050
     73          1           0        7.440291    1.063977    4.391103
     74          1           0        8.124720    0.831743    2.774802
 ---------------------------------------------------------------------
 Rotational constants (GHZ):      0.4590464      0.0609665      0.0583381
 Leave Link  202 at Mon Mar 20 12:53:28 2017, MaxMem=    33554432 cpu:         0.0
 (Enter /home/michal/g09/l301.exe)
 Standard basis: 6-31G(d) (6D, 7F)
 Ernie: Thresh=  0.10000D-02 Tol=  0.10000D-05 Strict=F.
 AO basis set in the form of general basis input (Overlap normalization):
      1 0
 S   6 1.00       0.000000000000
      0.5484671660D+04  0.1831074430D-02
      0.8252349460D+03  0.1395017220D-01
      0.1880469580D+03  0.6844507810D-01
      0.5296450000D+02  0.2327143360D+00
      0.1689757040D+02  0.4701928980D+00
      0.5799635340D+01  0.3585208530D+00
 SP   3 1.00       0.000000000000
      0.1553961625D+02 -0.1107775495D+00  0.7087426823D-01
      0.3599933586D+01 -0.1480262627D+00  0.3397528391D+00
      0.1013761750D+01  0.1130767015D+01  0.7271585773D+00
 SP   1 1.00       0.000000000000
      0.2700058226D+00  0.1000000000D+01  0.1000000000D+01
 D   1 1.00       0.000000000000
      0.8000000000D+00  0.1000000000D+01
 ****
      2 0
 S   3 1.00       0.000000000000
      0.1873113696D+02  0.3349460434D-01
      0.2825394365D+01  0.2347269535D+00
      0.6401216923D+00  0.8137573261D+00
 S   1 1.00       0.000000000000
      0.1612777588D+00  0.1000000000D+01
 ****
      3 0
 S   6 1.00       0.000000000000
      0.3047524880D+04  0.1834737132D-02
      0.4573695180D+03  0.1403732281D-01
      0.1039486850D+03  0.6884262226D-01
      0.2921015530D+02  0.2321844432D+00
      0.9286662960D+01  0.4679413484D+00
      0.3163926960D+01  0.3623119853D+00
 SP   3 1.00       0.000000000000
      0.7868272350D+01 -0.1193324198D+00  0.6899906659D-01
      0.1881288540D+01 -0.1608541517D+00  0.3164239610D+00
      0.5442492580D+00  0.1143456438D+01  0.7443082909D+00
 SP   1 1.00       0.000000000000
      0.1687144782D+00  0.1000000000D+01  0.1000000000D+01
 D   1 1.00       0.000000000000
      0.8000000000D+00  0.1000000000D+01
 ****
      4 0
 S   6 1.00       0.000000000000
      0.3047524880D+04  0.1834737132D-02
      0.4573695180D+03  0.1403732281D-01
      0.1039486850D+03  0.6884262226D-01
      0.2921015530D+02  0.2321844432D+00
      0.9286662960D+01  0.4679413484D+00
      0.3163926960D+01  0.3623119853D+00
 SP   3 1.00       0.000000000000
      0.7868272350D+01 -0.1193324198D+00  0.6899906659D-01
      0.1881288540D+01 -0.1608541517D+00  0.3164239610D+00
      0.5442492580D+00  0.1143456438D+01  0.7443082909D+00
 SP   1 1.00       0.000000000000
      0.1687144782D+00  0.1000000000D+01  0.1000000000D+01
 D   1 1.00       0.000000000000
      0.8000000000D+00  0.1000000000D+01
 ****
      5 0
 S   3 1.00       0.000000000000
      0.1873113696D+02  0.3349460434D-01
      0.2825394365D+01  0.2347269535D+00
      0.6401216923D+00  0.8137573261D+00
 S   1 1.00       0.000000000000
      0.1612777588D+00  0.1000000000D+01
 ****
      6 0
 S   6 1.00       0.000000000000
      0.3047524880D+04  0.1834737132D-02
      0.4573695180D+03  0.1403732281D-01
      0.1039486850D+03  0.6884262226D-01
      0.2921015530D+02  0.2321844432D+00
      0.9286662960D+01  0.4679413484D+00
      0.3163926960D+01  0.3623119853D+00
 SP   3 1.00       0.000000000000
      0.7868272350D+01 -0.1193324198D+00  0.6899906659D-01
      0.1881288540D+01 -0.1608541517D+00  0.3164239610D+00
      0.5442492580D+00  0.1143456438D+01  0.7443082909D+00
 SP   1 1.00       0.000000000000
      0.1687144782D+00  0.1000000000D+01  0.1000000000D+01
 D   1 1.00       0.000000000000
      0.8000000000D+00  0.1000000000D+01
 ****
      7 0
 S   3 1.00       0.000000000000
      0.1873113696D+02  0.3349460434D-01
      0.2825394365D+01  0.2347269535D+00
      0.6401216923D+00  0.8137573261D+00
 S   1 1.00       0.000000000000
      0.1612777588D+00  0.1000000000D+01
 ****
      8 0
 S   6 1.00       0.000000000000
      0.3047524880D+04  0.1834737132D-02
      0.4573695180D+03  0.1403732281D-01
      0.1039486850D+03  0.6884262226D-01
      0.2921015530D+02  0.2321844432D+00
      0.9286662960D+01  0.4679413484D+00
      0.3163926960D+01  0.3623119853D+00
 SP   3 1.00       0.000000000000
      0.7868272350D+01 -0.1193324198D+00  0.6899906659D-01
      0.1881288540D+01 -0.1608541517D+00  0.3164239610D+00
      0.5442492580D+00  0.1143456438D+01  0.7443082909D+00
 SP   1 1.00       0.000000000000
      0.1687144782D+00  0.1000000000D+01  0.1000000000D+01
 D   1 1.00       0.000000000000
      0.8000000000D+00  0.1000000000D+01
 ****
      9 0
 S   3 1.00       0.000000000000
      0.1873113696D+02  0.3349460434D-01
      0.2825394365D+01  0.2347269535D+00
      0.6401216923D+00  0.8137573261D+00
 S   1 1.00       0.000000000000
      0.1612777588D+00  0.1000000000D+01
 ****
     10 0
 S   6 1.00       0.000000000000
      0.3047524880D+04  0.1834737132D-02
      0.4573695180D+03  0.1403732281D-01
      0.1039486850D+03  0.6884262226D-01
      0.2921015530D+02  0.2321844432D+00
      0.9286662960D+01  0.4679413484D+00
      0.3163926960D+01  0.3623119853D+00
 SP   3 1.00       0.000000000000
      0.7868272350D+01 -0.1193324198D+00  0.6899906659D-01
      0.1881288540D+01 -0.1608541517D+00  0.3164239610D+00
      0.5442492580D+00  0.1143456438D+01  0.7443082909D+00
 SP   1 1.00       0.000000000000
      0.1687144782D+00  0.1000000000D+01  0.1000000000D+01
 D   1 1.00       0.000000000000
      0.8000000000D+00  0.1000000000D+01
 ****
     11 0
 S   3 1.00       0.000000000000
      0.1873113696D+02  0.3349460434D-01
      0.2825394365D+01  0.2347269535D+00
      0.6401216923D+00  0.8137573261D+00
 S   1 1.00       0.000000000000
      0.1612777588D+00  0.1000000000D+01
 ****
     12 0
 S   6 1.00       0.000000000000
      0.3047524880D+04  0.1834737132D-02
      0.4573695180D+03  0.1403732281D-01
      0.1039486850D+03  0.6884262226D-01
      0.2921015530D+02  0.2321844432D+00
      0.9286662960D+01  0.4679413484D+00
      0.3163926960D+01  0.3623119853D+00
 SP   3 1.00       0.000000000000
      0.7868272350D+01 -0.1193324198D+00  0.6899906659D-01
      0.1881288540D+01 -0.1608541517D+00  0.3164239610D+00
      0.5442492580D+00  0.1143456438D+01  0.7443082909D+00
 SP   1 1.00       0.000000000000
      0.1687144782D+00  0.1000000000D+01  0.1000000000D+01
 D   1 1.00       0.000000000000
      0.8000000000D+00  0.1000000000D+01
 ****
     13 0
 S   3 1.00       0.000000000000
      0.1873113696D+02  0.3349460434D-01
      0.2825394365D+01  0.2347269535D+00
      0.6401216923D+00  0.8137573261D+00
 S   1 1.00       0.000000000000
      0.1612777588D+00  0.1000000000D+01
 ****
     14 0
 S   3 1.00       0.000000000000
      0.1873113696D+02  0.3349460434D-01
      0.2825394365D+01  0.2347269535D+00
      0.6401216923D+00  0.8137573261D+00
 S   1 1.00       0.000000000000
      0.1612777588D+00  0.1000000000D+01
 ****
     15 0
 S   6 1.00       0.000000000000
      0.3047524880D+04  0.1834737132D-02
      0.4573695180D+03  0.1403732281D-01
      0.1039486850D+03  0.6884262226D-01
      0.2921015530D+02  0.2321844432D+00
      0.9286662960D+01  0.4679413484D+00
      0.3163926960D+01  0.3623119853D+00
 SP   3 1.00       0.000000000000
      0.7868272350D+01 -0.1193324198D+00  0.6899906659D-01
      0.1881288540D+01 -0.1608541517D+00  0.3164239610D+00
      0.5442492580D+00  0.1143456438D+01  0.7443082909D+00
 SP   1 1.00       0.000000000000
      0.1687144782D+00  0.1000000000D+01  0.1000000000D+01
 D   1 1.00       0.000000000000
      0.8000000000D+00  0.1000000000D+01
 ****
     16 0
 S   6 1.00       0.000000000000
      0.3047524880D+04  0.1834737132D-02
      0.4573695180D+03  0.1403732281D-01
      0.1039486850D+03  0.6884262226D-01
      0.2921015530D+02  0.2321844432D+00
      0.9286662960D+01  0.4679413484D+00
      0.3163926960D+01  0.3623119853D+00
 SP   3 1.00       0.000000000000
      0.7868272350D+01 -0.1193324198D+00  0.6899906659D-01
      0.1881288540D+01 -0.1608541517D+00  0.3164239610D+00
      0.5442492580D+00  0.1143456438D+01  0.7443082909D+00
 SP   1 1.00       0.000000000000
      0.1687144782D+00  0.1000000000D+01  0.1000000000D+01
 D   1 1.00       0.000000000000
      0.8000000000D+00  0.1000000000D+01
 ****
     17 0
 S   3 1.00       0.000000000000
      0.1873113696D+02  0.3349460434D-01
      0.2825394365D+01  0.2347269535D+00
      0.6401216923D+00  0.8137573261D+00
 S   1 1.00       0.000000000000
      0.1612777588D+00  0.1000000000D+01
 ****
     18 0
 S   3 1.00       0.000000000000
      0.1873113696D+02  0.3349460434D-01
      0.2825394365D+01  0.2347269535D+00
      0.6401216923D+00  0.8137573261D+00
 S   1 1.00       0.000000000000
      0.1612777588D+00  0.1000000000D+01
 ****
     19 0
 S   6 1.00       0.000000000000
      0.3047524880D+04  0.1834737132D-02
      0.4573695180D+03  0.1403732281D-01
      0.1039486850D+03  0.6884262226D-01
      0.2921015530D+02  0.2321844432D+00
      0.9286662960D+01  0.4679413484D+00
      0.3163926960D+01  0.3623119853D+00
 SP   3 1.00       0.000000000000
      0.7868272350D+01 -0.1193324198D+00  0.6899906659D-01
      0.1881288540D+01 -0.1608541517D+00  0.3164239610D+00
      0.5442492580D+00  0.1143456438D+01  0.7443082909D+00
 SP   1 1.00       0.000000000000
      0.1687144782D+00  0.1000000000D+01  0.1000000000D+01
 D   1 1.00       0.000000000000
      0.8000000000D+00  0.1000000000D+01
 ****
     20 0
 S   3 1.00       0.000000000000
      0.1873113696D+02  0.3349460434D-01
      0.2825394365D+01  0.2347269535D+00
      0.6401216923D+00  0.8137573261D+00
 S   1 1.00       0.000000000000
      0.1612777588D+00  0.1000000000D+01
 ****
     21 0
 S   3 1.00       0.000000000000
      0.1873113696D+02  0.3349460434D-01
      0.2825394365D+01  0.2347269535D+00
      0.6401216923D+00  0.8137573261D+00
 S   1 1.00       0.000000000000
      0.1612777588D+00  0.1000000000D+01
 ****
     22 0
 S   6 1.00       0.000000000000
      0.3047524880D+04  0.1834737132D-02
      0.4573695180D+03  0.1403732281D-01
      0.1039486850D+03  0.6884262226D-01
      0.2921015530D+02  0.2321844432D+00
      0.9286662960D+01  0.4679413484D+00
      0.3163926960D+01  0.3623119853D+00
 SP   3 1.00       0.000000000000
      0.7868272350D+01 -0.1193324198D+00  0.6899906659D-01
      0.1881288540D+01 -0.1608541517D+00  0.3164239610D+00
      0.5442492580D+00  0.1143456438D+01  0.7443082909D+00
 SP   1 1.00       0.000000000000
      0.1687144782D+00  0.1000000000D+01  0.1000000000D+01
 D   1 1.00       0.000000000000
      0.8000000000D+00  0.1000000000D+01
 ****
     23 0
 S   3 1.00       0.000000000000
      0.1873113696D+02  0.3349460434D-01
      0.2825394365D+01  0.2347269535D+00
      0.6401216923D+00  0.8137573261D+00
 S   1 1.00       0.000000000000
      0.1612777588D+00  0.1000000000D+01
 ****
     24 0
 S   3 1.00       0.000000000000
      0.1873113696D+02  0.3349460434D-01
      0.2825394365D+01  0.2347269535D+00
      0.6401216923D+00  0.8137573261D+00
 S   1 1.00       0.000000000000
      0.1612777588D+00  0.1000000000D+01
 ****
     25 0
 S   6 1.00       0.000000000000
      0.3047524880D+04  0.1834737132D-02
      0.4573695180D+03  0.1403732281D-01
      0.1039486850D+03  0.6884262226D-01
      0.2921015530D+02  0.2321844432D+00
      0.9286662960D+01  0.4679413484D+00
      0.3163926960D+01  0.3623119853D+00
 SP   3 1.00       0.000000000000
      0.7868272350D+01 -0.1193324198D+00  0.6899906659D-01
      0.1881288540D+01 -0.1608541517D+00  0.3164239610D+00
      0.5442492580D+00  0.1143456438D+01  0.7443082909D+00
 SP   1 1.00       0.000000000000
      0.1687144782D+00  0.1000000000D+01  0.1000000000D+01
 D   1 1.00       0.000000000000
      0.8000000000D+00  0.1000000000D+01
 ****
     26 0
 S   3 1.00       0.000000000000
      0.1873113696D+02  0.3349460434D-01
      0.2825394365D+01  0.2347269535D+00
      0.6401216923D+00  0.8137573261D+00
 S   1 1.00       0.000000000000
      0.1612777588D+00  0.1000000000D+01
 ****
     27 0
 S   3 1.00       0.000000000000
      0.1873113696D+02  0.3349460434D-01
      0.2825394365D+01  0.2347269535D+00
      0.6401216923D+00  0.8137573261D+00
 S   1 1.00       0.000000000000
      0.1612777588D+00  0.1000000000D+01
 ****
     28 0
 S   6 1.00       0.000000000000
      0.3047524880D+04  0.1834737132D-02
      0.4573695180D+03  0.1403732281D-01
      0.1039486850D+03  0.6884262226D-01
      0.2921015530D+02  0.2321844432D+00
      0.9286662960D+01  0.4679413484D+00
      0.3163926960D+01  0.3623119853D+00
 SP   3 1.00       0.000000000000
      0.7868272350D+01 -0.1193324198D+00  0.6899906659D-01
      0.1881288540D+01 -0.1608541517D+00  0.3164239610D+00
      0.5442492580D+00  0.1143456438D+01  0.7443082909D+00
 SP   1 1.00       0.000000000000
      0.1687144782D+00  0.1000000000D+01  0.1000000000D+01
 D   1 1.00       0.000000000000
      0.8000000000D+00  0.1000000000D+01
 ****
     29 0
 S   3 1.00       0.000000000000
      0.1873113696D+02  0.3349460434D-01
      0.2825394365D+01  0.2347269535D+00
      0.6401216923D+00  0.8137573261D+00
 S   1 1.00       0.000000000000
      0.1612777588D+00  0.1000000000D+01
 ****
     30 0
 S   6 1.00       0.000000000000
      0.3047524880D+04  0.1834737132D-02
      0.4573695180D+03  0.1403732281D-01
      0.1039486850D+03  0.6884262226D-01
      0.2921015530D+02  0.2321844432D+00
      0.9286662960D+01  0.4679413484D+00
      0.3163926960D+01  0.3623119853D+00
 SP   3 1.00       0.000000000000
      0.7868272350D+01 -0.1193324198D+00  0.6899906659D-01
      0.1881288540D+01 -0.1608541517D+00  0.3164239610D+00
      0.5442492580D+00  0.1143456438D+01  0.7443082909D+00
 SP   1 1.00       0.000000000000
      0.1687144782D+00  0.1000000000D+01  0.1000000000D+01
 D   1 1.00       0.000000000000
      0.8000000000D+00  0.1000000000D+01
 ****
     31 0
 S   3 1.00       0.000000000000
      0.1873113696D+02  0.3349460434D-01
      0.2825394365D+01  0.2347269535D+00
      0.6401216923D+00  0.8137573261D+00
 S   1 1.00       0.000000000000
      0.1612777588D+00  0.1000000000D+01
 ****
     32 0
 S   3 1.00       0.000000000000
      0.1873113696D+02  0.3349460434D-01
      0.2825394365D+01  0.2347269535D+00
      0.6401216923D+00  0.8137573261D+00
 S   1 1.00       0.000000000000
      0.1612777588D+00  0.1000000000D+01
 ****
     33 0
 S   3 1.00       0.000000000000
      0.1873113696D+02  0.3349460434D-01
      0.2825394365D+01  0.2347269535D+00
      0.6401216923D+00  0.8137573261D+00
 S   1 1.00       0.000000000000
      0.1612777588D+00  0.1000000000D+01
 ****
     34 0
 S   6 1.00       0.000000000000
      0.3047524880D+04  0.1834737132D-02
      0.4573695180D+03  0.1403732281D-01
      0.1039486850D+03  0.6884262226D-01
      0.2921015530D+02  0.2321844432D+00
      0.9286662960D+01  0.4679413484D+00
      0.3163926960D+01  0.3623119853D+00
 SP   3 1.00       0.000000000000
      0.7868272350D+01 -0.1193324198D+00  0.6899906659D-01
      0.1881288540D+01 -0.1608541517D+00  0.3164239610D+00
      0.5442492580D+00  0.1143456438D+01  0.7443082909D+00
 SP   1 1.00       0.000000000000
      0.1687144782D+00  0.1000000000D+01  0.1000000000D+01
 D   1 1.00       0.000000000000
      0.8000000000D+00  0.1000000000D+01
 ****
     35 0
 S   6 1.00       0.000000000000
      0.3047524880D+04  0.1834737132D-02
      0.4573695180D+03  0.1403732281D-01
      0.1039486850D+03  0.6884262226D-01
      0.2921015530D+02  0.2321844432D+00
      0.9286662960D+01  0.4679413484D+00
      0.3163926960D+01  0.3623119853D+00
 SP   3 1.00       0.000000000000
      0.7868272350D+01 -0.1193324198D+00  0.6899906659D-01
      0.1881288540D+01 -0.1608541517D+00  0.3164239610D+00
      0.5442492580D+00  0.1143456438D+01  0.7443082909D+00
 SP   1 1.00       0.000000000000
      0.1687144782D+00  0.1000000000D+01  0.1000000000D+01
 D   1 1.00       0.000000000000
      0.8000000000D+00  0.1000000000D+01
 ****
     36 0
 S   3 1.00       0.000000000000
      0.1873113696D+02  0.3349460434D-01
      0.2825394365D+01  0.2347269535D+00
      0.6401216923D+00  0.8137573261D+00
 S   1 1.00       0.000000000000
      0.1612777588D+00  0.1000000000D+01
 ****
     37 0
 S   3 1.00       0.000000000000
      0.1873113696D+02  0.3349460434D-01
      0.2825394365D+01  0.2347269535D+00
      0.6401216923D+00  0.8137573261D+00
 S   1 1.00       0.000000000000
      0.1612777588D+00  0.1000000000D+01
 ****
     38 0
 S   6 1.00       0.000000000000
      0.3047524880D+04  0.1834737132D-02
      0.4573695180D+03  0.1403732281D-01
      0.1039486850D+03  0.6884262226D-01
      0.2921015530D+02  0.2321844432D+00
      0.9286662960D+01  0.4679413484D+00
      0.3163926960D+01  0.3623119853D+00
 SP   3 1.00       0.000000000000
      0.7868272350D+01 -0.1193324198D+00  0.6899906659D-01
      0.1881288540D+01 -0.1608541517D+00  0.3164239610D+00
      0.5442492580D+00  0.1143456438D+01  0.7443082909D+00
 SP   1 1.00       0.000000000000
      0.1687144782D+00  0.1000000000D+01  0.1000000000D+01
 D   1 1.00       0.000000000000
      0.8000000000D+00  0.1000000000D+01
 ****
     39 0
 S   3 1.00       0.000000000000
      0.1873113696D+02  0.3349460434D-01
      0.2825394365D+01  0.2347269535D+00
      0.6401216923D+00  0.8137573261D+00
 S   1 1.00       0.000000000000
      0.1612777588D+00  0.1000000000D+01
 ****
     40 0
 S   6 1.00       0.000000000000
      0.3047524880D+04  0.1834737132D-02
      0.4573695180D+03  0.1403732281D-01
      0.1039486850D+03  0.6884262226D-01
      0.2921015530D+02  0.2321844432D+00
      0.9286662960D+01  0.4679413484D+00
      0.3163926960D+01  0.3623119853D+00
 SP   3 1.00       0.000000000000
      0.7868272350D+01 -0.1193324198D+00  0.6899906659D-01
      0.1881288540D+01 -0.1608541517D+00  0.3164239610D+00
      0.5442492580D+00  0.1143456438D+01  0.7443082909D+00
 SP   1 1.00       0.000000000000
      0.1687144782D+00  0.1000000000D+01  0.1000000000D+01
 D   1 1.00       0.000000000000
      0.8000000000D+00  0.1000000000D+01
 ****
     41 0
 S   3 1.00       0.000000000000
      0.1873113696D+02  0.3349460434D-01
      0.2825394365D+01  0.2347269535D+00
      0.6401216923D+00  0.8137573261D+00
 S   1 1.00       0.000000000000
      0.1612777588D+00  0.1000000000D+01
 ****
     42 0
 S   3 1.00       0.000000000000
      0.1873113696D+02  0.3349460434D-01
      0.2825394365D+01  0.2347269535D+00
      0.6401216923D+00  0.8137573261D+00
 S   1 1.00       0.000000000000
      0.1612777588D+00  0.1000000000D+01
 ****
     43 0
 S   3 1.00       0.000000000000
      0.1873113696D+02  0.3349460434D-01
      0.2825394365D+01  0.2347269535D+00
      0.6401216923D+00  0.8137573261D+00
 S   1 1.00       0.000000000000
      0.1612777588D+00  0.1000000000D+01
 ****
     44 0
 S   6 1.00       0.000000000000
      0.3047524880D+04  0.1834737132D-02
      0.4573695180D+03  0.1403732281D-01
      0.1039486850D+03  0.6884262226D-01
      0.2921015530D+02  0.2321844432D+00
      0.9286662960D+01  0.4679413484D+00
      0.3163926960D+01  0.3623119853D+00
 SP   3 1.00       0.000000000000
      0.7868272350D+01 -0.1193324198D+00  0.6899906659D-01
      0.1881288540D+01 -0.1608541517D+00  0.3164239610D+00
      0.5442492580D+00  0.1143456438D+01  0.7443082909D+00
 SP   1 1.00       0.000000000000
      0.1687144782D+00  0.1000000000D+01  0.1000000000D+01
 D   1 1.00       0.000000000000
      0.8000000000D+00  0.1000000000D+01
 ****
     45 0
 S   3 1.00       0.000000000000
      0.1873113696D+02  0.3349460434D-01
      0.2825394365D+01  0.2347269535D+00
      0.6401216923D+00  0.8137573261D+00
 S   1 1.00       0.000000000000
      0.1612777588D+00  0.1000000000D+01
 ****
     46 0
 S   3 1.00       0.000000000000
      0.1873113696D+02  0.3349460434D-01
      0.2825394365D+01  0.2347269535D+00
      0.6401216923D+00  0.8137573261D+00
 S   1 1.00       0.000000000000
      0.1612777588D+00  0.1000000000D+01
 ****
     47 0
 S   6 1.00       0.000000000000
      0.3047524880D+04  0.1834737132D-02
      0.4573695180D+03  0.1403732281D-01
      0.1039486850D+03  0.6884262226D-01
      0.2921015530D+02  0.2321844432D+00
      0.9286662960D+01  0.4679413484D+00
      0.3163926960D+01  0.3623119853D+00
 SP   3 1.00       0.000000000000
      0.7868272350D+01 -0.1193324198D+00  0.6899906659D-01
      0.1881288540D+01 -0.1608541517D+00  0.3164239610D+00
      0.5442492580D+00  0.1143456438D+01  0.7443082909D+00
 SP   1 1.00       0.000000000000
      0.1687144782D+00  0.1000000000D+01  0.1000000000D+01
 D   1 1.00       0.000000000000
      0.8000000000D+00  0.1000000000D+01
 ****
     48 0
 S   3 1.00       0.000000000000
      0.1873113696D+02  0.3349460434D-01
      0.2825394365D+01  0.2347269535D+00
      0.6401216923D+00  0.8137573261D+00
 S   1 1.00       0.000000000000
      0.1612777588D+00  0.1000000000D+01
 ****
     49 0
 S   3 1.00       0.000000000000
      0.1873113696D+02  0.3349460434D-01
      0.2825394365D+01  0.2347269535D+00
      0.6401216923D+00  0.8137573261D+00
 S   1 1.00       0.000000000000
      0.1612777588D+00  0.1000000000D+01
 ****
     50 0
 S   6 1.00       0.000000000000
      0.3047524880D+04  0.1834737132D-02
      0.4573695180D+03  0.1403732281D-01
      0.1039486850D+03  0.6884262226D-01
      0.2921015530D+02  0.2321844432D+00
      0.9286662960D+01  0.4679413484D+00
      0.3163926960D+01  0.3623119853D+00
 SP   3 1.00       0.000000000000
      0.7868272350D+01 -0.1193324198D+00  0.6899906659D-01
      0.1881288540D+01 -0.1608541517D+00  0.3164239610D+00
      0.5442492580D+00  0.1143456438D+01  0.7443082909D+00
 SP   1 1.00       0.000000000000
      0.1687144782D+00  0.1000000000D+01  0.1000000000D+01
 D   1 1.00       0.000000000000
      0.8000000000D+00  0.1000000000D+01
 ****
     51 0
 S   3 1.00       0.000000000000
      0.1873113696D+02  0.3349460434D-01
      0.2825394365D+01  0.2347269535D+00
      0.6401216923D+00  0.8137573261D+00
 S   1 1.00       0.000000000000
      0.1612777588D+00  0.1000000000D+01
 ****
     52 0
 S   3 1.00       0.000000000000
      0.1873113696D+02  0.3349460434D-01
      0.2825394365D+01  0.2347269535D+00
      0.6401216923D+00  0.8137573261D+00
 S   1 1.00       0.000000000000
      0.1612777588D+00  0.1000000000D+01
 ****
     53 0
 S   6 1.00       0.000000000000
      0.3047524880D+04  0.1834737132D-02
      0.4573695180D+03  0.1403732281D-01
      0.1039486850D+03  0.6884262226D-01
      0.2921015530D+02  0.2321844432D+00
      0.9286662960D+01  0.4679413484D+00
      0.3163926960D+01  0.3623119853D+00
 SP   3 1.00       0.000000000000
      0.7868272350D+01 -0.1193324198D+00  0.6899906659D-01
      0.1881288540D+01 -0.1608541517D+00  0.3164239610D+00
      0.5442492580D+00  0.1143456438D+01  0.7443082909D+00
 SP   1 1.00       0.000000000000
      0.1687144782D+00  0.1000000000D+01  0.1000000000D+01
 D   1 1.00       0.000000000000
      0.8000000000D+00  0.1000000000D+01
 ****
     54 0
 S   3 1.00       0.000000000000
      0.1873113696D+02  0.3349460434D-01
      0.2825394365D+01  0.2347269535D+00
      0.6401216923D+00  0.8137573261D+00
 S   1 1.00       0.000000000000
      0.1612777588D+00  0.1000000000D+01
 ****
     55 0
 S   6 1.00       0.000000000000
      0.3047524880D+04  0.1834737132D-02
      0.4573695180D+03  0.1403732281D-01
      0.1039486850D+03  0.6884262226D-01
      0.2921015530D+02  0.2321844432D+00
      0.9286662960D+01  0.4679413484D+00
      0.3163926960D+01  0.3623119853D+00
 SP   3 1.00       0.000000000000
      0.7868272350D+01 -0.1193324198D+00  0.6899906659D-01
      0.1881288540D+01 -0.1608541517D+00  0.3164239610D+00
      0.5442492580D+00  0.1143456438D+01  0.7443082909D+00
 SP   1 1.00       0.000000000000
      0.1687144782D+00  0.1000000000D+01  0.1000000000D+01
 D   1 1.00       0.000000000000
      0.8000000000D+00  0.1000000000D+01
 ****
     56 0
 S   3 1.00       0.000000000000
      0.1873113696D+02  0.3349460434D-01
      0.2825394365D+01  0.2347269535D+00
      0.6401216923D+00  0.8137573261D+00
 S   1 1.00       0.000000000000
      0.1612777588D+00  0.1000000000D+01
 ****
     57 0
 S   3 1.00       0.000000000000
      0.1873113696D+02  0.3349460434D-01
      0.2825394365D+01  0.2347269535D+00
      0.6401216923D+00  0.8137573261D+00
 S   1 1.00       0.000000000000
      0.1612777588D+00  0.1000000000D+01
 ****
     58 0
 S   3 1.00       0.000000000000
      0.1873113696D+02  0.3349460434D-01
      0.2825394365D+01  0.2347269535D+00
      0.6401216923D+00  0.8137573261D+00
 S   1 1.00       0.000000000000
      0.1612777588D+00  0.1000000000D+01
 ****
     59 0
 S   6 1.00       0.000000000000
      0.3047524880D+04  0.1834737132D-02
      0.4573695180D+03  0.1403732281D-01
      0.1039486850D+03  0.6884262226D-01
      0.2921015530D+02  0.2321844432D+00
      0.9286662960D+01  0.4679413484D+00
      0.3163926960D+01  0.3623119853D+00
 SP   3 1.00       0.000000000000
      0.7868272350D+01 -0.1193324198D+00  0.6899906659D-01
      0.1881288540D+01 -0.1608541517D+00  0.3164239610D+00
      0.5442492580D+00  0.1143456438D+01  0.7443082909D+00
 SP   1 1.00       0.000000000000
      0.1687144782D+00  0.1000000000D+01  0.1000000000D+01
 D   1 1.00       0.000000000000
      0.8000000000D+00  0.1000000000D+01
 ****
     60 0
 S   3 1.00       0.000000000000
      0.1873113696D+02  0.3349460434D-01
      0.2825394365D+01  0.2347269535D+00
      0.6401216923D+00  0.8137573261D+00
 S   1 1.00       0.000000000000
      0.1612777588D+00  0.1000000000D+01
 ****
     61 0
 S   3 1.00       0.000000000000
      0.1873113696D+02  0.3349460434D-01
      0.2825394365D+01  0.2347269535D+00
      0.6401216923D+00  0.8137573261D+00
 S   1 1.00       0.000000000000
      0.1612777588D+00  0.1000000000D+01
 ****
     62 0
 S   6 1.00       0.000000000000
      0.3047524880D+04  0.1834737132D-02
      0.4573695180D+03  0.1403732281D-01
      0.1039486850D+03  0.6884262226D-01
      0.2921015530D+02  0.2321844432D+00
      0.9286662960D+01  0.4679413484D+00
      0.3163926960D+01  0.3623119853D+00
 SP   3 1.00       0.000000000000
      0.7868272350D+01 -0.1193324198D+00  0.6899906659D-01
      0.1881288540D+01 -0.1608541517D+00  0.3164239610D+00
      0.5442492580D+00  0.1143456438D+01  0.7443082909D+00
 SP   1 1.00       0.000000000000
      0.1687144782D+00  0.1000000000D+01  0.1000000000D+01
 D   1 1.00       0.000000000000
      0.8000000000D+00  0.1000000000D+01
 ****
     63 0
 S   3 1.00       0.000000000000
      0.1873113696D+02  0.3349460434D-01
      0.2825394365D+01  0.2347269535D+00
      0.6401216923D+00  0.8137573261D+00
 S   1 1.00       0.000000000000
      0.1612777588D+00  0.1000000000D+01
 ****
     64 0
 S   3 1.00       0.000000000000
      0.1873113696D+02  0.3349460434D-01
      0.2825394365D+01  0.2347269535D+00
      0.6401216923D+00  0.8137573261D+00
 S   1 1.00       0.000000000000
      0.1612777588D+00  0.1000000000D+01
 ****
     65 0
 S   6 1.00       0.000000000000
      0.3047524880D+04  0.1834737132D-02
      0.4573695180D+03  0.1403732281D-01
      0.1039486850D+03  0.6884262226D-01
      0.2921015530D+02  0.2321844432D+00
      0.9286662960D+01  0.4679413484D+00
      0.3163926960D+01  0.3623119853D+00
 SP   3 1.00       0.000000000000
      0.7868272350D+01 -0.1193324198D+00  0.6899906659D-01
      0.1881288540D+01 -0.1608541517D+00  0.3164239610D+00
      0.5442492580D+00  0.1143456438D+01  0.7443082909D+00
 SP   1 1.00       0.000000000000
      0.1687144782D+00  0.1000000000D+01  0.1000000000D+01
 D   1 1.00       0.000000000000
      0.8000000000D+00  0.1000000000D+01
 ****
     66 0
 S   3 1.00       0.000000000000
      0.1873113696D+02  0.3349460434D-01
      0.2825394365D+01  0.2347269535D+00
      0.6401216923D+00  0.8137573261D+00
 S   1 1.00       0.000000000000
      0.1612777588D+00  0.1000000000D+01
 ****
     67 0
 S   6 1.00       0.000000000000
      0.3047524880D+04  0.1834737132D-02
      0.4573695180D+03  0.1403732281D-01
      0.1039486850D+03  0.6884262226D-01
      0.2921015530D+02  0.2321844432D+00
      0.9286662960D+01  0.4679413484D+00
      0.3163926960D+01  0.3623119853D+00
 SP   3 1.00       0.000000000000
      0.7868272350D+01 -0.1193324198D+00  0.6899906659D-01
      0.1881288540D+01 -0.1608541517D+00  0.3164239610D+00
      0.5442492580D+00  0.1143456438D+01  0.7443082909D+00
 SP   1 1.00       0.000000000000
      0.1687144782D+00  0.1000000000D+01  0.1000000000D+01
 D   1 1.00       0.000000000000
      0.8000000000D+00  0.1000000000D+01
 ****
     68 0
 S   3 1.00       0.000000000000
      0.1873113696D+02  0.3349460434D-01
      0.2825394365D+01  0.2347269535D+00
      0.6401216923D+00  0.8137573261D+00
 S   1 1.00       0.000000000000
      0.1612777588D+00  0.1000000000D+01
 ****
     69 0
 S   3 1.00       0.000000000000
      0.1873113696D+02  0.3349460434D-01
      0.2825394365D+01  0.2347269535D+00
      0.6401216923D+00  0.8137573261D+00
 S   1 1.00       0.000000000000
      0.1612777588D+00  0.1000000000D+01
 ****
     70 0
 S   3 1.00       0.000000000000
      0.1873113696D+02  0.3349460434D-01
      0.2825394365D+01  0.2347269535D+00
      0.6401216923D+00  0.8137573261D+00
 S   1 1.00       0.000000000000
      0.1612777588D+00  0.1000000000D+01
 ****
     71 0
 S   6 1.00       0.000000000000
      0.3047524880D+04  0.1834737132D-02
      0.4573695180D+03  0.1403732281D-01
      0.1039486850D+03  0.6884262226D-01
      0.2921015530D+02  0.2321844432D+00
      0.9286662960D+01  0.4679413484D+00
      0.3163926960D+01  0.3623119853D+00
 SP   3 1.00       0.000000000000
      0.7868272350D+01 -0.1193324198D+00  0.6899906659D-01
      0.1881288540D+01 -0.1608541517D+00  0.3164239610D+00
      0.5442492580D+00  0.1143456438D+01  0.7443082909D+00
 SP   1 1.00       0.000000000000
      0.1687144782D+00  0.1000000000D+01  0.1000000000D+01
 D   1 1.00       0.000000000000
      0.8000000000D+00  0.1000000000D+01
 ****
     72 0
 S   3 1.00       0.000000000000
      0.1873113696D+02  0.3349460434D-01
      0.2825394365D+01  0.2347269535D+00
      0.6401216923D+00  0.8137573261D+00
 S   1 1.00       0.000000000000
      0.1612777588D+00  0.1000000000D+01
 ****
     73 0
 S   3 1.00       0.000000000000
      0.1873113696D+02  0.3349460434D-01
      0.2825394365D+01  0.2347269535D+00
      0.6401216923D+00  0.8137573261D+00
 S   1 1.00       0.000000000000
      0.1612777588D+00  0.1000000000D+01
 ****
     74 0
 S   3 1.00       0.000000000000
      0.1873113696D+02  0.3349460434D-01
      0.2825394365D+01  0.2347269535D+00
      0.6401216923D+00  0.8137573261D+00
 S   1 1.00       0.000000000000
      0.1612777588D+00  0.1000000000D+01
 ****

 AO basis set (Overlap normalization):
 Atom O1       Shell     1 S   6     bf    1 -     1         -7.046514588063         -6.828665372094         -7.796285352109
      0.5484671660D+04  0.1831074430D-02
      0.8252349460D+03  0.1395017220D-01
      0.1880469580D+03  0.6844507810D-01
      0.5296450000D+02  0.2327143360D+00
      0.1689757040D+02  0.4701928980D+00
      0.5799635340D+01  0.3585208530D+00
 Atom O1       Shell     2 SP   3    bf    2 -     5         -7.046514588063         -6.828665372094         -7.796285352109
      0.1553961625D+02 -0.1107775495D+00  0.7087426823D-01
      0.3599933586D+01 -0.1480262627D+00  0.3397528391D+00
      0.1013761750D+01  0.1130767015D+01  0.7271585773D+00
 Atom O1       Shell     3 SP   1    bf    6 -     9         -7.046514588063         -6.828665372094         -7.796285352109
      0.2700058226D+00  0.1000000000D+01  0.1000000000D+01
 Atom O1       Shell     4 D   1     bf   10 -    15         -7.046514588063         -6.828665372094         -7.796285352109
      0.8000000000D+00  0.1000000000D+01
 Atom H2       Shell     5 S   3     bf   16 -    16         -7.330706305996         -8.418307662701         -6.943360296620
      0.1873113696D+02  0.3349460434D-01
      0.2825394365D+01  0.2347269535D+00
      0.6401216923D+00  0.8137573261D+00
 Atom H2       Shell     6 S   1     bf   17 -    17         -7.330706305996         -8.418307662701         -6.943360296620
      0.1612777588D+00  0.1000000000D+01
 Atom C3       Shell     7 S   6     bf   18 -    18          3.024360524264          3.898683666852          0.000000000000
      0.3047524880D+04  0.1834737132D-02
      0.4573695180D+03  0.1403732281D-01
      0.1039486850D+03  0.6884262226D-01
      0.2921015530D+02  0.2321844432D+00
      0.9286662960D+01  0.4679413484D+00
      0.3163926960D+01  0.3623119853D+00
 Atom C3       Shell     8 SP   3    bf   19 -    22          3.024360524264          3.898683666852          0.000000000000
      0.7868272350D+01 -0.1193324198D+00  0.6899906659D-01
      0.1881288540D+01 -0.1608541517D+00  0.3164239610D+00
      0.5442492580D+00  0.1143456438D+01  0.7443082909D+00
 Atom C3       Shell     9 SP   1    bf   23 -    26          3.024360524264          3.898683666852          0.000000000000
      0.1687144782D+00  0.1000000000D+01  0.1000000000D+01
 Atom C3       Shell    10 D   1     bf   27 -    32          3.024360524264          3.898683666852          0.000000000000
      0.8000000000D+00  0.1000000000D+01
 Atom C4       Shell    11 S   6     bf   33 -    33          2.507270227180          1.148730255446          0.894444946450
      0.3047524880D+04  0.1834737132D-02
      0.4573695180D+03  0.1403732281D-01
      0.1039486850D+03  0.6884262226D-01
      0.2921015530D+02  0.2321844432D+00
      0.9286662960D+01  0.4679413484D+00
      0.3163926960D+01  0.3623119853D+00
 Atom C4       Shell    12 SP   3    bf   34 -    37          2.507270227180          1.148730255446          0.894444946450
      0.7868272350D+01 -0.1193324198D+00  0.6899906659D-01
      0.1881288540D+01 -0.1608541517D+00  0.3164239610D+00
      0.5442492580D+00  0.1143456438D+01  0.7443082909D+00
 Atom C4       Shell    13 SP   1    bf   38 -    41          2.507270227180          1.148730255446          0.894444946450
      0.1687144782D+00  0.1000000000D+01  0.1000000000D+01
 Atom C4       Shell    14 D   1     bf   42 -    47          2.507270227180          1.148730255446          0.894444946450
      0.8000000000D+00  0.1000000000D+01
 Atom H5       Shell    15 S   3     bf   48 -    48          4.001004211125          0.000000000000          0.000000000000
      0.1873113696D+02  0.3349460434D-01
      0.2825394365D+01  0.2347269535D+00
      0.6401216923D+00  0.8137573261D+00
 Atom H5       Shell    16 S   1     bf   49 -    49          4.001004211125          0.000000000000          0.000000000000
      0.1612777588D+00  0.1000000000D+01
 Atom C6       Shell    17 S   6     bf   50 -    50          0.000000000000          0.000000000000          0.000000000000
      0.3047524880D+04  0.1834737132D-02
      0.4573695180D+03  0.1403732281D-01
      0.1039486850D+03  0.6884262226D-01
      0.2921015530D+02  0.2321844432D+00
      0.9286662960D+01  0.4679413484D+00
      0.3163926960D+01  0.3623119853D+00
 Atom C6       Shell    18 SP   3    bf   51 -    54          0.000000000000          0.000000000000          0.000000000000
      0.7868272350D+01 -0.1193324198D+00  0.6899906659D-01
      0.1881288540D+01 -0.1608541517D+00  0.3164239610D+00
      0.5442492580D+00  0.1143456438D+01  0.7443082909D+00
 Atom C6       Shell    19 SP   1    bf   55 -    58          0.000000000000          0.000000000000          0.000000000000
      0.1687144782D+00  0.1000000000D+01  0.1000000000D+01
 Atom C6       Shell    20 D   1     bf   59 -    64          0.000000000000          0.000000000000          0.000000000000
      0.8000000000D+00  0.1000000000D+01
 Atom H7       Shell    21 S   3     bf   65 -    65         -1.575942021808          1.093876778145          0.797052033144
      0.1873113696D+02  0.3349460434D-01
      0.2825394365D+01  0.2347269535D+00
      0.6401216923D+00  0.8137573261D+00
 Atom H7       Shell    22 S   1     bf   66 -    66         -1.575942021808          1.093876778145          0.797052033144
      0.1612777588D+00  0.1000000000D+01
 Atom C8       Shell    23 S   6     bf   67 -    67         -0.147606961774          0.092337669134         -2.926349783896
      0.3047524880D+04  0.1834737132D-02
      0.4573695180D+03  0.1403732281D-01
      0.1039486850D+03  0.6884262226D-01
      0.2921015530D+02  0.2321844432D+00
      0.9286662960D+01  0.4679413484D+00
      0.3163926960D+01  0.3623119853D+00
 Atom C8       Shell    24 SP   3    bf   68 -    71         -0.147606961774          0.092337669134         -2.926349783896
      0.7868272350D+01 -0.1193324198D+00  0.6899906659D-01
      0.1881288540D+01 -0.1608541517D+00  0.3164239610D+00
      0.5442492580D+00  0.1143456438D+01  0.7443082909D+00
 Atom C8       Shell    25 SP   1    bf   72 -    75         -0.147606961774          0.092337669134         -2.926349783896
      0.1687144782D+00  0.1000000000D+01  0.1000000000D+01
 Atom C8       Shell    26 D   1     bf   76 -    81         -0.147606961774          0.092337669134         -2.926349783896
      0.8000000000D+00  0.1000000000D+01
 Atom H9       Shell    27 S   3     bf   82 -    82          1.324233600058         -1.220869114377         -3.598147367445
      0.1873113696D+02  0.3349460434D-01
      0.2825394365D+01  0.2347269535D+00
      0.6401216923D+00  0.8137573261D+00
 Atom H9       Shell    28 S   1     bf   83 -    83          1.324233600058         -1.220869114377         -3.598147367445
      0.1612777588D+00  0.1000000000D+01
 Atom C10      Shell    29 S   6     bf   84 -    84          5.639489818452          4.374623816790          1.310200059159
      0.3047524880D+04  0.1834737132D-02
      0.4573695180D+03  0.1403732281D-01
      0.1039486850D+03  0.6884262226D-01
      0.2921015530D+02  0.2321844432D+00
      0.9286662960D+01  0.4679413484D+00
      0.3163926960D+01  0.3623119853D+00
 Atom C10      Shell    30 SP   3    bf   85 -    88          5.639489818452          4.374623816790          1.310200059159
      0.7868272350D+01 -0.1193324198D+00  0.6899906659D-01
      0.1881288540D+01 -0.1608541517D+00  0.3164239610D+00
      0.5442492580D+00  0.1143456438D+01  0.7443082909D+00
 Atom C10      Shell    31 SP   1    bf   89 -    92          5.639489818452          4.374623816790          1.310200059159
      0.1687144782D+00  0.1000000000D+01  0.1000000000D+01
 Atom C10      Shell    32 D   1     bf   93 -    98          5.639489818452          4.374623816790          1.310200059159
      0.8000000000D+00  0.1000000000D+01
 Atom H11      Shell    33 S   3     bf   99 -    99          7.019575710559          3.254847056980          0.231657444822
      0.1873113696D+02  0.3349460434D-01
      0.2825394365D+01  0.2347269535D+00
      0.6401216923D+00  0.8137573261D+00
 Atom H11      Shell    34 S   1     bf  100 -   100          7.019575710559          3.254847056980          0.231657444822
      0.1612777588D+00  0.1000000000D+01
 Atom C12      Shell    35 S   6     bf  101 -   101          3.022615853509          3.831098972312         -2.913998231535
      0.3047524880D+04  0.1834737132D-02
      0.4573695180D+03  0.1403732281D-01
      0.1039486850D+03  0.6884262226D-01
      0.2921015530D+02  0.2321844432D+00
      0.9286662960D+01  0.4679413484D+00
      0.3163926960D+01  0.3623119853D+00
 Atom C12      Shell    36 SP   3    bf  102 -   105          3.022615853509          3.831098972312         -2.913998231535
      0.7868272350D+01 -0.1193324198D+00  0.6899906659D-01
      0.1881288540D+01 -0.1608541517D+00  0.3164239610D+00
      0.5442492580D+00  0.1143456438D+01  0.7443082909D+00
 Atom C12      Shell    37 SP   1    bf  106 -   109          3.022615853509          3.831098972312         -2.913998231535
      0.1687144782D+00  0.1000000000D+01  0.1000000000D+01
 Atom C12      Shell    38 D   1     bf  110 -   115          3.022615853509          3.831098972312         -2.913998231535
      0.8000000000D+00  0.1000000000D+01
 Atom H13      Shell    39 S   3     bf  116 -   116          4.621420330094          2.666979543130         -3.552311304201
      0.1873113696D+02  0.3349460434D-01
      0.2825394365D+01  0.2347269535D+00
      0.6401216923D+00  0.8137573261D+00
 Atom H13      Shell    40 S   1     bf  117 -   117          4.621420330094          2.666979543130         -3.552311304201
      0.1612777588D+00  0.1000000000D+01
 Atom H14      Shell    41 S   3     bf  118 -   118          3.306105368108          5.713580915656         -3.724048027788
      0.1873113696D+02  0.3349460434D-01
      0.2825394365D+01  0.2347269535D+00
      0.6401216923D+00  0.8137573261D+00
 Atom H14      Shell    42 S   1     bf  119 -   119          3.306105368108          5.713580915656         -3.724048027788
      0.1612777588D+00  0.1000000000D+01
 Atom C15      Shell    43 S   6     bf  120 -   120         -2.709286051491         -0.969012916044         -3.977629149238
      0.3047524880D+04  0.1834737132D-02
      0.4573695180D+03  0.1403732281D-01
      0.1039486850D+03  0.6884262226D-01
      0.2921015530D+02  0.2321844432D+00
      0.9286662960D+01  0.4679413484D+00
      0.3163926960D+01  0.3623119853D+00
 Atom C15      Shell    44 SP   3    bf  121 -   124         -2.709286051491         -0.969012916044         -3.977629149238
      0.7868272350D+01 -0.1193324198D+00  0.6899906659D-01
      0.1881288540D+01 -0.1608541517D+00  0.3164239610D+00
      0.5442492580D+00  0.1143456438D+01  0.7443082909D+00
 Atom C15      Shell    45 SP   1    bf  125 -   128         -2.709286051491         -0.969012916044         -3.977629149238
      0.1687144782D+00  0.1000000000D+01  0.1000000000D+01
 Atom C15      Shell    46 D   1     bf  129 -   134         -2.709286051491         -0.969012916044         -3.977629149238
      0.8000000000D+00  0.1000000000D+01
 Atom C16      Shell    47 S   6     bf  135 -   135          3.100407393530          1.188338102609          3.736897277320
      0.3047524880D+04  0.1834737132D-02
      0.4573695180D+03  0.1403732281D-01
      0.1039486850D+03  0.6884262226D-01
      0.2921015530D+02  0.2321844432D+00
      0.9286662960D+01  0.4679413484D+00
      0.3163926960D+01  0.3623119853D+00
 Atom C16      Shell    48 SP   3    bf  136 -   139          3.100407393530          1.188338102609          3.736897277320
      0.7868272350D+01 -0.1193324198D+00  0.6899906659D-01
      0.1881288540D+01 -0.1608541517D+00  0.3164239610D+00
      0.5442492580D+00  0.1143456438D+01  0.7443082909D+00
 Atom C16      Shell    49 SP   1    bf  140 -   143          3.100407393530          1.188338102609          3.736897277320
      0.1687144782D+00  0.1000000000D+01  0.1000000000D+01
 Atom C16      Shell    50 D   1     bf  144 -   149          3.100407393530          1.188338102609          3.736897277320
      0.8000000000D+00  0.1000000000D+01
 Atom H17      Shell    51 S   3     bf  150 -   150          3.609070721486         -0.680622623487          4.462695844918
      0.1873113696D+02  0.3349460434D-01
      0.2825394365D+01  0.2347269535D+00
      0.6401216923D+00  0.8137573261D+00
 Atom H17      Shell    52 S   1     bf  151 -   151          3.609070721486         -0.680622623487          4.462695844918
      0.1612777588D+00  0.1000000000D+01
 Atom H18      Shell    53 S   3     bf  152 -   152          1.450297060308          1.819967100560          4.821643201147
      0.1873113696D+02  0.3349460434D-01
      0.2825394365D+01  0.2347269535D+00
      0.6401216923D+00  0.8137573261D+00
 Atom H18      Shell    54 S   1     bf  153 -   153          1.450297060308          1.819967100560          4.821643201147
      0.1612777588D+00  0.1000000000D+01
 Atom C19      Shell    55 S   6     bf  154 -   154          0.538057262063          2.733316338120         -3.973485244390
      0.3047524880D+04  0.1834737132D-02
      0.4573695180D+03  0.1403732281D-01
      0.1039486850D+03  0.6884262226D-01
      0.2921015530D+02  0.2321844432D+00
      0.9286662960D+01  0.4679413484D+00
      0.3163926960D+01  0.3623119853D+00
 Atom C19      Shell    56 SP   3    bf  155 -   158          0.538057262063          2.733316338120         -3.973485244390
      0.7868272350D+01 -0.1193324198D+00  0.6899906659D-01
      0.1881288540D+01 -0.1608541517D+00  0.3164239610D+00
      0.5442492580D+00  0.1143456438D+01  0.7443082909D+00
 Atom C19      Shell    57 SP   1    bf  159 -   162          0.538057262063          2.733316338120         -3.973485244390
      0.1687144782D+00  0.1000000000D+01  0.1000000000D+01
 Atom C19      Shell    58 D   1     bf  163 -   168          0.538057262063          2.733316338120         -3.973485244390
      0.8000000000D+00  0.1000000000D+01
 Atom H20      Shell    59 S   3     bf  169 -   169         -0.993490538644          4.066730548986         -3.573989675480
      0.1873113696D+02  0.3349460434D-01
      0.2825394365D+01  0.2347269535D+00
      0.6401216923D+00  0.8137573261D+00
 Atom H20      Shell    60 S   1     bf  170 -   170         -0.993490538644          4.066730548986         -3.573989675480
      0.1612777588D+00  0.1000000000D+01
 Atom H21      Shell    61 S   3     bf  171 -   171          0.689777023792          2.646228554951         -6.037012267615
      0.1873113696D+02  0.3349460434D-01
      0.2825394365D+01  0.2347269535D+00
      0.6401216923D+00  0.8137573261D+00
 Atom H21      Shell    62 S   1     bf  172 -   172          0.689777023792          2.646228554951         -6.037012267615
      0.1612777588D+00  0.1000000000D+01
 Atom C22      Shell    63 S   6     bf  173 -   173          5.310048853932          3.110047699116          3.962968767283
      0.3047524880D+04  0.1834737132D-02
      0.4573695180D+03  0.1403732281D-01
      0.1039486850D+03  0.6884262226D-01
      0.2921015530D+02  0.2321844432D+00
      0.9286662960D+01  0.4679413484D+00
      0.3163926960D+01  0.3623119853D+00
 Atom C22      Shell    64 SP   3    bf  174 -   177          5.310048853932          3.110047699116          3.962968767283
      0.7868272350D+01 -0.1193324198D+00  0.6899906659D-01
      0.1881288540D+01 -0.1608541517D+00  0.3164239610D+00
      0.5442492580D+00  0.1143456438D+01  0.7443082909D+00
 Atom C22      Shell    65 SP   1    bf  178 -   181          5.310048853932          3.110047699116          3.962968767283
      0.1687144782D+00  0.1000000000D+01  0.1000000000D+01
 Atom C22      Shell    66 D   1     bf  182 -   187          5.310048853932          3.110047699116          3.962968767283
      0.8000000000D+00  0.1000000000D+01
 Atom H23      Shell    67 S   3     bf  188 -   188          4.888049745929          4.545198358804          5.396515162868
      0.1873113696D+02  0.3349460434D-01
      0.2825394365D+01  0.2347269535D+00
      0.6401216923D+00  0.8137573261D+00
 Atom H23      Shell    68 S   1     bf  189 -   189          4.888049745929          4.545198358804          5.396515162868
      0.1612777588D+00  0.1000000000D+01
 Atom H24      Shell    69 S   3     bf  190 -   190          7.059848306684          2.186721104417          4.565947060415
      0.1873113696D+02  0.3349460434D-01
      0.2825394365D+01  0.2347269535D+00
      0.6401216923D+00  0.8137573261D+00
 Atom H24      Shell    70 S   1     bf  191 -   191          7.059848306684          2.186721104417          4.565947060415
      0.1612777588D+00  0.1000000000D+01
 Atom C25      Shell    71 S   6     bf  192 -   192         -0.270692667172         -2.743689233836          0.915212375247
      0.3047524880D+04  0.1834737132D-02
      0.4573695180D+03  0.1403732281D-01
      0.1039486850D+03  0.6884262226D-01
      0.2921015530D+02  0.2321844432D+00
      0.9286662960D+01  0.4679413484D+00
      0.3163926960D+01  0.3623119853D+00
 Atom C25      Shell    72 SP   3    bf  193 -   196         -0.270692667172         -2.743689233836          0.915212375247
      0.7868272350D+01 -0.1193324198D+00  0.6899906659D-01
      0.1881288540D+01 -0.1608541517D+00  0.3164239610D+00
      0.5442492580D+00  0.1143456438D+01  0.7443082909D+00
 Atom C25      Shell    73 SP   1    bf  197 -   200         -0.270692667172         -2.743689233836          0.915212375247
      0.1687144782D+00  0.1000000000D+01  0.1000000000D+01
 Atom C25      Shell    74 D   1     bf  201 -   206         -0.270692667172         -2.743689233836          0.915212375247
      0.8000000000D+00  0.1000000000D+01
 Atom H26      Shell    75 S   3     bf  207 -   207         -0.677809388193         -2.779588096621          2.949779477765
      0.1873113696D+02  0.3349460434D-01
      0.2825394365D+01  0.2347269535D+00
      0.6401216923D+00  0.8137573261D+00
 Atom H26      Shell    76 S   1     bf  208 -   208         -0.677809388193         -2.779588096621          2.949779477765
      0.1612777588D+00  0.1000000000D+01
 Atom H27      Shell    77 S   3     bf  209 -   209          1.553025256303         -3.729515459025          0.702266601750
      0.1873113696D+02  0.3349460434D-01
      0.2825394365D+01  0.2347269535D+00
      0.6401216923D+00  0.8137573261D+00
 Atom H27      Shell    78 S   1     bf  210 -   210          1.553025256303         -3.729515459025          0.702266601750
      0.1612777588D+00  0.1000000000D+01
 Atom C28      Shell    79 S   6     bf  211 -   211          6.685587384662          7.102108838009          1.494951307725
      0.3047524880D+04  0.1834737132D-02
      0.4573695180D+03  0.1403732281D-01
      0.1039486850D+03  0.6884262226D-01
      0.2921015530D+02  0.2321844432D+00
      0.9286662960D+01  0.4679413484D+00
      0.3163926960D+01  0.3623119853D+00
 Atom C28      Shell    80 SP   3    bf  212 -   215          6.685587384662          7.102108838009          1.494951307725
      0.7868272350D+01 -0.1193324198D+00  0.6899906659D-01
      0.1881288540D+01 -0.1608541517D+00  0.3164239610D+00
      0.5442492580D+00  0.1143456438D+01  0.7443082909D+00
 Atom C28      Shell    81 SP   1    bf  216 -   219          6.685587384662          7.102108838009          1.494951307725
      0.1687144782D+00  0.1000000000D+01  0.1000000000D+01
 Atom C28      Shell    82 D   1     bf  220 -   225          6.685587384662          7.102108838009          1.494951307725
      0.8000000000D+00  0.1000000000D+01
 Atom H29      Shell    83 S   3     bf  226 -   226          5.319543575016          8.213380469618          2.599049879084
      0.1873113696D+02  0.3349460434D-01
      0.2825394365D+01  0.2347269535D+00
      0.6401216923D+00  0.8137573261D+00
 Atom H29      Shell    84 S   1     bf  227 -   227          5.319543575016          8.213380469618          2.599049879084
      0.1612777588D+00  0.1000000000D+01
 Atom C30      Shell    85 S   6     bf  228 -   228          1.032374280547          5.793382462878          0.987472006575
      0.3047524880D+04  0.1834737132D-02
      0.4573695180D+03  0.1403732281D-01
      0.1039486850D+03  0.6884262226D-01
      0.2921015530D+02  0.2321844432D+00
      0.9286662960D+01  0.4679413484D+00
      0.3163926960D+01  0.3623119853D+00
 Atom C30      Shell    86 SP   3    bf  229 -   232          1.032374280547          5.793382462878          0.987472006575
      0.7868272350D+01 -0.1193324198D+00  0.6899906659D-01
      0.1881288540D+01 -0.1608541517D+00  0.3164239610D+00
      0.5442492580D+00  0.1143456438D+01  0.7443082909D+00
 Atom C30      Shell    87 SP   1    bf  233 -   236          1.032374280547          5.793382462878          0.987472006575
      0.1687144782D+00  0.1000000000D+01  0.1000000000D+01
 Atom C30      Shell    88 D   1     bf  237 -   242          1.032374280547          5.793382462878          0.987472006575
      0.8000000000D+00  0.1000000000D+01
 Atom H31      Shell    89 S   3     bf  243 -   243          1.397307136432          7.689361000339          0.241980130515
      0.1873113696D+02  0.3349460434D-01
      0.2825394365D+01  0.2347269535D+00
      0.6401216923D+00  0.8137573261D+00
 Atom H31      Shell    90 S   1     bf  244 -   244          1.397307136432          7.689361000339          0.241980130515
      0.1612777588D+00  0.1000000000D+01
 Atom H32      Shell    91 S   3     bf  245 -   245         -0.886984326575          5.278611275499          0.426246872198
      0.1873113696D+02  0.3349460434D-01
      0.2825394365D+01  0.2347269535D+00
      0.6401216923D+00  0.8137573261D+00
 Atom H32      Shell    92 S   1     bf  246 -   246         -0.886984326575          5.278611275499          0.426246872198
      0.1612777588D+00  0.1000000000D+01
 Atom H33      Shell    93 S   3     bf  247 -   247          1.047718025267          5.930736375367          3.050740893210
      0.1873113696D+02  0.3349460434D-01
      0.2825394365D+01  0.2347269535D+00
      0.6401216923D+00  0.8137573261D+00
 Atom H33      Shell    94 S   1     bf  248 -   248          1.047718025267          5.930736375367          3.050740893210
      0.1612777588D+00  0.1000000000D+01
 Atom C34      Shell    95 S   6     bf  249 -   249         -3.405977772177         -3.433836984102         -2.614857683850
      0.3047524880D+04  0.1834737132D-02
      0.4573695180D+03  0.1403732281D-01
      0.1039486850D+03  0.6884262226D-01
      0.2921015530D+02  0.2321844432D+00
      0.9286662960D+01  0.4679413484D+00
      0.3163926960D+01  0.3623119853D+00
 Atom C34      Shell    96 SP   3    bf  250 -   253         -3.405977772177         -3.433836984102         -2.614857683850
      0.7868272350D+01 -0.1193324198D+00  0.6899906659D-01
      0.1881288540D+01 -0.1608541517D+00  0.3164239610D+00
      0.5442492580D+00  0.1143456438D+01  0.7443082909D+00
 Atom C34      Shell    97 SP   1    bf  254 -   257         -3.405977772177         -3.433836984102         -2.614857683850
      0.1687144782D+00  0.1000000000D+01  0.1000000000D+01
 Atom C34      Shell    98 D   1     bf  258 -   263         -3.405977772177         -3.433836984102         -2.614857683850
      0.8000000000D+00  0.1000000000D+01
 Atom C35      Shell    99 S   6     bf  264 -   264         -2.371519615034         -1.570725735174         -6.844921665563
      0.3047524880D+04  0.1834737132D-02
      0.4573695180D+03  0.1403732281D-01
      0.1039486850D+03  0.6884262226D-01
      0.2921015530D+02  0.2321844432D+00
      0.9286662960D+01  0.4679413484D+00
      0.3163926960D+01  0.3623119853D+00
 Atom C35      Shell   100 SP   3    bf  265 -   268         -2.371519615034         -1.570725735174         -6.844921665563
      0.7868272350D+01 -0.1193324198D+00  0.6899906659D-01
      0.1881288540D+01 -0.1608541517D+00  0.3164239610D+00
      0.5442492580D+00  0.1143456438D+01  0.7443082909D+00
 Atom C35      Shell   101 SP   1    bf  269 -   272         -2.371519615034         -1.570725735174         -6.844921665563
      0.1687144782D+00  0.1000000000D+01  0.1000000000D+01
 Atom C35      Shell   102 D   1     bf  273 -   278         -2.371519615034         -1.570725735174         -6.844921665563
      0.8000000000D+00  0.1000000000D+01
 Atom H36      Shell   103 S   3     bf  279 -   279         -0.605196699331         -2.637659610698         -7.078626005041
      0.1873113696D+02  0.3349460434D-01
      0.2825394365D+01  0.2347269535D+00
      0.6401216923D+00  0.8137573261D+00
 Atom H36      Shell   104 S   1     bf  280 -   280         -0.605196699331         -2.637659610698         -7.078626005041
      0.1612777588D+00  0.1000000000D+01
 Atom H37      Shell   105 S   3     bf  281 -   281         -2.133108893725          0.196510900908         -7.896247102429
      0.1873113696D+02  0.3349460434D-01
      0.2825394365D+01  0.2347269535D+00
      0.6401216923D+00  0.8137573261D+00
 Atom H37      Shell   106 S   1     bf  282 -   282         -2.133108893725          0.196510900908         -7.896247102429
      0.1612777588D+00  0.1000000000D+01
 Atom C38      Shell   107 S   6     bf  283 -   283         -2.279129184746         -4.191123850382         -0.474720350616
      0.3047524880D+04  0.1834737132D-02
      0.4573695180D+03  0.1403732281D-01
      0.1039486850D+03  0.6884262226D-01
      0.2921015530D+02  0.2321844432D+00
      0.9286662960D+01  0.4679413484D+00
      0.3163926960D+01  0.3623119853D+00
 Atom C38      Shell   108 SP   3    bf  284 -   287         -2.279129184746         -4.191123850382         -0.474720350616
      0.7868272350D+01 -0.1193324198D+00  0.6899906659D-01
      0.1881288540D+01 -0.1608541517D+00  0.3164239610D+00
      0.5442492580D+00  0.1143456438D+01  0.7443082909D+00
 Atom C38      Shell   109 SP   1    bf  288 -   291         -2.279129184746         -4.191123850382         -0.474720350616
      0.1687144782D+00  0.1000000000D+01  0.1000000000D+01
 Atom C38      Shell   110 D   1     bf  292 -   297         -2.279129184746         -4.191123850382         -0.474720350616
      0.8000000000D+00  0.1000000000D+01
 Atom H39      Shell   111 S   3     bf  298 -   298         -2.846256236192         -5.991716061333          0.352247710170
      0.1873113696D+02  0.3349460434D-01
      0.2825394365D+01  0.2347269535D+00
      0.6401216923D+00  0.8137573261D+00
 Atom H39      Shell   112 S   1     bf  299 -   299         -2.846256236192         -5.991716061333          0.352247710170
      0.1612777588D+00  0.1000000000D+01
 Atom C40      Shell   113 S   6     bf  300 -   300         -4.899877107158          0.950929238507         -3.632047088954
      0.3047524880D+04  0.1834737132D-02
      0.4573695180D+03  0.1403732281D-01
      0.1039486850D+03  0.6884262226D-01
      0.2921015530D+02  0.2321844432D+00
      0.9286662960D+01  0.4679413484D+00
      0.3163926960D+01  0.3623119853D+00
 Atom C40      Shell   114 SP   3    bf  301 -   304         -4.899877107158          0.950929238507         -3.632047088954
      0.7868272350D+01 -0.1193324198D+00  0.6899906659D-01
      0.1881288540D+01 -0.1608541517D+00  0.3164239610D+00
      0.5442492580D+00  0.1143456438D+01  0.7443082909D+00
[...]
 **** Fit      -0.002126
 **** Fit      -0.001461
 **** Fit      -0.000946
 **** Fit      -0.000570
 **** Fit      -0.000411
 **** Fit      -0.000534
 **** Fit      -0.000663
 **** Fit      -0.000790
 **** Fit      -0.000910
 **** Fit      -0.001062
 **** Fit      -0.001384
 **** Fit      -0.002038
 **** Fit      -0.002981
 **** Fit      -0.003893
 **** Fit      -0.004447
 **** Fit      -0.004541
 **** Fit      -0.004236
 **** Fit      -0.003652
 **** Fit      -0.002933
 **** Fit      -0.002210
 **** Fit      -0.001575
 **** Fit      -0.001067
 **** Fit      -0.000684
 **** Fit      -0.000698
 **** Fit      -0.000893
 **** Fit      -0.001134
 **** Fit      -0.001437
 **** Fit      -0.001815
 **** Fit      -0.002272
 **** Fit      -0.002811
 **** Fit      -0.003405
 **** Fit      -0.003959
 **** Fit      -0.004344
 **** Fit      -0.004475
 **** Fit      -0.004347
 **** Fit      -0.003992
 **** Fit      -0.003460
 **** Fit      -0.002829
 **** Fit      -0.002190
 **** Fit      -0.001613
 **** Fit      -0.001136
 **** Fit      -0.001068
 **** Fit      -0.001342
 **** Fit      -0.001688
 **** Fit      -0.002114
 **** Fit      -0.002604
 **** Fit      -0.003113
 **** Fit      -0.003568
 **** Fit      -0.003897
 **** Fit      -0.004055
 **** Fit      -0.004038
 **** Fit      -0.003864
 **** Fit      -0.003546
 **** Fit      -0.003107
 **** Fit      -0.002590
 **** Fit      -0.002058
 **** Fit      -0.001563
 **** Fit      -0.001327
 **** Fit      -0.001630
 **** Fit      -0.001986
 **** Fit      -0.002373
 **** Fit      -0.002746
 **** Fit      -0.003048
 **** Fit      -0.003243
 **** Fit      -0.003322
 **** Fit      -0.003297
 **** Fit      -0.003173
 **** Fit      -0.002949
 **** Fit      -0.002630
 **** Fit      -0.002244
 **** Fit      -0.001831
 **** Fit      -0.001388
 **** Fit      -0.001635
 **** Fit      -0.001886
 **** Fit      -0.002111
 **** Fit      -0.002284
 **** Fit      -0.002394
 **** Fit      -0.002449
 **** Fit      -0.002457
 **** Fit      -0.002409
 **** Fit      -0.002291
 **** Fit      -0.002096
 **** Fit      -0.001838
 **** Fit      -0.001215
 **** Fit      -0.001350
 **** Fit      -0.001461
 **** Fit      -0.001542
 **** Fit      -0.001600
 **** Fit      -0.001647
 **** Fit      -0.001685
 **** Fit      -0.001700
 **** Fit      -0.001668
 **** Fit      -0.001576
 **** Fit      -0.001426
 **** Fit      -0.000818
 **** Fit      -0.000874
 **** Fit      -0.000914
 **** Fit      -0.000941
 **** Fit      -0.000970
 **** Fit      -0.001012
 **** Fit      -0.001066
 **** Fit      -0.001117
 **** Fit      -0.001141
 **** Fit      -0.001120
 **** Fit      -0.000498
 **** Fit      -0.000500
 **** Fit      -0.000502
 **** Fit      -0.000517
 **** Fit      -0.000555
 **** Fit      -0.000613
 **** Fit      -0.000679
 **** Fit      -0.000730
 **** Fit      -0.000201
 **** Fit      -0.000211
 **** Fit      -0.000245
 **** Fit      -0.000301
 **** Fit      -0.000367
 **** Fit       0.001145
 **** Fit       0.000898
 **** Fit       0.000587
 **** Fit       0.000246
 **** Fit      -0.000079
 **** Fit       0.001558
 **** Fit       0.001498
 **** Fit       0.001344
 **** Fit       0.001080
 **** Fit       0.000714
 **** Fit       0.000287
 **** Fit      -0.000134
 **** Fit      -0.000479
 **** Fit      -0.000703
 **** Fit       0.001666
 **** Fit       0.001734
 **** Fit       0.001735
 **** Fit       0.001625
 **** Fit       0.001361
 **** Fit       0.000933
 **** Fit       0.000389
 **** Fit      -0.000171
 **** Fit      -0.000638
 **** Fit      -0.000935
 **** Fit      -0.001045
 **** Fit       0.001606
 **** Fit       0.001765
 **** Fit       0.001917
 **** Fit       0.002020
 **** Fit       0.001999
 **** Fit       0.001769
 **** Fit       0.001280
 **** Fit       0.000580
 **** Fit      -0.000180
 **** Fit      -0.000818
 **** Fit      -0.001216
 **** Fit      -0.001352
 **** Fit      -0.001277
 **** Fit       0.001588
 **** Fit       0.001812
 **** Fit       0.002067
 **** Fit       0.002309
 **** Fit       0.002434
 **** Fit       0.002288
 **** Fit       0.001750
 **** Fit       0.000857
 **** Fit      -0.000163
 **** Fit      -0.001024
 **** Fit      -0.001546
 **** Fit      -0.001707
 **** Fit      -0.001594
 **** Fit      -0.001322
 **** Fit      -0.000994
 **** Fit       0.001278
 **** Fit       0.001481
 **** Fit       0.001756
 **** Fit       0.002108
 **** Fit       0.002499
 **** Fit       0.002801
 **** Fit       0.002782
 **** Fit       0.002222
 **** Fit       0.001127
 **** Fit      -0.000181
 **** Fit      -0.001280
 **** Fit      -0.001921
 **** Fit      -0.002096
 **** Fit      -0.001932
 **** Fit      -0.001588
 **** Fit      -0.001189
 **** Fit      -0.000816
 **** Fit       0.001067
 **** Fit       0.001262
 **** Fit       0.001548
 **** Fit       0.001944
 **** Fit       0.002427
 **** Fit       0.002861
 **** Fit       0.002953
 **** Fit       0.002390
 **** Fit       0.001148
 **** Fit      -0.000371
 **** Fit      -0.001630
 **** Fit      -0.002332
 **** Fit      -0.002487
 **** Fit      -0.002263
 **** Fit      -0.001847
 **** Fit      -0.001384
 **** Fit      -0.000960
 **** Fit       0.000777
 **** Fit       0.000928
 **** Fit       0.001165
 **** Fit       0.001515
 **** Fit       0.001964
 **** Fit       0.002383
 **** Fit       0.002476
 **** Fit       0.001908
 **** Fit       0.000648
 **** Fit      -0.000878
 **** Fit      -0.002108
 **** Fit      -0.002752
 **** Fit      -0.002839
 **** Fit      -0.002550
 **** Fit      -0.002077
 **** Fit      -0.001566
 **** Fit      -0.001103
 **** Fit      -0.000725
 **** Fit       0.000435
 **** Fit       0.000511
 **** Fit       0.000645
 **** Fit       0.000857
 **** Fit       0.001132
 **** Fit       0.001363
 **** Fit       0.001315
 **** Fit       0.000730
 **** Fit      -0.000391
 **** Fit      -0.001675
 **** Fit      -0.002661
 **** Fit      -0.003126
 **** Fit      -0.003106
 **** Fit      -0.002760
 **** Fit      -0.002254
 **** Fit      -0.001719
 **** Fit      -0.001235
 **** Fit      -0.000837
 **** Fit       0.000084
 **** Fit       0.000071
 **** Fit       0.000079
 **** Fit       0.000110
 **** Fit       0.000143
 **** Fit       0.000106
 **** Fit      -0.000142
 **** Fit      -0.000729
 **** Fit      -0.001608
 **** Fit      -0.002513
 **** Fit      -0.003148
 **** Fit      -0.003382
 **** Fit      -0.003249
 **** Fit      -0.002866
 **** Fit      -0.002356
 **** Fit      -0.001824
 **** Fit      -0.001340
 **** Fit      -0.000936
 **** Fit      -0.000319
 **** Fit      -0.000424
 **** Fit      -0.000553
 **** Fit      -0.000726
 **** Fit      -0.000981
 **** Fit      -0.001371
 **** Fit      -0.001918
 **** Fit      -0.002546
 **** Fit      -0.003096
 **** Fit      -0.003418
 **** Fit      -0.003456
 **** Fit      -0.003244
 **** Fit      -0.002853
 **** Fit      -0.002368
 **** Fit      -0.001864
 **** Fit      -0.001401
 **** Fit      -0.000607
 **** Fit      -0.000784
 **** Fit      -0.001008
 **** Fit      -0.001294
 **** Fit      -0.001652
 **** Fit      -0.002078
 **** Fit      -0.002542
 **** Fit      -0.002970
 **** Fit      -0.003275
 **** Fit      -0.003397
 **** Fit      -0.003324
 **** Fit      -0.003083
 **** Fit      -0.002717
 **** Fit      -0.002281
 **** Fit      -0.001829
 **** Fit      -0.000972
 **** Fit      -0.001223
 **** Fit      -0.001529
 **** Fit      -0.001883
 **** Fit      -0.002263
 **** Fit      -0.002623
 **** Fit      -0.002910
 **** Fit      -0.003078
 **** Fit      -0.003108
 **** Fit      -0.003003
 **** Fit      -0.002781
 **** Fit      -0.002469
 **** Fit      -0.002102
 **** Fit      -0.001232
 **** Fit      -0.001498
 **** Fit      -0.001789
 **** Fit      -0.002081
 **** Fit      -0.002338
 **** Fit      -0.002528
 **** Fit      -0.002628
 **** Fit      -0.002633
 **** Fit      -0.002546
 **** Fit      -0.002375
 **** Fit      -0.002136
 **** Fit      -0.001301
 **** Fit      -0.001510
 **** Fit      -0.001710
 **** Fit      -0.001879
 **** Fit      -0.002002
 **** Fit      -0.002069
 **** Fit      -0.002079
 **** Fit      -0.002030
 **** Fit      -0.001921
 **** Fit      -0.001757
 **** Fit      -0.001164
 **** Fit      -0.001287
 **** Fit      -0.001389
 **** Fit      -0.001467
 **** Fit      -0.001518
 **** Fit      -0.001539
 **** Fit      -0.001526
 **** Fit      -0.001473
 **** Fit      -0.000895
 **** Fit      -0.000952
 **** Fit      -0.001001
 **** Fit      -0.001042
 **** Fit      -0.001072
 **** Fit      -0.001086
 **** Fit      -0.000631
 **** Fit      -0.000666
 **** Fit      -0.000701
 **** Fit       0.001075
 **** Fit       0.000866
 **** Fit       0.000590
 **** Fit       0.000275
 **** Fit      -0.000037
 **** Fit      -0.000301
 **** Fit       0.001375
 **** Fit       0.001343
 **** Fit       0.001229
 **** Fit       0.001011
 **** Fit       0.000693
 **** Fit       0.000306
 **** Fit      -0.000088
 **** Fit      -0.000424
 **** Fit      -0.000655
 **** Fit       0.001398
 **** Fit       0.001467
 **** Fit       0.001482
 **** Fit       0.001402
 **** Fit       0.001186
 **** Fit       0.000823
 **** Fit       0.000351
 **** Fit      -0.000146
 **** Fit      -0.000573
 **** Fit      -0.000859
 **** Fit      -0.000985
 **** Fit       0.001398
 **** Fit       0.001516
 **** Fit       0.001588
 **** Fit       0.001555
 **** Fit       0.001353
 **** Fit       0.000950
 **** Fit       0.000384
 **** Fit      -0.000230
 **** Fit      -0.000756
 **** Fit      -0.001101
 **** Fit      -0.001240
 **** Fit      -0.001205
 **** Fit       0.001173
 **** Fit       0.001321
 **** Fit       0.001476
 **** Fit       0.001599
 **** Fit       0.001616
 **** Fit       0.001435
 **** Fit       0.000998
 **** Fit       0.000345
 **** Fit      -0.000377
 **** Fit      -0.000992
 **** Fit      -0.001380
 **** Fit      -0.001519
 **** Fit      -0.001455
 **** Fit       0.000994
 **** Fit       0.001140
 **** Fit       0.001304
 **** Fit       0.001447
 **** Fit       0.001488
 **** Fit       0.001317
 **** Fit       0.000859
 **** Fit       0.000152
 **** Fit      -0.000635
 **** Fit      -0.001291
 **** Fit      -0.001688
 **** Fit      -0.001805
 **** Fit      -0.001701
 **** Fit      -0.001462
 **** Fit       0.000739
 **** Fit       0.000851
 **** Fit       0.000981
 **** Fit       0.001092
 **** Fit       0.001107
 **** Fit       0.000918
 **** Fit       0.000449
 **** Fit      -0.000257
 **** Fit      -0.001027
 **** Fit      -0.001650
 **** Fit      -0.002001
 **** Fit      -0.002069
 **** Fit      -0.001921
 **** Fit      -0.001642
 **** Fit       0.000429
 **** Fit       0.000480
 **** Fit       0.000536
 **** Fit       0.000564
 **** Fit       0.000502
 **** Fit       0.000265
 **** Fit      -0.000199
 **** Fit      -0.000843
 **** Fit      -0.001509
 **** Fit      -0.002021
 **** Fit      -0.002279
 **** Fit      -0.002281
 **** Fit      -0.002089
 **** Fit      -0.001781
 **** Fit       0.000106
 **** Fit       0.000083
 **** Fit       0.000046
 **** Fit      -0.000030
 **** Fit      -0.000189
 **** Fit      -0.000480
 **** Fit      -0.000921
 **** Fit      -0.001458
 **** Fit      -0.001970
 **** Fit      -0.002330
 **** Fit      -0.002475
 **** Fit      -0.002409
 **** Fit      -0.002184
 **** Fit      -0.001863
 **** Fit      -0.000187
 **** Fit      -0.000277
 **** Fit      -0.000395
 **** Fit      -0.000560
 **** Fit      -0.000795
 **** Fit      -0.001116
 **** Fit      -0.001513
 **** Fit      -0.001931
 **** Fit      -0.002286
 **** Fit      -0.002503
 **** Fit      -0.002548
 **** Fit      -0.002432
 **** Fit      -0.002192
 **** Fit      -0.000547
 **** Fit      -0.000717
 **** Fit      -0.000932
 **** Fit      -0.001198
 **** Fit      -0.001512
 **** Fit      -0.001847
 **** Fit      -0.002158
 **** Fit      -0.002390
 **** Fit      -0.002503
 **** Fit      -0.002484
 **** Fit      -0.002344
 **** Fit      -0.000890
 **** Fit      -0.001113
 **** Fit      -0.001369
 **** Fit      -0.001644
 **** Fit      -0.001911
 **** Fit      -0.002136
 **** Fit      -0.002284
 **** Fit      -0.002338
 **** Fit      -0.002291
 **** Fit      -0.001127
 **** Fit      -0.001343
 **** Fit      -0.001563
 **** Fit      -0.001765
 **** Fit      -0.001924
 **** Fit      -0.002022
 **** Fit      -0.002048
 **** Fit      -0.002002
 **** Fit      -0.001495
 **** Fit      -0.001606
 **** Fit      -0.001674
 **** Fit      -0.001693
 **** Fit      -0.001256
 **** Fit      -0.001306
 **** Fit       0.000929
 **** Fit       0.000753
 **** Fit       0.000515
 **** Fit       0.000238
 **** Fit      -0.000043
 **** Fit       0.001092
 **** Fit       0.000994
 **** Fit       0.000812
 **** Fit       0.000544
 **** Fit       0.000219
 **** Fit      -0.000117
 **** Fit      -0.000408
 **** Fit      -0.000616
 **** Fit       0.001115
 **** Fit       0.001108
 **** Fit       0.001025
 **** Fit       0.000838
 **** Fit       0.000543
 **** Fit       0.000170
 **** Fit      -0.000222
 **** Fit      -0.000561
 **** Fit      -0.000797
 **** Fit       0.000993
 **** Fit       0.001045
 **** Fit       0.001054
 **** Fit       0.000982
 **** Fit       0.000792
 **** Fit       0.000474
 **** Fit       0.000060
 **** Fit      -0.000376
 **** Fit      -0.000751
 **** Fit      -0.001004
 **** Fit      -0.001113
 **** Fit       0.000841
 **** Fit       0.000891
 **** Fit       0.000900
 **** Fit       0.000827
 **** Fit       0.000631
 **** Fit       0.000298
 **** Fit      -0.000138
 **** Fit      -0.000596
 **** Fit      -0.000981
 **** Fit      -0.001229
 **** Fit      -0.001323
 **** Fit       0.000622
 **** Fit       0.000649
 **** Fit       0.000636
 **** Fit       0.000545
 **** Fit       0.000336
 **** Fit      -0.000003
 **** Fit      -0.000435
 **** Fit      -0.000877
 **** Fit      -0.001239
 **** Fit      -0.001457
 **** Fit      -0.001519
 **** Fit       0.000354
 **** Fit       0.000341
 **** Fit       0.000287
 **** Fit       0.000161
 **** Fit      -0.000065
 **** Fit      -0.000397
 **** Fit      -0.000797
 **** Fit      -0.001189
 **** Fit      -0.001494
 **** Fit      -0.001661
 **** Fit      -0.001682
 **** Fit       0.000072
 **** Fit       0.000010
 **** Fit      -0.000092
 **** Fit      -0.000255
 **** Fit      -0.000495
 **** Fit      -0.000807
 **** Fit      -0.001154
 **** Fit      -0.001473
 **** Fit      -0.001704
 **** Fit      -0.001810
 **** Fit      -0.001789
 **** Fit      -0.000290
 **** Fit      -0.000432
 **** Fit      -0.000623
 **** Fit      -0.000865
 **** Fit      -0.001146
 **** Fit      -0.001430
 **** Fit      -0.001672
 **** Fit      -0.001829
 **** Fit      -0.001880
 **** Fit      -0.001824
 **** Fit      -0.000683
 **** Fit      -0.000882
 **** Fit      -0.001111
 **** Fit      -0.001351
 **** Fit      -0.001575
 **** Fit      -0.001749
 **** Fit      -0.001847
 **** Fit      -0.001857
 **** Fit      -0.001009
 **** Fit      -0.001210
 **** Fit      -0.001407
 **** Fit      -0.001578
 **** Fit      -0.001701
 **** Fit      -0.001759
 **** Fit       0.000371
 **** Fit       0.000696
 **** Fit       0.000540
 **** Fit       0.000324
 **** Fit       0.000069
 **** Fit      -0.000192
 **** Fit       0.000715
 **** Fit       0.000622
 **** Fit       0.000460
 **** Fit       0.000230
 **** Fit      -0.000046
 **** Fit      -0.000327
 **** Fit      -0.000570
 **** Fit       0.000580
 **** Fit       0.000482
 **** Fit       0.000313
 **** Fit       0.000074
 **** Fit      -0.000211
 **** Fit      -0.000499
 **** Fit      -0.000743
 **** Fit      -0.000909
 **** Fit       0.000385
 **** Fit       0.000275
 **** Fit       0.000099
 **** Fit      -0.000142
 **** Fit      -0.000423
 **** Fit      -0.000701
 **** Fit      -0.000930
 **** Fit      -0.001076
 **** Fit       0.000144
 **** Fit       0.000019
 **** Fit      -0.000164
 **** Fit      -0.000399
 **** Fit      -0.000661
 **** Fit      -0.000912
 **** Fit      -0.001110
 **** Fit      -0.001226
 **** Fit      -0.000108
 **** Fit      -0.000249
 **** Fit      -0.000434
 **** Fit      -0.000655
 **** Fit      -0.000889
 **** Fit      -0.001101
 **** Fit      -0.001258
 **** Fit      -0.000486
 **** Fit      -0.000667
 **** Fit      -0.000868
 **** Fit      -0.001066
 **** Fit      -0.001236
 **** Fit      -0.000829
 **** Fit      -0.001004
 **** Fit      -0.001167
 -----------------------------------------------------------------
 Leave Link  602 at Mon Mar 20 12:54:24 2017, MaxMem=    33554432 cpu:        36.0
 (Enter /home/michal/g09/l9999.exe)

 Test job not archived.
 1\1\GINC-LINUX\SP\RHF\6-31G(d)\C27H46O1\MICHAL\20-Mar-2017\0\\#P HF/6-
 31G* SCF(Conver=6) NoSymm Test Pop=chelpg IOp(6/33=2) GFInput GFPrint\
 \MEP - Input generated by R.E.D.-III.x MOLECULE\\0,1\O,0,-3.72885492,-
 3.61357408,-4.12561652\H,0,-3.8792427,-4.45477655,-3.67426802\C,0,1.60
 042266,2.06309454,0.\C,0,1.32679026,0.60788187,0.47331988\H,0,2.117240
 24,0.,0.\C,0,0.,0.,0.\H,0,-0.8339526,0.57885466,0.42178177\C,0,-0.0781
 1024,0.04886299,-1.54855761\H,0,0.70075424,-0.64605611,-1.90405758\C,0
 ,2.98428948,2.31495122,0.69332801\H,0,3.71459948,1.72239088,0.12258784
 \C,0,1.59949942,2.02733026,-1.54202145\H,0,2.44555031,1.41130479,-1.87
 980218\H,0,1.74951561,3.0234968,-1.97068134\C,0,-1.43369243,-0.5127795
 5,-2.10487069\C,0,1.64066493,0.62884144,1.97748087\H,0,1.90983797,-0.3
 6016998,2.36155693\H,0,0.76746415,0.96308511,2.55150369\C,0,0.28472764
 ,1.44640871,-2.10267783\H,0,-0.52573255,2.15202112,-1.89127388\H,0,0.3
 6501428,1.40032384,-3.1946493\C,0,2.80995683,1.64576636,2.09711275\H,0
 ,2.58664452,2.40521538,2.85571283\H,0,3.73591082,1.15716297,2.41619512
 \C,0,-0.14324439,-1.45189781,0.48430953\H,0,-0.35868128,-1.47089467,1.
 56095607\H,0,0.82182557,-1.97357458,0.37162348\C,0,3.53786047,3.758274
 13,0.79109416\H,0,2.81498122,4.34633375,1.37535796\C,0,0.54630894,3.06
 572596,0.52254768\H,0,0.73942309,4.06903459,0.12805037\H,0,-0.46937189
 ,2.79332078,0.22556013\H,0,0.5544285,3.13841052,1.61438255\C,0,-1.8023
 6581,-1.81710827,-1.38372309\C,0,-1.25495413,-0.83119226,-3.62217654\H
 ,0,-0.3202563,-1.39578935,-3.74584755\H,0,-1.12879261,0.10398909,-4.17
 8514\C,0,-1.20606322,-2.21784722,-0.25121119\H,0,-1.50617393,-3.170679
 58,0.18640146\C,0,-2.59290329,0.50321008,-1.92199654\H,0,-2.46234292,1
 .37922323,-2.56509011\H,0,-3.55886057,0.05987093,-2.17618233\H,0,-2.65
 832991,0.84552853,-0.88457971\C,0,-2.8940958,-2.65870858,-2.0181066\H,
 0,-2.99878963,-3.60028332,-1.46370894\H,0,-3.86532312,-2.1473673,-1.95
 878255\C,0,-2.39910353,-1.63748638,-4.25375062\H,0,-3.33632086,-1.0671
 0121,-4.24901686\H,0,-2.16942375,-1.85469024,-5.30310098\C,0,4.8670932
 4,3.82472375,1.592194\H,0,5.14062393,4.88558158,1.68939413\H,0,4.68697
 351,3.46986554,2.61320439\C,0,-2.6259546,-2.94318888,-3.5030406\H,0,-1
 .72112982,-3.56729934,-3.58989276\C,0,3.69543441,4.45702276,-0.5726136
 \H,0,4.2628106,3.84707827,-1.28421939\H,0,4.22544635,5.40974476,-0.455
 47587\H,0,2.72849094,4.67879934,-1.03100122\C,0,6.06538395,3.06964998,
 0.99184632\H,0,5.86320171,1.9914554,0.97748947\H,0,6.19262916,3.363423
 83,-0.05755833\C,0,7.39987439,3.33815086,1.71372135\H,0,7.60645814,4.4
 1735093,1.66940301\H,0,8.20918715,2.85200981,1.14875141\C,0,7.5033022,
 2.88319413,3.18520038\H,0,6.69549914,3.36537145,3.75401034\C,0,8.83569
 282,3.35158311,3.79214194\H,0,8.94352408,4.44039999,3.72713073\H,0,8.9
 136352,3.06915108,4.84828149\H,0,9.68591313,2.90082618,3.26403831\C,0,
 7.34749715,1.36204402,3.34052845\H,0,6.3754194,1.00740299,2.9830504\H,
 0,7.44029089,1.0639766,4.39110274\H,0,8.12472027,0.8317425,2.77480183\
 \Version=EM64L-G09RevD.01\HF=-1124.0783056\RMSD=4.587e-07\Dipole=0.362
 4065,-0.0809109,0.5267195\Quadrupole=-3.1187547,7.6879795,-4.5692249,-
 0.7715906,-6.6898448,-3.0038971\PG=C01 [X(C27H46O1)]\\@


 DIATOMIC MOLECULES ARE PECULIAR BECAUSE THEY ONLY HAVE TWO ENDS,
 AND THESE ENDS ARE VERY CLOSE TOGETHER.
 KLAUS RUEDENBERG, REV.MOD.PHYS. PG 176, 32, (1960)
 Job cpu time:       0 days  0 hours 11 minutes 10.7 seconds.
 File lengths (MBytes):  RWF=    142 Int=      0 D2E=      0 Chk=     10 Scr=      1
 Normal termination of Gaussian 09 at Mon Mar 20 12:54:24 2017.
