 Entering Gaussian System, Link 0=/home/michal/g09/g09
 Input=JOB2-gau_m1-25-1.com
 Output=JOB2-gau_m1-25-1.log
 Initial command:
 /home/michal/g09/l1.exe "/home/michal/gauss_scratch/Gau-26845.inp" -scrdir="/home/michal/gauss_scratch/"
 Entering Link 1 = /home/michal/g09/l1.exe PID=     26846.
  
 Copyright (c) 1988,1990,1992,1993,1995,1998,2003,2009,2013,
            Gaussian, Inc.  All Rights Reserved.
  
 This is part of the Gaussian(R) 09 program.  It is based on
 the Gaussian(R) 03 system (copyright 2003, Gaussian, Inc.),
 the Gaussian(R) 98 system (copyright 1998, Gaussian, Inc.),
 the Gaussian(R) 94 system (copyright 1995, Gaussian, Inc.),
 the Gaussian 92(TM) system (copyright 1992, Gaussian, Inc.),
 the Gaussian 90(TM) system (copyright 1990, Gaussian, Inc.),
 the Gaussian 88(TM) system (copyright 1988, Gaussian, Inc.),
 the Gaussian 86(TM) system (copyright 1986, Carnegie Mellon
 University), and the Gaussian 82(TM) system (copyright 1983,
 Carnegie Mellon University). Gaussian is a federally registered
 trademark of Gaussian, Inc.
  
 This software contains proprietary and confidential information,
 including trade secrets, belonging to Gaussian, Inc.
  
 This software is provided under written license and may be
 used, copied, transmitted, or stored only in accord with that
 written license.
  
 The following legend is applicable only to US Government
 contracts under FAR:
  
                    RESTRICTED RIGHTS LEGEND
  
 Use, reproduction and disclosure by the US Government is
 subject to restrictions as set forth in subparagraphs (a)
 and (c) of the Commercial Computer Software - Restricted
 Rights clause in FAR 52.227-19.
  
 Gaussian, Inc.
 340 Quinnipiac St., Bldg. 40, Wallingford CT 06492
  
  
 ---------------------------------------------------------------
 Warning -- This program may not be used in any manner that
 competes with the business of Gaussian, Inc. or will provide
 assistance to any competitor of Gaussian, Inc.  The licensee
 of this program is prohibited from giving any competitor of
 Gaussian, Inc. access to this program.  By using this program,
 the user acknowledges that Gaussian, Inc. is engaged in the
 business of creating and licensing software in the field of
 computational chemistry and represents and warrants to the
 licensee that it is not a competitor of Gaussian, Inc. and that
 it will not use this program in any manner prohibited above.
 ---------------------------------------------------------------
  

 Cite this work as:
 Gaussian 09, Revision D.01,
 M. J. Frisch, G. W. Trucks, H. B. Schlegel, G. E. Scuseria, 
 M. A. Robb, J. R. Cheeseman, G. Scalmani, V. Barone, B. Mennucci, 
 G. A. Petersson, H. Nakatsuji, M. Caricato, X. Li, H. P. Hratchian, 
 A. F. Izmaylov, J. Bloino, G. Zheng, J. L. Sonnenberg, M. Hada, 
 M. Ehara, K. Toyota, R. Fukuda, J. Hasegawa, M. Ishida, T. Nakajima, 
 Y. Honda, O. Kitao, H. Nakai, T. Vreven, J. A. Montgomery, Jr., 
 J. E. Peralta, F. Ogliaro, M. Bearpark, J. J. Heyd, E. Brothers, 
 K. N. Kudin, V. N. Staroverov, T. Keith, R. Kobayashi, J. Normand, 
 K. Raghavachari, A. Rendell, J. C. Burant, S. S. Iyengar, J. Tomasi, 
 M. Cossi, N. Rega, J. M. Millam, M. Klene, J. E. Knox, J. B. Cross, 
 V. Bakken, C. Adamo, J. Jaramillo, R. Gomperts, R. E. Stratmann, 
 O. Yazyev, A. J. Austin, R. Cammi, C. Pomelli, J. W. Ochterski, 
 R. L. Martin, K. Morokuma, V. G. Zakrzewski, G. A. Voth, 
 P. Salvador, J. J. Dannenberg, S. Dapprich, A. D. Daniels, 
 O. Farkas, J. B. Foresman, J. V. Ortiz, J. Cioslowski, 
 and D. J. Fox, Gaussian, Inc., Wallingford CT, 2013.
 
 ******************************************
 Gaussian 09:  EM64L-G09RevD.01 24-Apr-2013
                20-Mar-2017 
 ******************************************
 %Mem=256MB
 %NProc=12
 Will use up to   12 processors via shared memory.
 ----------------------------------------------------------------------
 #P HF/6-31G* SCF(Conver=6) NoSymm Test Pop=chelpg IOp(6/33=2) GFInput 
 GFPrint
 ----------------------------------------------------------------------
 1/38=1/1;
 2/12=2,15=1,17=6,18=5,40=1/2;
 3/5=1,6=6,7=1,11=9,16=1,24=110,25=1,30=1/1,2,3;
 4//1;
 5/5=2,6=6,38=5/2;
 6/7=2,8=2,9=2,10=2,15=8,20=3,28=1,33=2/1,2;
 99/5=1,9=1/99;
 Leave Link    1 at Mon Mar 20 13:10:09 2017, MaxMem=    33554432 cpu:         0.6
 (Enter /home/michal/g09/l101.exe)
 ----------------------------------------------
 MEP - Input generated by R.E.D.-III.x MOLECULE
 ----------------------------------------------
 Symbolic Z-matrix:
 Charge =  0 Multiplicity = 1
 O                     5.00576  -0.24152  -7.2506 
 H                     5.95676  -0.33022  -7.10335 
 C                     0.        0.        0. 
 C                     1.55485   0.        0. 
 H                     1.84149   1.06601   0. 
 C                     2.21443  -0.60595  -1.24576 
 H                     1.94679  -1.6699   -1.31471 
 C                     1.71366   0.12813  -2.51694 
 H                     2.1194    1.15093  -2.44499 
 C                    -0.27286   0.64799   1.40282 
 H                    -0.04073   1.7194    1.2927 
 C                    -0.4327    0.81889  -1.23423 
 H                    -0.10708   1.86013  -1.09586 
 H                    -1.52142   0.84648  -1.34343 
 C                     2.30965  -0.47278  -3.8384 
 C                     1.93598  -0.54971   1.38222 
 H                     2.93734  -0.23789   1.69553 
 H                     1.93433  -1.64679   1.37685 
 C                     0.17327   0.25949  -2.53828 
 H                    -0.28011  -0.71649  -2.74178 
 H                    -0.13009   0.90968  -3.36668 
 C                     0.82784   0.00751   2.31704 
 H                     0.39596  -0.79233   2.93052 
 H                     1.23429   0.74527   3.01528 
 C                     3.74629  -0.51138  -1.15784 
 H                     4.12823  -1.2399   -0.43031 
 H                     4.03092   0.47599  -0.75749 
 C                    -1.68905   0.5614    2.02937 
 H                    -1.91291  -0.5016    2.20803 
 C                    -0.5913   -1.42754  -0.05446 
 H                    -1.68452  -1.39165  -0.1053 
 H                    -0.24656  -1.98737  -0.92732 
 H                    -0.32685  -2.0146    0.83034 
 C                     3.81448  -0.72741  -3.67274 
 C                     2.1168    0.56497  -4.98796 
 H                     2.44329   1.5478   -4.62035 
 H                     1.0502    0.6586   -5.21942 
 C                     4.4279   -0.72218  -2.48006 
 H                     5.50572  -0.88569  -2.4481 
 C                     1.61711  -1.80748  -4.22388 
 H                     0.57827  -1.64592  -4.52848 
 H                     2.12399  -2.29597  -5.05977 
 H                     1.62374  -2.51224  -3.38661 
 C                     4.60273  -0.99004  -4.94247 
 H                     5.67094  -1.0643   -4.70107 
 H                     4.31243  -1.95093  -5.39044 
 C                     2.88237   0.24868  -6.28105 
 H                     2.51437  -0.67536  -6.74415 
 H                     2.72778   1.04944  -7.01314 
 C                    -1.70766   1.2677    3.40829 
 H                    -0.86063   0.91305   4.00731 
 H                    -1.53869   2.34271   3.2494 
 C                     4.37255   0.09066  -6.00877 
 H                     4.77199   1.04935  -5.63847 
 C                    -2.7924    1.1319    1.12109 
 H                    -2.57831   2.17387   0.85119 
 H                    -3.7657    1.11182   1.62021 
 H                    -2.89891   0.56366   0.19464 
 C                    -2.98619   1.05271   4.23637 
 H                    -3.84367   1.53605   3.75445 
 H                    -3.21723  -0.022     4.25119 
 C                    -2.8791    1.53469   5.69508 
 H                    -2.06445   0.98307   6.18637 
 H                    -3.79992   1.25283   6.22713 
 C                    -2.64237   3.04486   5.91015 
 H                    -1.71365   3.3245    5.39238 
 C                    -2.44356   3.34288   7.40495 
 H                    -1.61006   2.76474   7.8203 
 H                    -2.23284   4.40494   7.5749 
 H                    -3.34421   3.08697   7.97788 
 C                    -3.77953   3.90479   5.33602 
 H                    -3.89205   3.77324   4.25496 
 H                    -3.59621   4.96944   5.52058 
 H                    -4.73789   3.64665   5.80532 
 
 NAtoms=     74 NQM=       74 NQMF=       0 NMMI=      0 NMMIF=      0
                NMic=       0 NMicF=      0.
                    Isotopes and Nuclear Properties:
 (Nuclear quadrupole moments (NQMom) in fm**2, nuclear magnetic moments (NMagM)
  in nuclear magnetons)

  Atom         1           2           3           4           5           6           7           8           9          10
 IAtWgt=          16           1          12          12           1          12           1          12           1          12
 AtmWgt=  15.9949146   1.0078250  12.0000000  12.0000000   1.0078250  12.0000000   1.0078250  12.0000000   1.0078250  12.0000000
 NucSpn=           0           1           0           0           1           0           1           0           1           0
 AtZEff=   0.0000000   0.0000000   0.0000000   0.0000000   0.0000000   0.0000000   0.0000000   0.0000000   0.0000000   0.0000000
 NQMom=    0.0000000   0.0000000   0.0000000   0.0000000   0.0000000   0.0000000   0.0000000   0.0000000   0.0000000   0.0000000
 NMagM=    0.0000000   2.7928460   0.0000000   0.0000000   2.7928460   0.0000000   2.7928460   0.0000000   2.7928460   0.0000000
 AtZNuc=   8.0000000   1.0000000   6.0000000   6.0000000   1.0000000   6.0000000   1.0000000   6.0000000   1.0000000   6.0000000

  Atom        11          12          13          14          15          16          17          18          19          20
 IAtWgt=           1          12           1           1          12          12           1           1          12           1
 AtmWgt=   1.0078250  12.0000000   1.0078250   1.0078250  12.0000000  12.0000000   1.0078250   1.0078250  12.0000000   1.0078250
 NucSpn=           1           0           1           1           0           0           1           1           0           1
 AtZEff=   0.0000000   0.0000000   0.0000000   0.0000000   0.0000000   0.0000000   0.0000000   0.0000000   0.0000000   0.0000000
 NQMom=    0.0000000   0.0000000   0.0000000   0.0000000   0.0000000   0.0000000   0.0000000   0.0000000   0.0000000   0.0000000
 NMagM=    2.7928460   0.0000000   2.7928460   2.7928460   0.0000000   0.0000000   2.7928460   2.7928460   0.0000000   2.7928460
 AtZNuc=   1.0000000   6.0000000   1.0000000   1.0000000   6.0000000   6.0000000   1.0000000   1.0000000   6.0000000   1.0000000

  Atom        21          22          23          24          25          26          27          28          29          30
 IAtWgt=           1          12           1           1          12           1           1          12           1          12
 AtmWgt=   1.0078250  12.0000000   1.0078250   1.0078250  12.0000000   1.0078250   1.0078250  12.0000000   1.0078250  12.0000000
 NucSpn=           1           0           1           1           0           1           1           0           1           0
 AtZEff=   0.0000000   0.0000000   0.0000000   0.0000000   0.0000000   0.0000000   0.0000000   0.0000000   0.0000000   0.0000000
 NQMom=    0.0000000   0.0000000   0.0000000   0.0000000   0.0000000   0.0000000   0.0000000   0.0000000   0.0000000   0.0000000
 NMagM=    2.7928460   0.0000000   2.7928460   2.7928460   0.0000000   2.7928460   2.7928460   0.0000000   2.7928460   0.0000000
 AtZNuc=   1.0000000   6.0000000   1.0000000   1.0000000   6.0000000   1.0000000   1.0000000   6.0000000   1.0000000   6.0000000

  Atom        31          32          33          34          35          36          37          38          39          40
 IAtWgt=           1           1           1          12          12           1           1          12           1          12
 AtmWgt=   1.0078250   1.0078250   1.0078250  12.0000000  12.0000000   1.0078250   1.0078250  12.0000000   1.0078250  12.0000000
 NucSpn=           1           1           1           0           0           1           1           0           1           0
 AtZEff=   0.0000000   0.0000000   0.0000000   0.0000000   0.0000000   0.0000000   0.0000000   0.0000000   0.0000000   0.0000000
 NQMom=    0.0000000   0.0000000   0.0000000   0.0000000   0.0000000   0.0000000   0.0000000   0.0000000   0.0000000   0.0000000
 NMagM=    2.7928460   2.7928460   2.7928460   0.0000000   0.0000000   2.7928460   2.7928460   0.0000000   2.7928460   0.0000000
 AtZNuc=   1.0000000   1.0000000   1.0000000   6.0000000   6.0000000   1.0000000   1.0000000   6.0000000   1.0000000   6.0000000

  Atom        41          42          43          44          45          46          47          48          49          50
 IAtWgt=           1           1           1          12           1           1          12           1           1          12
 AtmWgt=   1.0078250   1.0078250   1.0078250  12.0000000   1.0078250   1.0078250  12.0000000   1.0078250   1.0078250  12.0000000
 NucSpn=           1           1           1           0           1           1           0           1           1           0
 AtZEff=   0.0000000   0.0000000   0.0000000   0.0000000   0.0000000   0.0000000   0.0000000   0.0000000   0.0000000   0.0000000
 NQMom=    0.0000000   0.0000000   0.0000000   0.0000000   0.0000000   0.0000000   0.0000000   0.0000000   0.0000000   0.0000000
 NMagM=    2.7928460   2.7928460   2.7928460   0.0000000   2.7928460   2.7928460   0.0000000   2.7928460   2.7928460   0.0000000
 AtZNuc=   1.0000000   1.0000000   1.0000000   6.0000000   1.0000000   1.0000000   6.0000000   1.0000000   1.0000000   6.0000000

  Atom        51          52          53          54          55          56          57          58          59          60
 IAtWgt=           1           1          12           1          12           1           1           1          12           1
 AtmWgt=   1.0078250   1.0078250  12.0000000   1.0078250  12.0000000   1.0078250   1.0078250   1.0078250  12.0000000   1.0078250
 NucSpn=           1           1           0           1           0           1           1           1           0           1
 AtZEff=   0.0000000   0.0000000   0.0000000   0.0000000   0.0000000   0.0000000   0.0000000   0.0000000   0.0000000   0.0000000
 NQMom=    0.0000000   0.0000000   0.0000000   0.0000000   0.0000000   0.0000000   0.0000000   0.0000000   0.0000000   0.0000000
 NMagM=    2.7928460   2.7928460   0.0000000   2.7928460   0.0000000   2.7928460   2.7928460   2.7928460   0.0000000   2.7928460
 AtZNuc=   1.0000000   1.0000000   6.0000000   1.0000000   6.0000000   1.0000000   1.0000000   1.0000000   6.0000000   1.0000000

  Atom        61          62          63          64          65          66          67          68          69          70
 IAtWgt=           1          12           1           1          12           1          12           1           1           1
 AtmWgt=   1.0078250  12.0000000   1.0078250   1.0078250  12.0000000   1.0078250  12.0000000   1.0078250   1.0078250   1.0078250
 NucSpn=           1           0           1           1           0           1           0           1           1           1
 AtZEff=   0.0000000   0.0000000   0.0000000   0.0000000   0.0000000   0.0000000   0.0000000   0.0000000   0.0000000   0.0000000
 NQMom=    0.0000000   0.0000000   0.0000000   0.0000000   0.0000000   0.0000000   0.0000000   0.0000000   0.0000000   0.0000000
 NMagM=    2.7928460   0.0000000   2.7928460   2.7928460   0.0000000   2.7928460   0.0000000   2.7928460   2.7928460   2.7928460
 AtZNuc=   1.0000000   6.0000000   1.0000000   1.0000000   6.0000000   1.0000000   6.0000000   1.0000000   1.0000000   1.0000000

  Atom        71          72          73          74
 IAtWgt=          12           1           1           1
 AtmWgt=  12.0000000   1.0078250   1.0078250   1.0078250
 NucSpn=           0           1           1           1
 AtZEff=   0.0000000   0.0000000   0.0000000   0.0000000
 NQMom=    0.0000000   0.0000000   0.0000000   0.0000000
 NMagM=    0.0000000   2.7928460   2.7928460   2.7928460
 AtZNuc=   6.0000000   1.0000000   1.0000000   1.0000000
 Leave Link  101 at Mon Mar 20 13:10:09 2017, MaxMem=    33554432 cpu:         1.0
 (Enter /home/michal/g09/l202.exe)
 Symmetry turned off by external request.
 Stoichiometry    C27H46O
 Framework group  C1[X(C27H46O)]
 Deg. of freedom   216
 Full point group                 C1      NOp   1
                          Input orientation:                          
 ---------------------------------------------------------------------
 Center     Atomic      Atomic             Coordinates (Angstroms)
 Number     Number       Type             X           Y           Z
 ---------------------------------------------------------------------
      1          8           0        5.005760   -0.241524   -7.250602
      2          1           0        5.956758   -0.330216   -7.103349
      3          6           0        0.000000    0.000000    0.000000
      4          6           0        1.554846    0.000000    0.000000
      5          1           0        1.841492    1.066012    0.000000
      6          6           0        2.214434   -0.605947   -1.245758
      7          1           0        1.946792   -1.669895   -1.314714
      8          6           0        1.713659    0.128130   -2.516935
      9          1           0        2.119398    1.150933   -2.444994
     10          6           0       -0.272860    0.647986    1.402824
     11          1           0       -0.040725    1.719401    1.292702
     12          6           0       -0.432701    0.818885   -1.234226
     13          1           0       -0.107080    1.860130   -1.095862
     14          1           0       -1.521420    0.846485   -1.343430
     15          6           0        2.309646   -0.472781   -3.838399
     16          6           0        1.935982   -0.549705    1.382216
     17          1           0        2.937335   -0.237887    1.695534
     18          1           0        1.934326   -1.646794    1.376849
     19          6           0        0.173270    0.259489   -2.538284
     20          1           0       -0.280113   -0.716485   -2.741780
     21          1           0       -0.130089    0.909679   -3.366676
     22          6           0        0.827843    0.007511    2.317044
     23          1           0        0.395957   -0.792327    2.930515
     24          1           0        1.234289    0.745270    3.015278
     25          6           0        3.746292   -0.511381   -1.157841
     26          1           0        4.128231   -1.239895   -0.430306
     27          1           0        4.030919    0.475991   -0.757488
     28          6           0       -1.689047    0.561402    2.029371
     29          1           0       -1.912908   -0.501599    2.208027
     30          6           0       -0.591301   -1.427537   -0.054456
     31          1           0       -1.684517   -1.391645   -0.105302
     32          1           0       -0.246563   -1.987366   -0.927323
     33          1           0       -0.326854   -2.014602    0.830339
     34          6           0        3.814478   -0.727408   -3.672740
     35          6           0        2.116795    0.564965   -4.987964
     36          1           0        2.443290    1.547802   -4.620346
     37          1           0        1.050196    0.658597   -5.219419
     38          6           0        4.427895   -0.722176   -2.480064
     39          1           0        5.505723   -0.885690   -2.448097
     40          6           0        1.617110   -1.807483   -4.223884
     41          1           0        0.578272   -1.645917   -4.528483
     42          1           0        2.123987   -2.295969   -5.059766
     43          1           0        1.623739   -2.512238   -3.386614
     44          6           0        4.602729   -0.990044   -4.942470
     45          1           0        5.670945   -1.064296   -4.701065
     46          1           0        4.312427   -1.950934   -5.390437
     47          6           0        2.882369    0.248676   -6.281050
     48          1           0        2.514366   -0.675363   -6.744154
     49          1           0        2.727780    1.049437   -7.013143
     50          6           0       -1.707659    1.267702    3.408288
     51          1           0       -0.860626    0.913046    4.007307
     52          1           0       -1.538695    2.342708    3.249405
     53          6           0        4.372546    0.090660   -6.008771
     54          1           0        4.771995    1.049351   -5.638470
     55          6           0       -2.792402    1.131905    1.121086
     56          1           0       -2.578306    2.173873    0.851193
     57          1           0       -3.765705    1.111821    1.620211
     58          1           0       -2.898909    0.563658    0.194639
     59          6           0       -2.986191    1.052710    4.236371
     60          1           0       -3.843669    1.536053    3.754447
     61          1           0       -3.217233   -0.021995    4.251190
     62          6           0       -2.879100    1.534694    5.695077
     63          1           0       -2.064452    0.983070    6.186367
     64          1           0       -3.799918    1.252832    6.227127
     65          6           0       -2.642374    3.044857    5.910146
     66          1           0       -1.713648    3.324499    5.392376
     67          6           0       -2.443559    3.342881    7.404946
     68          1           0       -1.610063    2.764743    7.820300
     69          1           0       -2.232840    4.404944    7.574898
     70          1           0       -3.344207    3.086974    7.977876
     71          6           0       -3.779532    3.904787    5.336024
     72          1           0       -3.892045    3.773241    4.254960
     73          1           0       -3.596215    4.969440    5.520583
     74          1           0       -4.737892    3.646649    5.805318
 ---------------------------------------------------------------------
 Rotational constants (GHZ):      0.5373453      0.0549481      0.0534128
 Leave Link  202 at Mon Mar 20 13:10:09 2017, MaxMem=    33554432 cpu:         0.0
 (Enter /home/michal/g09/l301.exe)
 Standard basis: 6-31G(d) (6D, 7F)
 Ernie: Thresh=  0.10000D-02 Tol=  0.10000D-05 Strict=F.
 AO basis set in the form of general basis input (Overlap normalization):
      1 0
 S   6 1.00       0.000000000000
      0.5484671660D+04  0.1831074430D-02
      0.8252349460D+03  0.1395017220D-01
      0.1880469580D+03  0.6844507810D-01
      0.5296450000D+02  0.2327143360D+00
      0.1689757040D+02  0.4701928980D+00
      0.5799635340D+01  0.3585208530D+00
 SP   3 1.00       0.000000000000
      0.1553961625D+02 -0.1107775495D+00  0.7087426823D-01
      0.3599933586D+01 -0.1480262627D+00  0.3397528391D+00
      0.1013761750D+01  0.1130767015D+01  0.7271585773D+00
 SP   1 1.00       0.000000000000
      0.2700058226D+00  0.1000000000D+01  0.1000000000D+01
 D   1 1.00       0.000000000000
      0.8000000000D+00  0.1000000000D+01
 ****
      2 0
 S   3 1.00       0.000000000000
      0.1873113696D+02  0.3349460434D-01
      0.2825394365D+01  0.2347269535D+00
      0.6401216923D+00  0.8137573261D+00
 S   1 1.00       0.000000000000
      0.1612777588D+00  0.1000000000D+01
 ****
      3 0
 S   6 1.00       0.000000000000
      0.3047524880D+04  0.1834737132D-02
      0.4573695180D+03  0.1403732281D-01
      0.1039486850D+03  0.6884262226D-01
      0.2921015530D+02  0.2321844432D+00
      0.9286662960D+01  0.4679413484D+00
      0.3163926960D+01  0.3623119853D+00
 SP   3 1.00       0.000000000000
      0.7868272350D+01 -0.1193324198D+00  0.6899906659D-01
      0.1881288540D+01 -0.1608541517D+00  0.3164239610D+00
      0.5442492580D+00  0.1143456438D+01  0.7443082909D+00
 SP   1 1.00       0.000000000000
      0.1687144782D+00  0.1000000000D+01  0.1000000000D+01
 D   1 1.00       0.000000000000
      0.8000000000D+00  0.1000000000D+01
 ****
      4 0
 S   6 1.00       0.000000000000
      0.3047524880D+04  0.1834737132D-02
      0.4573695180D+03  0.1403732281D-01
      0.1039486850D+03  0.6884262226D-01
      0.2921015530D+02  0.2321844432D+00
      0.9286662960D+01  0.4679413484D+00
      0.3163926960D+01  0.3623119853D+00
 SP   3 1.00       0.000000000000
      0.7868272350D+01 -0.1193324198D+00  0.6899906659D-01
      0.1881288540D+01 -0.1608541517D+00  0.3164239610D+00
      0.5442492580D+00  0.1143456438D+01  0.7443082909D+00
 SP   1 1.00       0.000000000000
      0.1687144782D+00  0.1000000000D+01  0.1000000000D+01
 D   1 1.00       0.000000000000
      0.8000000000D+00  0.1000000000D+01
 ****
      5 0
 S   3 1.00       0.000000000000
      0.1873113696D+02  0.3349460434D-01
      0.2825394365D+01  0.2347269535D+00
      0.6401216923D+00  0.8137573261D+00
 S   1 1.00       0.000000000000
      0.1612777588D+00  0.1000000000D+01
 ****
      6 0
 S   6 1.00       0.000000000000
      0.3047524880D+04  0.1834737132D-02
      0.4573695180D+03  0.1403732281D-01
      0.1039486850D+03  0.6884262226D-01
      0.2921015530D+02  0.2321844432D+00
      0.9286662960D+01  0.4679413484D+00
      0.3163926960D+01  0.3623119853D+00
 SP   3 1.00       0.000000000000
      0.7868272350D+01 -0.1193324198D+00  0.6899906659D-01
      0.1881288540D+01 -0.1608541517D+00  0.3164239610D+00
      0.5442492580D+00  0.1143456438D+01  0.7443082909D+00
 SP   1 1.00       0.000000000000
      0.1687144782D+00  0.1000000000D+01  0.1000000000D+01
 D   1 1.00       0.000000000000
      0.8000000000D+00  0.1000000000D+01
 ****
      7 0
 S   3 1.00       0.000000000000
      0.1873113696D+02  0.3349460434D-01
      0.2825394365D+01  0.2347269535D+00
      0.6401216923D+00  0.8137573261D+00
 S   1 1.00       0.000000000000
      0.1612777588D+00  0.1000000000D+01
 ****
      8 0
 S   6 1.00       0.000000000000
      0.3047524880D+04  0.1834737132D-02
      0.4573695180D+03  0.1403732281D-01
      0.1039486850D+03  0.6884262226D-01
      0.2921015530D+02  0.2321844432D+00
      0.9286662960D+01  0.4679413484D+00
      0.3163926960D+01  0.3623119853D+00
 SP   3 1.00       0.000000000000
      0.7868272350D+01 -0.1193324198D+00  0.6899906659D-01
      0.1881288540D+01 -0.1608541517D+00  0.3164239610D+00
      0.5442492580D+00  0.1143456438D+01  0.7443082909D+00
 SP   1 1.00       0.000000000000
      0.1687144782D+00  0.1000000000D+01  0.1000000000D+01
 D   1 1.00       0.000000000000
      0.8000000000D+00  0.1000000000D+01
 ****
      9 0
 S   3 1.00       0.000000000000
      0.1873113696D+02  0.3349460434D-01
      0.2825394365D+01  0.2347269535D+00
      0.6401216923D+00  0.8137573261D+00
 S   1 1.00       0.000000000000
      0.1612777588D+00  0.1000000000D+01
 ****
     10 0
 S   6 1.00       0.000000000000
      0.3047524880D+04  0.1834737132D-02
      0.4573695180D+03  0.1403732281D-01
      0.1039486850D+03  0.6884262226D-01
      0.2921015530D+02  0.2321844432D+00
      0.9286662960D+01  0.4679413484D+00
      0.3163926960D+01  0.3623119853D+00
 SP   3 1.00       0.000000000000
      0.7868272350D+01 -0.1193324198D+00  0.6899906659D-01
      0.1881288540D+01 -0.1608541517D+00  0.3164239610D+00
      0.5442492580D+00  0.1143456438D+01  0.7443082909D+00
 SP   1 1.00       0.000000000000
      0.1687144782D+00  0.1000000000D+01  0.1000000000D+01
 D   1 1.00       0.000000000000
      0.8000000000D+00  0.1000000000D+01
 ****
     11 0
 S   3 1.00       0.000000000000
      0.1873113696D+02  0.3349460434D-01
      0.2825394365D+01  0.2347269535D+00
      0.6401216923D+00  0.8137573261D+00
 S   1 1.00       0.000000000000
      0.1612777588D+00  0.1000000000D+01
 ****
     12 0
 S   6 1.00       0.000000000000
      0.3047524880D+04  0.1834737132D-02
      0.4573695180D+03  0.1403732281D-01
      0.1039486850D+03  0.6884262226D-01
      0.2921015530D+02  0.2321844432D+00
      0.9286662960D+01  0.4679413484D+00
      0.3163926960D+01  0.3623119853D+00
 SP   3 1.00       0.000000000000
      0.7868272350D+01 -0.1193324198D+00  0.6899906659D-01
      0.1881288540D+01 -0.1608541517D+00  0.3164239610D+00
      0.5442492580D+00  0.1143456438D+01  0.7443082909D+00
 SP   1 1.00       0.000000000000
      0.1687144782D+00  0.1000000000D+01  0.1000000000D+01
 D   1 1.00       0.000000000000
      0.8000000000D+00  0.1000000000D+01
 ****
     13 0
 S   3 1.00       0.000000000000
      0.1873113696D+02  0.3349460434D-01
      0.2825394365D+01  0.2347269535D+00
      0.6401216923D+00  0.8137573261D+00
 S   1 1.00       0.000000000000
      0.1612777588D+00  0.1000000000D+01
 ****
     14 0
 S   3 1.00       0.000000000000
      0.1873113696D+02  0.3349460434D-01
      0.2825394365D+01  0.2347269535D+00
      0.6401216923D+00  0.8137573261D+00
 S   1 1.00       0.000000000000
      0.1612777588D+00  0.1000000000D+01
 ****
     15 0
 S   6 1.00       0.000000000000
      0.3047524880D+04  0.1834737132D-02
      0.4573695180D+03  0.1403732281D-01
      0.1039486850D+03  0.6884262226D-01
      0.2921015530D+02  0.2321844432D+00
      0.9286662960D+01  0.4679413484D+00
      0.3163926960D+01  0.3623119853D+00
 SP   3 1.00       0.000000000000
      0.7868272350D+01 -0.1193324198D+00  0.6899906659D-01
      0.1881288540D+01 -0.1608541517D+00  0.3164239610D+00
      0.5442492580D+00  0.1143456438D+01  0.7443082909D+00
 SP   1 1.00       0.000000000000
      0.1687144782D+00  0.1000000000D+01  0.1000000000D+01
 D   1 1.00       0.000000000000
      0.8000000000D+00  0.1000000000D+01
 ****
     16 0
 S   6 1.00       0.000000000000
      0.3047524880D+04  0.1834737132D-02
      0.4573695180D+03  0.1403732281D-01
      0.1039486850D+03  0.6884262226D-01
      0.2921015530D+02  0.2321844432D+00
      0.9286662960D+01  0.4679413484D+00
      0.3163926960D+01  0.3623119853D+00
 SP   3 1.00       0.000000000000
      0.7868272350D+01 -0.1193324198D+00  0.6899906659D-01
      0.1881288540D+01 -0.1608541517D+00  0.3164239610D+00
      0.5442492580D+00  0.1143456438D+01  0.7443082909D+00
 SP   1 1.00       0.000000000000
      0.1687144782D+00  0.1000000000D+01  0.1000000000D+01
 D   1 1.00       0.000000000000
      0.8000000000D+00  0.1000000000D+01
 ****
     17 0
 S   3 1.00       0.000000000000
      0.1873113696D+02  0.3349460434D-01
      0.2825394365D+01  0.2347269535D+00
      0.6401216923D+00  0.8137573261D+00
 S   1 1.00       0.000000000000
      0.1612777588D+00  0.1000000000D+01
 ****
     18 0
 S   3 1.00       0.000000000000
      0.1873113696D+02  0.3349460434D-01
      0.2825394365D+01  0.2347269535D+00
      0.6401216923D+00  0.8137573261D+00
 S   1 1.00       0.000000000000
      0.1612777588D+00  0.1000000000D+01
 ****
     19 0
 S   6 1.00       0.000000000000
      0.3047524880D+04  0.1834737132D-02
      0.4573695180D+03  0.1403732281D-01
      0.1039486850D+03  0.6884262226D-01
      0.2921015530D+02  0.2321844432D+00
      0.9286662960D+01  0.4679413484D+00
      0.3163926960D+01  0.3623119853D+00
 SP   3 1.00       0.000000000000
      0.7868272350D+01 -0.1193324198D+00  0.6899906659D-01
      0.1881288540D+01 -0.1608541517D+00  0.3164239610D+00
      0.5442492580D+00  0.1143456438D+01  0.7443082909D+00
 SP   1 1.00       0.000000000000
      0.1687144782D+00  0.1000000000D+01  0.1000000000D+01
 D   1 1.00       0.000000000000
      0.8000000000D+00  0.1000000000D+01
 ****
     20 0
 S   3 1.00       0.000000000000
      0.1873113696D+02  0.3349460434D-01
      0.2825394365D+01  0.2347269535D+00
      0.6401216923D+00  0.8137573261D+00
 S   1 1.00       0.000000000000
      0.1612777588D+00  0.1000000000D+01
 ****
     21 0
 S   3 1.00       0.000000000000
      0.1873113696D+02  0.3349460434D-01
      0.2825394365D+01  0.2347269535D+00
      0.6401216923D+00  0.8137573261D+00
 S   1 1.00       0.000000000000
      0.1612777588D+00  0.1000000000D+01
 ****
     22 0
 S   6 1.00       0.000000000000
      0.3047524880D+04  0.1834737132D-02
      0.4573695180D+03  0.1403732281D-01
      0.1039486850D+03  0.6884262226D-01
      0.2921015530D+02  0.2321844432D+00
      0.9286662960D+01  0.4679413484D+00
      0.3163926960D+01  0.3623119853D+00
 SP   3 1.00       0.000000000000
      0.7868272350D+01 -0.1193324198D+00  0.6899906659D-01
      0.1881288540D+01 -0.1608541517D+00  0.3164239610D+00
      0.5442492580D+00  0.1143456438D+01  0.7443082909D+00
 SP   1 1.00       0.000000000000
      0.1687144782D+00  0.1000000000D+01  0.1000000000D+01
 D   1 1.00       0.000000000000
      0.8000000000D+00  0.1000000000D+01
 ****
     23 0
 S   3 1.00       0.000000000000
      0.1873113696D+02  0.3349460434D-01
      0.2825394365D+01  0.2347269535D+00
      0.6401216923D+00  0.8137573261D+00
 S   1 1.00       0.000000000000
      0.1612777588D+00  0.1000000000D+01
 ****
     24 0
 S   3 1.00       0.000000000000
      0.1873113696D+02  0.3349460434D-01
      0.2825394365D+01  0.2347269535D+00
      0.6401216923D+00  0.8137573261D+00
 S   1 1.00       0.000000000000
      0.1612777588D+00  0.1000000000D+01
 ****
     25 0
 S   6 1.00       0.000000000000
      0.3047524880D+04  0.1834737132D-02
      0.4573695180D+03  0.1403732281D-01
      0.1039486850D+03  0.6884262226D-01
      0.2921015530D+02  0.2321844432D+00
      0.9286662960D+01  0.4679413484D+00
      0.3163926960D+01  0.3623119853D+00
 SP   3 1.00       0.000000000000
      0.7868272350D+01 -0.1193324198D+00  0.6899906659D-01
      0.1881288540D+01 -0.1608541517D+00  0.3164239610D+00
      0.5442492580D+00  0.1143456438D+01  0.7443082909D+00
 SP   1 1.00       0.000000000000
      0.1687144782D+00  0.1000000000D+01  0.1000000000D+01
 D   1 1.00       0.000000000000
      0.8000000000D+00  0.1000000000D+01
 ****
     26 0
 S   3 1.00       0.000000000000
      0.1873113696D+02  0.3349460434D-01
      0.2825394365D+01  0.2347269535D+00
      0.6401216923D+00  0.8137573261D+00
 S   1 1.00       0.000000000000
      0.1612777588D+00  0.1000000000D+01
 ****
     27 0
 S   3 1.00       0.000000000000
      0.1873113696D+02  0.3349460434D-01
      0.2825394365D+01  0.2347269535D+00
      0.6401216923D+00  0.8137573261D+00
 S   1 1.00       0.000000000000
      0.1612777588D+00  0.1000000000D+01
 ****
     28 0
 S   6 1.00       0.000000000000
      0.3047524880D+04  0.1834737132D-02
      0.4573695180D+03  0.1403732281D-01
      0.1039486850D+03  0.6884262226D-01
      0.2921015530D+02  0.2321844432D+00
      0.9286662960D+01  0.4679413484D+00
      0.3163926960D+01  0.3623119853D+00
 SP   3 1.00       0.000000000000
      0.7868272350D+01 -0.1193324198D+00  0.6899906659D-01
      0.1881288540D+01 -0.1608541517D+00  0.3164239610D+00
      0.5442492580D+00  0.1143456438D+01  0.7443082909D+00
 SP   1 1.00       0.000000000000
      0.1687144782D+00  0.1000000000D+01  0.1000000000D+01
 D   1 1.00       0.000000000000
      0.8000000000D+00  0.1000000000D+01
 ****
     29 0
 S   3 1.00       0.000000000000
      0.1873113696D+02  0.3349460434D-01
      0.2825394365D+01  0.2347269535D+00
      0.6401216923D+00  0.8137573261D+00
 S   1 1.00       0.000000000000
      0.1612777588D+00  0.1000000000D+01
 ****
     30 0
 S   6 1.00       0.000000000000
      0.3047524880D+04  0.1834737132D-02
      0.4573695180D+03  0.1403732281D-01
      0.1039486850D+03  0.6884262226D-01
      0.2921015530D+02  0.2321844432D+00
      0.9286662960D+01  0.4679413484D+00
      0.3163926960D+01  0.3623119853D+00
 SP   3 1.00       0.000000000000
      0.7868272350D+01 -0.1193324198D+00  0.6899906659D-01
      0.1881288540D+01 -0.1608541517D+00  0.3164239610D+00
      0.5442492580D+00  0.1143456438D+01  0.7443082909D+00
 SP   1 1.00       0.000000000000
      0.1687144782D+00  0.1000000000D+01  0.1000000000D+01
 D   1 1.00       0.000000000000
      0.8000000000D+00  0.1000000000D+01
 ****
     31 0
 S   3 1.00       0.000000000000
      0.1873113696D+02  0.3349460434D-01
      0.2825394365D+01  0.2347269535D+00
      0.6401216923D+00  0.8137573261D+00
 S   1 1.00       0.000000000000
      0.1612777588D+00  0.1000000000D+01
 ****
     32 0
 S   3 1.00       0.000000000000
      0.1873113696D+02  0.3349460434D-01
      0.2825394365D+01  0.2347269535D+00
      0.6401216923D+00  0.8137573261D+00
 S   1 1.00       0.000000000000
      0.1612777588D+00  0.1000000000D+01
 ****
     33 0
 S   3 1.00       0.000000000000
      0.1873113696D+02  0.3349460434D-01
      0.2825394365D+01  0.2347269535D+00
      0.6401216923D+00  0.8137573261D+00
 S   1 1.00       0.000000000000
      0.1612777588D+00  0.1000000000D+01
 ****
     34 0
 S   6 1.00       0.000000000000
      0.3047524880D+04  0.1834737132D-02
      0.4573695180D+03  0.1403732281D-01
      0.1039486850D+03  0.6884262226D-01
      0.2921015530D+02  0.2321844432D+00
      0.9286662960D+01  0.4679413484D+00
      0.3163926960D+01  0.3623119853D+00
 SP   3 1.00       0.000000000000
      0.7868272350D+01 -0.1193324198D+00  0.6899906659D-01
      0.1881288540D+01 -0.1608541517D+00  0.3164239610D+00
      0.5442492580D+00  0.1143456438D+01  0.7443082909D+00
 SP   1 1.00       0.000000000000
      0.1687144782D+00  0.1000000000D+01  0.1000000000D+01
 D   1 1.00       0.000000000000
      0.8000000000D+00  0.1000000000D+01
 ****
     35 0
 S   6 1.00       0.000000000000
      0.3047524880D+04  0.1834737132D-02
      0.4573695180D+03  0.1403732281D-01
      0.1039486850D+03  0.6884262226D-01
      0.2921015530D+02  0.2321844432D+00
      0.9286662960D+01  0.4679413484D+00
      0.3163926960D+01  0.3623119853D+00
 SP   3 1.00       0.000000000000
      0.7868272350D+01 -0.1193324198D+00  0.6899906659D-01
      0.1881288540D+01 -0.1608541517D+00  0.3164239610D+00
      0.5442492580D+00  0.1143456438D+01  0.7443082909D+00
 SP   1 1.00       0.000000000000
      0.1687144782D+00  0.1000000000D+01  0.1000000000D+01
 D   1 1.00       0.000000000000
      0.8000000000D+00  0.1000000000D+01
 ****
     36 0
 S   3 1.00       0.000000000000
      0.1873113696D+02  0.3349460434D-01
      0.2825394365D+01  0.2347269535D+00
      0.6401216923D+00  0.8137573261D+00
 S   1 1.00       0.000000000000
      0.1612777588D+00  0.1000000000D+01
 ****
     37 0
 S   3 1.00       0.000000000000
      0.1873113696D+02  0.3349460434D-01
      0.2825394365D+01  0.2347269535D+00
      0.6401216923D+00  0.8137573261D+00
 S   1 1.00       0.000000000000
      0.1612777588D+00  0.1000000000D+01
 ****
     38 0
 S   6 1.00       0.000000000000
      0.3047524880D+04  0.1834737132D-02
      0.4573695180D+03  0.1403732281D-01
      0.1039486850D+03  0.6884262226D-01
      0.2921015530D+02  0.2321844432D+00
      0.9286662960D+01  0.4679413484D+00
      0.3163926960D+01  0.3623119853D+00
 SP   3 1.00       0.000000000000
      0.7868272350D+01 -0.1193324198D+00  0.6899906659D-01
      0.1881288540D+01 -0.1608541517D+00  0.3164239610D+00
      0.5442492580D+00  0.1143456438D+01  0.7443082909D+00
 SP   1 1.00       0.000000000000
      0.1687144782D+00  0.1000000000D+01  0.1000000000D+01
 D   1 1.00       0.000000000000
      0.8000000000D+00  0.1000000000D+01
 ****
     39 0
 S   3 1.00       0.000000000000
      0.1873113696D+02  0.3349460434D-01
      0.2825394365D+01  0.2347269535D+00
      0.6401216923D+00  0.8137573261D+00
 S   1 1.00       0.000000000000
      0.1612777588D+00  0.1000000000D+01
 ****
     40 0
 S   6 1.00       0.000000000000
      0.3047524880D+04  0.1834737132D-02
      0.4573695180D+03  0.1403732281D-01
      0.1039486850D+03  0.6884262226D-01
      0.2921015530D+02  0.2321844432D+00
      0.9286662960D+01  0.4679413484D+00
      0.3163926960D+01  0.3623119853D+00
 SP   3 1.00       0.000000000000
      0.7868272350D+01 -0.1193324198D+00  0.6899906659D-01
      0.1881288540D+01 -0.1608541517D+00  0.3164239610D+00
      0.5442492580D+00  0.1143456438D+01  0.7443082909D+00
 SP   1 1.00       0.000000000000
      0.1687144782D+00  0.1000000000D+01  0.1000000000D+01
 D   1 1.00       0.000000000000
      0.8000000000D+00  0.1000000000D+01
 ****
     41 0
 S   3 1.00       0.000000000000
      0.1873113696D+02  0.3349460434D-01
      0.2825394365D+01  0.2347269535D+00
      0.6401216923D+00  0.8137573261D+00
 S   1 1.00       0.000000000000
      0.1612777588D+00  0.1000000000D+01
 ****
     42 0
 S   3 1.00       0.000000000000
      0.1873113696D+02  0.3349460434D-01
      0.2825394365D+01  0.2347269535D+00
      0.6401216923D+00  0.8137573261D+00
 S   1 1.00       0.000000000000
      0.1612777588D+00  0.1000000000D+01
 ****
     43 0
 S   3 1.00       0.000000000000
      0.1873113696D+02  0.3349460434D-01
      0.2825394365D+01  0.2347269535D+00
      0.6401216923D+00  0.8137573261D+00
 S   1 1.00       0.000000000000
      0.1612777588D+00  0.1000000000D+01
 ****
     44 0
 S   6 1.00       0.000000000000
      0.3047524880D+04  0.1834737132D-02
      0.4573695180D+03  0.1403732281D-01
      0.1039486850D+03  0.6884262226D-01
      0.2921015530D+02  0.2321844432D+00
      0.9286662960D+01  0.4679413484D+00
      0.3163926960D+01  0.3623119853D+00
 SP   3 1.00       0.000000000000
      0.7868272350D+01 -0.1193324198D+00  0.6899906659D-01
      0.1881288540D+01 -0.1608541517D+00  0.3164239610D+00
      0.5442492580D+00  0.1143456438D+01  0.7443082909D+00
 SP   1 1.00       0.000000000000
      0.1687144782D+00  0.1000000000D+01  0.1000000000D+01
 D   1 1.00       0.000000000000
      0.8000000000D+00  0.1000000000D+01
 ****
     45 0
 S   3 1.00       0.000000000000
      0.1873113696D+02  0.3349460434D-01
      0.2825394365D+01  0.2347269535D+00
      0.6401216923D+00  0.8137573261D+00
 S   1 1.00       0.000000000000
      0.1612777588D+00  0.1000000000D+01
 ****
     46 0
 S   3 1.00       0.000000000000
      0.1873113696D+02  0.3349460434D-01
      0.2825394365D+01  0.2347269535D+00
      0.6401216923D+00  0.8137573261D+00
 S   1 1.00       0.000000000000
      0.1612777588D+00  0.1000000000D+01
 ****
     47 0
 S   6 1.00       0.000000000000
      0.3047524880D+04  0.1834737132D-02
      0.4573695180D+03  0.1403732281D-01
      0.1039486850D+03  0.6884262226D-01
      0.2921015530D+02  0.2321844432D+00
      0.9286662960D+01  0.4679413484D+00
      0.3163926960D+01  0.3623119853D+00
 SP   3 1.00       0.000000000000
      0.7868272350D+01 -0.1193324198D+00  0.6899906659D-01
      0.1881288540D+01 -0.1608541517D+00  0.3164239610D+00
      0.5442492580D+00  0.1143456438D+01  0.7443082909D+00
 SP   1 1.00       0.000000000000
      0.1687144782D+00  0.1000000000D+01  0.1000000000D+01
 D   1 1.00       0.000000000000
      0.8000000000D+00  0.1000000000D+01
 ****
     48 0
 S   3 1.00       0.000000000000
      0.1873113696D+02  0.3349460434D-01
      0.2825394365D+01  0.2347269535D+00
      0.6401216923D+00  0.8137573261D+00
 S   1 1.00       0.000000000000
      0.1612777588D+00  0.1000000000D+01
 ****
     49 0
 S   3 1.00       0.000000000000
      0.1873113696D+02  0.3349460434D-01
      0.2825394365D+01  0.2347269535D+00
      0.6401216923D+00  0.8137573261D+00
 S   1 1.00       0.000000000000
      0.1612777588D+00  0.1000000000D+01
 ****
     50 0
 S   6 1.00       0.000000000000
      0.3047524880D+04  0.1834737132D-02
      0.4573695180D+03  0.1403732281D-01
      0.1039486850D+03  0.6884262226D-01
      0.2921015530D+02  0.2321844432D+00
      0.9286662960D+01  0.4679413484D+00
      0.3163926960D+01  0.3623119853D+00
 SP   3 1.00       0.000000000000
      0.7868272350D+01 -0.1193324198D+00  0.6899906659D-01
      0.1881288540D+01 -0.1608541517D+00  0.3164239610D+00
      0.5442492580D+00  0.1143456438D+01  0.7443082909D+00
 SP   1 1.00       0.000000000000
      0.1687144782D+00  0.1000000000D+01  0.1000000000D+01
 D   1 1.00       0.000000000000
      0.8000000000D+00  0.1000000000D+01
 ****
     51 0
 S   3 1.00       0.000000000000
      0.1873113696D+02  0.3349460434D-01
      0.2825394365D+01  0.2347269535D+00
      0.6401216923D+00  0.8137573261D+00
 S   1 1.00       0.000000000000
      0.1612777588D+00  0.1000000000D+01
 ****
     52 0
 S   3 1.00       0.000000000000
      0.1873113696D+02  0.3349460434D-01
      0.2825394365D+01  0.2347269535D+00
      0.6401216923D+00  0.8137573261D+00
 S   1 1.00       0.000000000000
      0.1612777588D+00  0.1000000000D+01
 ****
     53 0
 S   6 1.00       0.000000000000
      0.3047524880D+04  0.1834737132D-02
      0.4573695180D+03  0.1403732281D-01
      0.1039486850D+03  0.6884262226D-01
      0.2921015530D+02  0.2321844432D+00
      0.9286662960D+01  0.4679413484D+00
      0.3163926960D+01  0.3623119853D+00
 SP   3 1.00       0.000000000000
      0.7868272350D+01 -0.1193324198D+00  0.6899906659D-01
      0.1881288540D+01 -0.1608541517D+00  0.3164239610D+00
      0.5442492580D+00  0.1143456438D+01  0.7443082909D+00
 SP   1 1.00       0.000000000000
      0.1687144782D+00  0.1000000000D+01  0.1000000000D+01
 D   1 1.00       0.000000000000
      0.8000000000D+00  0.1000000000D+01
 ****
     54 0
 S   3 1.00       0.000000000000
      0.1873113696D+02  0.3349460434D-01
      0.2825394365D+01  0.2347269535D+00
      0.6401216923D+00  0.8137573261D+00
 S   1 1.00       0.000000000000
      0.1612777588D+00  0.1000000000D+01
 ****
     55 0
 S   6 1.00       0.000000000000
      0.3047524880D+04  0.1834737132D-02
      0.4573695180D+03  0.1403732281D-01
      0.1039486850D+03  0.6884262226D-01
      0.2921015530D+02  0.2321844432D+00
      0.9286662960D+01  0.4679413484D+00
      0.3163926960D+01  0.3623119853D+00
 SP   3 1.00       0.000000000000
      0.7868272350D+01 -0.1193324198D+00  0.6899906659D-01
      0.1881288540D+01 -0.1608541517D+00  0.3164239610D+00
      0.5442492580D+00  0.1143456438D+01  0.7443082909D+00
 SP   1 1.00       0.000000000000
      0.1687144782D+00  0.1000000000D+01  0.1000000000D+01
 D   1 1.00       0.000000000000
      0.8000000000D+00  0.1000000000D+01
 ****
     56 0
 S   3 1.00       0.000000000000
      0.1873113696D+02  0.3349460434D-01
      0.2825394365D+01  0.2347269535D+00
      0.6401216923D+00  0.8137573261D+00
 S   1 1.00       0.000000000000
      0.1612777588D+00  0.1000000000D+01
 ****
     57 0
 S   3 1.00       0.000000000000
      0.1873113696D+02  0.3349460434D-01
      0.2825394365D+01  0.2347269535D+00
      0.6401216923D+00  0.8137573261D+00
 S   1 1.00       0.000000000000
      0.1612777588D+00  0.1000000000D+01
 ****
     58 0
 S   3 1.00       0.000000000000
      0.1873113696D+02  0.3349460434D-01
      0.2825394365D+01  0.2347269535D+00
      0.6401216923D+00  0.8137573261D+00
 S   1 1.00       0.000000000000
      0.1612777588D+00  0.1000000000D+01
 ****
     59 0
 S   6 1.00       0.000000000000
      0.3047524880D+04  0.1834737132D-02
      0.4573695180D+03  0.1403732281D-01
      0.1039486850D+03  0.6884262226D-01
      0.2921015530D+02  0.2321844432D+00
      0.9286662960D+01  0.4679413484D+00
      0.3163926960D+01  0.3623119853D+00
 SP   3 1.00       0.000000000000
      0.7868272350D+01 -0.1193324198D+00  0.6899906659D-01
      0.1881288540D+01 -0.1608541517D+00  0.3164239610D+00
      0.5442492580D+00  0.1143456438D+01  0.7443082909D+00
 SP   1 1.00       0.000000000000
      0.1687144782D+00  0.1000000000D+01  0.1000000000D+01
 D   1 1.00       0.000000000000
      0.8000000000D+00  0.1000000000D+01
 ****
     60 0
 S   3 1.00       0.000000000000
      0.1873113696D+02  0.3349460434D-01
      0.2825394365D+01  0.2347269535D+00
      0.6401216923D+00  0.8137573261D+00
 S   1 1.00       0.000000000000
      0.1612777588D+00  0.1000000000D+01
 ****
     61 0
 S   3 1.00       0.000000000000
      0.1873113696D+02  0.3349460434D-01
      0.2825394365D+01  0.2347269535D+00
      0.6401216923D+00  0.8137573261D+00
 S   1 1.00       0.000000000000
      0.1612777588D+00  0.1000000000D+01
 ****
     62 0
 S   6 1.00       0.000000000000
      0.3047524880D+04  0.1834737132D-02
      0.4573695180D+03  0.1403732281D-01
      0.1039486850D+03  0.6884262226D-01
      0.2921015530D+02  0.2321844432D+00
      0.9286662960D+01  0.4679413484D+00
      0.3163926960D+01  0.3623119853D+00
 SP   3 1.00       0.000000000000
      0.7868272350D+01 -0.1193324198D+00  0.6899906659D-01
      0.1881288540D+01 -0.1608541517D+00  0.3164239610D+00
      0.5442492580D+00  0.1143456438D+01  0.7443082909D+00
 SP   1 1.00       0.000000000000
      0.1687144782D+00  0.1000000000D+01  0.1000000000D+01
 D   1 1.00       0.000000000000
      0.8000000000D+00  0.1000000000D+01
 ****
     63 0
 S   3 1.00       0.000000000000
      0.1873113696D+02  0.3349460434D-01
      0.2825394365D+01  0.2347269535D+00
      0.6401216923D+00  0.8137573261D+00
 S   1 1.00       0.000000000000
      0.1612777588D+00  0.1000000000D+01
 ****
     64 0
 S   3 1.00       0.000000000000
      0.1873113696D+02  0.3349460434D-01
      0.2825394365D+01  0.2347269535D+00
      0.6401216923D+00  0.8137573261D+00
 S   1 1.00       0.000000000000
      0.1612777588D+00  0.1000000000D+01
 ****
     65 0
 S   6 1.00       0.000000000000
      0.3047524880D+04  0.1834737132D-02
      0.4573695180D+03  0.1403732281D-01
      0.1039486850D+03  0.6884262226D-01
      0.2921015530D+02  0.2321844432D+00
      0.9286662960D+01  0.4679413484D+00
      0.3163926960D+01  0.3623119853D+00
 SP   3 1.00       0.000000000000
      0.7868272350D+01 -0.1193324198D+00  0.6899906659D-01
      0.1881288540D+01 -0.1608541517D+00  0.3164239610D+00
      0.5442492580D+00  0.1143456438D+01  0.7443082909D+00
 SP   1 1.00       0.000000000000
      0.1687144782D+00  0.1000000000D+01  0.1000000000D+01
 D   1 1.00       0.000000000000
      0.8000000000D+00  0.1000000000D+01
 ****
     66 0
 S   3 1.00       0.000000000000
      0.1873113696D+02  0.3349460434D-01
      0.2825394365D+01  0.2347269535D+00
      0.6401216923D+00  0.8137573261D+00
 S   1 1.00       0.000000000000
      0.1612777588D+00  0.1000000000D+01
 ****
     67 0
 S   6 1.00       0.000000000000
      0.3047524880D+04  0.1834737132D-02
      0.4573695180D+03  0.1403732281D-01
      0.1039486850D+03  0.6884262226D-01
      0.2921015530D+02  0.2321844432D+00
      0.9286662960D+01  0.4679413484D+00
      0.3163926960D+01  0.3623119853D+00
 SP   3 1.00       0.000000000000
      0.7868272350D+01 -0.1193324198D+00  0.6899906659D-01
      0.1881288540D+01 -0.1608541517D+00  0.3164239610D+00
      0.5442492580D+00  0.1143456438D+01  0.7443082909D+00
 SP   1 1.00       0.000000000000
      0.1687144782D+00  0.1000000000D+01  0.1000000000D+01
 D   1 1.00       0.000000000000
      0.8000000000D+00  0.1000000000D+01
 ****
     68 0
 S   3 1.00       0.000000000000
      0.1873113696D+02  0.3349460434D-01
      0.2825394365D+01  0.2347269535D+00
      0.6401216923D+00  0.8137573261D+00
 S   1 1.00       0.000000000000
      0.1612777588D+00  0.1000000000D+01
 ****
     69 0
 S   3 1.00       0.000000000000
      0.1873113696D+02  0.3349460434D-01
      0.2825394365D+01  0.2347269535D+00
      0.6401216923D+00  0.8137573261D+00
 S   1 1.00       0.000000000000
      0.1612777588D+00  0.1000000000D+01
 ****
     70 0
 S   3 1.00       0.000000000000
      0.1873113696D+02  0.3349460434D-01
      0.2825394365D+01  0.2347269535D+00
      0.6401216923D+00  0.8137573261D+00
 S   1 1.00       0.000000000000
      0.1612777588D+00  0.1000000000D+01
 ****
     71 0
 S   6 1.00       0.000000000000
      0.3047524880D+04  0.1834737132D-02
      0.4573695180D+03  0.1403732281D-01
      0.1039486850D+03  0.6884262226D-01
      0.2921015530D+02  0.2321844432D+00
      0.9286662960D+01  0.4679413484D+00
      0.3163926960D+01  0.3623119853D+00
 SP   3 1.00       0.000000000000
      0.7868272350D+01 -0.1193324198D+00  0.6899906659D-01
      0.1881288540D+01 -0.1608541517D+00  0.3164239610D+00
      0.5442492580D+00  0.1143456438D+01  0.7443082909D+00
 SP   1 1.00       0.000000000000
      0.1687144782D+00  0.1000000000D+01  0.1000000000D+01
 D   1 1.00       0.000000000000
      0.8000000000D+00  0.1000000000D+01
 ****
     72 0
 S   3 1.00       0.000000000000
      0.1873113696D+02  0.3349460434D-01
      0.2825394365D+01  0.2347269535D+00
      0.6401216923D+00  0.8137573261D+00
 S   1 1.00       0.000000000000
      0.1612777588D+00  0.1000000000D+01
 ****
     73 0
 S   3 1.00       0.000000000000
      0.1873113696D+02  0.3349460434D-01
      0.2825394365D+01  0.2347269535D+00
      0.6401216923D+00  0.8137573261D+00
 S   1 1.00       0.000000000000
      0.1612777588D+00  0.1000000000D+01
 ****
     74 0
 S   3 1.00       0.000000000000
      0.1873113696D+02  0.3349460434D-01
      0.2825394365D+01  0.2347269535D+00
      0.6401216923D+00  0.8137573261D+00
 S   1 1.00       0.000000000000
      0.1612777588D+00  0.1000000000D+01
 ****

 AO basis set (Overlap normalization):
 Atom O1       Shell     1 S   6     bf    1 -     1          9.459514731063         -0.456414611362        -13.701652739957
      0.5484671660D+04  0.1831074430D-02
      0.8252349460D+03  0.1395017220D-01
      0.1880469580D+03  0.6844507810D-01
      0.5296450000D+02  0.2327143360D+00
      0.1689757040D+02  0.4701928980D+00
      0.5799635340D+01  0.3585208530D+00
 Atom O1       Shell     2 SP   3    bf    2 -     5          9.459514731063         -0.456414611362        -13.701652739957
      0.1553961625D+02 -0.1107775495D+00  0.7087426823D-01
      0.3599933586D+01 -0.1480262627D+00  0.3397528391D+00
      0.1013761750D+01  0.1130767015D+01  0.7271585773D+00
 Atom O1       Shell     3 SP   1    bf    6 -     9          9.459514731063         -0.456414611362        -13.701652739957
      0.2700058226D+00  0.1000000000D+01  0.1000000000D+01
 Atom O1       Shell     4 D   1     bf   10 -    15          9.459514731063         -0.456414611362        -13.701652739957
      0.8000000000D+00  0.1000000000D+01
 Atom H2       Shell     5 S   3     bf   16 -    16         11.256641448848         -0.624017143293        -13.423384179615
      0.1873113696D+02  0.3349460434D-01
      0.2825394365D+01  0.2347269535D+00
      0.6401216923D+00  0.8137573261D+00
 Atom H2       Shell     6 S   1     bf   17 -    17         11.256641448848         -0.624017143293        -13.423384179615
      0.1612777588D+00  0.1000000000D+01
 Atom C3       Shell     7 S   6     bf   18 -    18          0.000000000000          0.000000000000          0.000000000000
      0.3047524880D+04  0.1834737132D-02
      0.4573695180D+03  0.1403732281D-01
      0.1039486850D+03  0.6884262226D-01
      0.2921015530D+02  0.2321844432D+00
      0.9286662960D+01  0.4679413484D+00
      0.3163926960D+01  0.3623119853D+00
 Atom C3       Shell     8 SP   3    bf   19 -    22          0.000000000000          0.000000000000          0.000000000000
      0.7868272350D+01 -0.1193324198D+00  0.6899906659D-01
      0.1881288540D+01 -0.1608541517D+00  0.3164239610D+00
      0.5442492580D+00  0.1143456438D+01  0.7443082909D+00
 Atom C3       Shell     9 SP   1    bf   23 -    26          0.000000000000          0.000000000000          0.000000000000
      0.1687144782D+00  0.1000000000D+01  0.1000000000D+01
 Atom C3       Shell    10 D   1     bf   27 -    32          0.000000000000          0.000000000000          0.000000000000
      0.8000000000D+00  0.1000000000D+01
 Atom C4       Shell    11 S   6     bf   33 -    33          2.938233761320          0.000000000000          0.000000000000
      0.3047524880D+04  0.1834737132D-02
      0.4573695180D+03  0.1403732281D-01
      0.1039486850D+03  0.6884262226D-01
      0.2921015530D+02  0.2321844432D+00
      0.9286662960D+01  0.4679413484D+00
      0.3163926960D+01  0.3623119853D+00
 Atom C4       Shell    12 SP   3    bf   34 -    37          2.938233761320          0.000000000000          0.000000000000
      0.7868272350D+01 -0.1193324198D+00  0.6899906659D-01
      0.1881288540D+01 -0.1608541517D+00  0.3164239610D+00
      0.5442492580D+00  0.1143456438D+01  0.7443082909D+00
 Atom C4       Shell    13 SP   1    bf   38 -    41          2.938233761320          0.000000000000          0.000000000000
      0.1687144782D+00  0.1000000000D+01  0.1000000000D+01
 Atom C4       Shell    14 D   1     bf   42 -    47          2.938233761320          0.000000000000          0.000000000000
      0.8000000000D+00  0.1000000000D+01
 Atom H5       Shell    15 S   3     bf   48 -    48          3.479915669283          2.014471017829          0.000000000000
      0.1873113696D+02  0.3349460434D-01
      0.2825394365D+01  0.2347269535D+00
      0.6401216923D+00  0.8137573261D+00
 Atom H5       Shell    16 S   1     bf   49 -    49          3.479915669283          2.014471017829          0.000000000000
      0.1612777588D+00  0.1000000000D+01
 Atom C6       Shell    17 S   6     bf   50 -    50          4.184674158398         -1.145073559790         -2.354141051009
      0.3047524880D+04  0.1834737132D-02
      0.4573695180D+03  0.1403732281D-01
      0.1039486850D+03  0.6884262226D-01
      0.2921015530D+02  0.2321844432D+00
      0.9286662960D+01  0.4679413484D+00
      0.3163926960D+01  0.3623119853D+00
 Atom C6       Shell    18 SP   3    bf   51 -    54          4.184674158398         -1.145073559790         -2.354141051009
      0.7868272350D+01 -0.1193324198D+00  0.6899906659D-01
      0.1881288540D+01 -0.1608541517D+00  0.3164239610D+00
      0.5442492580D+00  0.1143456438D+01  0.7443082909D+00
 Atom C6       Shell    19 SP   1    bf   55 -    58          4.184674158398         -1.145073559790         -2.354141051009
      0.1687144782D+00  0.1000000000D+01  0.1000000000D+01
 Atom C6       Shell    20 D   1     bf   59 -    64          4.184674158398         -1.145073559790         -2.354141051009
      0.8000000000D+00  0.1000000000D+01
 Atom H7       Shell    21 S   3     bf   65 -    65          3.678903585412         -3.155644296264         -2.484450253447
      0.1873113696D+02  0.3349460434D-01
      0.2825394365D+01  0.2347269535D+00
      0.6401216923D+00  0.8137573261D+00
 Atom H7       Shell    22 S   1     bf   66 -    66          3.678903585412         -3.155644296264         -2.484450253447
      0.1612777588D+00  0.1000000000D+01
 Atom C8       Shell    23 S   6     bf   67 -    67          3.238346705381          0.242130987352         -4.756318316706
      0.3047524880D+04  0.1834737132D-02
      0.4573695180D+03  0.1403732281D-01
      0.1039486850D+03  0.6884262226D-01
      0.2921015530D+02  0.2321844432D+00
      0.9286662960D+01  0.4679413484D+00
      0.3163926960D+01  0.3623119853D+00
 Atom C8       Shell    24 SP   3    bf   68 -    71          3.238346705381          0.242130987352         -4.756318316706
      0.7868272350D+01 -0.1193324198D+00  0.6899906659D-01
      0.1881288540D+01 -0.1608541517D+00  0.3164239610D+00
      0.5442492580D+00  0.1143456438D+01  0.7443082909D+00
 Atom C8       Shell    25 SP   1    bf   72 -    75          3.238346705381          0.242130987352         -4.756318316706
      0.1687144782D+00  0.1000000000D+01  0.1000000000D+01
 Atom C8       Shell    26 D   1     bf   76 -    81          3.238346705381          0.242130987352         -4.756318316706
      0.8000000000D+00  0.1000000000D+01
 Atom H9       Shell    27 S   3     bf   82 -    82          4.005080860620          2.174948526348         -4.620369585672
      0.1873113696D+02  0.3349460434D-01
      0.2825394365D+01  0.2347269535D+00
      0.6401216923D+00  0.8137573261D+00
 Atom H9       Shell    28 S   1     bf   83 -    83          4.005080860620          2.174948526348         -4.620369585672
      0.1612777588D+00  0.1000000000D+01
 Atom C10      Shell    29 S   6     bf   84 -    84         -0.515631504099          1.224515492129          2.650953493893
      0.3047524880D+04  0.1834737132D-02
      0.4573695180D+03  0.1403732281D-01
      0.1039486850D+03  0.6884262226D-01
      0.2921015530D+02  0.2321844432D+00
      0.9286662960D+01  0.4679413484D+00
      0.3163926960D+01  0.3623119853D+00
 Atom C10      Shell    30 SP   3    bf   85 -    88         -0.515631504099          1.224515492129          2.650953493893
      0.7868272350D+01 -0.1193324198D+00  0.6899906659D-01
      0.1881288540D+01 -0.1608541517D+00  0.3164239610D+00
      0.5442492580D+00  0.1143456438D+01  0.7443082909D+00
 Atom C10      Shell    31 SP   1    bf   89 -    92         -0.515631504099          1.224515492129          2.650953493893
      0.1687144782D+00  0.1000000000D+01  0.1000000000D+01
 Atom C10      Shell    32 D   1     bf   93 -    98         -0.515631504099          1.224515492129          2.650953493893
      0.8000000000D+00  0.1000000000D+01
 Atom H11      Shell    33 S   3     bf   99 -    99         -0.076959096762          3.249197399452          2.442851995543
      0.1873113696D+02  0.3349460434D-01
      0.2825394365D+01  0.2347269535D+00
      0.6401216923D+00  0.8137573261D+00
 Atom H11      Shell    34 S   1     bf  100 -   100         -0.076959096762          3.249197399452          2.442851995543
      0.1612777588D+00  0.1000000000D+01
 Atom C12      Shell    35 S   6     bf  101 -   101         -0.817685461460          1.547468535506         -2.332349485135
      0.3047524880D+04  0.1834737132D-02
      0.4573695180D+03  0.1403732281D-01
      0.1039486850D+03  0.6884262226D-01
      0.2921015530D+02  0.2321844432D+00
      0.9286662960D+01  0.4679413484D+00
      0.3163926960D+01  0.3623119853D+00
 Atom C12      Shell    36 SP   3    bf  102 -   105         -0.817685461460          1.547468535506         -2.332349485135
      0.7868272350D+01 -0.1193324198D+00  0.6899906659D-01
      0.1881288540D+01 -0.1608541517D+00  0.3164239610D+00
      0.5442492580D+00  0.1143456438D+01  0.7443082909D+00
 Atom C12      Shell    37 SP   1    bf  106 -   109         -0.817685461460          1.547468535506         -2.332349485135
      0.1687144782D+00  0.1000000000D+01  0.1000000000D+01
 Atom C12      Shell    38 D   1     bf  110 -   115         -0.817685461460          1.547468535506         -2.332349485135
      0.8000000000D+00  0.1000000000D+01
 Atom H13      Shell    39 S   3     bf  116 -   116         -0.202352006590          3.515136082592         -2.070878473621
      0.1873113696D+02  0.3349460434D-01
      0.2825394365D+01  0.2347269535D+00
      0.6401216923D+00  0.8137573261D+00
 Atom H13      Shell    40 S   1     bf  117 -   117         -0.202352006590          3.515136082592         -2.070878473621
      0.1612777588D+00  0.1000000000D+01
 Atom H14      Shell    41 S   3     bf  118 -   118         -2.875067019711          1.599624145294         -2.538714608627
      0.1873113696D+02  0.3349460434D-01
      0.2825394365D+01  0.2347269535D+00
      0.6401216923D+00  0.8137573261D+00
 Atom H14      Shell    42 S   1     bf  119 -   119         -2.875067019711          1.599624145294         -2.538714608627
      0.1612777588D+00  0.1000000000D+01
 Atom C15      Shell    43 S   6     bf  120 -   120          4.364598555093         -0.893427064366         -7.253522445208
      0.3047524880D+04  0.1834737132D-02
      0.4573695180D+03  0.1403732281D-01
      0.1039486850D+03  0.6884262226D-01
      0.2921015530D+02  0.2321844432D+00
      0.9286662960D+01  0.4679413484D+00
      0.3163926960D+01  0.3623119853D+00
 Atom C15      Shell    44 SP   3    bf  121 -   124          4.364598555093         -0.893427064366         -7.253522445208
      0.7868272350D+01 -0.1193324198D+00  0.6899906659D-01
      0.1881288540D+01 -0.1608541517D+00  0.3164239610D+00
      0.5442492580D+00  0.1143456438D+01  0.7443082909D+00
 Atom C15      Shell    45 SP   1    bf  125 -   128          4.364598555093         -0.893427064366         -7.253522445208
      0.1687144782D+00  0.1000000000D+01  0.1000000000D+01
 Atom C15      Shell    46 D   1     bf  129 -   134          4.364598555093         -0.893427064366         -7.253522445208
      0.8000000000D+00  0.1000000000D+01
 Atom C16      Shell    47 S   6     bf  135 -   135          3.658476401806         -1.038792621974          2.612009885465
      0.3047524880D+04  0.1834737132D-02
      0.4573695180D+03  0.1403732281D-01
      0.1039486850D+03  0.6884262226D-01
      0.2921015530D+02  0.2321844432D+00
      0.9286662960D+01  0.4679413484D+00
      0.3163926960D+01  0.3623119853D+00
 Atom C16      Shell    48 SP   3    bf  136 -   139          3.658476401806         -1.038792621974          2.612009885465
      0.7868272350D+01 -0.1193324198D+00  0.6899906659D-01
      0.1881288540D+01 -0.1608541517D+00  0.3164239610D+00
      0.5442492580D+00  0.1143456438D+01  0.7443082909D+00
 Atom C16      Shell    49 SP   1    bf  140 -   143          3.658476401806         -1.038792621974          2.612009885465
      0.1687144782D+00  0.1000000000D+01  0.1000000000D+01
 Atom C16      Shell    50 D   1     bf  144 -   149          3.658476401806         -1.038792621974          2.612009885465
      0.8000000000D+00  0.1000000000D+01
 Atom H17      Shell    51 S   3     bf  150 -   150          5.550758880615         -0.449541734108          3.204094757818
      0.1873113696D+02  0.3349460434D-01
      0.2825394365D+01  0.2347269535D+00
      0.6401216923D+00  0.8137573261D+00
 Atom H17      Shell    52 S   1     bf  151 -   151          5.550758880615         -0.449541734108          3.204094757818
      0.1612777588D+00  0.1000000000D+01
 Atom H18      Shell    53 S   3     bf  152 -   152          3.655346712974         -3.111988901389          2.601868159947
      0.1873113696D+02  0.3349460434D-01
      0.2825394365D+01  0.2347269535D+00
      0.6401216923D+00  0.8137573261D+00
 Atom H18      Shell    54 S   1     bf  153 -   153          3.655346712974         -3.111988901389          2.601868159947
      0.1612777588D+00  0.1000000000D+01
 Atom C19      Shell    55 S   6     bf  154 -   154          0.327432110052          0.490362237428         -4.796662344479
      0.3047524880D+04  0.1834737132D-02
      0.4573695180D+03  0.1403732281D-01
      0.1039486850D+03  0.6884262226D-01
      0.2921015530D+02  0.2321844432D+00
      0.9286662960D+01  0.4679413484D+00
      0.3163926960D+01  0.3623119853D+00
 Atom C19      Shell    56 SP   3    bf  155 -   158          0.327432110052          0.490362237428         -4.796662344479
      0.7868272350D+01 -0.1193324198D+00  0.6899906659D-01
      0.1881288540D+01 -0.1608541517D+00  0.3164239610D+00
      0.5442492580D+00  0.1143456438D+01  0.7443082909D+00
 Atom C19      Shell    57 SP   1    bf  159 -   162          0.327432110052          0.490362237428         -4.796662344479
      0.1687144782D+00  0.1000000000D+01  0.1000000000D+01
 Atom C19      Shell    58 D   1     bf  163 -   168          0.327432110052          0.490362237428         -4.796662344479
      0.8000000000D+00  0.1000000000D+01
 Atom H20      Shell    59 S   3     bf  169 -   169         -0.529337215309         -1.353961335389         -5.181212541835
      0.1873113696D+02  0.3349460434D-01
      0.2825394365D+01  0.2347269535D+00
      0.6401216923D+00  0.8137573261D+00
 Atom H20      Shell    60 S   1     bf  170 -   170         -0.529337215309         -1.353961335389         -5.181212541835
      0.1612777588D+00  0.1000000000D+01
 Atom H21      Shell    61 S   3     bf  171 -   171         -0.245831864805          1.719043517433         -6.362096336255
      0.1873113696D+02  0.3349460434D-01
      0.2825394365D+01  0.2347269535D+00
      0.6401216923D+00  0.8137573261D+00
 Atom H21      Shell    62 S   1     bf  172 -   172         -0.245831864805          1.719043517433         -6.362096336255
      0.1612777588D+00  0.1000000000D+01
 Atom C22      Shell    63 S   6     bf  173 -   173          1.564396702205          0.014193430628          4.378578805716
      0.3047524880D+04  0.1834737132D-02
      0.4573695180D+03  0.1403732281D-01
      0.1039486850D+03  0.6884262226D-01
      0.2921015530D+02  0.2321844432D+00
      0.9286662960D+01  0.4679413484D+00
      0.3163926960D+01  0.3623119853D+00
 Atom C22      Shell    64 SP   3    bf  174 -   177          1.564396702205          0.014193430628          4.378578805716
      0.7868272350D+01 -0.1193324198D+00  0.6899906659D-01
      0.1881288540D+01 -0.1608541517D+00  0.3164239610D+00
      0.5442492580D+00  0.1143456438D+01  0.7443082909D+00
 Atom C22      Shell    65 SP   1    bf  178 -   181          1.564396702205          0.014193430628          4.378578805716
      0.1687144782D+00  0.1000000000D+01  0.1000000000D+01
 Atom C22      Shell    66 D   1     bf  182 -   187          1.564396702205          0.014193430628          4.378578805716
      0.8000000000D+00  0.1000000000D+01
 Atom H23      Shell    67 S   3     bf  188 -   188          0.748249799070         -1.497280773129          5.537871061772
      0.1873113696D+02  0.3349460434D-01
      0.2825394365D+01  0.2347269535D+00
      0.6401216923D+00  0.8137573261D+00
 Atom H23      Shell    68 S   1     bf  189 -   189          0.748249799070         -1.497280773129          5.537871061772
      0.1612777588D+00  0.1000000000D+01
 Atom H24      Shell    69 S   3     bf  190 -   190          2.332467460737          1.408356365131          5.698049124289
      0.1873113696D+02  0.3349460434D-01
      0.2825394365D+01  0.2347269535D+00
      0.6401216923D+00  0.8137573261D+00
 Atom H24      Shell    70 S   1     bf  191 -   191          2.332467460737          1.408356365131          5.698049124289
      0.1612777588D+00  0.1000000000D+01
 Atom C25      Shell    71 S   6     bf  192 -   192          7.079465251314         -0.966369245876         -2.188002187557
      0.3047524880D+04  0.1834737132D-02
      0.4573695180D+03  0.1403732281D-01
      0.1039486850D+03  0.6884262226D-01
      0.2921015530D+02  0.2321844432D+00
      0.9286662960D+01  0.4679413484D+00
      0.3163926960D+01  0.3623119853D+00
 Atom C25      Shell    72 SP   3    bf  193 -   196          7.079465251314         -0.966369245876         -2.188002187557
      0.7868272350D+01 -0.1193324198D+00  0.6899906659D-01
      0.1881288540D+01 -0.1608541517D+00  0.3164239610D+00
      0.5442492580D+00  0.1143456438D+01  0.7443082909D+00
 Atom C25      Shell    73 SP   1    bf  197 -   200          7.079465251314         -0.966369245876         -2.188002187557
      0.1687144782D+00  0.1000000000D+01  0.1000000000D+01
 Atom C25      Shell    74 D   1     bf  201 -   206          7.079465251314         -0.966369245876         -2.188002187557
      0.8000000000D+00  0.1000000000D+01
 Atom H26      Shell    75 S   3     bf  207 -   207          7.801225304090         -2.343062720527         -0.813160436646
      0.1873113696D+02  0.3349460434D-01
      0.2825394365D+01  0.2347269535D+00
      0.6401216923D+00  0.8137573261D+00
 Atom H26      Shell    76 S   1     bf  208 -   208          7.801225304090         -2.343062720527         -0.813160436646
      0.1612777588D+00  0.1000000000D+01
 Atom H27      Shell    77 S   3     bf  209 -   209          7.617332558106          0.899493444301         -1.431444169749
      0.1873113696D+02  0.3349460434D-01
      0.2825394365D+01  0.2347269535D+00
      0.6401216923D+00  0.8137573261D+00
 Atom H27      Shell    78 S   1     bf  210 -   210          7.617332558106          0.899493444301         -1.431444169749
      0.1612777588D+00  0.1000000000D+01
 Atom C28      Shell    79 S   6     bf  211 -   211         -3.191835858730          1.060895406845          3.834955544301
      0.3047524880D+04  0.1834737132D-02
      0.4573695180D+03  0.1403732281D-01
      0.1039486850D+03  0.6884262226D-01
      0.2921015530D+02  0.2321844432D+00
      0.9286662960D+01  0.4679413484D+00
      0.3163926960D+01  0.3623119853D+00
 Atom C28      Shell    80 SP   3    bf  212 -   215         -3.191835858730          1.060895406845          3.834955544301
      0.7868272350D+01 -0.1193324198D+00  0.6899906659D-01
      0.1881288540D+01 -0.1608541517D+00  0.3164239610D+00
      0.5442492580D+00  0.1143456438D+01  0.7443082909D+00
 Atom C28      Shell    81 SP   1    bf  216 -   219         -3.191835858730          1.060895406845          3.834955544301
      0.1687144782D+00  0.1000000000D+01  0.1000000000D+01
 Atom C28      Shell    82 D   1     bf  220 -   225         -3.191835858730          1.060895406845          3.834955544301
      0.8000000000D+00  0.1000000000D+01
 Atom H29      Shell    83 S   3     bf  226 -   226         -3.614871632694         -0.947885040885          4.172565492538
      0.1873113696D+02  0.3349460434D-01
      0.2825394365D+01  0.2347269535D+00
      0.6401216923D+00  0.8137573261D+00
 Atom H29      Shell    84 S   1     bf  227 -   227         -3.614871632694         -0.947885040885          4.172565492538
      0.1612777588D+00  0.1000000000D+01
 Atom C30      Shell    85 S   6     bf  228 -   228         -1.117396838718         -2.697653955664         -0.102906094813
      0.3047524880D+04  0.1834737132D-02
      0.4573695180D+03  0.1403732281D-01
      0.1039486850D+03  0.6884262226D-01
      0.2921015530D+02  0.2321844432D+00
      0.9286662960D+01  0.4679413484D+00
      0.3163926960D+01  0.3623119853D+00
 Atom C30      Shell    86 SP   3    bf  229 -   232         -1.117396838718         -2.697653955664         -0.102906094813
      0.7868272350D+01 -0.1193324198D+00  0.6899906659D-01
      0.1881288540D+01 -0.1608541517D+00  0.3164239610D+00
      0.5442492580D+00  0.1143456438D+01  0.7443082909D+00
 Atom C30      Shell    87 SP   1    bf  233 -   236         -1.117396838718         -2.697653955664         -0.102906094813
      0.1687144782D+00  0.1000000000D+01  0.1000000000D+01
 Atom C30      Shell    88 D   1     bf  237 -   242         -1.117396838718         -2.697653955664         -0.102906094813
      0.8000000000D+00  0.1000000000D+01
 Atom H31      Shell    89 S   3     bf  243 -   243         -3.183275078094         -2.629828736782         -0.198992224704
      0.1873113696D+02  0.3349460434D-01
      0.2825394365D+01  0.2347269535D+00
      0.6401216923D+00  0.8137573261D+00
 Atom H31      Shell    90 S   1     bf  244 -   244         -3.183275078094         -2.629828736782         -0.198992224704
      0.1612777588D+00  0.1000000000D+01
 Atom H32      Shell    91 S   3     bf  245 -   245         -0.465937451571         -3.755577957137         -1.752387394897
      0.1873113696D+02  0.3349460434D-01
      0.2825394365D+01  0.2347269535D+00
      0.6401216923D+00  0.8137573261D+00
 Atom H32      Shell    92 S   1     bf  246 -   246         -0.465937451571         -3.755577957137         -1.752387394897
      0.1612777588D+00  0.1000000000D+01
 Atom H33      Shell    93 S   3     bf  247 -   247         -0.617664299774         -3.807045423154          1.569113080687
      0.1873113696D+02  0.3349460434D-01
      0.2825394365D+01  0.2347269535D+00
      0.6401216923D+00  0.8137573261D+00
 Atom H33      Shell    94 S   1     bf  248 -   248         -0.617664299774         -3.807045423154          1.569113080687
      0.1612777588D+00  0.1000000000D+01
 Atom C34      Shell    95 S   6     bf  249 -   249          7.208318079616         -1.374601887973         -6.940471831329
      0.3047524880D+04  0.1834737132D-02
      0.4573695180D+03  0.1403732281D-01
      0.1039486850D+03  0.6884262226D-01
      0.2921015530D+02  0.2321844432D+00
      0.9286662960D+01  0.4679413484D+00
      0.3163926960D+01  0.3623119853D+00
 Atom C34      Shell    96 SP   3    bf  250 -   253          7.208318079616         -1.374601887973         -6.940471831329
      0.7868272350D+01 -0.1193324198D+00  0.6899906659D-01
      0.1881288540D+01 -0.1608541517D+00  0.3164239610D+00
      0.5442492580D+00  0.1143456438D+01  0.7443082909D+00
 Atom C34      Shell    97 SP   1    bf  254 -   257          7.208318079616         -1.374601887973         -6.940471831329
      0.1687144782D+00  0.1000000000D+01  0.1000000000D+01
 Atom C34      Shell    98 D   1     bf  258 -   263          7.208318079616         -1.374601887973         -6.940471831329
      0.8000000000D+00  0.1000000000D+01
 Atom C35      Shell    99 S   6     bf  264 -   264          4.000162829462          1.067629256947         -9.425886223049
      0.3047524880D+04  0.1834737132D-02
      0.4573695180D+03  0.1403732281D-01
      0.1039486850D+03  0.6884262226D-01
      0.2921015530D+02  0.2321844432D+00
      0.9286662960D+01  0.4679413484D+00
      0.3163926960D+01  0.3623119853D+00
 Atom C35      Shell   100 SP   3    bf  265 -   268          4.000162829462          1.067629256947         -9.425886223049
      0.7868272350D+01 -0.1193324198D+00  0.6899906659D-01
      0.1881288540D+01 -0.1608541517D+00  0.3164239610D+00
      0.5442492580D+00  0.1143456438D+01  0.7443082909D+00
 Atom C35      Shell   101 SP   1    bf  269 -   272          4.000162829462          1.067629256947         -9.425886223049
      0.1687144782D+00  0.1000000000D+01  0.1000000000D+01
 Atom C35      Shell   102 D   1     bf  273 -   278          4.000162829462          1.067629256947         -9.425886223049
      0.8000000000D+00  0.1000000000D+01
 Atom H36      Shell   103 S   3     bf  279 -   279          4.617148075047          2.924921339912         -8.731187917770
      0.1873113696D+02  0.3349460434D-01
      0.2825394365D+01  0.2347269535D+00
      0.6401216923D+00  0.8137573261D+00
 Atom H36      Shell   104 S   1     bf  280 -   280          4.617148075047          2.924921339912         -8.731187917770
      0.1612777588D+00  0.1000000000D+01
 Atom H37      Shell   105 S   3     bf  281 -   281          1.984582447907          1.244567867454         -9.863272369396
      0.1873113696D+02  0.3349460434D-01
      0.2825394365D+01  0.2347269535D+00
      0.6401216923D+00  0.8137573261D+00
 Atom H37      Shell   106 S   1     bf  282 -   282          1.984582447907          1.244567867454         -9.863272369396
      0.1612777588D+00  0.1000000000D+01
 Atom C38      Shell   107 S   6     bf  283 -   283          8.367509235324         -1.364713990469         -4.686642451228
      0.3047524880D+04  0.1834737132D-02
      0.4573695180D+03  0.1403732281D-01
      0.1039486850D+03  0.6884262226D-01
      0.2921015530D+02  0.2321844432D+00
      0.9286662960D+01  0.4679413484D+00
      0.3163926960D+01  0.3623119853D+00
 Atom C38      Shell   108 SP   3    bf  284 -   287          8.367509235324         -1.364713990469         -4.686642451228
      0.7868272350D+01 -0.1193324198D+00  0.6899906659D-01
      0.1881288540D+01 -0.1608541517D+00  0.3164239610D+00
      0.5442492580D+00  0.1143456438D+01  0.7443082909D+00
 Atom C38      Shell   109 SP   1    bf  288 -   291          8.367509235324         -1.364713990469         -4.686642451228
      0.1687144782D+00  0.1000000000D+01  0.1000000000D+01
 Atom C38      Shell   110 D   1     bf  292 -   297          8.367509235324         -1.364713990469         -4.686642451228
      0.8000000000D+00  0.1000000000D+01
 Atom H39      Shell   111 S   3     bf  298 -   298         10.404308784708         -1.673711122896         -4.626233273581
      0.1873113696D+02  0.3349460434D-01
      0.2825394365D+01  0.2347269535D+00
      0.6401216923D+00  0.8137573261D+00
 Atom H39      Shell   112 S   1     bf  299 -   299         10.404308784708         -1.673711122896         -4.626233273581
      0.1612777588D+00  0.1000000000D+01
 Atom C40      Shell   113 S   6     bf  300 -   300          3.055895177929         -3.415647557490         -7.981984109358
      0.3047524880D+04  0.1834737132D-02
      0.4573695180D+03  0.1403732281D-01
      0.1039486850D+03  0.6884262226D-01
      0.2921015530D+02  0.2321844432D+00
      0.9286662960D+01  0.4679413484D+00
      0.3163926960D+01  0.3623119853D+00
 Atom C40      Shell   114 SP   3    bf  301 -   304          3.055895177929         -3.415647557490         -7.981984109358
      0.7868272350D+01 -0.1193324198D+00  0.6899906659D-01
      0.1881288540D+01 -0.1608541517D+00  0.3164239610D+00
      0.5442492580D+00  0.1143456438D+01  0.7443082909D+00
[...]
 **** Fit       0.010572
 **** Fit       0.009758
 **** Fit       0.009179
 **** Fit       0.008768
 **** Fit       0.008399
 **** Fit       0.007953
 **** Fit       0.007374
 **** Fit       0.006689
 **** Fit       0.005969
 **** Fit       0.005283
 **** Fit       0.004675
 **** Fit       0.001275
 **** Fit       0.003855
 **** Fit       0.007282
 **** Fit       0.011579
 **** Fit       0.016563
 **** Fit       0.021726
 **** Fit       0.026232
 **** Fit       0.029161
 **** Fit       0.029969
 **** Fit       0.028810
 **** Fit       0.026380
 **** Fit       0.023485
 **** Fit       0.020716
 **** Fit       0.018353
 **** Fit       0.016418
 **** Fit       0.014785
 **** Fit       0.013323
 **** Fit       0.011994
 **** Fit       0.010853
 **** Fit       0.009968
 **** Fit       0.009345
 **** Fit       0.008907
 **** Fit       0.008521
 **** Fit       0.008061
 **** Fit       0.007467
 **** Fit       0.006766
 **** Fit       0.006030
 **** Fit       0.005330
 **** Fit       0.004710
 **** Fit       0.001402
 **** Fit       0.004153
 **** Fit       0.007853
 **** Fit       0.012556
 **** Fit       0.018082
 **** Fit       0.023875
 **** Fit       0.028959
 **** Fit       0.032221
 **** Fit       0.033000
 **** Fit       0.031493
 **** Fit       0.028550
 **** Fit       0.025120
 **** Fit       0.021867
 **** Fit       0.019090
 **** Fit       0.016818
 **** Fit       0.014931
 **** Fit       0.013301
 **** Fit       0.011874
 **** Fit       0.010676
 **** Fit       0.009749
 **** Fit       0.009086
 **** Fit       0.008613
 **** Fit       0.008207
 **** Fit       0.007751
 **** Fit       0.007186
 **** Fit       0.006529
 **** Fit       0.005843
 **** Fit       0.005188
 **** Fit       0.004605
 **** Fit       0.001301
 **** Fit       0.004065
 **** Fit       0.007804
 **** Fit       0.012582
 **** Fit       0.018229
 **** Fit       0.024181
 **** Fit       0.029429
 **** Fit       0.032811
 **** Fit       0.033624
 **** Fit       0.032063
 **** Fit       0.029006
 **** Fit       0.025428
 **** Fit       0.021999
 **** Fit       0.019032
 **** Fit       0.016574
 **** Fit       0.014537
 **** Fit       0.012814
 **** Fit       0.011346
 **** Fit       0.010131
 **** Fit       0.009183
 **** Fit       0.008486
 **** Fit       0.007975
 **** Fit       0.007549
 **** Fit       0.007111
 **** Fit       0.006607
 **** Fit       0.006041
 **** Fit       0.005454
 **** Fit       0.004891
 **** Fit       0.004384
 **** Fit       0.000976
 **** Fit       0.003592
 **** Fit       0.007122
 **** Fit       0.011621
 **** Fit       0.016923
 **** Fit       0.022503
 **** Fit       0.027442
 **** Fit       0.030690
 **** Fit       0.031605
 **** Fit       0.030331
 **** Fit       0.027620
 **** Fit       0.024338
 **** Fit       0.021103
 **** Fit       0.018225
 **** Fit       0.015783
 **** Fit       0.013735
 **** Fit       0.012010
 **** Fit       0.010555
 **** Fit       0.009355
 **** Fit       0.008405
 **** Fit       0.007685
 **** Fit       0.007143
 **** Fit       0.006705
 **** Fit       0.006296
 **** Fit       0.005867
 **** Fit       0.005411
 **** Fit       0.004945
 **** Fit       0.004497
 **** Fit       0.002822
 **** Fit       0.005952
 **** Fit       0.009903
 **** Fit       0.014515
 **** Fit       0.019340
 **** Fit       0.023630
 **** Fit       0.026557
 **** Fit       0.027598
 **** Fit       0.026822
 **** Fit       0.024772
 **** Fit       0.022114
 **** Fit       0.019367
 **** Fit       0.016820
 **** Fit       0.014583
 **** Fit       0.012662
 **** Fit       0.011023
 **** Fit       0.009634
 **** Fit       0.008480
 **** Fit       0.007549
 **** Fit       0.006825
 **** Fit       0.006270
 **** Fit       0.005833
 **** Fit       0.005458
 **** Fit       0.005103
 **** Fit       0.004752
 **** Fit       0.004404
 **** Fit       0.004069
 **** Fit       0.001902
 **** Fit       0.004534
 **** Fit       0.007812
 **** Fit       0.011592
 **** Fit       0.015520
 **** Fit       0.019044
 **** Fit       0.021567
 **** Fit       0.022702
 **** Fit       0.022446
 **** Fit       0.021135
 **** Fit       0.019225
 **** Fit       0.017107
 **** Fit       0.015034
 **** Fit       0.013129
 **** Fit       0.011435
 **** Fit       0.009954
 **** Fit       0.008677
 **** Fit       0.007598
 **** Fit       0.006008
 **** Fit       0.005462
 **** Fit       0.005039
 **** Fit       0.004700
 **** Fit       0.004409
 **** Fit       0.004144
 **** Fit       0.003106
 **** Fit       0.005720
 **** Fit       0.008699
 **** Fit       0.011783
 **** Fit       0.014589
 **** Fit       0.016711
 **** Fit       0.017874
 **** Fit       0.018033
 **** Fit       0.017365
 **** Fit       0.016149
 **** Fit       0.014657
 **** Fit       0.013089
 **** Fit       0.001840
 **** Fit       0.003877
 **** Fit       0.006179
 **** Fit       0.008562
 **** Fit       0.010771
 **** Fit       0.012538
 **** Fit       0.013667
 **** Fit       0.014097
 **** Fit       0.013901
 **** Fit       0.013237
 **** Fit       0.012278
 **** Fit       0.004167
 **** Fit       0.006008
 **** Fit       0.007750
 **** Fit       0.009217
 **** Fit       0.010268
 **** Fit       0.010840
 **** Fit       0.010952
 **** Fit       0.010681
 **** Fit       0.005477
 **** Fit       0.006695
 **** Fit       0.007645
 **** Fit       0.006111
 **** Fit       0.008456
 **** Fit       0.008114
 **** Fit       0.007732
 **** Fit       0.007331
 **** Fit       0.006921
 **** Fit       0.006515
 **** Fit       0.006127
 **** Fit       0.007705
 **** Fit       0.009103
 **** Fit       0.010183
 **** Fit       0.010866
 **** Fit       0.011141
 **** Fit       0.011068
 **** Fit       0.010745
 **** Fit       0.010278
 **** Fit       0.009747
 **** Fit       0.009200
 **** Fit       0.008653
 **** Fit       0.008112
 **** Fit       0.007586
 **** Fit       0.007096
 **** Fit       0.006657
 **** Fit       0.005945
 **** Fit       0.005637
 **** Fit       0.005327
 **** Fit       0.005002
 **** Fit       0.005881
 **** Fit       0.007931
 **** Fit       0.009930
 **** Fit       0.011670
 **** Fit       0.012963
 **** Fit       0.013696
 **** Fit       0.013867
 **** Fit       0.013578
 **** Fit       0.012987
 **** Fit       0.012248
 **** Fit       0.011473
 **** Fit       0.010718
 **** Fit       0.009993
 **** Fit       0.009297
 **** Fit       0.008635
 **** Fit       0.008029
 **** Fit       0.007501
 **** Fit       0.007057
 **** Fit       0.006676
 **** Fit       0.006324
 **** Fit       0.005964
 **** Fit       0.005577
 **** Fit       0.005163
 **** Fit       0.004740
 **** Fit       0.005004
 **** Fit       0.007365
 **** Fit       0.009899
 **** Fit       0.012379
 **** Fit       0.014520
 **** Fit       0.016051
 **** Fit       0.016817
 **** Fit       0.016830
 **** Fit       0.016251
 **** Fit       0.015313
 **** Fit       0.014233
 **** Fit       0.013160
 **** Fit       0.012157
 **** Fit       0.011229
 **** Fit       0.010360
 **** Fit       0.009553
 **** Fit       0.008829
 **** Fit       0.008213
 **** Fit       0.007706
 **** Fit       0.007283
 **** Fit       0.006893
 **** Fit       0.006491
 **** Fit       0.006050
 **** Fit       0.005573
 **** Fit       0.005083
 **** Fit       0.005994
 **** Fit       0.008789
 **** Fit       0.011826
 **** Fit       0.014818
 **** Fit       0.017385
 **** Fit       0.019165
 **** Fit       0.019947
 **** Fit       0.019760
 **** Fit       0.018839
 **** Fit       0.017504
 **** Fit       0.016043
 **** Fit       0.014640
 **** Fit       0.013366
 **** Fit       0.012220
 **** Fit       0.011176
 **** Fit       0.010228
 **** Fit       0.009396
 **** Fit       0.008700
 **** Fit       0.008140
 **** Fit       0.007679
 **** Fit       0.007260
 **** Fit       0.006827
 **** Fit       0.006349
 **** Fit       0.005830
 **** Fit       0.005297
 **** Fit       0.004781
 **** Fit       0.004094
 **** Fit       0.006773
 **** Fit       0.009943
 **** Fit       0.013426
 **** Fit       0.016881
 **** Fit       0.019843
 **** Fit       0.021850
 **** Fit       0.022637
 **** Fit       0.022249
 **** Fit       0.020996
 **** Fit       0.019282
 **** Fit       0.017458
 **** Fit       0.015738
 **** Fit       0.014203
 **** Fit       0.012851
 **** Fit       0.011648
 **** Fit       0.010582
 **** Fit       0.009661
 **** Fit       0.008902
 **** Fit       0.008297
 **** Fit       0.007806
 **** Fit       0.007365
 **** Fit       0.006916
 **** Fit       0.006424
 **** Fit       0.005893
 **** Fit       0.005349
 **** Fit       0.004824
 **** Fit       0.004342
 **** Fit       0.007198
 **** Fit       0.010608
 **** Fit       0.014384
 **** Fit       0.018154
 **** Fit       0.021390
 **** Fit       0.023560
 **** Fit       0.024354
 **** Fit       0.023830
 **** Fit       0.022345
 **** Fit       0.020364
 **** Fit       0.018275
 **** Fit       0.016316
 **** Fit       0.014579
 **** Fit       0.013064
 **** Fit       0.011741
 **** Fit       0.010590
 **** Fit       0.009610
 **** Fit       0.008807
 **** Fit       0.008168
 **** Fit       0.007651
 **** Fit       0.007196
 **** Fit       0.006746
 **** Fit       0.006266
 **** Fit       0.005755
 **** Fit       0.005235
 **** Fit       0.004290
 **** Fit       0.007173
 **** Fit       0.010628
 **** Fit       0.014471
 **** Fit       0.018321
 **** Fit       0.021635
 **** Fit       0.023864
 **** Fit       0.024682
 **** Fit       0.024142
 **** Fit       0.022607
 **** Fit       0.020550
 **** Fit       0.018369
 **** Fit       0.016308
 **** Fit       0.014471
 **** Fit       0.012870
 **** Fit       0.011483
 **** Fit       0.010289
 **** Fit       0.009281
 **** Fit       0.008455
 **** Fit       0.007794
 **** Fit       0.007259
 **** Fit       0.006798
 **** Fit       0.006360
 **** Fit       0.005911
 **** Fit       0.005447
 **** Fit       0.004980
 **** Fit       0.003936
 **** Fit       0.006690
 **** Fit       0.009986
 **** Fit       0.013648
 **** Fit       0.017320
 **** Fit       0.020497
 **** Fit       0.022668
 **** Fit       0.023526
 **** Fit       0.023104
 **** Fit       0.021723
 **** Fit       0.019810
 **** Fit       0.017734
 **** Fit       0.015734
 **** Fit       0.013922
 **** Fit       0.012328
 **** Fit       0.010943
 **** Fit       0.009754
 **** Fit       0.008749
 **** Fit       0.007921
 **** Fit       0.007252
 **** Fit       0.006711
 **** Fit       0.006253
 **** Fit       0.005837
 **** Fit       0.005432
 **** Fit       0.005029
 **** Fit       0.003340
 **** Fit       0.005837
 **** Fit       0.008809
 **** Fit       0.012095
 **** Fit       0.015388
 **** Fit       0.018258
 **** Fit       0.020275
 **** Fit       0.021175
 **** Fit       0.020964
 **** Fit       0.019887
 **** Fit       0.018290
 **** Fit       0.016485
 **** Fit       0.014689
 **** Fit       0.013020
 **** Fit       0.011523
 **** Fit       0.010206
 **** Fit       0.009065
 **** Fit       0.006092
 **** Fit       0.005648
 **** Fit       0.005261
 **** Fit       0.004905
 **** Fit       0.004764
 **** Fit       0.007319
 **** Fit       0.010127
 **** Fit       0.012937
 **** Fit       0.015413
 **** Fit       0.017221
 **** Fit       0.018146
 **** Fit       0.018172
 **** Fit       0.017460
 **** Fit       0.016261
 **** Fit       0.014821
 **** Fit       0.005751
 **** Fit       0.008066
 **** Fit       0.010385
 **** Fit       0.012457
 **** Fit       0.014037
 **** Fit       0.014959
 **** Fit       0.015190
 **** Fit       0.014821
 **** Fit       0.014019
 **** Fit       0.012960
 **** Fit       0.006154
 **** Fit       0.008031
 **** Fit       0.009737
 **** Fit       0.011098
 **** Fit       0.011987
 **** Fit       0.012363
 **** Fit       0.012270
 **** Fit       0.011807
 **** Fit       0.007426
 **** Fit       0.008589
 **** Fit       0.009422
 **** Fit       0.009883
 **** Fit       0.008433
 **** Fit       0.007958
 **** Fit       0.007485
 **** Fit       0.008666
 **** Fit       0.010012
 **** Fit       0.011035
 **** Fit       0.011661
 **** Fit       0.011884
 **** Fit       0.010252
 **** Fit       0.009629
 **** Fit       0.009013
 **** Fit       0.008418
 **** Fit       0.007853
 **** Fit       0.008550
 **** Fit       0.010399
 **** Fit       0.011991
 **** Fit       0.013164
 **** Fit       0.013825
 **** Fit       0.013970
 **** Fit       0.013686
 **** Fit       0.012354
 **** Fit       0.011547
 **** Fit       0.010743
 **** Fit       0.009973
 **** Fit       0.009246
 **** Fit       0.008571
 **** Fit       0.007961
 **** Fit       0.007660
 **** Fit       0.009893
 **** Fit       0.012042
 **** Fit       0.013880
 **** Fit       0.015201
 **** Fit       0.015886
 **** Fit       0.015939
 **** Fit       0.015474
 **** Fit       0.014667
 **** Fit       0.013687
 **** Fit       0.012666
 **** Fit       0.011675
 **** Fit       0.010748
 **** Fit       0.009891
 **** Fit       0.009111
 **** Fit       0.008417
 **** Fit       0.006434
 **** Fit       0.006031
 **** Fit       0.005620
 **** Fit       0.008473
 **** Fit       0.010967
 **** Fit       0.013374
 **** Fit       0.015426
 **** Fit       0.016875
 **** Fit       0.017577
 **** Fit       0.017541
 **** Fit       0.016911
 **** Fit       0.015899
 **** Fit       0.014709
 **** Fit       0.013492
 **** Fit       0.012332
 **** Fit       0.011262
 **** Fit       0.010291
 **** Fit       0.009421
 **** Fit       0.008656
 **** Fit       0.006965
 **** Fit       0.006531
 **** Fit       0.006112
 **** Fit       0.005688
 **** Fit       0.006427
 **** Fit       0.008932
 **** Fit       0.011593
 **** Fit       0.014169
 **** Fit       0.016365
 **** Fit       0.017901
 **** Fit       0.018617
 **** Fit       0.018524
 **** Fit       0.017783
 **** Fit       0.016630
 **** Fit       0.015292
 **** Fit       0.013933
 **** Fit       0.012647
 **** Fit       0.011471
 **** Fit       0.010415
 **** Fit       0.009480
 **** Fit       0.008666
 **** Fit       0.006443
 **** Fit       0.006019
 **** Fit       0.006414
 **** Fit       0.008948
 **** Fit       0.011646
 **** Fit       0.014266
 **** Fit       0.016503
 **** Fit       0.018072
 **** Fit       0.018803
 **** Fit       0.018705
 **** Fit       0.017939
 **** Fit       0.016747
 **** Fit       0.015358
 **** Fit       0.013942
 **** Fit       0.012597
 **** Fit       0.011369
 **** Fit       0.010270
 **** Fit       0.009302
 **** Fit       0.006070
 **** Fit       0.008510
 **** Fit       0.011109
 **** Fit       0.013638
 **** Fit       0.015807
 **** Fit       0.017346
 **** Fit       0.018093
 **** Fit       0.018047
 **** Fit       0.017354
 **** Fit       0.016235
 **** Fit       0.014904
 **** Fit       0.007693
 **** Fit       0.010079
 **** Fit       0.012403
 **** Fit       0.014412
 **** Fit       0.015870
 **** Fit       0.016628
 **** Fit       0.016678
 **** Fit       0.016133
 **** Fit       0.015179
 **** Fit       0.006627
 **** Fit       0.008730
 **** Fit       0.010782
 **** Fit       0.012574
 **** Fit       0.013913
 **** Fit       0.014673
 **** Fit       0.014834
 **** Fit       0.014476
 **** Fit       0.013739
 **** Fit       0.007257
 **** Fit       0.009014
 **** Fit       0.010570
 **** Fit       0.011772
 **** Fit       0.012518
 **** Fit       0.012781
 **** Fit       0.012609
 **** Fit       0.009685
 **** Fit       0.010402
 **** Fit       0.011253
 **** Fit       0.012263
 **** Fit       0.012852
 **** Fit       0.013015
 **** Fit       0.010786
 **** Fit       0.012268
 **** Fit       0.013355
 **** Fit       0.013961
 **** Fit       0.014084
 **** Fit       0.013792
 **** Fit       0.009470
 **** Fit       0.011304
 **** Fit       0.012868
 **** Fit       0.014005
 **** Fit       0.014625
 **** Fit       0.014722
 **** Fit       0.014374
 **** Fit       0.009505
 **** Fit       0.011364
 **** Fit       0.012952
 **** Fit       0.014108
 **** Fit       0.014737
 **** Fit       0.014833
 **** Fit       0.014472
 **** Fit       0.009144
 **** Fit       0.010952
 **** Fit       0.012503
 **** Fit       0.013642
 **** Fit       0.014277
 **** Fit       0.014397
 **** Fit       0.014073
 **** Fit       0.010133
 **** Fit       0.011594
 **** Fit       0.012685
 **** Fit       0.013320
 **** Fit       0.013486
 **** Fit       0.010364
 **** Fit       0.011383
 **** Fit       0.012011
 -----------------------------------------------------------------
 Leave Link  602 at Mon Mar 20 13:11:03 2017, MaxMem=    33554432 cpu:        39.2
 (Enter /home/michal/g09/l9999.exe)

 Test job not archived.
 1\1\GINC-LINUX\SP\RHF\6-31G(d)\C27H46O1\MICHAL\20-Mar-2017\0\\#P HF/6-
 31G* SCF(Conver=6) NoSymm Test Pop=chelpg IOp(6/33=2) GFInput GFPrint\
 \MEP - Input generated by R.E.D.-III.x MOLECULE\\0,1\O,0,5.0057596,-0.
 24152421,-7.25060235\H,0,5.9567581,-0.33021565,-7.10334897\C,0,0.,0.,0
 .\C,0,1.55484634,0.,0.\H,0,1.84149206,1.06601215,0.\C,0,2.21443419,-0.
 60594683,-1.24575779\H,0,1.94679193,-1.66989504,-1.31471445\C,0,1.7136
 5927,0.1281302,-2.51693525\H,0,2.11939751,1.15093319,-2.44499428\C,0,-
 0.27286044,0.64798569,1.40282417\H,0,-0.040725,1.71940121,1.2927016\C,
 0,-0.43270051,0.81888508,-1.23422619\H,0,-0.10708007,1.8601299,-1.0958
 6169\H,0,-1.52141994,0.84648464,-1.34342991\C,0,2.30964608,-0.47278124
 ,-3.83839876\C,0,1.93598233,-0.54970538,1.3822161\H,0,2.93733509,-0.23
 788724,1.69553392\H,0,1.93432617,-1.6467936,1.37684933\C,0,0.17326961,
 0.25948852,-2.53828439\H,0,-0.28011319,-0.71648548,-2.74177959\H,0,-0.
 13008862,0.90967865,-3.36667638\C,0,0.82784308,0.00751084,2.31704411\H
 ,0,0.39595674,-0.79232686,2.93051515\H,0,1.23428862,0.74527009,3.01527
 773\C,0,3.74629166,-0.51138058,-1.15784089\H,0,4.12823063,-1.23989539,
 -0.43030597\H,0,4.03091878,0.47599143,-0.75748763\C,0,-1.68904679,0.56
 140167,2.02937107\H,0,-1.91290768,-0.50159916,2.20802656\C,0,-0.591300
 94,-1.42753699,-0.05445556\H,0,-1.68451662,-1.39164543,-0.10530215\H,0
 ,-0.24656348,-1.98736626,-0.92732347\H,0,-0.32685387,-2.01460167,0.830
 33888\C,0,3.81447764,-0.72740799,-3.67273951\C,0,2.116795,0.56496507,-
 4.98796416\H,0,2.44328953,1.54780171,-4.62034565\H,0,1.0501958,0.65859
 695,-5.21941894\C,0,4.42789518,-0.72217554,-2.48006437\H,0,5.50572308,
 -0.88568978,-2.44809721\C,0,1.61711008,-1.80748284,-4.22388407\H,0,0.5
 7827198,-1.64591743,-4.52848266\H,0,2.12398724,-2.29596924,-5.05976552
 \H,0,1.6237392,-2.51223761,-3.3866135\C,0,4.60272862,-0.99004401,-4.94
 247002\H,0,5.67094469,-1.06429572,-4.70106535\H,0,4.31242711,-1.950934
 16,-5.39043661\C,0,2.88236915,0.24867567,-6.28104979\H,0,2.5143657,-0.
 67536273,-6.7441542\H,0,2.72777962,1.04943663,-7.01314286\C,0,-1.70765
 923,1.2677019,3.40828798\H,0,-0.86062576,0.91304644,4.00730672\H,0,-1.
 53869463,2.3427079,3.24940465\C,0,4.37254561,0.0906599,-6.00877136\H,0
 ,4.7719949,1.04935106,-5.63847031\C,0,-2.79240228,1.13190479,1.1210855
 7\H,0,-2.57830641,2.17387259,0.85119278\H,0,-3.76570495,1.11182061,1.6
 2021133\H,0,-2.89890885,0.5636581,0.19463905\C,0,-2.98619066,1.0527103
 ,4.23637128\H,0,-3.84366897,1.53605347,3.75444696\H,0,-3.21723258,-0.0
 2199547,4.25118967\C,0,-2.87910001,1.53469401,5.69507681\H,0,-2.064451
 76,0.98306964,6.18636727\H,0,-3.799918,1.25283221,6.22712673\C,0,-2.64
 237429,3.04485715,5.91014589\H,0,-1.71364751,3.32449851,5.39237592\C,0
 ,-2.44355879,3.34288126,7.40494628\H,0,-1.61006275,2.76474303,7.820299
 66\H,0,-2.23283993,4.40494436,7.57489824\H,0,-3.34420667,3.08697407,7.
 97787632\C,0,-3.77953186,3.90478718,5.33602374\H,0,-3.89204547,3.77324
 078,4.25496018\H,0,-3.59621468,4.96943969,5.52058279\H,0,-4.7378917,3.
 6466492,5.80531799\\Version=EM64L-G09RevD.01\HF=-1124.0790576\RMSD=4.5
 04e-07\Dipole=0.2115925,0.0581376,0.6257805\Quadrupole=10.2101883,3.19
 82082,-13.4083965,0.8066633,3.0537047,-1.4442334\PG=C01 [X(C27H46O1)]\
 \@


 ... IT IS NO ONE DREAME THAT
     CAN PLEASE THESE ALL ...

                -- BEN JONSON
 Job cpu time:       0 days  0 hours 10 minutes 43.1 seconds.
 File lengths (MBytes):  RWF=    142 Int=      0 D2E=      0 Chk=     10 Scr=      1
 Normal termination of Gaussian 09 at Mon Mar 20 13:11:03 2017.
