 Entering Gaussian System, Link 0=/home/michal/g09/g09
 Input=JOB2-gau_m1-22-3.com
 Output=JOB2-gau_m1-22-3.log
 Initial command:
 /home/michal/g09/l1.exe "/home/michal/gauss_scratch/Gau-25567.inp" -scrdir="/home/michal/gauss_scratch/"
 Entering Link 1 = /home/michal/g09/l1.exe PID=     25568.
  
 Copyright (c) 1988,1990,1992,1993,1995,1998,2003,2009,2013,
            Gaussian, Inc.  All Rights Reserved.
  
 This is part of the Gaussian(R) 09 program.  It is based on
 the Gaussian(R) 03 system (copyright 2003, Gaussian, Inc.),
 the Gaussian(R) 98 system (copyright 1998, Gaussian, Inc.),
 the Gaussian(R) 94 system (copyright 1995, Gaussian, Inc.),
 the Gaussian 92(TM) system (copyright 1992, Gaussian, Inc.),
 the Gaussian 90(TM) system (copyright 1990, Gaussian, Inc.),
 the Gaussian 88(TM) system (copyright 1988, Gaussian, Inc.),
 the Gaussian 86(TM) system (copyright 1986, Carnegie Mellon
 University), and the Gaussian 82(TM) system (copyright 1983,
 Carnegie Mellon University). Gaussian is a federally registered
 trademark of Gaussian, Inc.
  
 This software contains proprietary and confidential information,
 including trade secrets, belonging to Gaussian, Inc.
  
 This software is provided under written license and may be
 used, copied, transmitted, or stored only in accord with that
 written license.
  
 The following legend is applicable only to US Government
 contracts under FAR:
  
                    RESTRICTED RIGHTS LEGEND
  
 Use, reproduction and disclosure by the US Government is
 subject to restrictions as set forth in subparagraphs (a)
 and (c) of the Commercial Computer Software - Restricted
 Rights clause in FAR 52.227-19.
  
 Gaussian, Inc.
 340 Quinnipiac St., Bldg. 40, Wallingford CT 06492
  
  
 ---------------------------------------------------------------
 Warning -- This program may not be used in any manner that
 competes with the business of Gaussian, Inc. or will provide
 assistance to any competitor of Gaussian, Inc.  The licensee
 of this program is prohibited from giving any competitor of
 Gaussian, Inc. access to this program.  By using this program,
 the user acknowledges that Gaussian, Inc. is engaged in the
 business of creating and licensing software in the field of
 computational chemistry and represents and warrants to the
 licensee that it is not a competitor of Gaussian, Inc. and that
 it will not use this program in any manner prohibited above.
 ---------------------------------------------------------------
  

 Cite this work as:
 Gaussian 09, Revision D.01,
 M. J. Frisch, G. W. Trucks, H. B. Schlegel, G. E. Scuseria, 
 M. A. Robb, J. R. Cheeseman, G. Scalmani, V. Barone, B. Mennucci, 
 G. A. Petersson, H. Nakatsuji, M. Caricato, X. Li, H. P. Hratchian, 
 A. F. Izmaylov, J. Bloino, G. Zheng, J. L. Sonnenberg, M. Hada, 
 M. Ehara, K. Toyota, R. Fukuda, J. Hasegawa, M. Ishida, T. Nakajima, 
 Y. Honda, O. Kitao, H. Nakai, T. Vreven, J. A. Montgomery, Jr., 
 J. E. Peralta, F. Ogliaro, M. Bearpark, J. J. Heyd, E. Brothers, 
 K. N. Kudin, V. N. Staroverov, T. Keith, R. Kobayashi, J. Normand, 
 K. Raghavachari, A. Rendell, J. C. Burant, S. S. Iyengar, J. Tomasi, 
 M. Cossi, N. Rega, J. M. Millam, M. Klene, J. E. Knox, J. B. Cross, 
 V. Bakken, C. Adamo, J. Jaramillo, R. Gomperts, R. E. Stratmann, 
 O. Yazyev, A. J. Austin, R. Cammi, C. Pomelli, J. W. Ochterski, 
 R. L. Martin, K. Morokuma, V. G. Zakrzewski, G. A. Voth, 
 P. Salvador, J. J. Dannenberg, S. Dapprich, A. D. Daniels, 
 O. Farkas, J. B. Foresman, J. V. Ortiz, J. Cioslowski, 
 and D. J. Fox, Gaussian, Inc., Wallingford CT, 2013.
 
 ******************************************
 Gaussian 09:  EM64L-G09RevD.01 24-Apr-2013
                20-Mar-2017 
 ******************************************
 %Mem=256MB
 %NProc=12
 Will use up to   12 processors via shared memory.
 ----------------------------------------------------------------------
 #P HF/6-31G* SCF(Conver=6) NoSymm Test Pop=chelpg IOp(6/33=2) GFInput 
 GFPrint
 ----------------------------------------------------------------------
 1/38=1/1;
 2/12=2,15=1,17=6,18=5,40=1/2;
 3/5=1,6=6,7=1,11=9,16=1,24=110,25=1,30=1/1,2,3;
 4//1;
 5/5=2,6=6,38=5/2;
 6/7=2,8=2,9=2,10=2,15=8,20=3,28=1,33=2/1,2;
 99/5=1,9=1/99;
 Leave Link    1 at Mon Mar 20 13:00:47 2017, MaxMem=    33554432 cpu:         0.6
 (Enter /home/michal/g09/l101.exe)
 ----------------------------------------------
 MEP - Input generated by R.E.D.-III.x MOLECULE
 ----------------------------------------------
 Symbolic Z-matrix:
 Charge =  0 Multiplicity = 1
 O                    -3.73507  -3.61514  -4.11846 
 H                    -3.88505  -4.45597  -3.66629 
 C                     1.6011    2.06404   0. 
 C                     1.32718   0.60819   0.47242 
 H                     2.11803   0.        0. 
 C                     0.        0.        0. 
 H                    -0.83366   0.57918   0.42189 
 C                    -0.08      0.04759  -1.5481 
 H                     0.69837  -0.64743  -1.90449 
 C                     2.98589   2.31935   0.69205 
 H                     3.72559   1.74345   0.1131 
 C                     1.59728   2.02635  -1.54268 
 H                     2.44325   1.41016  -1.88036 
 H                     1.74655   3.02092  -1.97465 
 C                    -1.43654  -0.5137   -2.10236 
 C                     1.63958   0.63025   1.9757 
 H                     1.89425  -0.36053   2.36505 
 H                     0.77069   0.98004   2.54698 
 C                     0.28205   1.44507  -2.10182 
 H                    -0.52823   2.15056  -1.88911 
 H                     0.36126   1.39987  -3.19394 
 C                     2.82387   1.62875   2.08996 
 H                     2.62818   2.37916   2.86521 
 H                     3.74568   1.11733   2.38271 
 C                    -0.14322  -1.45143   0.48586 
 H                    -0.35785  -1.4694    1.56268 
 H                     0.8216   -1.97352   0.3729 
 C                     3.53644   3.76549   0.80485 
 H                     2.83841   4.33533   1.43418 
 C                     0.54657   3.06483   0.52618 
 H                     0.73585   4.06874   0.13191 
 H                    -0.46966   2.78994   0.23323 
 H                     0.55914   3.13718   1.61799 
 C                    -1.8046   -1.81747  -1.3801 
 C                    -1.26017  -0.8327   -3.6198 
 H                    -0.32574  -1.39748  -3.74461 
 H                    -1.13469   0.10221  -4.17674 
 C                    -1.20696  -2.21757  -0.24804 
 H                    -1.50668  -3.17014   0.19044 
 C                    -2.59479   0.5032   -1.91799 
 H                    -2.46419   1.37936  -2.56092 
 H                    -3.56146   0.06089  -2.17127 
 H                    -2.65875   0.84528  -0.88037 
 C                    -2.89718  -2.65951  -2.0125 
 H                    -3.00093  -3.60083  -1.4575 
 H                    -3.8684   -2.14829  -1.95195 
 C                    -2.40549  -1.63912  -4.24919 
 H                    -3.3426   -1.06857  -4.24303 
 H                    -2.17763  -1.85667  -5.29886 
 C                     4.91286   3.74639   1.51851 
 H                     4.82179   3.19345   2.4607 
 H                     5.61166   3.16948   0.89424 
 C                    -2.63124  -2.94453  -3.49773 
 H                    -1.72654  -3.56866  -3.58573 
 C                     3.64701   4.48272  -0.55133 
 H                     4.27652   3.91367  -1.24722 
 H                     4.09322   5.47557  -0.43978 
 H                     2.67242   4.62427  -1.02322 
 C                     5.55674   5.11016   1.8397 
 H                     6.54065   4.90834   2.28171 
 H                     5.75494   5.66275   0.91392 
 C                     4.73399   5.97973   2.80478 
 H                     4.48073   5.3776    3.68994 
 H                     3.77714   6.24094   2.33328 
 C                     5.40113   7.29063   3.28536 
 H                     4.66675   7.77798   3.94374 
 C                     5.68932   8.2655    2.13148 
 H                     4.78975   8.45351   1.5335 
 H                     6.04241   9.2297    2.51468 
 H                     6.46343   7.87812   1.45909 
 C                     6.66389   7.04287   4.12734 
 H                     6.4617    6.3548    4.95666 
 H                     7.03602   7.98081   4.55519 
 H                     7.47495   6.61456   3.52728 
 
 NAtoms=     74 NQM=       74 NQMF=       0 NMMI=      0 NMMIF=      0
                NMic=       0 NMicF=      0.
                    Isotopes and Nuclear Properties:
 (Nuclear quadrupole moments (NQMom) in fm**2, nuclear magnetic moments (NMagM)
  in nuclear magnetons)

  Atom         1           2           3           4           5           6           7           8           9          10
 IAtWgt=          16           1          12          12           1          12           1          12           1          12
 AtmWgt=  15.9949146   1.0078250  12.0000000  12.0000000   1.0078250  12.0000000   1.0078250  12.0000000   1.0078250  12.0000000
 NucSpn=           0           1           0           0           1           0           1           0           1           0
 AtZEff=   0.0000000   0.0000000   0.0000000   0.0000000   0.0000000   0.0000000   0.0000000   0.0000000   0.0000000   0.0000000
 NQMom=    0.0000000   0.0000000   0.0000000   0.0000000   0.0000000   0.0000000   0.0000000   0.0000000   0.0000000   0.0000000
 NMagM=    0.0000000   2.7928460   0.0000000   0.0000000   2.7928460   0.0000000   2.7928460   0.0000000   2.7928460   0.0000000
 AtZNuc=   8.0000000   1.0000000   6.0000000   6.0000000   1.0000000   6.0000000   1.0000000   6.0000000   1.0000000   6.0000000

  Atom        11          12          13          14          15          16          17          18          19          20
 IAtWgt=           1          12           1           1          12          12           1           1          12           1
 AtmWgt=   1.0078250  12.0000000   1.0078250   1.0078250  12.0000000  12.0000000   1.0078250   1.0078250  12.0000000   1.0078250
 NucSpn=           1           0           1           1           0           0           1           1           0           1
 AtZEff=   0.0000000   0.0000000   0.0000000   0.0000000   0.0000000   0.0000000   0.0000000   0.0000000   0.0000000   0.0000000
 NQMom=    0.0000000   0.0000000   0.0000000   0.0000000   0.0000000   0.0000000   0.0000000   0.0000000   0.0000000   0.0000000
 NMagM=    2.7928460   0.0000000   2.7928460   2.7928460   0.0000000   0.0000000   2.7928460   2.7928460   0.0000000   2.7928460
 AtZNuc=   1.0000000   6.0000000   1.0000000   1.0000000   6.0000000   6.0000000   1.0000000   1.0000000   6.0000000   1.0000000

  Atom        21          22          23          24          25          26          27          28          29          30
 IAtWgt=           1          12           1           1          12           1           1          12           1          12
 AtmWgt=   1.0078250  12.0000000   1.0078250   1.0078250  12.0000000   1.0078250   1.0078250  12.0000000   1.0078250  12.0000000
 NucSpn=           1           0           1           1           0           1           1           0           1           0
 AtZEff=   0.0000000   0.0000000   0.0000000   0.0000000   0.0000000   0.0000000   0.0000000   0.0000000   0.0000000   0.0000000
 NQMom=    0.0000000   0.0000000   0.0000000   0.0000000   0.0000000   0.0000000   0.0000000   0.0000000   0.0000000   0.0000000
 NMagM=    2.7928460   0.0000000   2.7928460   2.7928460   0.0000000   2.7928460   2.7928460   0.0000000   2.7928460   0.0000000
 AtZNuc=   1.0000000   6.0000000   1.0000000   1.0000000   6.0000000   1.0000000   1.0000000   6.0000000   1.0000000   6.0000000

  Atom        31          32          33          34          35          36          37          38          39          40
 IAtWgt=           1           1           1          12          12           1           1          12           1          12
 AtmWgt=   1.0078250   1.0078250   1.0078250  12.0000000  12.0000000   1.0078250   1.0078250  12.0000000   1.0078250  12.0000000
 NucSpn=           1           1           1           0           0           1           1           0           1           0
 AtZEff=   0.0000000   0.0000000   0.0000000   0.0000000   0.0000000   0.0000000   0.0000000   0.0000000   0.0000000   0.0000000
 NQMom=    0.0000000   0.0000000   0.0000000   0.0000000   0.0000000   0.0000000   0.0000000   0.0000000   0.0000000   0.0000000
 NMagM=    2.7928460   2.7928460   2.7928460   0.0000000   0.0000000   2.7928460   2.7928460   0.0000000   2.7928460   0.0000000
 AtZNuc=   1.0000000   1.0000000   1.0000000   6.0000000   6.0000000   1.0000000   1.0000000   6.0000000   1.0000000   6.0000000

  Atom        41          42          43          44          45          46          47          48          49          50
 IAtWgt=           1           1           1          12           1           1          12           1           1          12
 AtmWgt=   1.0078250   1.0078250   1.0078250  12.0000000   1.0078250   1.0078250  12.0000000   1.0078250   1.0078250  12.0000000
 NucSpn=           1           1           1           0           1           1           0           1           1           0
 AtZEff=   0.0000000   0.0000000   0.0000000   0.0000000   0.0000000   0.0000000   0.0000000   0.0000000   0.0000000   0.0000000
 NQMom=    0.0000000   0.0000000   0.0000000   0.0000000   0.0000000   0.0000000   0.0000000   0.0000000   0.0000000   0.0000000
 NMagM=    2.7928460   2.7928460   2.7928460   0.0000000   2.7928460   2.7928460   0.0000000   2.7928460   2.7928460   0.0000000
 AtZNuc=   1.0000000   1.0000000   1.0000000   6.0000000   1.0000000   1.0000000   6.0000000   1.0000000   1.0000000   6.0000000

  Atom        51          52          53          54          55          56          57          58          59          60
 IAtWgt=           1           1          12           1          12           1           1           1          12           1
 AtmWgt=   1.0078250   1.0078250  12.0000000   1.0078250  12.0000000   1.0078250   1.0078250   1.0078250  12.0000000   1.0078250
 NucSpn=           1           1           0           1           0           1           1           1           0           1
 AtZEff=   0.0000000   0.0000000   0.0000000   0.0000000   0.0000000   0.0000000   0.0000000   0.0000000   0.0000000   0.0000000
 NQMom=    0.0000000   0.0000000   0.0000000   0.0000000   0.0000000   0.0000000   0.0000000   0.0000000   0.0000000   0.0000000
 NMagM=    2.7928460   2.7928460   0.0000000   2.7928460   0.0000000   2.7928460   2.7928460   2.7928460   0.0000000   2.7928460
 AtZNuc=   1.0000000   1.0000000   6.0000000   1.0000000   6.0000000   1.0000000   1.0000000   1.0000000   6.0000000   1.0000000

  Atom        61          62          63          64          65          66          67          68          69          70
 IAtWgt=           1          12           1           1          12           1          12           1           1           1
 AtmWgt=   1.0078250  12.0000000   1.0078250   1.0078250  12.0000000   1.0078250  12.0000000   1.0078250   1.0078250   1.0078250
 NucSpn=           1           0           1           1           0           1           0           1           1           1
 AtZEff=   0.0000000   0.0000000   0.0000000   0.0000000   0.0000000   0.0000000   0.0000000   0.0000000   0.0000000   0.0000000
 NQMom=    0.0000000   0.0000000   0.0000000   0.0000000   0.0000000   0.0000000   0.0000000   0.0000000   0.0000000   0.0000000
 NMagM=    2.7928460   0.0000000   2.7928460   2.7928460   0.0000000   2.7928460   0.0000000   2.7928460   2.7928460   2.7928460
 AtZNuc=   1.0000000   6.0000000   1.0000000   1.0000000   6.0000000   1.0000000   6.0000000   1.0000000   1.0000000   1.0000000

  Atom        71          72          73          74
 IAtWgt=          12           1           1           1
 AtmWgt=  12.0000000   1.0078250   1.0078250   1.0078250
 NucSpn=           0           1           1           1
 AtZEff=   0.0000000   0.0000000   0.0000000   0.0000000
 NQMom=    0.0000000   0.0000000   0.0000000   0.0000000
 NMagM=    0.0000000   2.7928460   2.7928460   2.7928460
 AtZNuc=   6.0000000   1.0000000   1.0000000   1.0000000
 Leave Link  101 at Mon Mar 20 13:00:47 2017, MaxMem=    33554432 cpu:         1.0
 (Enter /home/michal/g09/l202.exe)
 Symmetry turned off by external request.
 Stoichiometry    C27H46O
 Framework group  C1[X(C27H46O)]
 Deg. of freedom   216
 Full point group                 C1      NOp   1
                          Input orientation:                          
 ---------------------------------------------------------------------
 Center     Atomic      Atomic             Coordinates (Angstroms)
 Number     Number       Type             X           Y           Z
 ---------------------------------------------------------------------
      1          8           0       -3.735068   -3.615142   -4.118460
      2          1           0       -3.885052   -4.455971   -3.666293
      3          6           0        1.601099    2.064040    0.000000
      4          6           0        1.327178    0.608194    0.472424
      5          1           0        2.118029    0.000000    0.000000
      6          6           0        0.000000    0.000000    0.000000
      7          1           0       -0.833659    0.579175    0.421887
      8          6           0       -0.080000    0.047587   -1.548098
      9          1           0        0.698372   -0.647426   -1.904488
     10          6           0        2.985893    2.319353    0.692052
     11          1           0        3.725594    1.743450    0.113095
     12          6           0        1.597283    2.026352   -1.542680
     13          1           0        2.443249    1.410163   -1.880365
     14          1           0        1.746555    3.020924   -1.974645
     15          6           0       -1.436537   -0.513701   -2.102364
     16          6           0        1.639578    0.630252    1.975698
     17          1           0        1.894250   -0.360532    2.365055
     18          1           0        0.770691    0.980044    2.546983
     19          6           0        0.282052    1.445065   -2.101823
     20          1           0       -0.528230    2.150559   -1.889110
     21          1           0        0.361262    1.399870   -3.193942
     22          6           0        2.823866    1.628751    2.089960
     23          1           0        2.628180    2.379165    2.865213
     24          1           0        3.745676    1.117332    2.382715
     25          6           0       -0.143223   -1.451435    0.485860
     26          1           0       -0.357853   -1.469402    1.562677
     27          1           0        0.821596   -1.973525    0.372899
     28          6           0        3.536440    3.765491    0.804848
     29          1           0        2.838408    4.335334    1.434182
     30          6           0        0.546574    3.064826    0.526179
     31          1           0        0.735851    4.068741    0.131913
     32          1           0       -0.469661    2.789941    0.233227
     33          1           0        0.559143    3.137175    1.617990
     34          6           0       -1.804601   -1.817474   -1.380103
     35          6           0       -1.260173   -0.832704   -3.619800
     36          1           0       -0.325745   -1.397480   -3.744615
     37          1           0       -1.134688    0.102213   -4.176739
     38          6           0       -1.206963   -2.217571   -0.248039
     39          1           0       -1.506682   -3.170138    0.190444
     40          6           0       -2.594793    0.503203   -1.917992
     41          1           0       -2.464186    1.379360   -2.560923
     42          1           0       -3.561457    0.060886   -2.171274
     43          1           0       -2.658746    0.845281   -0.880371
     44          6           0       -2.897184   -2.659508   -2.012497
     45          1           0       -3.000931   -3.600834   -1.457495
     46          1           0       -3.868396   -2.148295   -1.951945
     47          6           0       -2.405487   -1.639124   -4.249186
     48          1           0       -3.342604   -1.068569   -4.243031
     49          1           0       -2.177627   -1.856672   -5.298864
     50          6           0        4.912860    3.746392    1.518508
     51          1           0        4.821788    3.193447    2.460701
     52          1           0        5.611663    3.169484    0.894244
     53          6           0       -2.631238   -2.944532   -3.497726
     54          1           0       -1.726535   -3.568659   -3.585728
     55          6           0        3.647005    4.482720   -0.551328
     56          1           0        4.276524    3.913672   -1.247217
     57          1           0        4.093216    5.475573   -0.439784
     58          1           0        2.672420    4.624269   -1.023223
     59          6           0        5.556741    5.110155    1.839705
     60          1           0        6.540651    4.908337    2.281711
     61          1           0        5.754942    5.662754    0.913918
     62          6           0        4.733988    5.979731    2.804777
     63          1           0        4.480726    5.377597    3.689939
     64          1           0        3.777142    6.240940    2.333284
     65          6           0        5.401135    7.290626    3.285362
     66          1           0        4.666746    7.777984    3.943735
     67          6           0        5.689322    8.265495    2.131482
     68          1           0        4.789749    8.453511    1.533503
     69          1           0        6.042413    9.229702    2.514680
     70          1           0        6.463432    7.878122    1.459094
     71          6           0        6.663889    7.042874    4.127341
     72          1           0        6.461696    6.354801    4.956659
     73          1           0        7.036019    7.980813    4.555186
     74          1           0        7.474945    6.614563    3.527279
 ---------------------------------------------------------------------
 Rotational constants (GHZ):      0.6065237      0.0551315      0.0528525
 Leave Link  202 at Mon Mar 20 13:00:47 2017, MaxMem=    33554432 cpu:         0.0
 (Enter /home/michal/g09/l301.exe)
 Standard basis: 6-31G(d) (6D, 7F)
 Ernie: Thresh=  0.10000D-02 Tol=  0.10000D-05 Strict=F.
 AO basis set in the form of general basis input (Overlap normalization):
      1 0
 S   6 1.00       0.000000000000
      0.5484671660D+04  0.1831074430D-02
      0.8252349460D+03  0.1395017220D-01
      0.1880469580D+03  0.6844507810D-01
      0.5296450000D+02  0.2327143360D+00
      0.1689757040D+02  0.4701928980D+00
      0.5799635340D+01  0.3585208530D+00
 SP   3 1.00       0.000000000000
      0.1553961625D+02 -0.1107775495D+00  0.7087426823D-01
      0.3599933586D+01 -0.1480262627D+00  0.3397528391D+00
      0.1013761750D+01  0.1130767015D+01  0.7271585773D+00
 SP   1 1.00       0.000000000000
      0.2700058226D+00  0.1000000000D+01  0.1000000000D+01
 D   1 1.00       0.000000000000
      0.8000000000D+00  0.1000000000D+01
 ****
      2 0
 S   3 1.00       0.000000000000
      0.1873113696D+02  0.3349460434D-01
      0.2825394365D+01  0.2347269535D+00
      0.6401216923D+00  0.8137573261D+00
 S   1 1.00       0.000000000000
      0.1612777588D+00  0.1000000000D+01
 ****
      3 0
 S   6 1.00       0.000000000000
      0.3047524880D+04  0.1834737132D-02
      0.4573695180D+03  0.1403732281D-01
      0.1039486850D+03  0.6884262226D-01
      0.2921015530D+02  0.2321844432D+00
      0.9286662960D+01  0.4679413484D+00
      0.3163926960D+01  0.3623119853D+00
 SP   3 1.00       0.000000000000
      0.7868272350D+01 -0.1193324198D+00  0.6899906659D-01
      0.1881288540D+01 -0.1608541517D+00  0.3164239610D+00
      0.5442492580D+00  0.1143456438D+01  0.7443082909D+00
 SP   1 1.00       0.000000000000
      0.1687144782D+00  0.1000000000D+01  0.1000000000D+01
 D   1 1.00       0.000000000000
      0.8000000000D+00  0.1000000000D+01
 ****
      4 0
 S   6 1.00       0.000000000000
      0.3047524880D+04  0.1834737132D-02
      0.4573695180D+03  0.1403732281D-01
      0.1039486850D+03  0.6884262226D-01
      0.2921015530D+02  0.2321844432D+00
      0.9286662960D+01  0.4679413484D+00
      0.3163926960D+01  0.3623119853D+00
 SP   3 1.00       0.000000000000
      0.7868272350D+01 -0.1193324198D+00  0.6899906659D-01
      0.1881288540D+01 -0.1608541517D+00  0.3164239610D+00
      0.5442492580D+00  0.1143456438D+01  0.7443082909D+00
 SP   1 1.00       0.000000000000
      0.1687144782D+00  0.1000000000D+01  0.1000000000D+01
 D   1 1.00       0.000000000000
      0.8000000000D+00  0.1000000000D+01
 ****
      5 0
 S   3 1.00       0.000000000000
      0.1873113696D+02  0.3349460434D-01
      0.2825394365D+01  0.2347269535D+00
      0.6401216923D+00  0.8137573261D+00
 S   1 1.00       0.000000000000
      0.1612777588D+00  0.1000000000D+01
 ****
      6 0
 S   6 1.00       0.000000000000
      0.3047524880D+04  0.1834737132D-02
      0.4573695180D+03  0.1403732281D-01
      0.1039486850D+03  0.6884262226D-01
      0.2921015530D+02  0.2321844432D+00
      0.9286662960D+01  0.4679413484D+00
      0.3163926960D+01  0.3623119853D+00
 SP   3 1.00       0.000000000000
      0.7868272350D+01 -0.1193324198D+00  0.6899906659D-01
      0.1881288540D+01 -0.1608541517D+00  0.3164239610D+00
      0.5442492580D+00  0.1143456438D+01  0.7443082909D+00
 SP   1 1.00       0.000000000000
      0.1687144782D+00  0.1000000000D+01  0.1000000000D+01
 D   1 1.00       0.000000000000
      0.8000000000D+00  0.1000000000D+01
 ****
      7 0
 S   3 1.00       0.000000000000
      0.1873113696D+02  0.3349460434D-01
      0.2825394365D+01  0.2347269535D+00
      0.6401216923D+00  0.8137573261D+00
 S   1 1.00       0.000000000000
      0.1612777588D+00  0.1000000000D+01
 ****
      8 0
 S   6 1.00       0.000000000000
      0.3047524880D+04  0.1834737132D-02
      0.4573695180D+03  0.1403732281D-01
      0.1039486850D+03  0.6884262226D-01
      0.2921015530D+02  0.2321844432D+00
      0.9286662960D+01  0.4679413484D+00
      0.3163926960D+01  0.3623119853D+00
 SP   3 1.00       0.000000000000
      0.7868272350D+01 -0.1193324198D+00  0.6899906659D-01
      0.1881288540D+01 -0.1608541517D+00  0.3164239610D+00
      0.5442492580D+00  0.1143456438D+01  0.7443082909D+00
 SP   1 1.00       0.000000000000
      0.1687144782D+00  0.1000000000D+01  0.1000000000D+01
 D   1 1.00       0.000000000000
      0.8000000000D+00  0.1000000000D+01
 ****
      9 0
 S   3 1.00       0.000000000000
      0.1873113696D+02  0.3349460434D-01
      0.2825394365D+01  0.2347269535D+00
      0.6401216923D+00  0.8137573261D+00
 S   1 1.00       0.000000000000
      0.1612777588D+00  0.1000000000D+01
 ****
     10 0
 S   6 1.00       0.000000000000
      0.3047524880D+04  0.1834737132D-02
      0.4573695180D+03  0.1403732281D-01
      0.1039486850D+03  0.6884262226D-01
      0.2921015530D+02  0.2321844432D+00
      0.9286662960D+01  0.4679413484D+00
      0.3163926960D+01  0.3623119853D+00
 SP   3 1.00       0.000000000000
      0.7868272350D+01 -0.1193324198D+00  0.6899906659D-01
      0.1881288540D+01 -0.1608541517D+00  0.3164239610D+00
      0.5442492580D+00  0.1143456438D+01  0.7443082909D+00
 SP   1 1.00       0.000000000000
      0.1687144782D+00  0.1000000000D+01  0.1000000000D+01
 D   1 1.00       0.000000000000
      0.8000000000D+00  0.1000000000D+01
 ****
     11 0
 S   3 1.00       0.000000000000
      0.1873113696D+02  0.3349460434D-01
      0.2825394365D+01  0.2347269535D+00
      0.6401216923D+00  0.8137573261D+00
 S   1 1.00       0.000000000000
      0.1612777588D+00  0.1000000000D+01
 ****
     12 0
 S   6 1.00       0.000000000000
      0.3047524880D+04  0.1834737132D-02
      0.4573695180D+03  0.1403732281D-01
      0.1039486850D+03  0.6884262226D-01
      0.2921015530D+02  0.2321844432D+00
      0.9286662960D+01  0.4679413484D+00
      0.3163926960D+01  0.3623119853D+00
 SP   3 1.00       0.000000000000
      0.7868272350D+01 -0.1193324198D+00  0.6899906659D-01
      0.1881288540D+01 -0.1608541517D+00  0.3164239610D+00
      0.5442492580D+00  0.1143456438D+01  0.7443082909D+00
 SP   1 1.00       0.000000000000
      0.1687144782D+00  0.1000000000D+01  0.1000000000D+01
 D   1 1.00       0.000000000000
      0.8000000000D+00  0.1000000000D+01
 ****
     13 0
 S   3 1.00       0.000000000000
      0.1873113696D+02  0.3349460434D-01
      0.2825394365D+01  0.2347269535D+00
      0.6401216923D+00  0.8137573261D+00
 S   1 1.00       0.000000000000
      0.1612777588D+00  0.1000000000D+01
 ****
     14 0
 S   3 1.00       0.000000000000
      0.1873113696D+02  0.3349460434D-01
      0.2825394365D+01  0.2347269535D+00
      0.6401216923D+00  0.8137573261D+00
 S   1 1.00       0.000000000000
      0.1612777588D+00  0.1000000000D+01
 ****
     15 0
 S   6 1.00       0.000000000000
      0.3047524880D+04  0.1834737132D-02
      0.4573695180D+03  0.1403732281D-01
      0.1039486850D+03  0.6884262226D-01
      0.2921015530D+02  0.2321844432D+00
      0.9286662960D+01  0.4679413484D+00
      0.3163926960D+01  0.3623119853D+00
 SP   3 1.00       0.000000000000
      0.7868272350D+01 -0.1193324198D+00  0.6899906659D-01
      0.1881288540D+01 -0.1608541517D+00  0.3164239610D+00
      0.5442492580D+00  0.1143456438D+01  0.7443082909D+00
 SP   1 1.00       0.000000000000
      0.1687144782D+00  0.1000000000D+01  0.1000000000D+01
 D   1 1.00       0.000000000000
      0.8000000000D+00  0.1000000000D+01
 ****
     16 0
 S   6 1.00       0.000000000000
      0.3047524880D+04  0.1834737132D-02
      0.4573695180D+03  0.1403732281D-01
      0.1039486850D+03  0.6884262226D-01
      0.2921015530D+02  0.2321844432D+00
      0.9286662960D+01  0.4679413484D+00
      0.3163926960D+01  0.3623119853D+00
 SP   3 1.00       0.000000000000
      0.7868272350D+01 -0.1193324198D+00  0.6899906659D-01
      0.1881288540D+01 -0.1608541517D+00  0.3164239610D+00
      0.5442492580D+00  0.1143456438D+01  0.7443082909D+00
 SP   1 1.00       0.000000000000
      0.1687144782D+00  0.1000000000D+01  0.1000000000D+01
 D   1 1.00       0.000000000000
      0.8000000000D+00  0.1000000000D+01
 ****
     17 0
 S   3 1.00       0.000000000000
      0.1873113696D+02  0.3349460434D-01
      0.2825394365D+01  0.2347269535D+00
      0.6401216923D+00  0.8137573261D+00
 S   1 1.00       0.000000000000
      0.1612777588D+00  0.1000000000D+01
 ****
     18 0
 S   3 1.00       0.000000000000
      0.1873113696D+02  0.3349460434D-01
      0.2825394365D+01  0.2347269535D+00
      0.6401216923D+00  0.8137573261D+00
 S   1 1.00       0.000000000000
      0.1612777588D+00  0.1000000000D+01
 ****
     19 0
 S   6 1.00       0.000000000000
      0.3047524880D+04  0.1834737132D-02
      0.4573695180D+03  0.1403732281D-01
      0.1039486850D+03  0.6884262226D-01
      0.2921015530D+02  0.2321844432D+00
      0.9286662960D+01  0.4679413484D+00
      0.3163926960D+01  0.3623119853D+00
 SP   3 1.00       0.000000000000
      0.7868272350D+01 -0.1193324198D+00  0.6899906659D-01
      0.1881288540D+01 -0.1608541517D+00  0.3164239610D+00
      0.5442492580D+00  0.1143456438D+01  0.7443082909D+00
 SP   1 1.00       0.000000000000
      0.1687144782D+00  0.1000000000D+01  0.1000000000D+01
 D   1 1.00       0.000000000000
      0.8000000000D+00  0.1000000000D+01
 ****
     20 0
 S   3 1.00       0.000000000000
      0.1873113696D+02  0.3349460434D-01
      0.2825394365D+01  0.2347269535D+00
      0.6401216923D+00  0.8137573261D+00
 S   1 1.00       0.000000000000
      0.1612777588D+00  0.1000000000D+01
 ****
     21 0
 S   3 1.00       0.000000000000
      0.1873113696D+02  0.3349460434D-01
      0.2825394365D+01  0.2347269535D+00
      0.6401216923D+00  0.8137573261D+00
 S   1 1.00       0.000000000000
      0.1612777588D+00  0.1000000000D+01
 ****
     22 0
 S   6 1.00       0.000000000000
      0.3047524880D+04  0.1834737132D-02
      0.4573695180D+03  0.1403732281D-01
      0.1039486850D+03  0.6884262226D-01
      0.2921015530D+02  0.2321844432D+00
      0.9286662960D+01  0.4679413484D+00
      0.3163926960D+01  0.3623119853D+00
 SP   3 1.00       0.000000000000
      0.7868272350D+01 -0.1193324198D+00  0.6899906659D-01
      0.1881288540D+01 -0.1608541517D+00  0.3164239610D+00
      0.5442492580D+00  0.1143456438D+01  0.7443082909D+00
 SP   1 1.00       0.000000000000
      0.1687144782D+00  0.1000000000D+01  0.1000000000D+01
 D   1 1.00       0.000000000000
      0.8000000000D+00  0.1000000000D+01
 ****
     23 0
 S   3 1.00       0.000000000000
      0.1873113696D+02  0.3349460434D-01
      0.2825394365D+01  0.2347269535D+00
      0.6401216923D+00  0.8137573261D+00
 S   1 1.00       0.000000000000
      0.1612777588D+00  0.1000000000D+01
 ****
     24 0
 S   3 1.00       0.000000000000
      0.1873113696D+02  0.3349460434D-01
      0.2825394365D+01  0.2347269535D+00
      0.6401216923D+00  0.8137573261D+00
 S   1 1.00       0.000000000000
      0.1612777588D+00  0.1000000000D+01
 ****
     25 0
 S   6 1.00       0.000000000000
      0.3047524880D+04  0.1834737132D-02
      0.4573695180D+03  0.1403732281D-01
      0.1039486850D+03  0.6884262226D-01
      0.2921015530D+02  0.2321844432D+00
      0.9286662960D+01  0.4679413484D+00
      0.3163926960D+01  0.3623119853D+00
 SP   3 1.00       0.000000000000
      0.7868272350D+01 -0.1193324198D+00  0.6899906659D-01
      0.1881288540D+01 -0.1608541517D+00  0.3164239610D+00
      0.5442492580D+00  0.1143456438D+01  0.7443082909D+00
 SP   1 1.00       0.000000000000
      0.1687144782D+00  0.1000000000D+01  0.1000000000D+01
 D   1 1.00       0.000000000000
      0.8000000000D+00  0.1000000000D+01
 ****
     26 0
 S   3 1.00       0.000000000000
      0.1873113696D+02  0.3349460434D-01
      0.2825394365D+01  0.2347269535D+00
      0.6401216923D+00  0.8137573261D+00
 S   1 1.00       0.000000000000
      0.1612777588D+00  0.1000000000D+01
 ****
     27 0
 S   3 1.00       0.000000000000
      0.1873113696D+02  0.3349460434D-01
      0.2825394365D+01  0.2347269535D+00
      0.6401216923D+00  0.8137573261D+00
 S   1 1.00       0.000000000000
      0.1612777588D+00  0.1000000000D+01
 ****
     28 0
 S   6 1.00       0.000000000000
      0.3047524880D+04  0.1834737132D-02
      0.4573695180D+03  0.1403732281D-01
      0.1039486850D+03  0.6884262226D-01
      0.2921015530D+02  0.2321844432D+00
      0.9286662960D+01  0.4679413484D+00
      0.3163926960D+01  0.3623119853D+00
 SP   3 1.00       0.000000000000
      0.7868272350D+01 -0.1193324198D+00  0.6899906659D-01
      0.1881288540D+01 -0.1608541517D+00  0.3164239610D+00
      0.5442492580D+00  0.1143456438D+01  0.7443082909D+00
 SP   1 1.00       0.000000000000
      0.1687144782D+00  0.1000000000D+01  0.1000000000D+01
 D   1 1.00       0.000000000000
      0.8000000000D+00  0.1000000000D+01
 ****
     29 0
 S   3 1.00       0.000000000000
      0.1873113696D+02  0.3349460434D-01
      0.2825394365D+01  0.2347269535D+00
      0.6401216923D+00  0.8137573261D+00
 S   1 1.00       0.000000000000
      0.1612777588D+00  0.1000000000D+01
 ****
     30 0
 S   6 1.00       0.000000000000
      0.3047524880D+04  0.1834737132D-02
      0.4573695180D+03  0.1403732281D-01
      0.1039486850D+03  0.6884262226D-01
      0.2921015530D+02  0.2321844432D+00
      0.9286662960D+01  0.4679413484D+00
      0.3163926960D+01  0.3623119853D+00
 SP   3 1.00       0.000000000000
      0.7868272350D+01 -0.1193324198D+00  0.6899906659D-01
      0.1881288540D+01 -0.1608541517D+00  0.3164239610D+00
      0.5442492580D+00  0.1143456438D+01  0.7443082909D+00
 SP   1 1.00       0.000000000000
      0.1687144782D+00  0.1000000000D+01  0.1000000000D+01
 D   1 1.00       0.000000000000
      0.8000000000D+00  0.1000000000D+01
 ****
     31 0
 S   3 1.00       0.000000000000
      0.1873113696D+02  0.3349460434D-01
      0.2825394365D+01  0.2347269535D+00
      0.6401216923D+00  0.8137573261D+00
 S   1 1.00       0.000000000000
      0.1612777588D+00  0.1000000000D+01
 ****
     32 0
 S   3 1.00       0.000000000000
      0.1873113696D+02  0.3349460434D-01
      0.2825394365D+01  0.2347269535D+00
      0.6401216923D+00  0.8137573261D+00
 S   1 1.00       0.000000000000
      0.1612777588D+00  0.1000000000D+01
 ****
     33 0
 S   3 1.00       0.000000000000
      0.1873113696D+02  0.3349460434D-01
      0.2825394365D+01  0.2347269535D+00
      0.6401216923D+00  0.8137573261D+00
 S   1 1.00       0.000000000000
      0.1612777588D+00  0.1000000000D+01
 ****
     34 0
 S   6 1.00       0.000000000000
      0.3047524880D+04  0.1834737132D-02
      0.4573695180D+03  0.1403732281D-01
      0.1039486850D+03  0.6884262226D-01
      0.2921015530D+02  0.2321844432D+00
      0.9286662960D+01  0.4679413484D+00
      0.3163926960D+01  0.3623119853D+00
 SP   3 1.00       0.000000000000
      0.7868272350D+01 -0.1193324198D+00  0.6899906659D-01
      0.1881288540D+01 -0.1608541517D+00  0.3164239610D+00
      0.5442492580D+00  0.1143456438D+01  0.7443082909D+00
 SP   1 1.00       0.000000000000
      0.1687144782D+00  0.1000000000D+01  0.1000000000D+01
 D   1 1.00       0.000000000000
      0.8000000000D+00  0.1000000000D+01
 ****
     35 0
 S   6 1.00       0.000000000000
      0.3047524880D+04  0.1834737132D-02
      0.4573695180D+03  0.1403732281D-01
      0.1039486850D+03  0.6884262226D-01
      0.2921015530D+02  0.2321844432D+00
      0.9286662960D+01  0.4679413484D+00
      0.3163926960D+01  0.3623119853D+00
 SP   3 1.00       0.000000000000
      0.7868272350D+01 -0.1193324198D+00  0.6899906659D-01
      0.1881288540D+01 -0.1608541517D+00  0.3164239610D+00
      0.5442492580D+00  0.1143456438D+01  0.7443082909D+00
 SP   1 1.00       0.000000000000
      0.1687144782D+00  0.1000000000D+01  0.1000000000D+01
 D   1 1.00       0.000000000000
      0.8000000000D+00  0.1000000000D+01
 ****
     36 0
 S   3 1.00       0.000000000000
      0.1873113696D+02  0.3349460434D-01
      0.2825394365D+01  0.2347269535D+00
      0.6401216923D+00  0.8137573261D+00
 S   1 1.00       0.000000000000
      0.1612777588D+00  0.1000000000D+01
 ****
     37 0
 S   3 1.00       0.000000000000
      0.1873113696D+02  0.3349460434D-01
      0.2825394365D+01  0.2347269535D+00
      0.6401216923D+00  0.8137573261D+00
 S   1 1.00       0.000000000000
      0.1612777588D+00  0.1000000000D+01
 ****
     38 0
 S   6 1.00       0.000000000000
      0.3047524880D+04  0.1834737132D-02
      0.4573695180D+03  0.1403732281D-01
      0.1039486850D+03  0.6884262226D-01
      0.2921015530D+02  0.2321844432D+00
      0.9286662960D+01  0.4679413484D+00
      0.3163926960D+01  0.3623119853D+00
 SP   3 1.00       0.000000000000
      0.7868272350D+01 -0.1193324198D+00  0.6899906659D-01
      0.1881288540D+01 -0.1608541517D+00  0.3164239610D+00
      0.5442492580D+00  0.1143456438D+01  0.7443082909D+00
 SP   1 1.00       0.000000000000
      0.1687144782D+00  0.1000000000D+01  0.1000000000D+01
 D   1 1.00       0.000000000000
      0.8000000000D+00  0.1000000000D+01
 ****
     39 0
 S   3 1.00       0.000000000000
      0.1873113696D+02  0.3349460434D-01
      0.2825394365D+01  0.2347269535D+00
      0.6401216923D+00  0.8137573261D+00
 S   1 1.00       0.000000000000
      0.1612777588D+00  0.1000000000D+01
 ****
     40 0
 S   6 1.00       0.000000000000
      0.3047524880D+04  0.1834737132D-02
      0.4573695180D+03  0.1403732281D-01
      0.1039486850D+03  0.6884262226D-01
      0.2921015530D+02  0.2321844432D+00
      0.9286662960D+01  0.4679413484D+00
      0.3163926960D+01  0.3623119853D+00
 SP   3 1.00       0.000000000000
      0.7868272350D+01 -0.1193324198D+00  0.6899906659D-01
      0.1881288540D+01 -0.1608541517D+00  0.3164239610D+00
      0.5442492580D+00  0.1143456438D+01  0.7443082909D+00
 SP   1 1.00       0.000000000000
      0.1687144782D+00  0.1000000000D+01  0.1000000000D+01
 D   1 1.00       0.000000000000
      0.8000000000D+00  0.1000000000D+01
 ****
     41 0
 S   3 1.00       0.000000000000
      0.1873113696D+02  0.3349460434D-01
      0.2825394365D+01  0.2347269535D+00
      0.6401216923D+00  0.8137573261D+00
 S   1 1.00       0.000000000000
      0.1612777588D+00  0.1000000000D+01
 ****
     42 0
 S   3 1.00       0.000000000000
      0.1873113696D+02  0.3349460434D-01
      0.2825394365D+01  0.2347269535D+00
      0.6401216923D+00  0.8137573261D+00
 S   1 1.00       0.000000000000
      0.1612777588D+00  0.1000000000D+01
 ****
     43 0
 S   3 1.00       0.000000000000
      0.1873113696D+02  0.3349460434D-01
      0.2825394365D+01  0.2347269535D+00
      0.6401216923D+00  0.8137573261D+00
 S   1 1.00       0.000000000000
      0.1612777588D+00  0.1000000000D+01
 ****
     44 0
 S   6 1.00       0.000000000000
      0.3047524880D+04  0.1834737132D-02
      0.4573695180D+03  0.1403732281D-01
      0.1039486850D+03  0.6884262226D-01
      0.2921015530D+02  0.2321844432D+00
      0.9286662960D+01  0.4679413484D+00
      0.3163926960D+01  0.3623119853D+00
 SP   3 1.00       0.000000000000
      0.7868272350D+01 -0.1193324198D+00  0.6899906659D-01
      0.1881288540D+01 -0.1608541517D+00  0.3164239610D+00
      0.5442492580D+00  0.1143456438D+01  0.7443082909D+00
 SP   1 1.00       0.000000000000
      0.1687144782D+00  0.1000000000D+01  0.1000000000D+01
 D   1 1.00       0.000000000000
      0.8000000000D+00  0.1000000000D+01
 ****
     45 0
 S   3 1.00       0.000000000000
      0.1873113696D+02  0.3349460434D-01
      0.2825394365D+01  0.2347269535D+00
      0.6401216923D+00  0.8137573261D+00
 S   1 1.00       0.000000000000
      0.1612777588D+00  0.1000000000D+01
 ****
     46 0
 S   3 1.00       0.000000000000
      0.1873113696D+02  0.3349460434D-01
      0.2825394365D+01  0.2347269535D+00
      0.6401216923D+00  0.8137573261D+00
 S   1 1.00       0.000000000000
      0.1612777588D+00  0.1000000000D+01
 ****
     47 0
 S   6 1.00       0.000000000000
      0.3047524880D+04  0.1834737132D-02
      0.4573695180D+03  0.1403732281D-01
      0.1039486850D+03  0.6884262226D-01
      0.2921015530D+02  0.2321844432D+00
      0.9286662960D+01  0.4679413484D+00
      0.3163926960D+01  0.3623119853D+00
 SP   3 1.00       0.000000000000
      0.7868272350D+01 -0.1193324198D+00  0.6899906659D-01
      0.1881288540D+01 -0.1608541517D+00  0.3164239610D+00
      0.5442492580D+00  0.1143456438D+01  0.7443082909D+00
 SP   1 1.00       0.000000000000
      0.1687144782D+00  0.1000000000D+01  0.1000000000D+01
 D   1 1.00       0.000000000000
      0.8000000000D+00  0.1000000000D+01
 ****
     48 0
 S   3 1.00       0.000000000000
      0.1873113696D+02  0.3349460434D-01
      0.2825394365D+01  0.2347269535D+00
      0.6401216923D+00  0.8137573261D+00
 S   1 1.00       0.000000000000
      0.1612777588D+00  0.1000000000D+01
 ****
     49 0
 S   3 1.00       0.000000000000
      0.1873113696D+02  0.3349460434D-01
      0.2825394365D+01  0.2347269535D+00
      0.6401216923D+00  0.8137573261D+00
 S   1 1.00       0.000000000000
      0.1612777588D+00  0.1000000000D+01
 ****
     50 0
 S   6 1.00       0.000000000000
      0.3047524880D+04  0.1834737132D-02
      0.4573695180D+03  0.1403732281D-01
      0.1039486850D+03  0.6884262226D-01
      0.2921015530D+02  0.2321844432D+00
      0.9286662960D+01  0.4679413484D+00
      0.3163926960D+01  0.3623119853D+00
 SP   3 1.00       0.000000000000
      0.7868272350D+01 -0.1193324198D+00  0.6899906659D-01
      0.1881288540D+01 -0.1608541517D+00  0.3164239610D+00
      0.5442492580D+00  0.1143456438D+01  0.7443082909D+00
 SP   1 1.00       0.000000000000
      0.1687144782D+00  0.1000000000D+01  0.1000000000D+01
 D   1 1.00       0.000000000000
      0.8000000000D+00  0.1000000000D+01
 ****
     51 0
 S   3 1.00       0.000000000000
      0.1873113696D+02  0.3349460434D-01
      0.2825394365D+01  0.2347269535D+00
      0.6401216923D+00  0.8137573261D+00
 S   1 1.00       0.000000000000
      0.1612777588D+00  0.1000000000D+01
 ****
     52 0
 S   3 1.00       0.000000000000
      0.1873113696D+02  0.3349460434D-01
      0.2825394365D+01  0.2347269535D+00
      0.6401216923D+00  0.8137573261D+00
 S   1 1.00       0.000000000000
      0.1612777588D+00  0.1000000000D+01
 ****
     53 0
 S   6 1.00       0.000000000000
      0.3047524880D+04  0.1834737132D-02
      0.4573695180D+03  0.1403732281D-01
      0.1039486850D+03  0.6884262226D-01
      0.2921015530D+02  0.2321844432D+00
      0.9286662960D+01  0.4679413484D+00
      0.3163926960D+01  0.3623119853D+00
 SP   3 1.00       0.000000000000
      0.7868272350D+01 -0.1193324198D+00  0.6899906659D-01
      0.1881288540D+01 -0.1608541517D+00  0.3164239610D+00
      0.5442492580D+00  0.1143456438D+01  0.7443082909D+00
 SP   1 1.00       0.000000000000
      0.1687144782D+00  0.1000000000D+01  0.1000000000D+01
 D   1 1.00       0.000000000000
      0.8000000000D+00  0.1000000000D+01
 ****
     54 0
 S   3 1.00       0.000000000000
      0.1873113696D+02  0.3349460434D-01
      0.2825394365D+01  0.2347269535D+00
      0.6401216923D+00  0.8137573261D+00
 S   1 1.00       0.000000000000
      0.1612777588D+00  0.1000000000D+01
 ****
     55 0
 S   6 1.00       0.000000000000
      0.3047524880D+04  0.1834737132D-02
      0.4573695180D+03  0.1403732281D-01
      0.1039486850D+03  0.6884262226D-01
      0.2921015530D+02  0.2321844432D+00
      0.9286662960D+01  0.4679413484D+00
      0.3163926960D+01  0.3623119853D+00
 SP   3 1.00       0.000000000000
      0.7868272350D+01 -0.1193324198D+00  0.6899906659D-01
      0.1881288540D+01 -0.1608541517D+00  0.3164239610D+00
      0.5442492580D+00  0.1143456438D+01  0.7443082909D+00
 SP   1 1.00       0.000000000000
      0.1687144782D+00  0.1000000000D+01  0.1000000000D+01
 D   1 1.00       0.000000000000
      0.8000000000D+00  0.1000000000D+01
 ****
     56 0
 S   3 1.00       0.000000000000
      0.1873113696D+02  0.3349460434D-01
      0.2825394365D+01  0.2347269535D+00
      0.6401216923D+00  0.8137573261D+00
 S   1 1.00       0.000000000000
      0.1612777588D+00  0.1000000000D+01
 ****
     57 0
 S   3 1.00       0.000000000000
      0.1873113696D+02  0.3349460434D-01
      0.2825394365D+01  0.2347269535D+00
      0.6401216923D+00  0.8137573261D+00
 S   1 1.00       0.000000000000
      0.1612777588D+00  0.1000000000D+01
 ****
     58 0
 S   3 1.00       0.000000000000
      0.1873113696D+02  0.3349460434D-01
      0.2825394365D+01  0.2347269535D+00
      0.6401216923D+00  0.8137573261D+00
 S   1 1.00       0.000000000000
      0.1612777588D+00  0.1000000000D+01
 ****
     59 0
 S   6 1.00       0.000000000000
      0.3047524880D+04  0.1834737132D-02
      0.4573695180D+03  0.1403732281D-01
      0.1039486850D+03  0.6884262226D-01
      0.2921015530D+02  0.2321844432D+00
      0.9286662960D+01  0.4679413484D+00
      0.3163926960D+01  0.3623119853D+00
 SP   3 1.00       0.000000000000
      0.7868272350D+01 -0.1193324198D+00  0.6899906659D-01
      0.1881288540D+01 -0.1608541517D+00  0.3164239610D+00
      0.5442492580D+00  0.1143456438D+01  0.7443082909D+00
 SP   1 1.00       0.000000000000
      0.1687144782D+00  0.1000000000D+01  0.1000000000D+01
 D   1 1.00       0.000000000000
      0.8000000000D+00  0.1000000000D+01
 ****
     60 0
 S   3 1.00       0.000000000000
      0.1873113696D+02  0.3349460434D-01
      0.2825394365D+01  0.2347269535D+00
      0.6401216923D+00  0.8137573261D+00
 S   1 1.00       0.000000000000
      0.1612777588D+00  0.1000000000D+01
 ****
     61 0
 S   3 1.00       0.000000000000
      0.1873113696D+02  0.3349460434D-01
      0.2825394365D+01  0.2347269535D+00
      0.6401216923D+00  0.8137573261D+00
 S   1 1.00       0.000000000000
      0.1612777588D+00  0.1000000000D+01
 ****
     62 0
 S   6 1.00       0.000000000000
      0.3047524880D+04  0.1834737132D-02
      0.4573695180D+03  0.1403732281D-01
      0.1039486850D+03  0.6884262226D-01
      0.2921015530D+02  0.2321844432D+00
      0.9286662960D+01  0.4679413484D+00
      0.3163926960D+01  0.3623119853D+00
 SP   3 1.00       0.000000000000
      0.7868272350D+01 -0.1193324198D+00  0.6899906659D-01
      0.1881288540D+01 -0.1608541517D+00  0.3164239610D+00
      0.5442492580D+00  0.1143456438D+01  0.7443082909D+00
 SP   1 1.00       0.000000000000
      0.1687144782D+00  0.1000000000D+01  0.1000000000D+01
 D   1 1.00       0.000000000000
      0.8000000000D+00  0.1000000000D+01
 ****
     63 0
 S   3 1.00       0.000000000000
      0.1873113696D+02  0.3349460434D-01
      0.2825394365D+01  0.2347269535D+00
      0.6401216923D+00  0.8137573261D+00
 S   1 1.00       0.000000000000
      0.1612777588D+00  0.1000000000D+01
 ****
     64 0
 S   3 1.00       0.000000000000
      0.1873113696D+02  0.3349460434D-01
      0.2825394365D+01  0.2347269535D+00
      0.6401216923D+00  0.8137573261D+00
 S   1 1.00       0.000000000000
      0.1612777588D+00  0.1000000000D+01
 ****
     65 0
 S   6 1.00       0.000000000000
      0.3047524880D+04  0.1834737132D-02
      0.4573695180D+03  0.1403732281D-01
      0.1039486850D+03  0.6884262226D-01
      0.2921015530D+02  0.2321844432D+00
      0.9286662960D+01  0.4679413484D+00
      0.3163926960D+01  0.3623119853D+00
 SP   3 1.00       0.000000000000
      0.7868272350D+01 -0.1193324198D+00  0.6899906659D-01
      0.1881288540D+01 -0.1608541517D+00  0.3164239610D+00
      0.5442492580D+00  0.1143456438D+01  0.7443082909D+00
 SP   1 1.00       0.000000000000
      0.1687144782D+00  0.1000000000D+01  0.1000000000D+01
 D   1 1.00       0.000000000000
      0.8000000000D+00  0.1000000000D+01
 ****
     66 0
 S   3 1.00       0.000000000000
      0.1873113696D+02  0.3349460434D-01
      0.2825394365D+01  0.2347269535D+00
      0.6401216923D+00  0.8137573261D+00
 S   1 1.00       0.000000000000
      0.1612777588D+00  0.1000000000D+01
 ****
     67 0
 S   6 1.00       0.000000000000
      0.3047524880D+04  0.1834737132D-02
      0.4573695180D+03  0.1403732281D-01
      0.1039486850D+03  0.6884262226D-01
      0.2921015530D+02  0.2321844432D+00
      0.9286662960D+01  0.4679413484D+00
      0.3163926960D+01  0.3623119853D+00
 SP   3 1.00       0.000000000000
      0.7868272350D+01 -0.1193324198D+00  0.6899906659D-01
      0.1881288540D+01 -0.1608541517D+00  0.3164239610D+00
      0.5442492580D+00  0.1143456438D+01  0.7443082909D+00
 SP   1 1.00       0.000000000000
      0.1687144782D+00  0.1000000000D+01  0.1000000000D+01
 D   1 1.00       0.000000000000
      0.8000000000D+00  0.1000000000D+01
 ****
     68 0
 S   3 1.00       0.000000000000
      0.1873113696D+02  0.3349460434D-01
      0.2825394365D+01  0.2347269535D+00
      0.6401216923D+00  0.8137573261D+00
 S   1 1.00       0.000000000000
      0.1612777588D+00  0.1000000000D+01
 ****
     69 0
 S   3 1.00       0.000000000000
      0.1873113696D+02  0.3349460434D-01
      0.2825394365D+01  0.2347269535D+00
      0.6401216923D+00  0.8137573261D+00
 S   1 1.00       0.000000000000
      0.1612777588D+00  0.1000000000D+01
 ****
     70 0
 S   3 1.00       0.000000000000
      0.1873113696D+02  0.3349460434D-01
      0.2825394365D+01  0.2347269535D+00
      0.6401216923D+00  0.8137573261D+00
 S   1 1.00       0.000000000000
      0.1612777588D+00  0.1000000000D+01
 ****
     71 0
 S   6 1.00       0.000000000000
      0.3047524880D+04  0.1834737132D-02
      0.4573695180D+03  0.1403732281D-01
      0.1039486850D+03  0.6884262226D-01
      0.2921015530D+02  0.2321844432D+00
      0.9286662960D+01  0.4679413484D+00
      0.3163926960D+01  0.3623119853D+00
 SP   3 1.00       0.000000000000
      0.7868272350D+01 -0.1193324198D+00  0.6899906659D-01
      0.1881288540D+01 -0.1608541517D+00  0.3164239610D+00
      0.5442492580D+00  0.1143456438D+01  0.7443082909D+00
 SP   1 1.00       0.000000000000
      0.1687144782D+00  0.1000000000D+01  0.1000000000D+01
 D   1 1.00       0.000000000000
      0.8000000000D+00  0.1000000000D+01
 ****
     72 0
 S   3 1.00       0.000000000000
      0.1873113696D+02  0.3349460434D-01
      0.2825394365D+01  0.2347269535D+00
      0.6401216923D+00  0.8137573261D+00
 S   1 1.00       0.000000000000
      0.1612777588D+00  0.1000000000D+01
 ****
     73 0
 S   3 1.00       0.000000000000
      0.1873113696D+02  0.3349460434D-01
      0.2825394365D+01  0.2347269535D+00
      0.6401216923D+00  0.8137573261D+00
 S   1 1.00       0.000000000000
      0.1612777588D+00  0.1000000000D+01
 ****
     74 0
 S   3 1.00       0.000000000000
      0.1873113696D+02  0.3349460434D-01
      0.2825394365D+01  0.2347269535D+00
      0.6401216923D+00  0.8137573261D+00
 S   1 1.00       0.000000000000
      0.1612777588D+00  0.1000000000D+01
 ****

 AO basis set (Overlap normalization):
 Atom O1       Shell     1 S   6     bf    1 -     1         -7.058255777780         -6.831628802821         -7.782761130196
      0.5484671660D+04  0.1831074430D-02
      0.8252349460D+03  0.1395017220D-01
      0.1880469580D+03  0.6844507810D-01
      0.5296450000D+02  0.2327143360D+00
      0.1689757040D+02  0.4701928980D+00
      0.5799635340D+01  0.3585208530D+00
 Atom O1       Shell     2 SP   3    bf    2 -     5         -7.058255777780         -6.831628802821         -7.782761130196
      0.1553961625D+02 -0.1107775495D+00  0.7087426823D-01
      0.3599933586D+01 -0.1480262627D+00  0.3397528391D+00
      0.1013761750D+01  0.1130767015D+01  0.7271585773D+00
 Atom O1       Shell     3 SP   1    bf    6 -     9         -7.058255777780         -6.831628802821         -7.782761130196
      0.2700058226D+00  0.1000000000D+01  0.1000000000D+01
 Atom O1       Shell     4 D   1     bf   10 -    15         -7.058255777780         -6.831628802821         -7.782761130196
      0.8000000000D+00  0.1000000000D+01
 Atom H2       Shell     5 S   3     bf   16 -    16         -7.341684669965         -8.420564751594         -6.928289239381
      0.1873113696D+02  0.3349460434D-01
      0.2825394365D+01  0.2347269535D+00
      0.6401216923D+00  0.8137573261D+00
 Atom H2       Shell     6 S   1     bf   17 -    17         -7.341684669965         -8.420564751594         -6.928289239381
      0.1612777588D+00  0.1000000000D+01
 Atom C3       Shell     7 S   6     bf   18 -    18          3.025637998027          3.900470024965          0.000000000000
      0.3047524880D+04  0.1834737132D-02
      0.4573695180D+03  0.1403732281D-01
      0.1039486850D+03  0.6884262226D-01
      0.2921015530D+02  0.2321844432D+00
      0.9286662960D+01  0.4679413484D+00
      0.3163926960D+01  0.3623119853D+00
 Atom C3       Shell     8 SP   3    bf   19 -    22          3.025637998027          3.900470024965          0.000000000000
      0.7868272350D+01 -0.1193324198D+00  0.6899906659D-01
      0.1881288540D+01 -0.1608541517D+00  0.3164239610D+00
      0.5442492580D+00  0.1143456438D+01  0.7443082909D+00
 Atom C3       Shell     9 SP   1    bf   23 -    26          3.025637998027          3.900470024965          0.000000000000
      0.1687144782D+00  0.1000000000D+01  0.1000000000D+01
 Atom C3       Shell    10 D   1     bf   27 -    32          3.025637998027          3.900470024965          0.000000000000
      0.8000000000D+00  0.1000000000D+01
 Atom C4       Shell    11 S   6     bf   33 -    33          2.508003818865          1.149319358671          0.892752640007
      0.3047524880D+04  0.1834737132D-02
      0.4573695180D+03  0.1403732281D-01
      0.1039486850D+03  0.6884262226D-01
      0.2921015530D+02  0.2321844432D+00
      0.9286662960D+01  0.4679413484D+00
      0.3163926960D+01  0.3623119853D+00
 Atom C4       Shell    12 SP   3    bf   34 -    37          2.508003818865          1.149319358671          0.892752640007
      0.7868272350D+01 -0.1193324198D+00  0.6899906659D-01
      0.1881288540D+01 -0.1608541517D+00  0.3164239610D+00
      0.5442492580D+00  0.1143456438D+01  0.7443082909D+00
 Atom C4       Shell    13 SP   1    bf   38 -    41          2.508003818865          1.149319358671          0.892752640007
      0.1687144782D+00  0.1000000000D+01  0.1000000000D+01
 Atom C4       Shell    14 D   1     bf   42 -    47          2.508003818865          1.149319358671          0.892752640007
      0.8000000000D+00  0.1000000000D+01
 Atom H5       Shell    15 S   3     bf   48 -    48          4.002495148352          0.000000000000          0.000000000000
      0.1873113696D+02  0.3349460434D-01
      0.2825394365D+01  0.2347269535D+00
      0.6401216923D+00  0.8137573261D+00
 Atom H5       Shell    16 S   1     bf   49 -    49          4.002495148352          0.000000000000          0.000000000000
      0.1612777588D+00  0.1000000000D+01
 Atom C6       Shell    17 S   6     bf   50 -    50          0.000000000000          0.000000000000          0.000000000000
      0.3047524880D+04  0.1834737132D-02
      0.4573695180D+03  0.1403732281D-01
      0.1039486850D+03  0.6884262226D-01
      0.2921015530D+02  0.2321844432D+00
      0.9286662960D+01  0.4679413484D+00
      0.3163926960D+01  0.3623119853D+00
 Atom C6       Shell    18 SP   3    bf   51 -    54          0.000000000000          0.000000000000          0.000000000000
      0.7868272350D+01 -0.1193324198D+00  0.6899906659D-01
      0.1881288540D+01 -0.1608541517D+00  0.3164239610D+00
      0.5442492580D+00  0.1143456438D+01  0.7443082909D+00
 Atom C6       Shell    19 SP   1    bf   55 -    58          0.000000000000          0.000000000000          0.000000000000
      0.1687144782D+00  0.1000000000D+01  0.1000000000D+01
 Atom C6       Shell    20 D   1     bf   59 -    64          0.000000000000          0.000000000000          0.000000000000
      0.8000000000D+00  0.1000000000D+01
 Atom H7       Shell    21 S   3     bf   65 -    65         -1.575387387188          1.094482340884          0.797250492182
      0.1873113696D+02  0.3349460434D-01
      0.2825394365D+01  0.2347269535D+00
      0.6401216923D+00  0.8137573261D+00
 Atom H7       Shell    22 S   1     bf   66 -    66         -1.575387387188          1.094482340884          0.797250492182
      0.1612777588D+00  0.1000000000D+01
 Atom C8       Shell    23 S   6     bf   67 -    67         -0.151177353638          0.089925830568         -2.925481889375
      0.3047524880D+04  0.1834737132D-02
      0.4573695180D+03  0.1403732281D-01
      0.1039486850D+03  0.6884262226D-01
      0.2921015530D+02  0.2321844432D+00
      0.9286662960D+01  0.4679413484D+00
      0.3163926960D+01  0.3623119853D+00
 Atom C8       Shell    24 SP   3    bf   68 -    71         -0.151177353638          0.089925830568         -2.925481889375
      0.7868272350D+01 -0.1193324198D+00  0.6899906659D-01
      0.1881288540D+01 -0.1608541517D+00  0.3164239610D+00
      0.5442492580D+00  0.1143456438D+01  0.7443082909D+00
 Atom C8       Shell    25 SP   1    bf   72 -    75         -0.151177353638          0.089925830568         -2.925481889375
      0.1687144782D+00  0.1000000000D+01  0.1000000000D+01
 Atom C8       Shell    26 D   1     bf   76 -    81         -0.151177353638          0.089925830568         -2.925481889375
      0.8000000000D+00  0.1000000000D+01
 Atom H9       Shell    27 S   3     bf   82 -    82          1.319731686595         -1.223457434467         -3.598961593744
      0.1873113696D+02  0.3349460434D-01
      0.2825394365D+01  0.2347269535D+00
      0.6401216923D+00  0.8137573261D+00
 Atom H9       Shell    28 S   1     bf   83 -    83          1.319731686595         -1.223457434467         -3.598961593744
      0.1612777588D+00  0.1000000000D+01
 Atom C10      Shell    29 S   6     bf   84 -    84          5.642520202176          4.382942542405          1.307788012723
      0.3047524880D+04  0.1834737132D-02
      0.4573695180D+03  0.1403732281D-01
      0.1039486850D+03  0.6884262226D-01
      0.2921015530D+02  0.2321844432D+00
      0.9286662960D+01  0.4679413484D+00
      0.3163926960D+01  0.3623119853D+00
 Atom C10      Shell    30 SP   3    bf   85 -    88          5.642520202176          4.382942542405          1.307788012723
      0.7868272350D+01 -0.1193324198D+00  0.6899906659D-01
      0.1881288540D+01 -0.1608541517D+00  0.3164239610D+00
      0.5442492580D+00  0.1143456438D+01  0.7443082909D+00
 Atom C10      Shell    31 SP   1    bf   89 -    92          5.642520202176          4.382942542405          1.307788012723
      0.1687144782D+00  0.1000000000D+01  0.1000000000D+01
 Atom C10      Shell    32 D   1     bf   93 -    98          5.642520202176          4.382942542405          1.307788012723
      0.8000000000D+00  0.1000000000D+01
 Atom H11      Shell    33 S   3     bf   99 -    99          7.040352285630          3.294643801167          0.213719181711
      0.1873113696D+02  0.3349460434D-01
      0.2825394365D+01  0.2347269535D+00
      0.6401216923D+00  0.8137573261D+00
 Atom H11      Shell    34 S   1     bf  100 -   100          7.040352285630          3.294643801167          0.213719181711
      0.1612777588D+00  0.1000000000D+01
 Atom C12      Shell    35 S   6     bf  101 -   101          3.018427842454          3.829249478448         -2.915243542160
      0.3047524880D+04  0.1834737132D-02
      0.4573695180D+03  0.1403732281D-01
      0.1039486850D+03  0.6884262226D-01
      0.2921015530D+02  0.2321844432D+00
      0.9286662960D+01  0.4679413484D+00
      0.3163926960D+01  0.3623119853D+00
 Atom C12      Shell    36 SP   3    bf  102 -   105          3.018427842454          3.829249478448         -2.915243542160
      0.7868272350D+01 -0.1193324198D+00  0.6899906659D-01
      0.1881288540D+01 -0.1608541517D+00  0.3164239610D+00
      0.5442492580D+00  0.1143456438D+01  0.7443082909D+00
 Atom C12      Shell    37 SP   1    bf  106 -   109          3.018427842454          3.829249478448         -2.915243542160
      0.1687144782D+00  0.1000000000D+01  0.1000000000D+01
 Atom C12      Shell    38 D   1     bf  110 -   115          3.018427842454          3.829249478448         -2.915243542160
      0.8000000000D+00  0.1000000000D+01
 Atom H13      Shell    39 S   3     bf  116 -   116          4.617072278132          2.664822534133         -3.553374275151
      0.1873113696D+02  0.3349460434D-01
      0.2825394365D+01  0.2347269535D+00
      0.6401216923D+00  0.8137573261D+00
 Atom H13      Shell    40 S   1     bf  117 -   117          4.617072278132          2.664822534133         -3.553374275151
      0.1612777588D+00  0.1000000000D+01
 Atom H14      Shell    41 S   3     bf  118 -   118          3.300510021310          5.708719462898         -3.731538580925
      0.1873113696D+02  0.3349460434D-01
      0.2825394365D+01  0.2347269535D+00
      0.6401216923D+00  0.8137573261D+00
 Atom H14      Shell    42 S   1     bf  119 -   119          3.300510021310          5.708719462898         -3.731538580925
      0.1612777588D+00  0.1000000000D+01
 Atom C15      Shell    43 S   6     bf  120 -   120         -2.714662246750         -0.970754790005         -3.972891832590
      0.3047524880D+04  0.1834737132D-02
      0.4573695180D+03  0.1403732281D-01
      0.1039486850D+03  0.6884262226D-01
      0.2921015530D+02  0.2321844432D+00
      0.9286662960D+01  0.4679413484D+00
      0.3163926960D+01  0.3623119853D+00
 Atom C15      Shell    44 SP   3    bf  121 -   124         -2.714662246750         -0.970754790005         -3.972891832590
      0.7868272350D+01 -0.1193324198D+00  0.6899906659D-01
      0.1881288540D+01 -0.1608541517D+00  0.3164239610D+00
      0.5442492580D+00  0.1143456438D+01  0.7443082909D+00
 Atom C15      Shell    45 SP   1    bf  125 -   128         -2.714662246750         -0.970754790005         -3.972891832590
      0.1687144782D+00  0.1000000000D+01  0.1000000000D+01
 Atom C15      Shell    46 D   1     bf  129 -   134         -2.714662246750         -0.970754790005         -3.972891832590
      0.8000000000D+00  0.1000000000D+01
 Atom C16      Shell    47 S   6     bf  135 -   135          3.098353336813          1.191003372347          3.733528878283
      0.3047524880D+04  0.1834737132D-02
      0.4573695180D+03  0.1403732281D-01
      0.1039486850D+03  0.6884262226D-01
      0.2921015530D+02  0.2321844432D+00
      0.9286662960D+01  0.4679413484D+00
      0.3163926960D+01  0.3623119853D+00
 Atom C16      Shell    48 SP   3    bf  136 -   139          3.098353336813          1.191003372347          3.733528878283
      0.7868272350D+01 -0.1193324198D+00  0.6899906659D-01
      0.1881288540D+01 -0.1608541517D+00  0.3164239610D+00
      0.5442492580D+00  0.1143456438D+01  0.7443082909D+00
 Atom C16      Shell    49 SP   1    bf  140 -   143          3.098353336813          1.191003372347          3.733528878283
      0.1687144782D+00  0.1000000000D+01  0.1000000000D+01
 Atom C16      Shell    50 D   1     bf  144 -   149          3.098353336813          1.191003372347          3.733528878283
      0.8000000000D+00  0.1000000000D+01
 Atom H17      Shell    51 S   3     bf  150 -   150          3.579614218547         -0.681305872868          4.469306012445
      0.1873113696D+02  0.3349460434D-01
      0.2825394365D+01  0.2347269535D+00
      0.6401216923D+00  0.8137573261D+00
 Atom H17      Shell    52 S   1     bf  151 -   151          3.579614218547         -0.681305872868          4.469306012445
      0.1612777588D+00  0.1000000000D+01
 Atom H18      Shell    53 S   3     bf  152 -   152          1.456395130950          1.852015268404          4.813101034314
      0.1873113696D+02  0.3349460434D-01
      0.2825394365D+01  0.2347269535D+00
      0.6401216923D+00  0.8137573261D+00
 Atom H18      Shell    54 S   1     bf  153 -   153          1.456395130950          1.852015268404          4.813101034314
      0.1612777588D+00  0.1000000000D+01
 Atom C19      Shell    55 S   6     bf  154 -   154          0.533001583253          2.730777528855         -3.971870038773
      0.3047524880D+04  0.1834737132D-02
      0.4573695180D+03  0.1403732281D-01
      0.1039486850D+03  0.6884262226D-01
      0.2921015530D+02  0.2321844432D+00
      0.9286662960D+01  0.4679413484D+00
      0.3163926960D+01  0.3623119853D+00
 Atom C19      Shell    56 SP   3    bf  155 -   158          0.533001583253          2.730777528855         -3.971870038773
      0.7868272350D+01 -0.1193324198D+00  0.6899906659D-01
      0.1881288540D+01 -0.1608541517D+00  0.3164239610D+00
      0.5442492580D+00  0.1143456438D+01  0.7443082909D+00
 Atom C19      Shell    57 SP   1    bf  159 -   162          0.533001583253          2.730777528855         -3.971870038773
      0.1687144782D+00  0.1000000000D+01  0.1000000000D+01
 Atom C19      Shell    58 D   1     bf  163 -   168          0.533001583253          2.730777528855         -3.971870038773
      0.8000000000D+00  0.1000000000D+01
 Atom H20      Shell    59 S   3     bf  169 -   169         -0.998210205250          4.063967334743         -3.569899627827
      0.1873113696D+02  0.3349460434D-01
      0.2825394365D+01  0.2347269535D+00
      0.6401216923D+00  0.8137573261D+00
 Atom H20      Shell    60 S   1     bf  170 -   170         -0.998210205250          4.063967334743         -3.569899627827
      0.1612777588D+00  0.1000000000D+01
 Atom H21      Shell    61 S   3     bf  171 -   171          0.682685429636          2.645371110615         -6.035675248581
      0.1873113696D+02  0.3349460434D-01
      0.2825394365D+01  0.2347269535D+00
      0.6401216923D+00  0.8137573261D+00
 Atom H21      Shell    62 S   1     bf  172 -   172          0.682685429636          2.645371110615         -6.035675248581
      0.1612777588D+00  0.1000000000D+01
 Atom C22      Shell    63 S   6     bf  173 -   173          5.336333224789          3.077892534979          3.949452198761
      0.3047524880D+04  0.1834737132D-02
      0.4573695180D+03  0.1403732281D-01
      0.1039486850D+03  0.6884262226D-01
      0.2921015530D+02  0.2321844432D+00
      0.9286662960D+01  0.4679413484D+00
      0.3163926960D+01  0.3623119853D+00
 Atom C22      Shell    64 SP   3    bf  174 -   177          5.336333224789          3.077892534979          3.949452198761
      0.7868272350D+01 -0.1193324198D+00  0.6899906659D-01
      0.1881288540D+01 -0.1608541517D+00  0.3164239610D+00
      0.5442492580D+00  0.1143456438D+01  0.7443082909D+00
 Atom C22      Shell    65 SP   1    bf  178 -   181          5.336333224789          3.077892534979          3.949452198761
      0.1687144782D+00  0.1000000000D+01  0.1000000000D+01
 Atom C22      Shell    66 D   1     bf  182 -   187          5.336333224789          3.077892534979          3.949452198761
      0.8000000000D+00  0.1000000000D+01
 Atom H23      Shell    67 S   3     bf  188 -   188          4.966540446825          4.495969821413          5.414468430404
      0.1873113696D+02  0.3349460434D-01
      0.2825394365D+01  0.2347269535D+00
      0.6401216923D+00  0.8137573261D+00
 Atom H23      Shell    68 S   1     bf  189 -   189          4.966540446825          4.495969821413          5.414468430404
      0.1612777588D+00  0.1000000000D+01
 Atom H24      Shell    69 S   3     bf  190 -   190          7.078300953249          2.111451082667          4.502678689335
      0.1873113696D+02  0.3349460434D-01
      0.2825394365D+01  0.2347269535D+00
      0.6401216923D+00  0.8137573261D+00
 Atom H24      Shell    70 S   1     bf  191 -   191          7.078300953249          2.111451082667          4.502678689335
      0.1612777588D+00  0.1000000000D+01
 Atom C25      Shell    71 S   6     bf  192 -   192         -0.270652926232         -2.742813818205          0.918141960979
      0.3047524880D+04  0.1834737132D-02
      0.4573695180D+03  0.1403732281D-01
      0.1039486850D+03  0.6884262226D-01
      0.2921015530D+02  0.2321844432D+00
      0.9286662960D+01  0.4679413484D+00
      0.3163926960D+01  0.3623119853D+00
 Atom C25      Shell    72 SP   3    bf  193 -   196         -0.270652926232         -2.742813818205          0.918141960979
      0.7868272350D+01 -0.1193324198D+00  0.6899906659D-01
      0.1881288540D+01 -0.1608541517D+00  0.3164239610D+00
      0.5442492580D+00  0.1143456438D+01  0.7443082909D+00
 Atom C25      Shell    73 SP   1    bf  197 -   200         -0.270652926232         -2.742813818205          0.918141960979
      0.1687144782D+00  0.1000000000D+01  0.1000000000D+01
 Atom C25      Shell    74 D   1     bf  201 -   206         -0.270652926232         -2.742813818205          0.918141960979
      0.8000000000D+00  0.1000000000D+01
 Atom H26      Shell    75 S   3     bf  207 -   207         -0.676243561119         -2.776767264628          2.953032471228
      0.1873113696D+02  0.3349460434D-01
      0.2825394365D+01  0.2347269535D+00
      0.6401216923D+00  0.8137573261D+00
 Atom H26      Shell    76 S   1     bf  208 -   208         -0.676243561119         -2.776767264628          2.953032471228
      0.1612777588D+00  0.1000000000D+01
 Atom H27      Shell    77 S   3     bf  209 -   209          1.552591488566         -3.729421331766          0.704677627734
      0.1873113696D+02  0.3349460434D-01
      0.2825394365D+01  0.2347269535D+00
      0.6401216923D+00  0.8137573261D+00
 Atom H27      Shell    78 S   1     bf  210 -   210          1.552591488566         -3.729421331766          0.704677627734
      0.1612777588D+00  0.1000000000D+01
 Atom C28      Shell    79 S   6     bf  211 -   211          6.682903671197          7.115746424592          1.520941863964
      0.3047524880D+04  0.1834737132D-02
      0.4573695180D+03  0.1403732281D-01
      0.1039486850D+03  0.6884262226D-01
      0.2921015530D+02  0.2321844432D+00
      0.9286662960D+01  0.4679413484D+00
      0.3163926960D+01  0.3623119853D+00
 Atom C28      Shell    80 SP   3    bf  212 -   215          6.682903671197          7.115746424592          1.520941863964
      0.7868272350D+01 -0.1193324198D+00  0.6899906659D-01
      0.1881288540D+01 -0.1608541517D+00  0.3164239610D+00
      0.5442492580D+00  0.1143456438D+01  0.7443082909D+00
 Atom C28      Shell    81 SP   1    bf  216 -   219          6.682903671197          7.115746424592          1.520941863964
      0.1687144782D+00  0.1000000000D+01  0.1000000000D+01
 Atom C28      Shell    82 D   1     bf  220 -   225          6.682903671197          7.115746424592          1.520941863964
      0.8000000000D+00  0.1000000000D+01
 Atom H29      Shell    83 S   3     bf  226 -   226          5.363813943467          8.192594653786          2.710210902358
      0.1873113696D+02  0.3349460434D-01
      0.2825394365D+01  0.2347269535D+00
      0.6401216923D+00  0.8137573261D+00
 Atom H29      Shell    84 S   1     bf  227 -   227          5.363813943467          8.192594653786          2.710210902358
      0.1612777588D+00  0.1000000000D+01
 Atom C30      Shell    85 S   6     bf  228 -   228          1.032875965041          5.791682257379          0.994333299807
      0.3047524880D+04  0.1834737132D-02
      0.4573695180D+03  0.1403732281D-01
      0.1039486850D+03  0.6884262226D-01
      0.2921015530D+02  0.2321844432D+00
      0.9286662960D+01  0.4679413484D+00
      0.3163926960D+01  0.3623119853D+00
 Atom C30      Shell    86 SP   3    bf  229 -   232          1.032875965041          5.791682257379          0.994333299807
      0.7868272350D+01 -0.1193324198D+00  0.6899906659D-01
      0.1881288540D+01 -0.1608541517D+00  0.3164239610D+00
      0.5442492580D+00  0.1143456438D+01  0.7443082909D+00
 Atom C30      Shell    87 SP   1    bf  233 -   236          1.032875965041          5.791682257379          0.994333299807
      0.1687144782D+00  0.1000000000D+01  0.1000000000D+01
 Atom C30      Shell    88 D   1     bf  237 -   242          1.032875965041          5.791682257379          0.994333299807
      0.8000000000D+00  0.1000000000D+01
 Atom H31      Shell    89 S   3     bf  243 -   243          1.390557318144          7.688806441308          0.249279367778
      0.1873113696D+02  0.3349460434D-01
      0.2825394365D+01  0.2347269535D+00
      0.6401216923D+00  0.8137573261D+00
 Atom H31      Shell    90 S   1     bf  244 -   244          1.390557318144          7.688806441308          0.249279367778
      0.1612777588D+00  0.1000000000D+01
 Atom H32      Shell    91 S   3     bf  245 -   245         -0.887530381838          5.272224605882          0.440735156795
      0.1873113696D+02  0.3349460434D-01
      0.2825394365D+01  0.2347269535D+00
      0.6401216923D+00  0.8137573261D+00
 Atom H32      Shell    92 S   1     bf  246 -   246         -0.887530381838          5.272224605882          0.440735156795
      0.1612777588D+00  0.1000000000D+01
 Atom H33      Shell    93 S   3     bf  247 -   247          1.056627139120          5.928401883292          3.057557343241
      0.1873113696D+02  0.3349460434D-01
      0.2825394365D+01  0.2347269535D+00
      0.6401216923D+00  0.8137573261D+00
 Atom H33      Shell    94 S   1     bf  248 -   248          1.056627139120          5.928401883292          3.057557343241
      0.1612777588D+00  0.1000000000D+01
 Atom C34      Shell    95 S   6     bf  249 -   249         -3.410202330536         -3.434527225469         -2.608017423270
      0.3047524880D+04  0.1834737132D-02
      0.4573695180D+03  0.1403732281D-01
      0.1039486850D+03  0.6884262226D-01
      0.2921015530D+02  0.2321844432D+00
      0.9286662960D+01  0.4679413484D+00
      0.3163926960D+01  0.3623119853D+00
 Atom C34      Shell    96 SP   3    bf  250 -   253         -3.410202330536         -3.434527225469         -2.608017423270
      0.7868272350D+01 -0.1193324198D+00  0.6899906659D-01
      0.1881288540D+01 -0.1608541517D+00  0.3164239610D+00
      0.5442492580D+00  0.1143456438D+01  0.7443082909D+00
 Atom C34      Shell    97 SP   1    bf  254 -   257         -3.410202330536         -3.434527225469         -2.608017423270
      0.1687144782D+00  0.1000000000D+01  0.1000000000D+01
 Atom C34      Shell    98 D   1     bf  258 -   263         -3.410202330536         -3.434527225469         -2.608017423270
      0.8000000000D+00  0.1000000000D+01
 Atom C35      Shell    99 S   6     bf  264 -   264         -2.381381604393         -1.573582547553         -6.840430599128
      0.3047524880D+04  0.1834737132D-02
      0.4573695180D+03  0.1403732281D-01
      0.1039486850D+03  0.6884262226D-01
      0.2921015530D+02  0.2321844432D+00
      0.9286662960D+01  0.4679413484D+00
      0.3163926960D+01  0.3623119853D+00
 Atom C35      Shell   100 SP   3    bf  265 -   268         -2.381381604393         -1.573582547553         -6.840430599128
      0.7868272350D+01 -0.1193324198D+00  0.6899906659D-01
      0.1881288540D+01 -0.1608541517D+00  0.3164239610D+00
      0.5442492580D+00  0.1143456438D+01  0.7443082909D+00
 Atom C35      Shell   101 SP   1    bf  269 -   272         -2.381381604393         -1.573582547553         -6.840430599128
      0.1687144782D+00  0.1000000000D+01  0.1000000000D+01
 Atom C35      Shell   102 D   1     bf  273 -   278         -2.381381604393         -1.573582547553         -6.840430599128
      0.8000000000D+00  0.1000000000D+01
 Atom H36      Shell   103 S   3     bf  279 -   279         -0.615568404520         -2.640854986411         -7.076296275075
      0.1873113696D+02  0.3349460434D-01
      0.2825394365D+01  0.2347269535D+00
      0.6401216923D+00  0.8137573261D+00
 Atom H36      Shell   104 S   1     bf  280 -   280         -0.615568404520         -2.640854986411         -7.076296275075
      0.1612777588D+00  0.1000000000D+01
 Atom H37      Shell   105 S   3     bf  281 -   281         -2.144249736347          0.193153972508         -7.892893103104
      0.1873113696D+02  0.3349460434D-01
      0.2825394365D+01  0.2347269535D+00
      0.6401216923D+00  0.8137573261D+00
 Atom H37      Shell   106 S   1     bf  282 -   282         -2.144249736347          0.193153972508         -7.892893103104
      0.1612777588D+00  0.1000000000D+01
 Atom C38      Shell   107 S   6     bf  283 -   283         -2.280829862677         -4.190601926921         -0.468725137768
      0.3047524880D+04  0.1834737132D-02
      0.4573695180D+03  0.1403732281D-01
      0.1039486850D+03  0.6884262226D-01
      0.2921015530D+02  0.2321844432D+00
      0.9286662960D+01  0.4679413484D+00
      0.3163926960D+01  0.3623119853D+00
 Atom C38      Shell   108 SP   3    bf  284 -   287         -2.280829862677         -4.190601926921         -0.468725137768
      0.7868272350D+01 -0.1193324198D+00  0.6899906659D-01
      0.1881288540D+01 -0.1608541517D+00  0.3164239610D+00
      0.5442492580D+00  0.1143456438D+01  0.7443082909D+00
 Atom C38      Shell   109 SP   1    bf  288 -   291         -2.280829862677         -4.190601926921         -0.468725137768
      0.1687144782D+00  0.1000000000D+01  0.1000000000D+01
 Atom C38      Shell   110 D   1     bf  292 -   297         -2.280829862677         -4.190601926921         -0.468725137768
      0.8000000000D+00  0.1000000000D+01
 Atom H39      Shell   111 S   3     bf  298 -   298         -2.847216084787         -5.990693133680          0.359887419391
      0.1873113696D+02  0.3349460434D-01
      0.2825394365D+01  0.2347269535D+00
      0.6401216923D+00  0.8137573261D+00
 Atom H39      Shell   112 S   1     bf  299 -   299         -2.847216084787         -5.990693133680          0.359887419391
      0.1612777588D+00  0.1000000000D+01
 Atom C40      Shell   113 S   6     bf  300 -   300         -4.903448538371          0.950916577342         -3.624479964114
      0.3047524880D+04  0.1834737132D-02
      0.4573695180D+03  0.1403732281D-01
      0.1039486850D+03  0.6884262226D-01
      0.2921015530D+02  0.2321844432D+00
      0.9286662960D+01  0.4679413484D+00
      0.3163926960D+01  0.3623119853D+00
 Atom C40      Shell   114 SP   3    bf  301 -   304         -4.903448538371          0.950916577342         -3.624479964114
      0.7868272350D+01 -0.1193324198D+00  0.6899906659D-01
      0.1881288540D+01 -0.1608541517D+00  0.3164239610D+00
      0.5442492580D+00  0.1143456438D+01  0.7443082909D+00
[...]
 **** Fit      -0.001001
 **** Fit      -0.001279
 **** Fit      -0.001539
 **** Fit      -0.001776
 **** Fit      -0.001945
 **** Fit      -0.001959
 **** Fit      -0.001741
 **** Fit      -0.001299
 **** Fit      -0.000768
 **** Fit      -0.000332
 **** Fit      -0.000096
 **** Fit      -0.000039
 **** Fit      -0.000074
 **** Fit      -0.000127
 **** Fit      -0.000161
 **** Fit      -0.000166
 **** Fit      -0.000062
 **** Fit      -0.000219
 **** Fit      -0.000422
 **** Fit      -0.000653
 **** Fit      -0.000882
 **** Fit      -0.001085
 **** Fit      -0.001245
 **** Fit      -0.001361
 **** Fit      -0.001424
 **** Fit      -0.001408
 **** Fit      -0.001263
 **** Fit      -0.000954
 **** Fit      -0.000513
 **** Fit      -0.000050
 **** Fit       0.000298
 **** Fit       0.000460
 **** Fit       0.000457
 **** Fit       0.000363
 **** Fit       0.000246
 **** Fit       0.000147
 **** Fit      -0.000419
 **** Fit      -0.000591
 **** Fit      -0.000766
 **** Fit      -0.000919
 **** Fit      -0.001029
 **** Fit      -0.001027
 **** Fit      -0.000898
 **** Fit      -0.000677
 **** Fit      -0.000358
 **** Fit       0.000026
 **** Fit       0.000394
 **** Fit       0.000656
 **** Fit       0.000766
 **** Fit       0.000740
 **** Fit       0.000630
 **** Fit       0.000494
 **** Fit       0.000368
 **** Fit      -0.000468
 **** Fit      -0.000232
 **** Fit       0.000055
 **** Fit       0.000363
 **** Fit       0.000639
 **** Fit       0.000828
 **** Fit       0.000901
 **** Fit       0.000868
 **** Fit       0.000766
 **** Fit       0.000636
 **** Fit       0.000088
 **** Fit       0.000325
 **** Fit       0.000559
 **** Fit       0.000758
 **** Fit       0.000888
 **** Fit       0.000934
 **** Fit       0.000902
 **** Fit       0.000815
 **** Fit       0.000662
 **** Fit       0.000801
 **** Fit       0.000888
 **** Fit       0.000914
 **** Fit       0.001106
 **** Fit       0.001255
 **** Fit       0.001358
 **** Fit       0.001389
 **** Fit       0.001020
 **** Fit       0.001227
 **** Fit       0.001419
 **** Fit       0.001553
 **** Fit       0.001594
 **** Fit       0.001524
 **** Fit       0.001103
 **** Fit       0.001353
 **** Fit       0.001590
 **** Fit       0.001762
 **** Fit       0.001820
 **** Fit       0.001738
 **** Fit       0.001516
 **** Fit       0.001187
 **** Fit       0.000806
 **** Fit       0.000436
 **** Fit       0.000130
 **** Fit       0.001192
 **** Fit       0.001481
 **** Fit       0.001764
 **** Fit       0.001981
 **** Fit       0.002071
 **** Fit       0.001990
 **** Fit       0.001725
 **** Fit       0.001305
 **** Fit       0.000804
 **** Fit       0.000313
 **** Fit      -0.000088
 **** Fit      -0.000355
 **** Fit       0.001285
 **** Fit       0.001606
 **** Fit       0.001937
 **** Fit       0.002212
 **** Fit       0.002357
 **** Fit       0.002302
 **** Fit       0.002004
 **** Fit       0.001481
 **** Fit       0.000826
 **** Fit       0.000175
 **** Fit      -0.000350
 **** Fit      -0.000685
 **** Fit      -0.000835
 **** Fit       0.001376
 **** Fit       0.001721
 **** Fit       0.002097
 **** Fit       0.002442
 **** Fit       0.002671
 **** Fit       0.002678
 **** Fit       0.002370
 **** Fit       0.001736
 **** Fit       0.000888
 **** Fit       0.000030
 **** Fit      -0.000650
 **** Fit      -0.001065
 **** Fit      -0.001229
 **** Fit      -0.001207
 **** Fit       0.001452
 **** Fit       0.001805
 **** Fit       0.002214
 **** Fit       0.002629
 **** Fit       0.002959
 **** Fit       0.003061
 **** Fit       0.002774
 **** Fit       0.002029
 **** Fit       0.000961
 **** Fit      -0.000136
 **** Fit      -0.000988
 **** Fit      -0.001481
 **** Fit      -0.001649
 **** Fit      -0.001591
 **** Fit       0.001491
 **** Fit       0.001824
 **** Fit       0.002232
 **** Fit       0.002685
 **** Fit       0.003095
 **** Fit       0.003287
 **** Fit       0.003031
 **** Fit       0.002193
 **** Fit       0.000922
 **** Fit      -0.000389
 **** Fit      -0.001378
 **** Fit      -0.001915
 **** Fit      -0.002064
 **** Fit      -0.001958
 **** Fit      -0.001716
 **** Fit       0.001465
 **** Fit       0.001741
 **** Fit       0.002095
 **** Fit       0.002511
 **** Fit       0.002913
 **** Fit       0.003117
 **** Fit       0.002855
 **** Fit       0.001954
 **** Fit       0.000576
 **** Fit      -0.000823
 **** Fit      -0.001837
 **** Fit      -0.002341
 **** Fit      -0.002432
 **** Fit      -0.002265
 **** Fit      -0.001968
 **** Fit       0.001358
 **** Fit       0.001538
 **** Fit       0.001775
 **** Fit       0.002061
 **** Fit       0.002328
 **** Fit       0.002412
 **** Fit       0.002068
 **** Fit       0.001146
 **** Fit      -0.000178
 **** Fit      -0.001463
 **** Fit      -0.002336
 **** Fit      -0.002710
 **** Fit      -0.002699
 **** Fit      -0.002461
 **** Fit      -0.002117
 **** Fit       0.001168
 **** Fit       0.001227
 **** Fit       0.001308
 **** Fit       0.001398
 **** Fit       0.001440
 **** Fit       0.001308
 **** Fit       0.000834
 **** Fit      -0.000050
 **** Fit      -0.001167
 **** Fit      -0.002160
 **** Fit      -0.002761
 **** Fit      -0.002935
 **** Fit      -0.002800
 **** Fit      -0.002497
 **** Fit      -0.002124
 **** Fit      -0.001741
 **** Fit       0.000962
 **** Fit       0.000949
 **** Fit       0.000909
 **** Fit       0.000849
 **** Fit       0.000775
 **** Fit       0.000670
 **** Fit       0.000492
 **** Fit       0.000159
 **** Fit      -0.000404
 **** Fit      -0.001184
 **** Fit      -0.002014
 **** Fit      -0.002649
 **** Fit      -0.002943
 **** Fit      -0.002913
 **** Fit      -0.002672
 **** Fit      -0.002332
 **** Fit      -0.001964
 **** Fit      -0.001606
 **** Fit      -0.001279
 **** Fit       0.000788
 **** Fit       0.000720
 **** Fit       0.000607
 **** Fit       0.000454
 **** Fit       0.000265
 **** Fit       0.000028
 **** Fit      -0.000287
 **** Fit      -0.000716
 **** Fit      -0.001270
 **** Fit      -0.001885
 **** Fit      -0.002423
 **** Fit      -0.002737
 **** Fit      -0.002774
 **** Fit      -0.002591
 **** Fit      -0.002294
 **** Fit      -0.001964
 **** Fit      -0.001642
 **** Fit      -0.001345
 **** Fit      -0.001078
 **** Fit       0.000565
 **** Fit       0.000455
 **** Fit       0.000292
 **** Fit       0.000086
 **** Fit      -0.000159
 **** Fit      -0.000446
 **** Fit      -0.000790
 **** Fit      -0.001199
 **** Fit      -0.001649
 **** Fit      -0.002067
 **** Fit      -0.002348
 **** Fit      -0.002418
 **** Fit      -0.002281
 **** Fit      -0.002019
 **** Fit      -0.001722
 **** Fit      -0.001445
 **** Fit      -0.001204
 **** Fit      -0.000994
 **** Fit      -0.000808
 **** Fit       0.000320
 **** Fit       0.000183
 **** Fit      -0.000001
 **** Fit      -0.000220
 **** Fit      -0.000466
 **** Fit      -0.000734
 **** Fit      -0.001027
 **** Fit      -0.001339
 **** Fit      -0.001637
 **** Fit      -0.001860
 **** Fit      -0.001939
 **** Fit      -0.001844
 **** Fit      -0.001613
 **** Fit      -0.001332
 **** Fit      -0.001075
 **** Fit      -0.000875
 **** Fit      -0.000726
 **** Fit      -0.000609
 **** Fit      -0.000507
 **** Fit      -0.000063
 **** Fit      -0.000242
 **** Fit      -0.000443
 **** Fit      -0.000859
 **** Fit      -0.001062
 **** Fit      -0.001250
 **** Fit      -0.001396
 **** Fit      -0.001456
 **** Fit      -0.001393
 **** Fit      -0.001206
 **** Fit      -0.000943
 **** Fit      -0.000682
 **** Fit      -0.000480
 **** Fit      -0.000353
 **** Fit      -0.000285
 **** Fit      -0.000247
 **** Fit      -0.000218
 **** Fit      -0.001038
 **** Fit      -0.001061
 **** Fit      -0.001007
 **** Fit      -0.000862
 **** Fit      -0.000640
 **** Fit      -0.000387
 **** Fit      -0.000164
 **** Fit      -0.000014
 **** Fit       0.000057
 **** Fit       0.000069
 **** Fit       0.000052
 **** Fit      -0.000718
 **** Fit      -0.000600
 **** Fit      -0.000422
 **** Fit      -0.000203
 **** Fit       0.000018
 **** Fit       0.000197
 **** Fit       0.000304
 **** Fit       0.000339
 **** Fit       0.000320
 **** Fit       0.000273
 **** Fit      -0.000267
 **** Fit      -0.000089
 **** Fit       0.000105
 **** Fit       0.000286
 **** Fit       0.000423
 **** Fit       0.000498
 **** Fit       0.000512
 **** Fit       0.000479
 **** Fit       0.000308
 **** Fit       0.000449
 **** Fit       0.000550
 **** Fit       0.000601
 **** Fit       0.000991
 **** Fit       0.001622
 **** Fit       0.001544
 **** Fit       0.001346
 **** Fit       0.001047
 **** Fit       0.000693
 **** Fit       0.000339
 **** Fit       0.000038
 **** Fit       0.001728
 **** Fit       0.001784
 **** Fit       0.001707
 **** Fit       0.001476
 **** Fit       0.001111
 **** Fit       0.000665
 **** Fit       0.000219
 **** Fit      -0.000157
 **** Fit      -0.000419
 **** Fit       0.001672
 **** Fit       0.001851
 **** Fit       0.001933
 **** Fit       0.001864
 **** Fit       0.001606
 **** Fit       0.001169
 **** Fit       0.000622
 **** Fit       0.000071
 **** Fit      -0.000386
 **** Fit      -0.000693
 **** Fit      -0.000845
 **** Fit       0.001490
 **** Fit       0.001722
 **** Fit       0.001921
 **** Fit       0.002029
 **** Fit       0.001971
 **** Fit       0.001690
 **** Fit       0.001184
 **** Fit       0.000534
 **** Fit      -0.000121
 **** Fit      -0.000652
 **** Fit      -0.000994
 **** Fit      -0.001146
 **** Fit       0.001475
 **** Fit       0.001695
 **** Fit       0.001893
 **** Fit       0.002007
 **** Fit       0.001951
 **** Fit       0.001647
 **** Fit       0.001082
 **** Fit       0.000350
 **** Fit      -0.000382
 **** Fit      -0.000959
 **** Fit      -0.001309
 **** Fit      -0.001443
 **** Fit      -0.001412
 **** Fit       0.001386
 **** Fit       0.001564
 **** Fit       0.001724
 **** Fit       0.001807
 **** Fit       0.001723
 **** Fit       0.001388
 **** Fit       0.000786
 **** Fit       0.000018
 **** Fit      -0.000732
 **** Fit      -0.001299
 **** Fit      -0.001616
 **** Fit      -0.001706
 **** Fit      -0.001633
 **** Fit       0.001215
 **** Fit       0.001321
 **** Fit       0.001404
 **** Fit       0.001411
 **** Fit       0.001263
 **** Fit       0.000888
 **** Fit       0.000279
 **** Fit      -0.000458
 **** Fit      -0.001145
 **** Fit      -0.001635
 **** Fit      -0.001875
 **** Fit      -0.001900
 **** Fit      -0.001777
 **** Fit       0.000974
 **** Fit       0.000990
 **** Fit       0.000972
 **** Fit       0.000877
 **** Fit       0.000647
 **** Fit       0.000236
 **** Fit      -0.000341
 **** Fit      -0.000984
 **** Fit      -0.001541
 **** Fit      -0.001899
 **** Fit      -0.002032
 **** Fit      -0.001981
 **** Fit      -0.001812
 **** Fit       0.000690
 **** Fit       0.000618
 **** Fit       0.000504
 **** Fit       0.000316
 **** Fit       0.000022
 **** Fit      -0.000396
 **** Fit      -0.000904
 **** Fit      -0.001410
 **** Fit      -0.001803
 **** Fit      -0.002011
 **** Fit      -0.002034
 **** Fit      -0.001917
 **** Fit      -0.001717
 **** Fit      -0.001480
 **** Fit       0.000260
 **** Fit       0.000080
 **** Fit      -0.000161
 **** Fit      -0.000476
 **** Fit      -0.000858
 **** Fit      -0.001264
 **** Fit      -0.001620
 **** Fit      -0.001851
 **** Fit      -0.001925
 **** Fit      -0.001858
 **** Fit      -0.001698
 **** Fit      -0.001492
 **** Fit      -0.001273
 **** Fit      -0.000043
 **** Fit      -0.000248
 **** Fit      -0.000493
 **** Fit      -0.000778
 **** Fit      -0.001086
 **** Fit      -0.001373
 **** Fit      -0.001586
 **** Fit      -0.001680
 **** Fit      -0.001651
 **** Fit      -0.001527
 **** Fit      -0.001354
 **** Fit      -0.001167
 **** Fit      -0.000986
 **** Fit      -0.000820
 **** Fit      -0.000460
 **** Fit      -0.000670
 **** Fit      -0.000892
 **** Fit      -0.001104
 **** Fit      -0.001273
 **** Fit      -0.001363
 **** Fit      -0.001354
 **** Fit      -0.001259
 **** Fit      -0.001110
 **** Fit      -0.000946
 **** Fit      -0.000794
 **** Fit      -0.000662
 **** Fit      -0.000977
 **** Fit      -0.001044
 **** Fit      -0.001041
 **** Fit      -0.000964
 **** Fit      -0.000834
 **** Fit      -0.000683
 **** Fit      -0.000543
 **** Fit      -0.000431
 **** Fit      -0.000347
 **** Fit      -0.000765
 **** Fit      -0.000700
 **** Fit      -0.000587
 **** Fit      -0.000447
 **** Fit      -0.000309
 **** Fit      -0.000197
 **** Fit      -0.000120
 **** Fit      -0.000075
 **** Fit      -0.000394
 **** Fit      -0.000268
 **** Fit      -0.000135
 **** Fit      -0.000016
 **** Fit       0.000070
 **** Fit       0.000120
 **** Fit       0.001372
 **** Fit       0.001292
 **** Fit       0.001114
 **** Fit       0.000854
 **** Fit       0.000546
 **** Fit       0.000235
 **** Fit       0.001420
 **** Fit       0.001433
 **** Fit       0.001344
 **** Fit       0.001141
 **** Fit       0.000837
 **** Fit       0.000472
 **** Fit       0.000105
 **** Fit      -0.000210
 **** Fit       0.001432
 **** Fit       0.001444
 **** Fit       0.001346
 **** Fit       0.001118
 **** Fit       0.000772
 **** Fit       0.000355
 **** Fit      -0.000062
 **** Fit      -0.000412
 **** Fit      -0.000655
 **** Fit       0.001300
 **** Fit       0.001374
 **** Fit       0.001375
 **** Fit       0.001262
 **** Fit       0.001011
 **** Fit       0.000631
 **** Fit       0.000176
 **** Fit      -0.000273
 **** Fit      -0.000639
 **** Fit      -0.000881
 **** Fit      -0.000996
 **** Fit       0.001185
 **** Fit       0.001230
 **** Fit       0.001204
 **** Fit       0.001066
 **** Fit       0.000791
 **** Fit       0.000391
 **** Fit      -0.000076
 **** Fit      -0.000525
 **** Fit      -0.000879
 **** Fit      -0.001098
 **** Fit      -0.001184
 **** Fit       0.001001
 **** Fit       0.001001
 **** Fit       0.000932
 **** Fit       0.000760
 **** Fit       0.000466
 **** Fit       0.000065
 **** Fit      -0.000383
 **** Fit      -0.000796
 **** Fit      -0.001105
 **** Fit      -0.001278
 **** Fit      -0.001323
 **** Fit       0.000764
 **** Fit       0.000709
 **** Fit       0.000591
 **** Fit       0.000386
 **** Fit       0.000083
 **** Fit      -0.000295
 **** Fit      -0.000693
 **** Fit      -0.001039
 **** Fit      -0.001278
 **** Fit      -0.001389
 **** Fit      -0.001388
 **** Fit       0.000502
 **** Fit       0.000398
 **** Fit       0.000240
 **** Fit       0.000013
 **** Fit      -0.000280
 **** Fit      -0.000614
 **** Fit      -0.000939
 **** Fit      -0.001199
 **** Fit      -0.001356
 **** Fit      -0.001404
 **** Fit       0.000112
 **** Fit      -0.000067
 **** Fit      -0.000293
 **** Fit      -0.000555
 **** Fit      -0.000827
 **** Fit      -0.001068
 **** Fit      -0.001238
 **** Fit      -0.001318
 **** Fit      -0.001308
 **** Fit      -0.001231
 **** Fit      -0.000293
 **** Fit      -0.000493
 **** Fit      -0.000706
 **** Fit      -0.000906
 **** Fit      -0.001062
 **** Fit      -0.001152
 **** Fit      -0.001166
 **** Fit      -0.001116
 **** Fit      -0.001022
 **** Fit      -0.000863
 **** Fit      -0.000967
 **** Fit      -0.000935
 **** Fit      -0.000860
 **** Fit      -0.000763
 **** Fit      -0.000730
 **** Fit      -0.000668
 **** Fit      -0.000583
 **** Fit       0.000848
 **** Fit       0.000632
 **** Fit       0.000968
 **** Fit       0.000793
 **** Fit       0.000551
 **** Fit       0.000272
 **** Fit      -0.000005
 **** Fit       0.000989
 **** Fit       0.000877
 **** Fit       0.000684
 **** Fit       0.000423
 **** Fit       0.000125
 **** Fit      -0.000166
 **** Fit      -0.000411
 **** Fit       0.000853
 **** Fit       0.000723
 **** Fit       0.000516
 **** Fit       0.000244
 **** Fit      -0.000058
 **** Fit      -0.000346
 **** Fit      -0.000581
 **** Fit       0.000661
 **** Fit       0.000513
 **** Fit       0.000297
 **** Fit       0.000027
 **** Fit      -0.000262
 **** Fit      -0.000529
 **** Fit      -0.000737
 **** Fit       0.000434
 **** Fit       0.000271
 **** Fit       0.000055
 **** Fit      -0.000200
 **** Fit      -0.000460
 **** Fit      -0.000688
 **** Fit      -0.000856
 **** Fit       0.000034
 **** Fit      -0.000172
 **** Fit      -0.000398
 **** Fit      -0.000616
 **** Fit      -0.000795
 **** Fit      -0.000348
 **** Fit      -0.000535
 **** Fit      -0.000703
 -----------------------------------------------------------------
 Leave Link  602 at Mon Mar 20 13:01:43 2017, MaxMem=    33554432 cpu:        35.8
 (Enter /home/michal/g09/l9999.exe)

 Test job not archived.
 1\1\GINC-LINUX\SP\RHF\6-31G(d)\C27H46O1\MICHAL\20-Mar-2017\0\\#P HF/6-
 31G* SCF(Conver=6) NoSymm Test Pop=chelpg IOp(6/33=2) GFInput GFPrint\
 \MEP - Input generated by R.E.D.-III.x MOLECULE\\0,1\O,0,-3.73506809,-
 3.61514226,-4.11845981\H,0,-3.8850522,-4.45597095,-3.66629276\C,0,1.60
 109867,2.06403984,0.\C,0,1.32717846,0.60819361,0.47242435\H,0,2.118029
 21,0.,0.\C,0,0.,0.,0.\H,0,-0.8336591,0.57917511,0.42188679\C,0,-0.0799
 9961,0.0475867,-1.54809834\H,0,0.69837193,-0.64742579,-1.90448845\C,0,
 2.98589309,2.3193533,0.69205161\H,0,3.72559397,1.74345041,0.11309532\C
 ,0,1.59728322,2.02635155,-1.54268044\H,0,2.44324942,1.41016335,-1.8803
 6468\H,0,1.74655468,3.02092423,-1.97464517\C,0,-1.43653739,-0.51370131
 ,-2.10236381\C,0,1.63957797,0.63025184,1.97569839\H,0,1.89425026,-0.36
 053154,2.36505488\H,0,0.77069111,0.98004427,2.54698337\C,0,0.28205229,
 1.44506523,-2.1018231\H,0,-0.52823009,2.15055889,-1.88910952\H,0,0.361
 26157,1.3998701,-3.19394178\C,0,2.82386592,1.62875058,2.08996009\H,0,2
 .62818001,2.37916476,2.86521329\H,0,3.74567554,1.11733179,2.38271494\C
 ,0,-0.14322336,-1.45143456,0.4858598\H,0,-0.35785268,-1.46940195,1.562
 67748\H,0,0.82159603,-1.97352477,0.37289934\C,0,3.53644031,3.76549083,
 0.80484777\H,0,2.83840809,4.33533437,1.43418184\C,0,0.54657442,3.06482
 625,0.52617852\H,0,0.73585124,4.06874113,0.13191296\H,0,-0.46966085,2.
 7899411,0.233227\H,0,0.559143,3.13717516,1.61798966\C,0,-1.80460135,-1
 .81747353,-1.38010338\C,0,-1.26017287,-0.83270402,-3.61979997\H,0,-0.3
 2574477,-1.39748027,-3.74461471\H,0,-1.13468809,0.10221268,-4.17673914
 \C,0,-1.20696318,-2.21757103,-0.24803866\H,0,-1.50668186,-3.17013827,0
 .19044422\C,0,-2.59479321,0.50320338,-1.91799219\H,0,-2.46418566,1.379
 35956,-2.56092271\H,0,-3.56145654,0.06088624,-2.17127387\H,0,-2.658745
 86,0.84528106,-0.88037053\C,0,-2.8971844,-2.65950805,-2.01249726\H,0,-
 3.00093052,-3.60083375,-1.45749542\H,0,-3.8683956,-2.14829457,-1.95194
 541\C,0,-2.40548717,-1.63912377,-4.24918588\H,0,-3.34260359,-1.0685690
 6,-4.24303081\H,0,-2.17762652,-1.85667217,-5.29886367\C,0,4.91285996,3
 .74639189,1.51850784\H,0,4.82178783,3.19344657,2.46070072\H,0,5.611663
 22,3.16948378,0.89424411\C,0,-2.63123829,-2.94453203,-3.49772608\H,0,-
 1.72653538,-3.56865856,-3.58572834\C,0,3.64700535,4.48271982,-0.551327
 68\H,0,4.2765241,3.91367215,-1.24721726\H,0,4.09321579,5.47557327,-0.4
 3978393\H,0,2.67241984,4.62426901,-1.02322265\C,0,5.5567413,5.1101552,
 1.83970461\H,0,6.54065149,4.90833736,2.28171107\H,0,5.75494176,5.66275
 433,0.91391769\C,0,4.73398834,5.97973081,2.80477695\H,0,4.48072566,5.3
 7759657,3.68993909\H,0,3.77714178,6.24094005,2.33328383\C,0,5.40113472
 ,7.29062591,3.28536195\H,0,4.66674575,7.77798363,3.94373505\C,0,5.6893
 2151,8.26549527,2.13148182\H,0,4.78974902,8.4535112,1.53350334\H,0,6.0
 4241297,9.22970176,2.51467987\H,0,6.46343174,7.87812239,1.45909434\C,0
 ,6.66388905,7.04287396,4.12734109\H,0,6.46169638,6.35480146,4.95665906
 \H,0,7.03601884,7.98081342,4.55518568\H,0,7.47494533,6.61456328,3.5272
 7885\\Version=EM64L-G09RevD.01\HF=-1124.0772959\RMSD=4.602e-07\Dipole=
 0.3957557,-0.0930675,0.5582518\Quadrupole=-2.4274006,7.1594392,-4.7320
 387,-1.0693042,-6.1847737,-2.8168764\PG=C01 [X(C27H46O1)]\\@


 NOTHING MAKES A PERSON MORE PRODUCTIVE THAN THE LAST MINUTE.
 Job cpu time:       0 days  0 hours 11 minutes  7.5 seconds.
 File lengths (MBytes):  RWF=    142 Int=      0 D2E=      0 Chk=     10 Scr=      1
 Normal termination of Gaussian 09 at Mon Mar 20 13:01:43 2017.
