 Entering Gaussian System, Link 0=/home/michal/g09/g09
 Input=JOB2-gau_m1-19-3.com
 Output=JOB2-gau_m1-19-3.log
 Initial command:
 /home/michal/g09/l1.exe "/home/michal/gauss_scratch/Gau-24053.inp" -scrdir="/home/michal/gauss_scratch/"
 Entering Link 1 = /home/michal/g09/l1.exe PID=     24054.
  
 Copyright (c) 1988,1990,1992,1993,1995,1998,2003,2009,2013,
            Gaussian, Inc.  All Rights Reserved.
  
 This is part of the Gaussian(R) 09 program.  It is based on
 the Gaussian(R) 03 system (copyright 2003, Gaussian, Inc.),
 the Gaussian(R) 98 system (copyright 1998, Gaussian, Inc.),
 the Gaussian(R) 94 system (copyright 1995, Gaussian, Inc.),
 the Gaussian 92(TM) system (copyright 1992, Gaussian, Inc.),
 the Gaussian 90(TM) system (copyright 1990, Gaussian, Inc.),
 the Gaussian 88(TM) system (copyright 1988, Gaussian, Inc.),
 the Gaussian 86(TM) system (copyright 1986, Carnegie Mellon
 University), and the Gaussian 82(TM) system (copyright 1983,
 Carnegie Mellon University). Gaussian is a federally registered
 trademark of Gaussian, Inc.
  
 This software contains proprietary and confidential information,
 including trade secrets, belonging to Gaussian, Inc.
  
 This software is provided under written license and may be
 used, copied, transmitted, or stored only in accord with that
 written license.
  
 The following legend is applicable only to US Government
 contracts under FAR:
  
                    RESTRICTED RIGHTS LEGEND
  
 Use, reproduction and disclosure by the US Government is
 subject to restrictions as set forth in subparagraphs (a)
 and (c) of the Commercial Computer Software - Restricted
 Rights clause in FAR 52.227-19.
  
 Gaussian, Inc.
 340 Quinnipiac St., Bldg. 40, Wallingford CT 06492
  
  
 ---------------------------------------------------------------
 Warning -- This program may not be used in any manner that
 competes with the business of Gaussian, Inc. or will provide
 assistance to any competitor of Gaussian, Inc.  The licensee
 of this program is prohibited from giving any competitor of
 Gaussian, Inc. access to this program.  By using this program,
 the user acknowledges that Gaussian, Inc. is engaged in the
 business of creating and licensing software in the field of
 computational chemistry and represents and warrants to the
 licensee that it is not a competitor of Gaussian, Inc. and that
 it will not use this program in any manner prohibited above.
 ---------------------------------------------------------------
  

 Cite this work as:
 Gaussian 09, Revision D.01,
 M. J. Frisch, G. W. Trucks, H. B. Schlegel, G. E. Scuseria, 
 M. A. Robb, J. R. Cheeseman, G. Scalmani, V. Barone, B. Mennucci, 
 G. A. Petersson, H. Nakatsuji, M. Caricato, X. Li, H. P. Hratchian, 
 A. F. Izmaylov, J. Bloino, G. Zheng, J. L. Sonnenberg, M. Hada, 
 M. Ehara, K. Toyota, R. Fukuda, J. Hasegawa, M. Ishida, T. Nakajima, 
 Y. Honda, O. Kitao, H. Nakai, T. Vreven, J. A. Montgomery, Jr., 
 J. E. Peralta, F. Ogliaro, M. Bearpark, J. J. Heyd, E. Brothers, 
 K. N. Kudin, V. N. Staroverov, T. Keith, R. Kobayashi, J. Normand, 
 K. Raghavachari, A. Rendell, J. C. Burant, S. S. Iyengar, J. Tomasi, 
 M. Cossi, N. Rega, J. M. Millam, M. Klene, J. E. Knox, J. B. Cross, 
 V. Bakken, C. Adamo, J. Jaramillo, R. Gomperts, R. E. Stratmann, 
 O. Yazyev, A. J. Austin, R. Cammi, C. Pomelli, J. W. Ochterski, 
 R. L. Martin, K. Morokuma, V. G. Zakrzewski, G. A. Voth, 
 P. Salvador, J. J. Dannenberg, S. Dapprich, A. D. Daniels, 
 O. Farkas, J. B. Foresman, J. V. Ortiz, J. Cioslowski, 
 and D. J. Fox, Gaussian, Inc., Wallingford CT, 2013.
 
 ******************************************
 Gaussian 09:  EM64L-G09RevD.01 24-Apr-2013
                20-Mar-2017 
 ******************************************
 %Mem=256MB
 %NProc=12
 Will use up to   12 processors via shared memory.
 ----------------------------------------------------------------------
 #P HF/6-31G* SCF(Conver=6) NoSymm Test Pop=chelpg IOp(6/33=2) GFInput 
 GFPrint
 ----------------------------------------------------------------------
 1/38=1/1;
 2/12=2,15=1,17=6,18=5,40=1/2;
 3/5=1,6=6,7=1,11=9,16=1,24=110,25=1,30=1/1,2,3;
 4//1;
 5/5=2,6=6,38=5/2;
 6/7=2,8=2,9=2,10=2,15=8,20=3,28=1,33=2/1,2;
 99/5=1,9=1/99;
 Leave Link    1 at Mon Mar 20 12:49:45 2017, MaxMem=    33554432 cpu:         0.6
 (Enter /home/michal/g09/l101.exe)
 ----------------------------------------------
 MEP - Input generated by R.E.D.-III.x MOLECULE
 ----------------------------------------------
 Symbolic Z-matrix:
 Charge =  0 Multiplicity = 1
 O                    -3.72726  -3.61534  -4.12533 
 H                    -3.87762  -4.45624  -3.67342 
 C                     1.60009   2.06306   0. 
 C                     1.32665   0.60786   0.47341 
 H                     2.11706   0.        0. 
 C                     0.        0.        0. 
 H                    -0.83399   0.57923   0.42117 
 C                    -0.07757   0.04778  -1.5486 
 H                     0.70064  -0.64831  -1.90326 
 C                     2.9834    2.31541   0.69495 
 H                     3.71319   1.7225    0.12419 
 C                     1.60064   2.02643  -1.54202 
 H                     2.44755   1.41099  -1.87871 
 H                     1.75032   3.02248  -1.97124 
 C                    -1.43361  -0.51306  -2.1047 
 C                     1.64017   0.62843   1.97765 
 H                     1.90949  -0.36069   2.36137 
 H                     0.76659   0.96208   2.55148 
 C                     0.2866    1.44445  -2.10386 
 H                    -0.52405   2.15043  -1.89463 
 H                     0.36857   1.39703  -3.19565 
 C                     2.80893   1.64573   2.09821 
 H                     2.58485   2.40485   2.85688 
 H                     3.73559   1.15803   2.41725 
 C                    -0.14391  -1.45163   0.48502 
 H                    -0.35968  -1.47      1.56161 
 H                     0.82104  -1.97366   0.37294 
 C                     3.5354    3.75934   0.79302 
 H                     2.80523   4.34909   1.36628 
 C                     0.54559   3.06599   0.52088 
 H                     0.74066   4.0694    0.12744 
 H                    -0.46975   2.79489   0.2215 
 H                     0.55131   3.13785   1.6128 
 C                    -1.80261  -1.81721  -1.38337 
 C                    -1.25534  -0.83107  -3.62215 
 H                    -0.32002  -1.39452  -3.74639 
 H                    -1.13061   0.10433  -4.17837 
 C                    -1.20671  -2.21759  -0.2505 
 H                    -1.5071   -3.17025   0.18731 
 C                    -2.59239   0.50337  -1.92108 
 H                    -2.46205   1.37959  -2.56399 
 H                    -3.55862   0.06036  -2.17482 
 H                    -2.6572    0.84551  -0.88354 
 C                    -2.89417  -2.65894  -2.01784 
 H                    -2.9993   -3.60021  -1.46301 
 H                    -3.86536  -2.14736  -1.95941 
 C                    -2.3988   -1.63849  -4.25354 
 H                    -3.33643  -1.06876  -4.24927 
 H                    -2.16876  -1.85588  -5.30278 
 C                     4.856     3.83411   1.60749 
 H                     5.10695   4.8971    1.71953 
 H                     4.67819   3.462     2.62464 
 C                    -2.62508  -2.94402  -3.50247 
 H                    -1.71984  -3.56763  -3.58855 
 C                     3.70957   4.45108  -0.57205 
 H                     4.29609   3.84078  -1.26792 
 H                     4.22882   5.40939  -0.45203 
 H                     2.74927   4.66122  -1.04944 
 C                     6.06544   3.08882   1.01822 
 H                     5.80566   2.03346   0.86634 
 H                     6.30245   3.48354   0.02274 
 C                     7.32298   3.13355   1.90737 
 H                     8.09069   2.48378   1.46135 
 H                     7.07705   2.686     2.88136 
 C                     7.95545   4.51979   2.15531 
 H                     7.1976    5.16813   2.61777 
 C                     8.42202   5.19276   0.85473 
 H                     7.59495   5.36519   0.15851 
 H                     8.88627   6.1638    1.0614 
 H                     9.16689   4.57134   0.34054 
 C                     9.12309   4.39869   3.1478 
 H                     8.79744   3.95524   4.09583 
 H                     9.56124   5.37871   3.3688 
 H                     9.91941   3.7632    2.73918 
 
 NAtoms=     74 NQM=       74 NQMF=       0 NMMI=      0 NMMIF=      0
                NMic=       0 NMicF=      0.
                    Isotopes and Nuclear Properties:
 (Nuclear quadrupole moments (NQMom) in fm**2, nuclear magnetic moments (NMagM)
  in nuclear magnetons)

  Atom         1           2           3           4           5           6           7           8           9          10
 IAtWgt=          16           1          12          12           1          12           1          12           1          12
 AtmWgt=  15.9949146   1.0078250  12.0000000  12.0000000   1.0078250  12.0000000   1.0078250  12.0000000   1.0078250  12.0000000
 NucSpn=           0           1           0           0           1           0           1           0           1           0
 AtZEff=   0.0000000   0.0000000   0.0000000   0.0000000   0.0000000   0.0000000   0.0000000   0.0000000   0.0000000   0.0000000
 NQMom=    0.0000000   0.0000000   0.0000000   0.0000000   0.0000000   0.0000000   0.0000000   0.0000000   0.0000000   0.0000000
 NMagM=    0.0000000   2.7928460   0.0000000   0.0000000   2.7928460   0.0000000   2.7928460   0.0000000   2.7928460   0.0000000
 AtZNuc=   8.0000000   1.0000000   6.0000000   6.0000000   1.0000000   6.0000000   1.0000000   6.0000000   1.0000000   6.0000000

  Atom        11          12          13          14          15          16          17          18          19          20
 IAtWgt=           1          12           1           1          12          12           1           1          12           1
 AtmWgt=   1.0078250  12.0000000   1.0078250   1.0078250  12.0000000  12.0000000   1.0078250   1.0078250  12.0000000   1.0078250
 NucSpn=           1           0           1           1           0           0           1           1           0           1
 AtZEff=   0.0000000   0.0000000   0.0000000   0.0000000   0.0000000   0.0000000   0.0000000   0.0000000   0.0000000   0.0000000
 NQMom=    0.0000000   0.0000000   0.0000000   0.0000000   0.0000000   0.0000000   0.0000000   0.0000000   0.0000000   0.0000000
 NMagM=    2.7928460   0.0000000   2.7928460   2.7928460   0.0000000   0.0000000   2.7928460   2.7928460   0.0000000   2.7928460
 AtZNuc=   1.0000000   6.0000000   1.0000000   1.0000000   6.0000000   6.0000000   1.0000000   1.0000000   6.0000000   1.0000000

  Atom        21          22          23          24          25          26          27          28          29          30
 IAtWgt=           1          12           1           1          12           1           1          12           1          12
 AtmWgt=   1.0078250  12.0000000   1.0078250   1.0078250  12.0000000   1.0078250   1.0078250  12.0000000   1.0078250  12.0000000
 NucSpn=           1           0           1           1           0           1           1           0           1           0
 AtZEff=   0.0000000   0.0000000   0.0000000   0.0000000   0.0000000   0.0000000   0.0000000   0.0000000   0.0000000   0.0000000
 NQMom=    0.0000000   0.0000000   0.0000000   0.0000000   0.0000000   0.0000000   0.0000000   0.0000000   0.0000000   0.0000000
 NMagM=    2.7928460   0.0000000   2.7928460   2.7928460   0.0000000   2.7928460   2.7928460   0.0000000   2.7928460   0.0000000
 AtZNuc=   1.0000000   6.0000000   1.0000000   1.0000000   6.0000000   1.0000000   1.0000000   6.0000000   1.0000000   6.0000000

  Atom        31          32          33          34          35          36          37          38          39          40
 IAtWgt=           1           1           1          12          12           1           1          12           1          12
 AtmWgt=   1.0078250   1.0078250   1.0078250  12.0000000  12.0000000   1.0078250   1.0078250  12.0000000   1.0078250  12.0000000
 NucSpn=           1           1           1           0           0           1           1           0           1           0
 AtZEff=   0.0000000   0.0000000   0.0000000   0.0000000   0.0000000   0.0000000   0.0000000   0.0000000   0.0000000   0.0000000
 NQMom=    0.0000000   0.0000000   0.0000000   0.0000000   0.0000000   0.0000000   0.0000000   0.0000000   0.0000000   0.0000000
 NMagM=    2.7928460   2.7928460   2.7928460   0.0000000   0.0000000   2.7928460   2.7928460   0.0000000   2.7928460   0.0000000
 AtZNuc=   1.0000000   1.0000000   1.0000000   6.0000000   6.0000000   1.0000000   1.0000000   6.0000000   1.0000000   6.0000000

  Atom        41          42          43          44          45          46          47          48          49          50
 IAtWgt=           1           1           1          12           1           1          12           1           1          12
 AtmWgt=   1.0078250   1.0078250   1.0078250  12.0000000   1.0078250   1.0078250  12.0000000   1.0078250   1.0078250  12.0000000
 NucSpn=           1           1           1           0           1           1           0           1           1           0
 AtZEff=   0.0000000   0.0000000   0.0000000   0.0000000   0.0000000   0.0000000   0.0000000   0.0000000   0.0000000   0.0000000
 NQMom=    0.0000000   0.0000000   0.0000000   0.0000000   0.0000000   0.0000000   0.0000000   0.0000000   0.0000000   0.0000000
 NMagM=    2.7928460   2.7928460   2.7928460   0.0000000   2.7928460   2.7928460   0.0000000   2.7928460   2.7928460   0.0000000
 AtZNuc=   1.0000000   1.0000000   1.0000000   6.0000000   1.0000000   1.0000000   6.0000000   1.0000000   1.0000000   6.0000000

  Atom        51          52          53          54          55          56          57          58          59          60
 IAtWgt=           1           1          12           1          12           1           1           1          12           1
 AtmWgt=   1.0078250   1.0078250  12.0000000   1.0078250  12.0000000   1.0078250   1.0078250   1.0078250  12.0000000   1.0078250
 NucSpn=           1           1           0           1           0           1           1           1           0           1
 AtZEff=   0.0000000   0.0000000   0.0000000   0.0000000   0.0000000   0.0000000   0.0000000   0.0000000   0.0000000   0.0000000
 NQMom=    0.0000000   0.0000000   0.0000000   0.0000000   0.0000000   0.0000000   0.0000000   0.0000000   0.0000000   0.0000000
 NMagM=    2.7928460   2.7928460   0.0000000   2.7928460   0.0000000   2.7928460   2.7928460   2.7928460   0.0000000   2.7928460
 AtZNuc=   1.0000000   1.0000000   6.0000000   1.0000000   6.0000000   1.0000000   1.0000000   1.0000000   6.0000000   1.0000000

  Atom        61          62          63          64          65          66          67          68          69          70
 IAtWgt=           1          12           1           1          12           1          12           1           1           1
 AtmWgt=   1.0078250  12.0000000   1.0078250   1.0078250  12.0000000   1.0078250  12.0000000   1.0078250   1.0078250   1.0078250
 NucSpn=           1           0           1           1           0           1           0           1           1           1
 AtZEff=   0.0000000   0.0000000   0.0000000   0.0000000   0.0000000   0.0000000   0.0000000   0.0000000   0.0000000   0.0000000
 NQMom=    0.0000000   0.0000000   0.0000000   0.0000000   0.0000000   0.0000000   0.0000000   0.0000000   0.0000000   0.0000000
 NMagM=    2.7928460   0.0000000   2.7928460   2.7928460   0.0000000   2.7928460   0.0000000   2.7928460   2.7928460   2.7928460
 AtZNuc=   1.0000000   6.0000000   1.0000000   1.0000000   6.0000000   1.0000000   6.0000000   1.0000000   1.0000000   1.0000000

  Atom        71          72          73          74
 IAtWgt=          12           1           1           1
 AtmWgt=  12.0000000   1.0078250   1.0078250   1.0078250
 NucSpn=           0           1           1           1
 AtZEff=   0.0000000   0.0000000   0.0000000   0.0000000
 NQMom=    0.0000000   0.0000000   0.0000000   0.0000000
 NMagM=    0.0000000   2.7928460   2.7928460   2.7928460
 AtZNuc=   6.0000000   1.0000000   1.0000000   1.0000000
 Leave Link  101 at Mon Mar 20 12:49:45 2017, MaxMem=    33554432 cpu:         1.0
 (Enter /home/michal/g09/l202.exe)
 Symmetry turned off by external request.
 Stoichiometry    C27H46O
 Framework group  C1[X(C27H46O)]
 Deg. of freedom   216
 Full point group                 C1      NOp   1
                          Input orientation:                          
 ---------------------------------------------------------------------
 Center     Atomic      Atomic             Coordinates (Angstroms)
 Number     Number       Type             X           Y           Z
 ---------------------------------------------------------------------
      1          8           0       -3.727263   -3.615343   -4.125328
      2          1           0       -3.877622   -4.456244   -3.673417
      3          6           0        1.600094    2.063065    0.000000
      4          6           0        1.326651    0.607857    0.473410
      5          1           0        2.117063    0.000000    0.000000
      6          6           0        0.000000    0.000000    0.000000
      7          1           0       -0.833985    0.579234    0.421166
      8          6           0       -0.077566    0.047780   -1.548596
      9          1           0        0.700644   -0.648309   -1.903255
     10          6           0        2.983396    2.315413    0.694955
     11          1           0        3.713194    1.722503    0.124189
     12          6           0        1.600640    2.026434   -1.542020
     13          1           0        2.447545    1.410994   -1.878711
     14          1           0        1.750316    3.022478   -1.971238
     15          6           0       -1.433613   -0.513056   -2.104698
     16          6           0        1.640169    0.628426    1.977649
     17          1           0        1.909492   -0.360691    2.361368
     18          1           0        0.766590    0.962080    2.551481
     19          6           0        0.286604    1.444448   -2.103863
     20          1           0       -0.524051    2.150430   -1.894625
     21          1           0        0.368565    1.397034   -3.195648
     22          6           0        2.808931    1.645734    2.098214
     23          1           0        2.584852    2.404854    2.856877
     24          1           0        3.735591    1.158031    2.417249
     25          6           0       -0.143908   -1.451626    0.485020
     26          1           0       -0.359675   -1.470004    1.561612
     27          1           0        0.821042   -1.973662    0.372937
     28          6           0        3.535396    3.759337    0.793018
     29          1           0        2.805227    4.349094    1.366275
     30          6           0        0.545587    3.065992    0.520876
     31          1           0        0.740656    4.069399    0.127437
     32          1           0       -0.469749    2.794894    0.221497
     33          1           0        0.551307    3.137851    1.612801
     34          6           0       -1.802607   -1.817206   -1.383374
     35          6           0       -1.255337   -0.831074   -3.622151
     36          1           0       -0.320016   -1.394523   -3.746388
     37          1           0       -1.130608    0.104331   -4.178373
     38          6           0       -1.206713   -2.217590   -0.250498
     39          1           0       -1.507104   -3.170253    0.187307
     40          6           0       -2.592391    0.503369   -1.921080
     41          1           0       -2.462054    1.379591   -2.563990
     42          1           0       -3.558622    0.060361   -2.174822
     43          1           0       -2.657195    0.845507   -0.883541
     44          6           0       -2.894168   -2.658936   -2.017837
     45          1           0       -2.999298   -3.600205   -1.463014
     46          1           0       -3.865359   -2.147362   -1.959412
     47          6           0       -2.398798   -1.638488   -4.253544
     48          1           0       -3.336427   -1.068764   -4.249265
     49          1           0       -2.168756   -1.855882   -5.302778
     50          6           0        4.856001    3.834110    1.607488
     51          1           0        5.106948    4.897099    1.719527
     52          1           0        4.678185    3.461998    2.624644
     53          6           0       -2.625083   -2.944016   -3.502471
     54          1           0       -1.719840   -3.567630   -3.588549
     55          6           0        3.709570    4.451083   -0.572046
     56          1           0        4.296090    3.840777   -1.267922
     57          1           0        4.228818    5.409386   -0.452025
     58          1           0        2.749268    4.661219   -1.049440
     59          6           0        6.065435    3.088822    1.018222
     60          1           0        5.805665    2.033463    0.866339
     61          1           0        6.302449    3.483538    0.022744
     62          6           0        7.322984    3.133551    1.907371
     63          1           0        8.090694    2.483779    1.461348
     64          1           0        7.077049    2.686001    2.881357
     65          6           0        7.955451    4.519793    2.155314
     66          1           0        7.197602    5.168134    2.617768
     67          6           0        8.422024    5.192760    0.854726
     68          1           0        7.594947    5.365193    0.158511
     69          1           0        8.886266    6.163802    1.061404
     70          1           0        9.166895    4.571340    0.340538
     71          6           0        9.123093    4.398691    3.147801
     72          1           0        8.797435    3.955241    4.095825
     73          1           0        9.561245    5.378712    3.368796
     74          1           0        9.919412    3.763199    2.739185
 ---------------------------------------------------------------------
 Rotational constants (GHZ):      0.5161146      0.0568150      0.0553859
 Leave Link  202 at Mon Mar 20 12:49:45 2017, MaxMem=    33554432 cpu:         0.0
 (Enter /home/michal/g09/l301.exe)
 Standard basis: 6-31G(d) (6D, 7F)
 Ernie: Thresh=  0.10000D-02 Tol=  0.10000D-05 Strict=F.
 AO basis set in the form of general basis input (Overlap normalization):
      1 0
 S   6 1.00       0.000000000000
      0.5484671660D+04  0.1831074430D-02
      0.8252349460D+03  0.1395017220D-01
      0.1880469580D+03  0.6844507810D-01
      0.5296450000D+02  0.2327143360D+00
      0.1689757040D+02  0.4701928980D+00
      0.5799635340D+01  0.3585208530D+00
 SP   3 1.00       0.000000000000
      0.1553961625D+02 -0.1107775495D+00  0.7087426823D-01
      0.3599933586D+01 -0.1480262627D+00  0.3397528391D+00
      0.1013761750D+01  0.1130767015D+01  0.7271585773D+00
 SP   1 1.00       0.000000000000
      0.2700058226D+00  0.1000000000D+01  0.1000000000D+01
 D   1 1.00       0.000000000000
      0.8000000000D+00  0.1000000000D+01
 ****
      2 0
 S   3 1.00       0.000000000000
      0.1873113696D+02  0.3349460434D-01
      0.2825394365D+01  0.2347269535D+00
      0.6401216923D+00  0.8137573261D+00
 S   1 1.00       0.000000000000
      0.1612777588D+00  0.1000000000D+01
 ****
      3 0
 S   6 1.00       0.000000000000
      0.3047524880D+04  0.1834737132D-02
      0.4573695180D+03  0.1403732281D-01
      0.1039486850D+03  0.6884262226D-01
      0.2921015530D+02  0.2321844432D+00
      0.9286662960D+01  0.4679413484D+00
      0.3163926960D+01  0.3623119853D+00
 SP   3 1.00       0.000000000000
      0.7868272350D+01 -0.1193324198D+00  0.6899906659D-01
      0.1881288540D+01 -0.1608541517D+00  0.3164239610D+00
      0.5442492580D+00  0.1143456438D+01  0.7443082909D+00
 SP   1 1.00       0.000000000000
      0.1687144782D+00  0.1000000000D+01  0.1000000000D+01
 D   1 1.00       0.000000000000
      0.8000000000D+00  0.1000000000D+01
 ****
      4 0
 S   6 1.00       0.000000000000
      0.3047524880D+04  0.1834737132D-02
      0.4573695180D+03  0.1403732281D-01
      0.1039486850D+03  0.6884262226D-01
      0.2921015530D+02  0.2321844432D+00
      0.9286662960D+01  0.4679413484D+00
      0.3163926960D+01  0.3623119853D+00
 SP   3 1.00       0.000000000000
      0.7868272350D+01 -0.1193324198D+00  0.6899906659D-01
      0.1881288540D+01 -0.1608541517D+00  0.3164239610D+00
      0.5442492580D+00  0.1143456438D+01  0.7443082909D+00
 SP   1 1.00       0.000000000000
      0.1687144782D+00  0.1000000000D+01  0.1000000000D+01
 D   1 1.00       0.000000000000
      0.8000000000D+00  0.1000000000D+01
 ****
      5 0
 S   3 1.00       0.000000000000
      0.1873113696D+02  0.3349460434D-01
      0.2825394365D+01  0.2347269535D+00
      0.6401216923D+00  0.8137573261D+00
 S   1 1.00       0.000000000000
      0.1612777588D+00  0.1000000000D+01
 ****
      6 0
 S   6 1.00       0.000000000000
      0.3047524880D+04  0.1834737132D-02
      0.4573695180D+03  0.1403732281D-01
      0.1039486850D+03  0.6884262226D-01
      0.2921015530D+02  0.2321844432D+00
      0.9286662960D+01  0.4679413484D+00
      0.3163926960D+01  0.3623119853D+00
 SP   3 1.00       0.000000000000
      0.7868272350D+01 -0.1193324198D+00  0.6899906659D-01
      0.1881288540D+01 -0.1608541517D+00  0.3164239610D+00
      0.5442492580D+00  0.1143456438D+01  0.7443082909D+00
 SP   1 1.00       0.000000000000
      0.1687144782D+00  0.1000000000D+01  0.1000000000D+01
 D   1 1.00       0.000000000000
      0.8000000000D+00  0.1000000000D+01
 ****
      7 0
 S   3 1.00       0.000000000000
      0.1873113696D+02  0.3349460434D-01
      0.2825394365D+01  0.2347269535D+00
      0.6401216923D+00  0.8137573261D+00
 S   1 1.00       0.000000000000
      0.1612777588D+00  0.1000000000D+01
 ****
      8 0
 S   6 1.00       0.000000000000
      0.3047524880D+04  0.1834737132D-02
      0.4573695180D+03  0.1403732281D-01
      0.1039486850D+03  0.6884262226D-01
      0.2921015530D+02  0.2321844432D+00
      0.9286662960D+01  0.4679413484D+00
      0.3163926960D+01  0.3623119853D+00
 SP   3 1.00       0.000000000000
      0.7868272350D+01 -0.1193324198D+00  0.6899906659D-01
      0.1881288540D+01 -0.1608541517D+00  0.3164239610D+00
      0.5442492580D+00  0.1143456438D+01  0.7443082909D+00
 SP   1 1.00       0.000000000000
      0.1687144782D+00  0.1000000000D+01  0.1000000000D+01
 D   1 1.00       0.000000000000
      0.8000000000D+00  0.1000000000D+01
 ****
      9 0
 S   3 1.00       0.000000000000
      0.1873113696D+02  0.3349460434D-01
      0.2825394365D+01  0.2347269535D+00
      0.6401216923D+00  0.8137573261D+00
 S   1 1.00       0.000000000000
      0.1612777588D+00  0.1000000000D+01
 ****
     10 0
 S   6 1.00       0.000000000000
      0.3047524880D+04  0.1834737132D-02
      0.4573695180D+03  0.1403732281D-01
      0.1039486850D+03  0.6884262226D-01
      0.2921015530D+02  0.2321844432D+00
      0.9286662960D+01  0.4679413484D+00
      0.3163926960D+01  0.3623119853D+00
 SP   3 1.00       0.000000000000
      0.7868272350D+01 -0.1193324198D+00  0.6899906659D-01
      0.1881288540D+01 -0.1608541517D+00  0.3164239610D+00
      0.5442492580D+00  0.1143456438D+01  0.7443082909D+00
 SP   1 1.00       0.000000000000
      0.1687144782D+00  0.1000000000D+01  0.1000000000D+01
 D   1 1.00       0.000000000000
      0.8000000000D+00  0.1000000000D+01
 ****
     11 0
 S   3 1.00       0.000000000000
      0.1873113696D+02  0.3349460434D-01
      0.2825394365D+01  0.2347269535D+00
      0.6401216923D+00  0.8137573261D+00
 S   1 1.00       0.000000000000
      0.1612777588D+00  0.1000000000D+01
 ****
     12 0
 S   6 1.00       0.000000000000
      0.3047524880D+04  0.1834737132D-02
      0.4573695180D+03  0.1403732281D-01
      0.1039486850D+03  0.6884262226D-01
      0.2921015530D+02  0.2321844432D+00
      0.9286662960D+01  0.4679413484D+00
      0.3163926960D+01  0.3623119853D+00
 SP   3 1.00       0.000000000000
      0.7868272350D+01 -0.1193324198D+00  0.6899906659D-01
      0.1881288540D+01 -0.1608541517D+00  0.3164239610D+00
      0.5442492580D+00  0.1143456438D+01  0.7443082909D+00
 SP   1 1.00       0.000000000000
      0.1687144782D+00  0.1000000000D+01  0.1000000000D+01
 D   1 1.00       0.000000000000
      0.8000000000D+00  0.1000000000D+01
 ****
     13 0
 S   3 1.00       0.000000000000
      0.1873113696D+02  0.3349460434D-01
      0.2825394365D+01  0.2347269535D+00
      0.6401216923D+00  0.8137573261D+00
 S   1 1.00       0.000000000000
      0.1612777588D+00  0.1000000000D+01
 ****
     14 0
 S   3 1.00       0.000000000000
      0.1873113696D+02  0.3349460434D-01
      0.2825394365D+01  0.2347269535D+00
      0.6401216923D+00  0.8137573261D+00
 S   1 1.00       0.000000000000
      0.1612777588D+00  0.1000000000D+01
 ****
     15 0
 S   6 1.00       0.000000000000
      0.3047524880D+04  0.1834737132D-02
      0.4573695180D+03  0.1403732281D-01
      0.1039486850D+03  0.6884262226D-01
      0.2921015530D+02  0.2321844432D+00
      0.9286662960D+01  0.4679413484D+00
      0.3163926960D+01  0.3623119853D+00
 SP   3 1.00       0.000000000000
      0.7868272350D+01 -0.1193324198D+00  0.6899906659D-01
      0.1881288540D+01 -0.1608541517D+00  0.3164239610D+00
      0.5442492580D+00  0.1143456438D+01  0.7443082909D+00
 SP   1 1.00       0.000000000000
      0.1687144782D+00  0.1000000000D+01  0.1000000000D+01
 D   1 1.00       0.000000000000
      0.8000000000D+00  0.1000000000D+01
 ****
     16 0
 S   6 1.00       0.000000000000
      0.3047524880D+04  0.1834737132D-02
      0.4573695180D+03  0.1403732281D-01
      0.1039486850D+03  0.6884262226D-01
      0.2921015530D+02  0.2321844432D+00
      0.9286662960D+01  0.4679413484D+00
      0.3163926960D+01  0.3623119853D+00
 SP   3 1.00       0.000000000000
      0.7868272350D+01 -0.1193324198D+00  0.6899906659D-01
      0.1881288540D+01 -0.1608541517D+00  0.3164239610D+00
      0.5442492580D+00  0.1143456438D+01  0.7443082909D+00
 SP   1 1.00       0.000000000000
      0.1687144782D+00  0.1000000000D+01  0.1000000000D+01
 D   1 1.00       0.000000000000
      0.8000000000D+00  0.1000000000D+01
 ****
     17 0
 S   3 1.00       0.000000000000
      0.1873113696D+02  0.3349460434D-01
      0.2825394365D+01  0.2347269535D+00
      0.6401216923D+00  0.8137573261D+00
 S   1 1.00       0.000000000000
      0.1612777588D+00  0.1000000000D+01
 ****
     18 0
 S   3 1.00       0.000000000000
      0.1873113696D+02  0.3349460434D-01
      0.2825394365D+01  0.2347269535D+00
      0.6401216923D+00  0.8137573261D+00
 S   1 1.00       0.000000000000
      0.1612777588D+00  0.1000000000D+01
 ****
     19 0
 S   6 1.00       0.000000000000
      0.3047524880D+04  0.1834737132D-02
      0.4573695180D+03  0.1403732281D-01
      0.1039486850D+03  0.6884262226D-01
      0.2921015530D+02  0.2321844432D+00
      0.9286662960D+01  0.4679413484D+00
      0.3163926960D+01  0.3623119853D+00
 SP   3 1.00       0.000000000000
      0.7868272350D+01 -0.1193324198D+00  0.6899906659D-01
      0.1881288540D+01 -0.1608541517D+00  0.3164239610D+00
      0.5442492580D+00  0.1143456438D+01  0.7443082909D+00
 SP   1 1.00       0.000000000000
      0.1687144782D+00  0.1000000000D+01  0.1000000000D+01
 D   1 1.00       0.000000000000
      0.8000000000D+00  0.1000000000D+01
 ****
     20 0
 S   3 1.00       0.000000000000
      0.1873113696D+02  0.3349460434D-01
      0.2825394365D+01  0.2347269535D+00
      0.6401216923D+00  0.8137573261D+00
 S   1 1.00       0.000000000000
      0.1612777588D+00  0.1000000000D+01
 ****
     21 0
 S   3 1.00       0.000000000000
      0.1873113696D+02  0.3349460434D-01
      0.2825394365D+01  0.2347269535D+00
      0.6401216923D+00  0.8137573261D+00
 S   1 1.00       0.000000000000
      0.1612777588D+00  0.1000000000D+01
 ****
     22 0
 S   6 1.00       0.000000000000
      0.3047524880D+04  0.1834737132D-02
      0.4573695180D+03  0.1403732281D-01
      0.1039486850D+03  0.6884262226D-01
      0.2921015530D+02  0.2321844432D+00
      0.9286662960D+01  0.4679413484D+00
      0.3163926960D+01  0.3623119853D+00
 SP   3 1.00       0.000000000000
      0.7868272350D+01 -0.1193324198D+00  0.6899906659D-01
      0.1881288540D+01 -0.1608541517D+00  0.3164239610D+00
      0.5442492580D+00  0.1143456438D+01  0.7443082909D+00
 SP   1 1.00       0.000000000000
      0.1687144782D+00  0.1000000000D+01  0.1000000000D+01
 D   1 1.00       0.000000000000
      0.8000000000D+00  0.1000000000D+01
 ****
     23 0
 S   3 1.00       0.000000000000
      0.1873113696D+02  0.3349460434D-01
      0.2825394365D+01  0.2347269535D+00
      0.6401216923D+00  0.8137573261D+00
 S   1 1.00       0.000000000000
      0.1612777588D+00  0.1000000000D+01
 ****
     24 0
 S   3 1.00       0.000000000000
      0.1873113696D+02  0.3349460434D-01
      0.2825394365D+01  0.2347269535D+00
      0.6401216923D+00  0.8137573261D+00
 S   1 1.00       0.000000000000
      0.1612777588D+00  0.1000000000D+01
 ****
     25 0
 S   6 1.00       0.000000000000
      0.3047524880D+04  0.1834737132D-02
      0.4573695180D+03  0.1403732281D-01
      0.1039486850D+03  0.6884262226D-01
      0.2921015530D+02  0.2321844432D+00
      0.9286662960D+01  0.4679413484D+00
      0.3163926960D+01  0.3623119853D+00
 SP   3 1.00       0.000000000000
      0.7868272350D+01 -0.1193324198D+00  0.6899906659D-01
      0.1881288540D+01 -0.1608541517D+00  0.3164239610D+00
      0.5442492580D+00  0.1143456438D+01  0.7443082909D+00
 SP   1 1.00       0.000000000000
      0.1687144782D+00  0.1000000000D+01  0.1000000000D+01
 D   1 1.00       0.000000000000
      0.8000000000D+00  0.1000000000D+01
 ****
     26 0
 S   3 1.00       0.000000000000
      0.1873113696D+02  0.3349460434D-01
      0.2825394365D+01  0.2347269535D+00
      0.6401216923D+00  0.8137573261D+00
 S   1 1.00       0.000000000000
      0.1612777588D+00  0.1000000000D+01
 ****
     27 0
 S   3 1.00       0.000000000000
      0.1873113696D+02  0.3349460434D-01
      0.2825394365D+01  0.2347269535D+00
      0.6401216923D+00  0.8137573261D+00
 S   1 1.00       0.000000000000
      0.1612777588D+00  0.1000000000D+01
 ****
     28 0
 S   6 1.00       0.000000000000
      0.3047524880D+04  0.1834737132D-02
      0.4573695180D+03  0.1403732281D-01
      0.1039486850D+03  0.6884262226D-01
      0.2921015530D+02  0.2321844432D+00
      0.9286662960D+01  0.4679413484D+00
      0.3163926960D+01  0.3623119853D+00
 SP   3 1.00       0.000000000000
      0.7868272350D+01 -0.1193324198D+00  0.6899906659D-01
      0.1881288540D+01 -0.1608541517D+00  0.3164239610D+00
      0.5442492580D+00  0.1143456438D+01  0.7443082909D+00
 SP   1 1.00       0.000000000000
      0.1687144782D+00  0.1000000000D+01  0.1000000000D+01
 D   1 1.00       0.000000000000
      0.8000000000D+00  0.1000000000D+01
 ****
     29 0
 S   3 1.00       0.000000000000
      0.1873113696D+02  0.3349460434D-01
      0.2825394365D+01  0.2347269535D+00
      0.6401216923D+00  0.8137573261D+00
 S   1 1.00       0.000000000000
      0.1612777588D+00  0.1000000000D+01
 ****
     30 0
 S   6 1.00       0.000000000000
      0.3047524880D+04  0.1834737132D-02
      0.4573695180D+03  0.1403732281D-01
      0.1039486850D+03  0.6884262226D-01
      0.2921015530D+02  0.2321844432D+00
      0.9286662960D+01  0.4679413484D+00
      0.3163926960D+01  0.3623119853D+00
 SP   3 1.00       0.000000000000
      0.7868272350D+01 -0.1193324198D+00  0.6899906659D-01
      0.1881288540D+01 -0.1608541517D+00  0.3164239610D+00
      0.5442492580D+00  0.1143456438D+01  0.7443082909D+00
 SP   1 1.00       0.000000000000
      0.1687144782D+00  0.1000000000D+01  0.1000000000D+01
 D   1 1.00       0.000000000000
      0.8000000000D+00  0.1000000000D+01
 ****
     31 0
 S   3 1.00       0.000000000000
      0.1873113696D+02  0.3349460434D-01
      0.2825394365D+01  0.2347269535D+00
      0.6401216923D+00  0.8137573261D+00
 S   1 1.00       0.000000000000
      0.1612777588D+00  0.1000000000D+01
 ****
     32 0
 S   3 1.00       0.000000000000
      0.1873113696D+02  0.3349460434D-01
      0.2825394365D+01  0.2347269535D+00
      0.6401216923D+00  0.8137573261D+00
 S   1 1.00       0.000000000000
      0.1612777588D+00  0.1000000000D+01
 ****
     33 0
 S   3 1.00       0.000000000000
      0.1873113696D+02  0.3349460434D-01
      0.2825394365D+01  0.2347269535D+00
      0.6401216923D+00  0.8137573261D+00
 S   1 1.00       0.000000000000
      0.1612777588D+00  0.1000000000D+01
 ****
     34 0
 S   6 1.00       0.000000000000
      0.3047524880D+04  0.1834737132D-02
      0.4573695180D+03  0.1403732281D-01
      0.1039486850D+03  0.6884262226D-01
      0.2921015530D+02  0.2321844432D+00
      0.9286662960D+01  0.4679413484D+00
      0.3163926960D+01  0.3623119853D+00
 SP   3 1.00       0.000000000000
      0.7868272350D+01 -0.1193324198D+00  0.6899906659D-01
      0.1881288540D+01 -0.1608541517D+00  0.3164239610D+00
      0.5442492580D+00  0.1143456438D+01  0.7443082909D+00
 SP   1 1.00       0.000000000000
      0.1687144782D+00  0.1000000000D+01  0.1000000000D+01
 D   1 1.00       0.000000000000
      0.8000000000D+00  0.1000000000D+01
 ****
     35 0
 S   6 1.00       0.000000000000
      0.3047524880D+04  0.1834737132D-02
      0.4573695180D+03  0.1403732281D-01
      0.1039486850D+03  0.6884262226D-01
      0.2921015530D+02  0.2321844432D+00
      0.9286662960D+01  0.4679413484D+00
      0.3163926960D+01  0.3623119853D+00
 SP   3 1.00       0.000000000000
      0.7868272350D+01 -0.1193324198D+00  0.6899906659D-01
      0.1881288540D+01 -0.1608541517D+00  0.3164239610D+00
      0.5442492580D+00  0.1143456438D+01  0.7443082909D+00
 SP   1 1.00       0.000000000000
      0.1687144782D+00  0.1000000000D+01  0.1000000000D+01
 D   1 1.00       0.000000000000
      0.8000000000D+00  0.1000000000D+01
 ****
     36 0
 S   3 1.00       0.000000000000
      0.1873113696D+02  0.3349460434D-01
      0.2825394365D+01  0.2347269535D+00
      0.6401216923D+00  0.8137573261D+00
 S   1 1.00       0.000000000000
      0.1612777588D+00  0.1000000000D+01
 ****
     37 0
 S   3 1.00       0.000000000000
      0.1873113696D+02  0.3349460434D-01
      0.2825394365D+01  0.2347269535D+00
      0.6401216923D+00  0.8137573261D+00
 S   1 1.00       0.000000000000
      0.1612777588D+00  0.1000000000D+01
 ****
     38 0
 S   6 1.00       0.000000000000
      0.3047524880D+04  0.1834737132D-02
      0.4573695180D+03  0.1403732281D-01
      0.1039486850D+03  0.6884262226D-01
      0.2921015530D+02  0.2321844432D+00
      0.9286662960D+01  0.4679413484D+00
      0.3163926960D+01  0.3623119853D+00
 SP   3 1.00       0.000000000000
      0.7868272350D+01 -0.1193324198D+00  0.6899906659D-01
      0.1881288540D+01 -0.1608541517D+00  0.3164239610D+00
      0.5442492580D+00  0.1143456438D+01  0.7443082909D+00
 SP   1 1.00       0.000000000000
      0.1687144782D+00  0.1000000000D+01  0.1000000000D+01
 D   1 1.00       0.000000000000
      0.8000000000D+00  0.1000000000D+01
 ****
     39 0
 S   3 1.00       0.000000000000
      0.1873113696D+02  0.3349460434D-01
      0.2825394365D+01  0.2347269535D+00
      0.6401216923D+00  0.8137573261D+00
 S   1 1.00       0.000000000000
      0.1612777588D+00  0.1000000000D+01
 ****
     40 0
 S   6 1.00       0.000000000000
      0.3047524880D+04  0.1834737132D-02
      0.4573695180D+03  0.1403732281D-01
      0.1039486850D+03  0.6884262226D-01
      0.2921015530D+02  0.2321844432D+00
      0.9286662960D+01  0.4679413484D+00
      0.3163926960D+01  0.3623119853D+00
 SP   3 1.00       0.000000000000
      0.7868272350D+01 -0.1193324198D+00  0.6899906659D-01
      0.1881288540D+01 -0.1608541517D+00  0.3164239610D+00
      0.5442492580D+00  0.1143456438D+01  0.7443082909D+00
 SP   1 1.00       0.000000000000
      0.1687144782D+00  0.1000000000D+01  0.1000000000D+01
 D   1 1.00       0.000000000000
      0.8000000000D+00  0.1000000000D+01
 ****
     41 0
 S   3 1.00       0.000000000000
      0.1873113696D+02  0.3349460434D-01
      0.2825394365D+01  0.2347269535D+00
      0.6401216923D+00  0.8137573261D+00
 S   1 1.00       0.000000000000
      0.1612777588D+00  0.1000000000D+01
 ****
     42 0
 S   3 1.00       0.000000000000
      0.1873113696D+02  0.3349460434D-01
      0.2825394365D+01  0.2347269535D+00
      0.6401216923D+00  0.8137573261D+00
 S   1 1.00       0.000000000000
      0.1612777588D+00  0.1000000000D+01
 ****
     43 0
 S   3 1.00       0.000000000000
      0.1873113696D+02  0.3349460434D-01
      0.2825394365D+01  0.2347269535D+00
      0.6401216923D+00  0.8137573261D+00
 S   1 1.00       0.000000000000
      0.1612777588D+00  0.1000000000D+01
 ****
     44 0
 S   6 1.00       0.000000000000
      0.3047524880D+04  0.1834737132D-02
      0.4573695180D+03  0.1403732281D-01
      0.1039486850D+03  0.6884262226D-01
      0.2921015530D+02  0.2321844432D+00
      0.9286662960D+01  0.4679413484D+00
      0.3163926960D+01  0.3623119853D+00
 SP   3 1.00       0.000000000000
      0.7868272350D+01 -0.1193324198D+00  0.6899906659D-01
      0.1881288540D+01 -0.1608541517D+00  0.3164239610D+00
      0.5442492580D+00  0.1143456438D+01  0.7443082909D+00
 SP   1 1.00       0.000000000000
      0.1687144782D+00  0.1000000000D+01  0.1000000000D+01
 D   1 1.00       0.000000000000
      0.8000000000D+00  0.1000000000D+01
 ****
     45 0
 S   3 1.00       0.000000000000
      0.1873113696D+02  0.3349460434D-01
      0.2825394365D+01  0.2347269535D+00
      0.6401216923D+00  0.8137573261D+00
 S   1 1.00       0.000000000000
      0.1612777588D+00  0.1000000000D+01
 ****
     46 0
 S   3 1.00       0.000000000000
      0.1873113696D+02  0.3349460434D-01
      0.2825394365D+01  0.2347269535D+00
      0.6401216923D+00  0.8137573261D+00
 S   1 1.00       0.000000000000
      0.1612777588D+00  0.1000000000D+01
 ****
     47 0
 S   6 1.00       0.000000000000
      0.3047524880D+04  0.1834737132D-02
      0.4573695180D+03  0.1403732281D-01
      0.1039486850D+03  0.6884262226D-01
      0.2921015530D+02  0.2321844432D+00
      0.9286662960D+01  0.4679413484D+00
      0.3163926960D+01  0.3623119853D+00
 SP   3 1.00       0.000000000000
      0.7868272350D+01 -0.1193324198D+00  0.6899906659D-01
      0.1881288540D+01 -0.1608541517D+00  0.3164239610D+00
      0.5442492580D+00  0.1143456438D+01  0.7443082909D+00
 SP   1 1.00       0.000000000000
      0.1687144782D+00  0.1000000000D+01  0.1000000000D+01
 D   1 1.00       0.000000000000
      0.8000000000D+00  0.1000000000D+01
 ****
     48 0
 S   3 1.00       0.000000000000
      0.1873113696D+02  0.3349460434D-01
      0.2825394365D+01  0.2347269535D+00
      0.6401216923D+00  0.8137573261D+00
 S   1 1.00       0.000000000000
      0.1612777588D+00  0.1000000000D+01
 ****
     49 0
 S   3 1.00       0.000000000000
      0.1873113696D+02  0.3349460434D-01
      0.2825394365D+01  0.2347269535D+00
      0.6401216923D+00  0.8137573261D+00
 S   1 1.00       0.000000000000
      0.1612777588D+00  0.1000000000D+01
 ****
     50 0
 S   6 1.00       0.000000000000
      0.3047524880D+04  0.1834737132D-02
      0.4573695180D+03  0.1403732281D-01
      0.1039486850D+03  0.6884262226D-01
      0.2921015530D+02  0.2321844432D+00
      0.9286662960D+01  0.4679413484D+00
      0.3163926960D+01  0.3623119853D+00
 SP   3 1.00       0.000000000000
      0.7868272350D+01 -0.1193324198D+00  0.6899906659D-01
      0.1881288540D+01 -0.1608541517D+00  0.3164239610D+00
      0.5442492580D+00  0.1143456438D+01  0.7443082909D+00
 SP   1 1.00       0.000000000000
      0.1687144782D+00  0.1000000000D+01  0.1000000000D+01
 D   1 1.00       0.000000000000
      0.8000000000D+00  0.1000000000D+01
 ****
     51 0
 S   3 1.00       0.000000000000
      0.1873113696D+02  0.3349460434D-01
      0.2825394365D+01  0.2347269535D+00
      0.6401216923D+00  0.8137573261D+00
 S   1 1.00       0.000000000000
      0.1612777588D+00  0.1000000000D+01
 ****
     52 0
 S   3 1.00       0.000000000000
      0.1873113696D+02  0.3349460434D-01
      0.2825394365D+01  0.2347269535D+00
      0.6401216923D+00  0.8137573261D+00
 S   1 1.00       0.000000000000
      0.1612777588D+00  0.1000000000D+01
 ****
     53 0
 S   6 1.00       0.000000000000
      0.3047524880D+04  0.1834737132D-02
      0.4573695180D+03  0.1403732281D-01
      0.1039486850D+03  0.6884262226D-01
      0.2921015530D+02  0.2321844432D+00
      0.9286662960D+01  0.4679413484D+00
      0.3163926960D+01  0.3623119853D+00
 SP   3 1.00       0.000000000000
      0.7868272350D+01 -0.1193324198D+00  0.6899906659D-01
      0.1881288540D+01 -0.1608541517D+00  0.3164239610D+00
      0.5442492580D+00  0.1143456438D+01  0.7443082909D+00
 SP   1 1.00       0.000000000000
      0.1687144782D+00  0.1000000000D+01  0.1000000000D+01
 D   1 1.00       0.000000000000
      0.8000000000D+00  0.1000000000D+01
 ****
     54 0
 S   3 1.00       0.000000000000
      0.1873113696D+02  0.3349460434D-01
      0.2825394365D+01  0.2347269535D+00
      0.6401216923D+00  0.8137573261D+00
 S   1 1.00       0.000000000000
      0.1612777588D+00  0.1000000000D+01
 ****
     55 0
 S   6 1.00       0.000000000000
      0.3047524880D+04  0.1834737132D-02
      0.4573695180D+03  0.1403732281D-01
      0.1039486850D+03  0.6884262226D-01
      0.2921015530D+02  0.2321844432D+00
      0.9286662960D+01  0.4679413484D+00
      0.3163926960D+01  0.3623119853D+00
 SP   3 1.00       0.000000000000
      0.7868272350D+01 -0.1193324198D+00  0.6899906659D-01
      0.1881288540D+01 -0.1608541517D+00  0.3164239610D+00
      0.5442492580D+00  0.1143456438D+01  0.7443082909D+00
 SP   1 1.00       0.000000000000
      0.1687144782D+00  0.1000000000D+01  0.1000000000D+01
 D   1 1.00       0.000000000000
      0.8000000000D+00  0.1000000000D+01
 ****
     56 0
 S   3 1.00       0.000000000000
      0.1873113696D+02  0.3349460434D-01
      0.2825394365D+01  0.2347269535D+00
      0.6401216923D+00  0.8137573261D+00
 S   1 1.00       0.000000000000
      0.1612777588D+00  0.1000000000D+01
 ****
     57 0
 S   3 1.00       0.000000000000
      0.1873113696D+02  0.3349460434D-01
      0.2825394365D+01  0.2347269535D+00
      0.6401216923D+00  0.8137573261D+00
 S   1 1.00       0.000000000000
      0.1612777588D+00  0.1000000000D+01
 ****
     58 0
 S   3 1.00       0.000000000000
      0.1873113696D+02  0.3349460434D-01
      0.2825394365D+01  0.2347269535D+00
      0.6401216923D+00  0.8137573261D+00
 S   1 1.00       0.000000000000
      0.1612777588D+00  0.1000000000D+01
 ****
     59 0
 S   6 1.00       0.000000000000
      0.3047524880D+04  0.1834737132D-02
      0.4573695180D+03  0.1403732281D-01
      0.1039486850D+03  0.6884262226D-01
      0.2921015530D+02  0.2321844432D+00
      0.9286662960D+01  0.4679413484D+00
      0.3163926960D+01  0.3623119853D+00
 SP   3 1.00       0.000000000000
      0.7868272350D+01 -0.1193324198D+00  0.6899906659D-01
      0.1881288540D+01 -0.1608541517D+00  0.3164239610D+00
      0.5442492580D+00  0.1143456438D+01  0.7443082909D+00
 SP   1 1.00       0.000000000000
      0.1687144782D+00  0.1000000000D+01  0.1000000000D+01
 D   1 1.00       0.000000000000
      0.8000000000D+00  0.1000000000D+01
 ****
     60 0
 S   3 1.00       0.000000000000
      0.1873113696D+02  0.3349460434D-01
      0.2825394365D+01  0.2347269535D+00
      0.6401216923D+00  0.8137573261D+00
 S   1 1.00       0.000000000000
      0.1612777588D+00  0.1000000000D+01
 ****
     61 0
 S   3 1.00       0.000000000000
      0.1873113696D+02  0.3349460434D-01
      0.2825394365D+01  0.2347269535D+00
      0.6401216923D+00  0.8137573261D+00
 S   1 1.00       0.000000000000
      0.1612777588D+00  0.1000000000D+01
 ****
     62 0
 S   6 1.00       0.000000000000
      0.3047524880D+04  0.1834737132D-02
      0.4573695180D+03  0.1403732281D-01
      0.1039486850D+03  0.6884262226D-01
      0.2921015530D+02  0.2321844432D+00
      0.9286662960D+01  0.4679413484D+00
      0.3163926960D+01  0.3623119853D+00
 SP   3 1.00       0.000000000000
      0.7868272350D+01 -0.1193324198D+00  0.6899906659D-01
      0.1881288540D+01 -0.1608541517D+00  0.3164239610D+00
      0.5442492580D+00  0.1143456438D+01  0.7443082909D+00
 SP   1 1.00       0.000000000000
      0.1687144782D+00  0.1000000000D+01  0.1000000000D+01
 D   1 1.00       0.000000000000
      0.8000000000D+00  0.1000000000D+01
 ****
     63 0
 S   3 1.00       0.000000000000
      0.1873113696D+02  0.3349460434D-01
      0.2825394365D+01  0.2347269535D+00
      0.6401216923D+00  0.8137573261D+00
 S   1 1.00       0.000000000000
      0.1612777588D+00  0.1000000000D+01
 ****
     64 0
 S   3 1.00       0.000000000000
      0.1873113696D+02  0.3349460434D-01
      0.2825394365D+01  0.2347269535D+00
      0.6401216923D+00  0.8137573261D+00
 S   1 1.00       0.000000000000
      0.1612777588D+00  0.1000000000D+01
 ****
     65 0
 S   6 1.00       0.000000000000
      0.3047524880D+04  0.1834737132D-02
      0.4573695180D+03  0.1403732281D-01
      0.1039486850D+03  0.6884262226D-01
      0.2921015530D+02  0.2321844432D+00
      0.9286662960D+01  0.4679413484D+00
      0.3163926960D+01  0.3623119853D+00
 SP   3 1.00       0.000000000000
      0.7868272350D+01 -0.1193324198D+00  0.6899906659D-01
      0.1881288540D+01 -0.1608541517D+00  0.3164239610D+00
      0.5442492580D+00  0.1143456438D+01  0.7443082909D+00
 SP   1 1.00       0.000000000000
      0.1687144782D+00  0.1000000000D+01  0.1000000000D+01
 D   1 1.00       0.000000000000
      0.8000000000D+00  0.1000000000D+01
 ****
     66 0
 S   3 1.00       0.000000000000
      0.1873113696D+02  0.3349460434D-01
      0.2825394365D+01  0.2347269535D+00
      0.6401216923D+00  0.8137573261D+00
 S   1 1.00       0.000000000000
      0.1612777588D+00  0.1000000000D+01
 ****
     67 0
 S   6 1.00       0.000000000000
      0.3047524880D+04  0.1834737132D-02
      0.4573695180D+03  0.1403732281D-01
      0.1039486850D+03  0.6884262226D-01
      0.2921015530D+02  0.2321844432D+00
      0.9286662960D+01  0.4679413484D+00
      0.3163926960D+01  0.3623119853D+00
 SP   3 1.00       0.000000000000
      0.7868272350D+01 -0.1193324198D+00  0.6899906659D-01
      0.1881288540D+01 -0.1608541517D+00  0.3164239610D+00
      0.5442492580D+00  0.1143456438D+01  0.7443082909D+00
 SP   1 1.00       0.000000000000
      0.1687144782D+00  0.1000000000D+01  0.1000000000D+01
 D   1 1.00       0.000000000000
      0.8000000000D+00  0.1000000000D+01
 ****
     68 0
 S   3 1.00       0.000000000000
      0.1873113696D+02  0.3349460434D-01
      0.2825394365D+01  0.2347269535D+00
      0.6401216923D+00  0.8137573261D+00
 S   1 1.00       0.000000000000
      0.1612777588D+00  0.1000000000D+01
 ****
     69 0
 S   3 1.00       0.000000000000
      0.1873113696D+02  0.3349460434D-01
      0.2825394365D+01  0.2347269535D+00
      0.6401216923D+00  0.8137573261D+00
 S   1 1.00       0.000000000000
      0.1612777588D+00  0.1000000000D+01
 ****
     70 0
 S   3 1.00       0.000000000000
      0.1873113696D+02  0.3349460434D-01
      0.2825394365D+01  0.2347269535D+00
      0.6401216923D+00  0.8137573261D+00
 S   1 1.00       0.000000000000
      0.1612777588D+00  0.1000000000D+01
 ****
     71 0
 S   6 1.00       0.000000000000
      0.3047524880D+04  0.1834737132D-02
      0.4573695180D+03  0.1403732281D-01
      0.1039486850D+03  0.6884262226D-01
      0.2921015530D+02  0.2321844432D+00
      0.9286662960D+01  0.4679413484D+00
      0.3163926960D+01  0.3623119853D+00
 SP   3 1.00       0.000000000000
      0.7868272350D+01 -0.1193324198D+00  0.6899906659D-01
      0.1881288540D+01 -0.1608541517D+00  0.3164239610D+00
      0.5442492580D+00  0.1143456438D+01  0.7443082909D+00
 SP   1 1.00       0.000000000000
      0.1687144782D+00  0.1000000000D+01  0.1000000000D+01
 D   1 1.00       0.000000000000
      0.8000000000D+00  0.1000000000D+01
 ****
     72 0
 S   3 1.00       0.000000000000
      0.1873113696D+02  0.3349460434D-01
      0.2825394365D+01  0.2347269535D+00
      0.6401216923D+00  0.8137573261D+00
 S   1 1.00       0.000000000000
      0.1612777588D+00  0.1000000000D+01
 ****
     73 0
 S   3 1.00       0.000000000000
      0.1873113696D+02  0.3349460434D-01
      0.2825394365D+01  0.2347269535D+00
      0.6401216923D+00  0.8137573261D+00
 S   1 1.00       0.000000000000
      0.1612777588D+00  0.1000000000D+01
 ****
     74 0
 S   3 1.00       0.000000000000
      0.1873113696D+02  0.3349460434D-01
      0.2825394365D+01  0.2347269535D+00
      0.6401216923D+00  0.8137573261D+00
 S   1 1.00       0.000000000000
      0.1612777588D+00  0.1000000000D+01
 ****

 AO basis set (Overlap normalization):
 Atom O1       Shell     1 S   6     bf    1 -     1         -7.043505747217         -6.832007730705         -7.795740336195
      0.5484671660D+04  0.1831074430D-02
      0.8252349460D+03  0.1395017220D-01
      0.1880469580D+03  0.6844507810D-01
      0.5296450000D+02  0.2327143360D+00
      0.1689757040D+02  0.4701928980D+00
      0.5799635340D+01  0.3585208530D+00
 Atom O1       Shell     2 SP   3    bf    2 -     5         -7.043505747217         -6.832007730705         -7.795740336195
      0.1553961625D+02 -0.1107775495D+00  0.7087426823D-01
      0.3599933586D+01 -0.1480262627D+00  0.3397528391D+00
      0.1013761750D+01  0.1130767015D+01  0.7271585773D+00
 Atom O1       Shell     3 SP   1    bf    6 -     9         -7.043505747217         -6.832007730705         -7.795740336195
      0.2700058226D+00  0.1000000000D+01  0.1000000000D+01
 Atom O1       Shell     4 D   1     bf   10 -    15         -7.043505747217         -6.832007730705         -7.795740336195
      0.8000000000D+00  0.1000000000D+01
 Atom H2       Shell     5 S   3     bf   16 -    16         -7.327644250462         -8.421081213746         -6.941751534969
      0.1873113696D+02  0.3349460434D-01
      0.2825394365D+01  0.2347269535D+00
      0.6401216923D+00  0.8137573261D+00
 Atom H2       Shell     6 S   1     bf   17 -    17         -7.327644250462         -8.421081213746         -6.941751534969
      0.1612777588D+00  0.1000000000D+01
 Atom C3       Shell     7 S   6     bf   18 -    18          3.023740013791          3.898627466396          0.000000000000
      0.3047524880D+04  0.1834737132D-02
      0.4573695180D+03  0.1403732281D-01
      0.1039486850D+03  0.6884262226D-01
      0.2921015530D+02  0.2321844432D+00
      0.9286662960D+01  0.4679413484D+00
      0.3163926960D+01  0.3623119853D+00
 Atom C3       Shell     8 SP   3    bf   19 -    22          3.023740013791          3.898627466396          0.000000000000
      0.7868272350D+01 -0.1193324198D+00  0.6899906659D-01
      0.1881288540D+01 -0.1608541517D+00  0.3164239610D+00
      0.5442492580D+00  0.1143456438D+01  0.7443082909D+00
 Atom C3       Shell     9 SP   1    bf   23 -    26          3.023740013791          3.898627466396          0.000000000000
      0.1687144782D+00  0.1000000000D+01  0.1000000000D+01
 Atom C3       Shell    10 D   1     bf   27 -    32          3.023740013791          3.898627466396          0.000000000000
      0.8000000000D+00  0.1000000000D+01
 Atom C4       Shell    11 S   6     bf   33 -    33          2.507007139508          1.148683843773          0.894614662754
      0.3047524880D+04  0.1834737132D-02
      0.4573695180D+03  0.1403732281D-01
      0.1039486850D+03  0.6884262226D-01
      0.2921015530D+02  0.2321844432D+00
      0.9286662960D+01  0.4679413484D+00
      0.3163926960D+01  0.3623119853D+00
 Atom C4       Shell    12 SP   3    bf   34 -    37          2.507007139508          1.148683843773          0.894614662754
      0.7868272350D+01 -0.1193324198D+00  0.6899906659D-01
      0.1881288540D+01 -0.1608541517D+00  0.3164239610D+00
      0.5442492580D+00  0.1143456438D+01  0.7443082909D+00
 Atom C4       Shell    13 SP   1    bf   38 -    41          2.507007139508          1.148683843773          0.894614662754
      0.1687144782D+00  0.1000000000D+01  0.1000000000D+01
 Atom C4       Shell    14 D   1     bf   42 -    47          2.507007139508          1.148683843773          0.894614662754
      0.8000000000D+00  0.1000000000D+01
 Atom H5       Shell    15 S   3     bf   48 -    48          4.000670126442          0.000000000000          0.000000000000
      0.1873113696D+02  0.3349460434D-01
      0.2825394365D+01  0.2347269535D+00
      0.6401216923D+00  0.8137573261D+00
 Atom H5       Shell    16 S   1     bf   49 -    49          4.000670126442          0.000000000000          0.000000000000
      0.1612777588D+00  0.1000000000D+01
 Atom C6       Shell    17 S   6     bf   50 -    50          0.000000000000          0.000000000000          0.000000000000
      0.3047524880D+04  0.1834737132D-02
      0.4573695180D+03  0.1403732281D-01
      0.1039486850D+03  0.6884262226D-01
      0.2921015530D+02  0.2321844432D+00
      0.9286662960D+01  0.4679413484D+00
      0.3163926960D+01  0.3623119853D+00
 Atom C6       Shell    18 SP   3    bf   51 -    54          0.000000000000          0.000000000000          0.000000000000
      0.7868272350D+01 -0.1193324198D+00  0.6899906659D-01
      0.1881288540D+01 -0.1608541517D+00  0.3164239610D+00
      0.5442492580D+00  0.1143456438D+01  0.7443082909D+00
 Atom C6       Shell    19 SP   1    bf   55 -    58          0.000000000000          0.000000000000          0.000000000000
      0.1687144782D+00  0.1000000000D+01  0.1000000000D+01
 Atom C6       Shell    20 D   1     bf   59 -    64          0.000000000000          0.000000000000          0.000000000000
      0.8000000000D+00  0.1000000000D+01
 Atom H7       Shell    21 S   3     bf   65 -    65         -1.576003645777          1.094593683548          0.795888679942
      0.1873113696D+02  0.3349460434D-01
      0.2825394365D+01  0.2347269535D+00
      0.6401216923D+00  0.8137573261D+00
 Atom H7       Shell    22 S   1     bf   66 -    66         -1.576003645777          1.094593683548          0.795888679942
      0.1612777588D+00  0.1000000000D+01
 Atom C8       Shell    23 S   6     bf   67 -    67         -0.146578043689          0.090290604403         -2.926423237551
      0.3047524880D+04  0.1834737132D-02
      0.4573695180D+03  0.1403732281D-01
      0.1039486850D+03  0.6884262226D-01
      0.2921015530D+02  0.2321844432D+00
      0.9286662960D+01  0.4679413484D+00
      0.3163926960D+01  0.3623119853D+00
 Atom C8       Shell    24 SP   3    bf   68 -    71         -0.146578043689          0.090290604403         -2.926423237551
      0.7868272350D+01 -0.1193324198D+00  0.6899906659D-01
      0.1881288540D+01 -0.1608541517D+00  0.3164239610D+00
      0.5442492580D+00  0.1143456438D+01  0.7443082909D+00
 Atom C8       Shell    25 SP   1    bf   72 -    75         -0.146578043689          0.090290604403         -2.926423237551
      0.1687144782D+00  0.1000000000D+01  0.1000000000D+01
 Atom C8       Shell    26 D   1     bf   76 -    81         -0.146578043689          0.090290604403         -2.926423237551
      0.8000000000D+00  0.1000000000D+01
 Atom H9       Shell    27 S   3     bf   82 -    82          1.324024879807         -1.225127272067         -3.596631126785
      0.1873113696D+02  0.3349460434D-01
      0.2825394365D+01  0.2347269535D+00
      0.6401216923D+00  0.8137573261D+00
 Atom H9       Shell    28 S   1     bf   83 -    83          1.324024879807         -1.225127272067         -3.596631126785
      0.1612777588D+00  0.1000000000D+01
 Atom C10      Shell    29 S   6     bf   84 -    84          5.637802179631          4.375496605701          1.313273868789
      0.3047524880D+04  0.1834737132D-02
      0.4573695180D+03  0.1403732281D-01
      0.1039486850D+03  0.6884262226D-01
      0.2921015530D+02  0.2321844432D+00
      0.9286662960D+01  0.4679413484D+00
      0.3163926960D+01  0.3623119853D+00
 Atom C10      Shell    30 SP   3    bf   85 -    88          5.637802179631          4.375496605701          1.313273868789
      0.7868272350D+01 -0.1193324198D+00  0.6899906659D-01
      0.1881288540D+01 -0.1608541517D+00  0.3164239610D+00
      0.5442492580D+00  0.1143456438D+01  0.7443082909D+00
 Atom C10      Shell    31 SP   1    bf   89 -    92          5.637802179631          4.375496605701          1.313273868789
      0.1687144782D+00  0.1000000000D+01  0.1000000000D+01
 Atom C10      Shell    32 D   1     bf   93 -    98          5.637802179631          4.375496605701          1.313273868789
      0.8000000000D+00  0.1000000000D+01
 Atom H11      Shell    33 S   3     bf   99 -    99          7.016920210706          3.255058366156          0.234683841224
      0.1873113696D+02  0.3349460434D-01
      0.2825394365D+01  0.2347269535D+00
      0.6401216923D+00  0.8137573261D+00
 Atom H11      Shell    34 S   1     bf  100 -   100          7.016920210706          3.255058366156          0.234683841224
      0.1612777588D+00  0.1000000000D+01
 Atom C12      Shell    35 S   6     bf  101 -   101          3.024771237342          3.829404984012         -2.913995774891
      0.3047524880D+04  0.1834737132D-02
      0.4573695180D+03  0.1403732281D-01
      0.1039486850D+03  0.6884262226D-01
      0.2921015530D+02  0.2321844432D+00
      0.9286662960D+01  0.4679413484D+00
      0.3163926960D+01  0.3623119853D+00
 Atom C12      Shell    36 SP   3    bf  102 -   105          3.024771237342          3.829404984012         -2.913995774891
      0.7868272350D+01 -0.1193324198D+00  0.6899906659D-01
      0.1881288540D+01 -0.1608541517D+00  0.3164239610D+00
      0.5442492580D+00  0.1143456438D+01  0.7443082909D+00
 Atom C12      Shell    37 SP   1    bf  106 -   109          3.024771237342          3.829404984012         -2.913995774891
      0.1687144782D+00  0.1000000000D+01  0.1000000000D+01
 Atom C12      Shell    38 D   1     bf  110 -   115          3.024771237342          3.829404984012         -2.913995774891
      0.8000000000D+00  0.1000000000D+01
 Atom H13      Shell    39 S   3     bf  116 -   116          4.625190012475          2.666392764268         -3.550248479155
      0.1873113696D+02  0.3349460434D-01
      0.2825394365D+01  0.2347269535D+00
      0.6401216923D+00  0.8137573261D+00
 Atom H13      Shell    40 S   1     bf  117 -   117          4.625190012475          2.666392764268         -3.550248479155
      0.1612777588D+00  0.1000000000D+01
 Atom H14      Shell    41 S   3     bf  118 -   118          3.307617016734          5.711655605980         -3.725100283991
      0.1873113696D+02  0.3349460434D-01
      0.2825394365D+01  0.2347269535D+00
      0.6401216923D+00  0.8137573261D+00
 Atom H14      Shell    42 S   1     bf  119 -   119          3.307617016734          5.711655605980         -3.725100283991
      0.1612777588D+00  0.1000000000D+01
 Atom C15      Shell    43 S   6     bf  120 -   120         -2.709135553702         -0.969535141861         -3.977302340001
      0.3047524880D+04  0.1834737132D-02
      0.4573695180D+03  0.1403732281D-01
      0.1039486850D+03  0.6884262226D-01
      0.2921015530D+02  0.2321844432D+00
      0.9286662960D+01  0.4679413484D+00
      0.3163926960D+01  0.3623119853D+00
 Atom C15      Shell    44 SP   3    bf  121 -   124         -2.709135553702         -0.969535141861         -3.977302340001
      0.7868272350D+01 -0.1193324198D+00  0.6899906659D-01
      0.1881288540D+01 -0.1608541517D+00  0.3164239610D+00
      0.5442492580D+00  0.1143456438D+01  0.7443082909D+00
 Atom C15      Shell    45 SP   1    bf  125 -   128         -2.709135553702         -0.969535141861         -3.977302340001
      0.1687144782D+00  0.1000000000D+01  0.1000000000D+01
 Atom C15      Shell    46 D   1     bf  129 -   134         -2.709135553702         -0.969535141861         -3.977302340001
      0.8000000000D+00  0.1000000000D+01
 Atom C16      Shell    47 S   6     bf  135 -   135          3.099470032676          1.187552921401          3.737215582790
      0.3047524880D+04  0.1834737132D-02
      0.4573695180D+03  0.1403732281D-01
      0.1039486850D+03  0.6884262226D-01
      0.2921015530D+02  0.2321844432D+00
      0.9286662960D+01  0.4679413484D+00
      0.3163926960D+01  0.3623119853D+00
 Atom C16      Shell    48 SP   3    bf  136 -   139          3.099470032676          1.187552921401          3.737215582790
      0.7868272350D+01 -0.1193324198D+00  0.6899906659D-01
      0.1881288540D+01 -0.1608541517D+00  0.3164239610D+00
      0.5442492580D+00  0.1143456438D+01  0.7443082909D+00
 Atom C16      Shell    49 SP   1    bf  140 -   143          3.099470032676          1.187552921401          3.737215582790
      0.1687144782D+00  0.1000000000D+01  0.1000000000D+01
 Atom C16      Shell    50 D   1     bf  144 -   149          3.099470032676          1.187552921401          3.737215582790
      0.8000000000D+00  0.1000000000D+01
 Atom H17      Shell    51 S   3     bf  150 -   150          3.608417613237         -0.681606358220          4.462338970138
      0.1873113696D+02  0.3349460434D-01
      0.2825394365D+01  0.2347269535D+00
      0.6401216923D+00  0.8137573261D+00
 Atom H17      Shell    52 S   1     bf  151 -   151          3.608417613237         -0.681606358220          4.462338970138
      0.1612777588D+00  0.1000000000D+01
 Atom H18      Shell    53 S   3     bf  152 -   152          1.448644343627          1.818067113214          4.821599624063
      0.1873113696D+02  0.3349460434D-01
      0.2825394365D+01  0.2347269535D+00
      0.6401216923D+00  0.8137573261D+00
 Atom H18      Shell    54 S   1     bf  153 -   153          1.448644343627          1.818067113214          4.821599624063
      0.1612777588D+00  0.1000000000D+01
 Atom C19      Shell    55 S   6     bf  154 -   154          0.541602199316          2.729611322167         -3.975725590310
      0.3047524880D+04  0.1834737132D-02
      0.4573695180D+03  0.1403732281D-01
      0.1039486850D+03  0.6884262226D-01
      0.2921015530D+02  0.2321844432D+00
      0.9286662960D+01  0.4679413484D+00
      0.3163926960D+01  0.3623119853D+00
 Atom C19      Shell    56 SP   3    bf  155 -   158          0.541602199316          2.729611322167         -3.975725590310
      0.7868272350D+01 -0.1193324198D+00  0.6899906659D-01
      0.1881288540D+01 -0.1608541517D+00  0.3164239610D+00
      0.5442492580D+00  0.1143456438D+01  0.7443082909D+00
 Atom C19      Shell    57 SP   1    bf  159 -   162          0.541602199316          2.729611322167         -3.975725590310
      0.1687144782D+00  0.1000000000D+01  0.1000000000D+01
 Atom C19      Shell    58 D   1     bf  163 -   168          0.541602199316          2.729611322167         -3.975725590310
      0.8000000000D+00  0.1000000000D+01
 Atom H20      Shell    59 S   3     bf  169 -   169         -0.990312661795          4.063723446688         -3.580323035923
      0.1873113696D+02  0.3349460434D-01
      0.2825394365D+01  0.2347269535D+00
      0.6401216923D+00  0.8137573261D+00
 Atom H20      Shell    60 S   1     bf  170 -   170         -0.990312661795          4.063723446688         -3.580323035923
      0.1612777588D+00  0.1000000000D+01
 Atom H21      Shell    61 S   3     bf  171 -   171          0.696487252318          2.640011167001         -6.038898648932
      0.1873113696D+02  0.3349460434D-01
      0.2825394365D+01  0.2347269535D+00
      0.6401216923D+00  0.8137573261D+00
 Atom H21      Shell    62 S   1     bf  172 -   172          0.696487252318          2.640011167001         -6.038898648932
      0.1612777588D+00  0.1000000000D+01
 Atom C22      Shell    63 S   6     bf  173 -   173          5.308110486248          3.109987114496          3.965049374652
      0.3047524880D+04  0.1834737132D-02
      0.4573695180D+03  0.1403732281D-01
      0.1039486850D+03  0.6884262226D-01
      0.2921015530D+02  0.2321844432D+00
      0.9286662960D+01  0.4679413484D+00
      0.3163926960D+01  0.3623119853D+00
 Atom C22      Shell    64 SP   3    bf  174 -   177          5.308110486248          3.109987114496          3.965049374652
      0.7868272350D+01 -0.1193324198D+00  0.6899906659D-01
      0.1881288540D+01 -0.1608541517D+00  0.3164239610D+00
      0.5442492580D+00  0.1143456438D+01  0.7443082909D+00
 Atom C22      Shell    65 SP   1    bf  178 -   181          5.308110486248          3.109987114496          3.965049374652
      0.1687144782D+00  0.1000000000D+01  0.1000000000D+01
 Atom C22      Shell    66 D   1     bf  182 -   187          5.308110486248          3.109987114496          3.965049374652
      0.8000000000D+00  0.1000000000D+01
 Atom H23      Shell    67 S   3     bf  188 -   188          4.884661977199          4.544514996040          5.398714482833
      0.1873113696D+02  0.3349460434D-01
      0.2825394365D+01  0.2347269535D+00
      0.6401216923D+00  0.8137573261D+00
 Atom H23      Shell    68 S   1     bf  189 -   189          4.884661977199          4.544514996040          5.398714482833
      0.1612777588D+00  0.1000000000D+01
 Atom H24      Shell    69 S   3     bf  190 -   190          7.059244217931          2.188361802440          4.567938567197
      0.1873113696D+02  0.3349460434D-01
      0.2825394365D+01  0.2347269535D+00
      0.6401216923D+00  0.8137573261D+00
 Atom H24      Shell    70 S   1     bf  191 -   191          7.059244217931          2.188361802440          4.567938567197
      0.1612777588D+00  0.1000000000D+01
 Atom C25      Shell    71 S   6     bf  192 -   192         -0.271947520914         -2.743175908630          0.916555611479
      0.3047524880D+04  0.1834737132D-02
      0.4573695180D+03  0.1403732281D-01
      0.1039486850D+03  0.6884262226D-01
      0.2921015530D+02  0.2321844432D+00
      0.9286662960D+01  0.4679413484D+00
      0.3163926960D+01  0.3623119853D+00
 Atom C25      Shell    72 SP   3    bf  193 -   196         -0.271947520914         -2.743175908630          0.916555611479
      0.7868272350D+01 -0.1193324198D+00  0.6899906659D-01
      0.1881288540D+01 -0.1608541517D+00  0.3164239610D+00
      0.5442492580D+00  0.1143456438D+01  0.7443082909D+00
 Atom C25      Shell    73 SP   1    bf  197 -   200         -0.271947520914         -2.743175908630          0.916555611479
      0.1687144782D+00  0.1000000000D+01  0.1000000000D+01
 Atom C25      Shell    74 D   1     bf  201 -   206         -0.271947520914         -2.743175908630          0.916555611479
      0.8000000000D+00  0.1000000000D+01
 Atom H26      Shell    75 S   3     bf  207 -   207         -0.679687870455         -2.777904312842          2.951018646780
      0.1873113696D+02  0.3349460434D-01
      0.2825394365D+01  0.2347269535D+00
      0.6401216923D+00  0.8137573261D+00
 Atom H26      Shell    76 S   1     bf  208 -   208         -0.679687870455         -2.777904312842          2.951018646780
      0.1612777588D+00  0.1000000000D+01
 Atom H27      Shell    77 S   3     bf  209 -   209          1.551544655878         -3.729680810061          0.704748605847
      0.1873113696D+02  0.3349460434D-01
      0.2825394365D+01  0.2347269535D+00
      0.6401216923D+00  0.8137573261D+00
 Atom H27      Shell    78 S   1     bf  210 -   210          1.551544655878         -3.729680810061          0.704748605847
      0.1612777588D+00  0.1000000000D+01
 Atom C28      Shell    79 S   6     bf  211 -   211          6.680929304231          7.104117749169          1.498587707723
      0.3047524880D+04  0.1834737132D-02
      0.4573695180D+03  0.1403732281D-01
      0.1039486850D+03  0.6884262226D-01
      0.2921015530D+02  0.2321844432D+00
      0.9286662960D+01  0.4679413484D+00
      0.3163926960D+01  0.3623119853D+00
 Atom C28      Shell    80 SP   3    bf  212 -   215          6.680929304231          7.104117749169          1.498587707723
      0.7868272350D+01 -0.1193324198D+00  0.6899906659D-01
      0.1881288540D+01 -0.1608541517D+00  0.3164239610D+00
      0.5442492580D+00  0.1143456438D+01  0.7443082909D+00
 Atom C28      Shell    81 SP   1    bf  216 -   219          6.680929304231          7.104117749169          1.498587707723
      0.1687144782D+00  0.1000000000D+01  0.1000000000D+01
 Atom C28      Shell    82 D   1     bf  220 -   225          6.680929304231          7.104117749169          1.498587707723
      0.8000000000D+00  0.1000000000D+01
 Atom H29      Shell    83 S   3     bf  226 -   226          5.301109995789          8.218596472793          2.581886195818
      0.1873113696D+02  0.3349460434D-01
      0.2825394365D+01  0.2347269535D+00
      0.6401216923D+00  0.8137573261D+00
 Atom H29      Shell    84 S   1     bf  227 -   227          5.301109995789          8.218596472793          2.581886195818
      0.1612777588D+00  0.1000000000D+01
 Atom C30      Shell    85 S   6     bf  228 -   228          1.031009180183          5.793885262310          0.984312951398
      0.3047524880D+04  0.1834737132D-02
      0.4573695180D+03  0.1403732281D-01
      0.1039486850D+03  0.6884262226D-01
      0.2921015530D+02  0.2321844432D+00
      0.9286662960D+01  0.4679413484D+00
      0.3163926960D+01  0.3623119853D+00
 Atom C30      Shell    86 SP   3    bf  229 -   232          1.031009180183          5.793885262310          0.984312951398
      0.7868272350D+01 -0.1193324198D+00  0.6899906659D-01
      0.1881288540D+01 -0.1608541517D+00  0.3164239610D+00
      0.5442492580D+00  0.1143456438D+01  0.7443082909D+00
 Atom C30      Shell    87 SP   1    bf  233 -   236          1.031009180183          5.793885262310          0.984312951398
      0.1687144782D+00  0.1000000000D+01  0.1000000000D+01
 Atom C30      Shell    88 D   1     bf  237 -   242          1.031009180183          5.793885262310          0.984312951398
      0.8000000000D+00  0.1000000000D+01
 Atom H31      Shell    89 S   3     bf  243 -   243          1.399636053815          7.690049578747          0.240821010299
      0.1873113696D+02  0.3349460434D-01
      0.2825394365D+01  0.2347269535D+00
      0.6401216923D+00  0.8137573261D+00
 Atom H31      Shell    90 S   1     bf  244 -   244          1.399636053815          7.690049578747          0.240821010299
      0.1612777588D+00  0.1000000000D+01
 Atom H32      Shell    91 S   3     bf  245 -   245         -0.887697376937          5.281583625733          0.418568404694
      0.1873113696D+02  0.3349460434D-01
      0.2825394365D+01  0.2347269535D+00
      0.6401216923D+00  0.8137573261D+00
 Atom H32      Shell    92 S   1     bf  246 -   246         -0.887697376937          5.281583625733          0.418568404694
      0.1612777588D+00  0.1000000000D+01
 Atom H33      Shell    93 S   3     bf  247 -   247          1.041819698677          5.929679546027          3.047751289776
      0.1873113696D+02  0.3349460434D-01
      0.2825394365D+01  0.2347269535D+00
      0.6401216923D+00  0.8137573261D+00
 Atom H33      Shell    94 S   1     bf  248 -   248          1.041819698677          5.929679546027          3.047751289776
      0.1612777588D+00  0.1000000000D+01
 Atom C34      Shell    95 S   6     bf  249 -   249         -3.406434122140         -3.434022082776         -2.614197791485
      0.3047524880D+04  0.1834737132D-02
      0.4573695180D+03  0.1403732281D-01
      0.1039486850D+03  0.6884262226D-01
      0.2921015530D+02  0.2321844432D+00
      0.9286662960D+01  0.4679413484D+00
      0.3163926960D+01  0.3623119853D+00
 Atom C34      Shell    96 SP   3    bf  250 -   253         -3.406434122140         -3.434022082776         -2.614197791485
      0.7868272350D+01 -0.1193324198D+00  0.6899906659D-01
      0.1881288540D+01 -0.1608541517D+00  0.3164239610D+00
      0.5442492580D+00  0.1143456438D+01  0.7443082909D+00
 Atom C34      Shell    97 SP   1    bf  254 -   257         -3.406434122140         -3.434022082776         -2.614197791485
      0.1687144782D+00  0.1000000000D+01  0.1000000000D+01
 Atom C34      Shell    98 D   1     bf  258 -   263         -3.406434122140         -3.434022082776         -2.614197791485
      0.8000000000D+00  0.1000000000D+01
 Atom C35      Shell    99 S   6     bf  264 -   264         -2.372243663602         -1.570502804182         -6.844874025567
      0.3047524880D+04  0.1834737132D-02
      0.4573695180D+03  0.1403732281D-01
      0.1039486850D+03  0.6884262226D-01
      0.2921015530D+02  0.2321844432D+00
      0.9286662960D+01  0.4679413484D+00
      0.3163926960D+01  0.3623119853D+00
 Atom C35      Shell   100 SP   3    bf  265 -   268         -2.372243663602         -1.570502804182         -6.844874025567
      0.7868272350D+01 -0.1193324198D+00  0.6899906659D-01
      0.1881288540D+01 -0.1608541517D+00  0.3164239610D+00
      0.5442492580D+00  0.1143456438D+01  0.7443082909D+00
 Atom C35      Shell   101 SP   1    bf  269 -   272         -2.372243663602         -1.570502804182         -6.844874025567
      0.1687144782D+00  0.1000000000D+01  0.1000000000D+01
 Atom C35      Shell   102 D   1     bf  273 -   278         -2.372243663602         -1.570502804182         -6.844874025567
      0.8000000000D+00  0.1000000000D+01
 Atom H36      Shell   103 S   3     bf  279 -   279         -0.604743165059         -2.635266196962         -7.079647685474
      0.1873113696D+02  0.3349460434D-01
      0.2825394365D+01  0.2347269535D+00
      0.6401216923D+00  0.8137573261D+00
 Atom H36      Shell   104 S   1     bf  280 -   280         -0.604743165059         -2.635266196962         -7.079647685474
      0.1612777588D+00  0.1000000000D+01
 Atom H37      Shell   105 S   3     bf  281 -   281         -2.136538916732          0.197157584088         -7.895980140818
      0.1873113696D+02  0.3349460434D-01
      0.2825394365D+01  0.2347269535D+00
      0.6401216923D+00  0.8137573261D+00
 Atom H37      Shell   106 S   1     bf  282 -   282         -2.136538916732          0.197157584088         -7.895980140818
      0.1612777588D+00  0.1000000000D+01
 Atom C38      Shell   107 S   6     bf  283 -   283         -2.280357790192         -4.190637472670         -0.473372106610
      0.3047524880D+04  0.1834737132D-02
      0.4573695180D+03  0.1403732281D-01
      0.1039486850D+03  0.6884262226D-01
      0.2921015530D+02  0.2321844432D+00
      0.9286662960D+01  0.4679413484D+00
      0.3163926960D+01  0.3623119853D+00
 Atom C38      Shell   108 SP   3    bf  284 -   287         -2.280357790192         -4.190637472670         -0.473372106610
      0.7868272350D+01 -0.1193324198D+00  0.6899906659D-01
      0.1881288540D+01 -0.1608541517D+00  0.3164239610D+00
      0.5442492580D+00  0.1143456438D+01  0.7443082909D+00
 Atom C38      Shell   109 SP   1    bf  288 -   291         -2.280357790192         -4.190637472670         -0.473372106610
      0.1687144782D+00  0.1000000000D+01  0.1000000000D+01
 Atom C38      Shell   110 D   1     bf  292 -   297         -2.280357790192         -4.190637472670         -0.473372106610
      0.8000000000D+00  0.1000000000D+01
 Atom H39      Shell   111 S   3     bf  298 -   298         -2.848013001194         -5.990909828576          0.353958989464
      0.1873113696D+02  0.3349460434D-01
      0.2825394365D+01  0.2347269535D+00
      0.6401216923D+00  0.8137573261D+00
 Atom H39      Shell   112 S   1     bf  299 -   299         -2.848013001194         -5.990909828576          0.353958989464
      0.1612777588D+00  0.1000000000D+01
 Atom C40      Shell   113 S   6     bf  300 -   300         -4.898909283919          0.951230423059         -3.630315665179
      0.3047524880D+04  0.1834737132D-02
      0.4573695180D+03  0.1403732281D-01
      0.1039486850D+03  0.6884262226D-01
      0.2921015530D+02  0.2321844432D+00
      0.9286662960D+01  0.4679413484D+00
      0.3163926960D+01  0.3623119853D+00
 Atom C40      Shell   114 SP   3    bf  301 -   304         -4.898909283919          0.951230423059         -3.630315665179
      0.7868272350D+01 -0.1193324198D+00  0.6899906659D-01
      0.1881288540D+01 -0.1608541517D+00  0.3164239610D+00
      0.5442492580D+00  0.1143456438D+01  0.7443082909D+00
[...]
 **** Fit       0.001580
 **** Fit       0.001675
 **** Fit       0.001779
 **** Fit       0.001864
 **** Fit       0.001871
 **** Fit       0.001724
 **** Fit       0.001365
 **** Fit       0.000810
 **** Fit       0.000166
 **** Fit      -0.000427
 **** Fit      -0.000865
 **** Fit      -0.001114
 **** Fit      -0.001196
 **** Fit       0.001613
 **** Fit       0.001742
 **** Fit       0.001912
 **** Fit       0.002096
 **** Fit       0.002214
 **** Fit       0.002135
 **** Fit       0.001742
 **** Fit       0.001038
 **** Fit       0.000184
 **** Fit      -0.000598
 **** Fit      -0.001152
 **** Fit      -0.001442
 **** Fit      -0.001512
 **** Fit       0.001467
 **** Fit       0.001550
 **** Fit       0.001690
 **** Fit       0.001907
 **** Fit       0.002184
 **** Fit       0.002424
 **** Fit       0.002436
 **** Fit       0.002024
 **** Fit       0.001166
 **** Fit       0.000091
 **** Fit      -0.000874
 **** Fit      -0.001522
 **** Fit      -0.001825
 **** Fit      -0.001861
 **** Fit      -0.001731
 **** Fit       0.001189
 **** Fit       0.001257
 **** Fit       0.001293
 **** Fit       0.001314
 **** Fit       0.001356
 **** Fit       0.001464
 **** Fit       0.001675
 **** Fit       0.001985
 **** Fit       0.002293
 **** Fit       0.002366
 **** Fit       0.001940
 **** Fit       0.000969
 **** Fit      -0.000256
 **** Fit      -0.001321
 **** Fit      -0.001987
 **** Fit      -0.002249
 **** Fit      -0.002218
 **** Fit      -0.002019
 **** Fit       0.000968
 **** Fit       0.001053
 **** Fit       0.001091
 **** Fit       0.001081
 **** Fit       0.001041
 **** Fit       0.001011
 **** Fit       0.001040
 **** Fit       0.001168
 **** Fit       0.001401
 **** Fit       0.001648
 **** Fit       0.001678
 **** Fit       0.001221
 **** Fit       0.000233
 **** Fit      -0.000970
 **** Fit      -0.001962
 **** Fit      -0.002520
 **** Fit      -0.002669
 **** Fit      -0.002542
 **** Fit      -0.002267
 **** Fit       0.000684
 **** Fit       0.000775
 **** Fit       0.000828
 **** Fit       0.000825
 **** Fit       0.000760
 **** Fit       0.000650
 **** Fit       0.000532
 **** Fit       0.000450
 **** Fit       0.000434
 **** Fit       0.000485
 **** Fit       0.000530
 **** Fit       0.000397
 **** Fit      -0.000109
 **** Fit      -0.000991
 **** Fit      -0.001969
 **** Fit      -0.002699
 **** Fit      -0.003030
 **** Fit      -0.003015
 **** Fit      -0.002780
 **** Fit      -0.002436
 **** Fit       0.000453
 **** Fit       0.000505
 **** Fit       0.000515
 **** Fit       0.000462
 **** Fit       0.000341
 **** Fit       0.000166
 **** Fit      -0.000030
 **** Fit      -0.000218
 **** Fit      -0.000384
 **** Fit      -0.000543
 **** Fit      -0.000741
 **** Fit      -0.001070
 **** Fit      -0.001605
 **** Fit      -0.002292
 **** Fit      -0.002927
 **** Fit      -0.003309
 **** Fit      -0.003377
 **** Fit      -0.003198
 **** Fit      -0.002875
 **** Fit      -0.002488
 **** Fit       0.000174
 **** Fit       0.000176
 **** Fit       0.000133
 **** Fit       0.000030
 **** Fit      -0.000137
 **** Fit      -0.000354
 **** Fit      -0.000595
 **** Fit      -0.000844
 **** Fit      -0.001107
 **** Fit      -0.001407
 **** Fit      -0.001768
 **** Fit      -0.002207
 **** Fit      -0.002701
 **** Fit      -0.003163
 **** Fit      -0.003472
 **** Fit      -0.003553
 **** Fit      -0.003418
 **** Fit      -0.003137
 **** Fit      -0.002778
 **** Fit      -0.002393
 **** Fit      -0.002012
 **** Fit      -0.000121
 **** Fit      -0.000174
 **** Fit      -0.000267
 **** Fit      -0.000412
 **** Fit      -0.000606
 **** Fit      -0.000833
 **** Fit      -0.001074
 **** Fit      -0.001325
 **** Fit      -0.001602
 **** Fit      -0.001929
 **** Fit      -0.002314
 **** Fit      -0.002727
 **** Fit      -0.003098
 **** Fit      -0.003345
 **** Fit      -0.003413
 **** Fit      -0.003310
 **** Fit      -0.003085
 **** Fit      -0.002794
 **** Fit      -0.002472
 **** Fit      -0.002142
 **** Fit      -0.001817
 **** Fit      -0.000394
 **** Fit      -0.000492
 **** Fit      -0.000624
 **** Fit      -0.000791
 **** Fit      -0.000986
 **** Fit      -0.001191
 **** Fit      -0.001394
 **** Fit      -0.001595
 **** Fit      -0.001815
 **** Fit      -0.002074
 **** Fit      -0.002367
 **** Fit      -0.002649
 **** Fit      -0.002847
 **** Fit      -0.002904
 **** Fit      -0.002818
 **** Fit      -0.002640
 **** Fit      -0.002429
 **** Fit      -0.002210
 **** Fit      -0.001988
 **** Fit      -0.001758
 **** Fit      -0.001524
 **** Fit      -0.000733
 **** Fit      -0.000880
 **** Fit      -0.001045
 **** Fit      -0.001215
 **** Fit      -0.001375
 **** Fit      -0.001513
 **** Fit      -0.001637
 **** Fit      -0.001764
 **** Fit      -0.001908
 **** Fit      -0.002058
 **** Fit      -0.002171
 **** Fit      -0.002193
 **** Fit      -0.002101
 **** Fit      -0.001930
 **** Fit      -0.001750
 **** Fit      -0.001608
 **** Fit      -0.001502
 **** Fit      -0.001406
 **** Fit      -0.001298
 **** Fit      -0.001169
 **** Fit      -0.001009
 **** Fit      -0.001147
 **** Fit      -0.001272
 **** Fit      -0.001370
 **** Fit      -0.001437
 **** Fit      -0.001478
 **** Fit      -0.001510
 **** Fit      -0.001539
 **** Fit      -0.001553
 **** Fit      -0.001520
 **** Fit      -0.001410
 **** Fit      -0.001228
 **** Fit      -0.001028
 **** Fit      -0.000878
 **** Fit      -0.000813
 **** Fit      -0.000811
 **** Fit      -0.000830
 **** Fit      -0.000832
 **** Fit      -0.000802
 **** Fit      -0.001175
 **** Fit      -0.001209
 **** Fit      -0.001207
 **** Fit      -0.001179
 **** Fit      -0.001134
 **** Fit      -0.001076
 **** Fit      -0.000995
 **** Fit      -0.000871
 **** Fit      -0.000692
 **** Fit      -0.000481
 **** Fit      -0.000292
 **** Fit      -0.000184
 **** Fit      -0.000177
 **** Fit      -0.000245
 **** Fit      -0.000340
 **** Fit      -0.000421
 **** Fit      -0.000466
 **** Fit      -0.000949
 **** Fit      -0.000892
 **** Fit      -0.000812
 **** Fit      -0.000718
 **** Fit      -0.000611
 **** Fit      -0.000482
 **** Fit      -0.000322
 **** Fit      -0.000132
 **** Fit       0.000064
 **** Fit       0.000217
 **** Fit       0.000286
 **** Fit       0.000258
 **** Fit       0.000156
 **** Fit       0.000026
 **** Fit      -0.000097
 **** Fit      -0.000656
 **** Fit      -0.000560
 **** Fit      -0.000449
 **** Fit      -0.000330
 **** Fit      -0.000065
 **** Fit       0.000092
 **** Fit       0.000259
 **** Fit       0.000416
 **** Fit       0.000527
 **** Fit       0.000562
 **** Fit       0.000516
 **** Fit       0.000407
 **** Fit       0.000270
 **** Fit       0.000135
 **** Fit       0.000375
 **** Fit       0.000506
 **** Fit       0.000619
 **** Fit       0.000690
 **** Fit       0.000700
 **** Fit       0.000647
 **** Fit       0.000545
 **** Fit       0.000758
 **** Fit       0.000752
 **** Fit       0.000996
 **** Fit       0.000841
 **** Fit       0.000630
 **** Fit       0.000376
 **** Fit       0.000110
 **** Fit       0.001262
 **** Fit       0.001235
 **** Fit       0.001151
 **** Fit       0.000989
 **** Fit       0.000743
 **** Fit       0.000429
 **** Fit       0.000089
 **** Fit      -0.000227
 **** Fit      -0.000478
 **** Fit       0.001320
 **** Fit       0.001357
 **** Fit       0.001362
 **** Fit       0.001302
 **** Fit       0.001141
 **** Fit       0.000860
 **** Fit       0.000476
 **** Fit       0.000048
 **** Fit      -0.000349
 **** Fit      -0.000657
 **** Fit      -0.000850
 **** Fit       0.001328
 **** Fit       0.001391
 **** Fit       0.001431
 **** Fit       0.001402
 **** Fit       0.001249
 **** Fit       0.000934
 **** Fit       0.000476
 **** Fit      -0.000045
 **** Fit      -0.000526
 **** Fit      -0.000886
 **** Fit      -0.001097
 **** Fit      -0.001171
 **** Fit       0.001186
 **** Fit       0.001245
 **** Fit       0.001318
 **** Fit       0.001381
 **** Fit       0.001376
 **** Fit       0.001230
 **** Fit       0.000885
 **** Fit       0.000361
 **** Fit      -0.000241
 **** Fit      -0.000785
 **** Fit      -0.001175
 **** Fit      -0.001382
 **** Fit      -0.001431
 **** Fit       0.001009
 **** Fit       0.001043
 **** Fit       0.001098
 **** Fit       0.001151
 **** Fit       0.001142
 **** Fit       0.000987
 **** Fit       0.000617
 **** Fit       0.000052
 **** Fit      -0.000588
 **** Fit      -0.001146
 **** Fit      -0.001521
 **** Fit      -0.001691
 **** Fit      -0.001694
 **** Fit       0.000732
 **** Fit       0.000716
 **** Fit       0.000717
 **** Fit       0.000716
 **** Fit       0.000660
 **** Fit       0.000466
 **** Fit       0.000076
 **** Fit      -0.000487
 **** Fit      -0.001094
 **** Fit      -0.001594
 **** Fit      -0.001896
 **** Fit      -0.001993
 **** Fit      -0.001931
 **** Fit       0.000575
 **** Fit       0.000528
 **** Fit       0.000455
 **** Fit       0.000371
 **** Fit       0.000290
 **** Fit       0.000214
 **** Fit       0.000125
 **** Fit      -0.000017
 **** Fit      -0.000271
 **** Fit      -0.000672
 **** Fit      -0.001180
 **** Fit      -0.001683
 **** Fit      -0.002056
 **** Fit      -0.002238
 **** Fit      -0.002238
 **** Fit      -0.002106
 **** Fit       0.000343
 **** Fit       0.000297
 **** Fit       0.000212
 **** Fit       0.000098
 **** Fit      -0.000035
 **** Fit      -0.000176
 **** Fit      -0.000328
 **** Fit      -0.000506
 **** Fit      -0.000735
 **** Fit      -0.001043
 **** Fit      -0.001429
 **** Fit      -0.001845
 **** Fit      -0.002200
 **** Fit      -0.002415
 **** Fit      -0.002463
 **** Fit      -0.002369
 **** Fit      -0.002178
 **** Fit       0.000067
 **** Fit      -0.000012
 **** Fit      -0.000126
 **** Fit      -0.000269
 **** Fit      -0.000432
 **** Fit      -0.000610
 **** Fit      -0.000808
 **** Fit      -0.001040
 **** Fit      -0.001317
 **** Fit      -0.001638
 **** Fit      -0.001976
 **** Fit      -0.002278
 **** Fit      -0.002483
 **** Fit      -0.002555
 **** Fit      -0.002497
 **** Fit      -0.002339
 **** Fit      -0.002119
 **** Fit      -0.000211
 **** Fit      -0.000314
 **** Fit      -0.000445
 **** Fit      -0.000598
 **** Fit      -0.000765
 **** Fit      -0.000945
 **** Fit      -0.001147
 **** Fit      -0.001380
 **** Fit      -0.001645
 **** Fit      -0.001924
 **** Fit      -0.002179
 **** Fit      -0.002365
 **** Fit      -0.002448
 **** Fit      -0.002421
 **** Fit      -0.002304
 **** Fit      -0.002128
 **** Fit      -0.001918
 **** Fit      -0.001693
 **** Fit      -0.000568
 **** Fit      -0.000700
 **** Fit      -0.000842
 **** Fit      -0.001307
 **** Fit      -0.001494
 **** Fit      -0.001696
 **** Fit      -0.001891
 **** Fit      -0.002044
 **** Fit      -0.002123
 **** Fit      -0.002117
 **** Fit      -0.002038
 **** Fit      -0.001913
 **** Fit      -0.001762
 **** Fit      -0.001598
 **** Fit      -0.001426
 **** Fit      -0.001408
 **** Fit      -0.001523
 **** Fit      -0.001619
 **** Fit      -0.001669
 **** Fit      -0.001660
 **** Fit      -0.001598
 **** Fit      -0.001504
 **** Fit      -0.001403
 **** Fit      -0.001303
 **** Fit      -0.001204
 **** Fit      -0.001101
 **** Fit      -0.001210
 **** Fit      -0.001216
 **** Fit      -0.001185
 **** Fit      -0.001115
 **** Fit      -0.001025
 **** Fit      -0.000939
 **** Fit      -0.000874
 **** Fit      -0.000831
 **** Fit      -0.000798
 **** Fit      -0.000762
 **** Fit      -0.000840
 **** Fit      -0.000784
 **** Fit      -0.000702
 **** Fit      -0.000602
 **** Fit      -0.000506
 **** Fit      -0.000438
 **** Fit      -0.000408
 **** Fit      -0.000412
 **** Fit      -0.000432
 **** Fit      -0.000390
 **** Fit      -0.000287
 **** Fit      -0.000183
 **** Fit      -0.000098
 **** Fit      -0.000050
 **** Fit      -0.000047
 **** Fit      -0.000081
 **** Fit      -0.000134
 **** Fit       0.000032
 **** Fit       0.000124
 **** Fit       0.000191
 **** Fit       0.000219
 **** Fit       0.000205
 **** Fit       0.000155
 **** Fit       0.000724
 **** Fit       0.000532
 **** Fit       0.000300
 **** Fit       0.000055
 **** Fit       0.000996
 **** Fit       0.000913
 **** Fit       0.000766
 **** Fit       0.000548
 **** Fit       0.000277
 **** Fit      -0.000016
 **** Fit      -0.000289
 **** Fit       0.001012
 **** Fit       0.000988
 **** Fit       0.000910
 **** Fit       0.000755
 **** Fit       0.000514
 **** Fit       0.000203
 **** Fit      -0.000134
 **** Fit      -0.000446
 **** Fit      -0.000689
 **** Fit       0.000919
 **** Fit       0.000895
 **** Fit       0.000816
 **** Fit       0.000652
 **** Fit       0.000390
 **** Fit       0.000048
 **** Fit      -0.000322
 **** Fit      -0.000657
 **** Fit      -0.000908
 **** Fit      -0.001055
 **** Fit       0.000745
 **** Fit       0.000731
 **** Fit       0.000692
 **** Fit       0.000599
 **** Fit       0.000420
 **** Fit       0.000142
 **** Fit      -0.000215
 **** Fit      -0.000594
 **** Fit      -0.000924
 **** Fit      -0.001158
 **** Fit      -0.001279
 **** Fit       0.000495
 **** Fit       0.000448
 **** Fit       0.000377
 **** Fit       0.000256
 **** Fit       0.000056
 **** Fit      -0.000231
 **** Fit      -0.000582
 **** Fit      -0.000936
 **** Fit      -0.001229
 **** Fit      -0.001418
 **** Fit      -0.001493
 **** Fit       0.000188
 **** Fit       0.000099
 **** Fit      -0.000015
 **** Fit      -0.000174
 **** Fit      -0.000395
 **** Fit      -0.000680
 **** Fit      -0.000998
 **** Fit      -0.001298
 **** Fit      -0.001524
 **** Fit      -0.001647
 **** Fit      -0.001664
 **** Fit      -0.000140
 **** Fit      -0.000267
 **** Fit      -0.000419
 **** Fit      -0.000609
 **** Fit      -0.000842
 **** Fit      -0.001108
 **** Fit      -0.001375
 **** Fit      -0.001600
 **** Fit      -0.001745
 **** Fit      -0.001796
 **** Fit      -0.001757
 **** Fit      -0.000591
 **** Fit      -0.000764
 **** Fit      -0.000964
 **** Fit      -0.001187
 **** Fit      -0.001415
 **** Fit      -0.001618
 **** Fit      -0.001765
 **** Fit      -0.001834
 **** Fit      -0.001823
 **** Fit      -0.000992
 **** Fit      -0.001174
 **** Fit      -0.001363
 **** Fit      -0.001537
 **** Fit      -0.001673
 **** Fit      -0.001750
 **** Fit      -0.001760
 **** Fit      -0.001710
 **** Fit      -0.001613
 **** Fit      -0.001222
 **** Fit      -0.001357
 **** Fit      -0.001470
 **** Fit      -0.001541
 **** Fit      -0.001563
 **** Fit      -0.001537
 **** Fit      -0.001472
 **** Fit      -0.001380
 **** Fit      -0.001203
 **** Fit      -0.001253
 **** Fit      -0.001270
 **** Fit      -0.001254
 **** Fit      -0.001210
 **** Fit      -0.001150
 **** Fit      -0.001080
 **** Fit      -0.000953
 **** Fit      -0.000930
 **** Fit      -0.000890
 **** Fit      -0.000844
 **** Fit      -0.000799
 **** Fit      -0.000757
 **** Fit      -0.000631
 **** Fit      -0.000584
 **** Fit      -0.000536
 **** Fit      -0.000495
 **** Fit      -0.000467
 **** Fit       0.000470
 **** Fit       0.000287
 **** Fit       0.000069
 **** Fit      -0.000160
 **** Fit       0.000594
 **** Fit       0.000500
 **** Fit       0.000355
 **** Fit       0.000159
 **** Fit      -0.000074
 **** Fit      -0.000316
 **** Fit      -0.000535
 **** Fit       0.000428
 **** Fit       0.000323
 **** Fit       0.000168
 **** Fit      -0.000037
 **** Fit      -0.000275
 **** Fit      -0.000518
 **** Fit      -0.000731
 **** Fit       0.000200
 **** Fit       0.000079
 **** Fit      -0.000085
 **** Fit      -0.000292
 **** Fit      -0.000524
 **** Fit      -0.000751
 **** Fit      -0.000940
 **** Fit      -0.000067
 **** Fit      -0.000204
 **** Fit      -0.000375
 **** Fit      -0.000576
 **** Fit      -0.000788
 **** Fit      -0.000983
 **** Fit      -0.001134
 **** Fit      -0.000336
 **** Fit      -0.000482
 **** Fit      -0.000652
 **** Fit      -0.000837
 **** Fit      -0.001018
 **** Fit      -0.001171
 **** Fit      -0.001276
 **** Fit      -0.000710
 **** Fit      -0.000867
 **** Fit      -0.001025
 **** Fit      -0.001167
 **** Fit      -0.001275
 **** Fit      -0.001105
 -----------------------------------------------------------------
 Leave Link  602 at Mon Mar 20 12:50:42 2017, MaxMem=    33554432 cpu:        41.9
 (Enter /home/michal/g09/l9999.exe)

 Test job not archived.
 1\1\GINC-LINUX\SP\RHF\6-31G(d)\C27H46O1\MICHAL\20-Mar-2017\0\\#P HF/6-
 31G* SCF(Conver=6) NoSymm Test Pop=chelpg IOp(6/33=2) GFInput GFPrint\
 \MEP - Input generated by R.E.D.-III.x MOLECULE\\0,1\O,0,-3.72726271,-
 3.61534278,-4.12532811\H,0,-3.87762233,-4.45624425,-3.6734167\C,0,1.60
 00943,2.0630648,0.\C,0,1.32665104,0.60785731,0.47340969\H,0,2.11706345
 ,0.,0.\C,0,0.,0.,0.\H,0,-0.83398521,0.57923403,0.42116615\C,0,-0.07756
 576,0.04777973,-1.54859648\H,0,0.70064379,-0.64830943,-1.90325522\C,0,
 2.98339642,2.31541308,0.6949546\H,0,3.71319425,1.7225027,0.12418934\C,
 0,1.60064,2.02643384,-1.54202015\H,0,2.44754514,1.41099428,-1.87871058
 \H,0,1.75031554,3.02247797,-1.97123817\C,0,-1.43361279,-0.5130559,-2.1
 0469775\C,0,1.6401689,0.62842594,1.97764931\H,0,1.90949236,-0.36069055
 ,2.36136808\H,0,0.76658957,0.96207968,2.55148063\C,0,0.28660354,1.4444
 481,-2.10386337\H,0,-0.52405089,2.15042983,-1.89462535\H,0,0.36856518,
 1.39703374,-3.19564753\C,0,2.80893109,1.6457343,2.09821376\H,0,2.58485
 179,2.40485376,2.85687666\H,0,3.73559115,1.15803119,2.41724898\C,0,-0.
 14390843,-1.45162617,0.48502034\H,0,-0.35967533,-1.47000365,1.56161181
 \H,0,0.82104207,-1.97366208,0.3729369\C,0,3.53539552,3.7593372,0.79301
 846\H,0,2.80522659,4.34909394,1.36627533\C,0,0.54558656,3.06599203,0.5
 2087598\H,0,0.7406555,4.06939897,0.12743699\H,0,-0.46974922,2.79489368
 ,0.22149686\H,0,0.55130724,3.13785127,1.61280052\C,0,-1.8026073,-1.817
 20622,-1.38337389\C,0,-1.25533728,-0.83107429,-3.62215133\H,0,-0.32001
 63,-1.39452281,-3.7463882\H,0,-1.1306077,0.1043313,-4.17837273\C,0,-1.
 20671337,-2.21758984,-0.25049773\H,0,-1.50710357,-3.17025294,0.1873070
 3\C,0,-2.59239114,0.50336946,-1.92108031\H,0,-2.46205366,1.37959098,-2
 .56398962\H,0,-3.55862185,0.06036141,-2.1748224\H,0,-2.65719529,0.8455
 0744,-0.88354118\C,0,-2.89416816,-2.65893587,-2.01783662\H,0,-2.999297
 55,-3.60020536,-1.46301392\H,0,-3.86535876,-2.14736208,-1.95941217\C,0
 ,-2.39879779,-1.63848752,-4.25354402\H,0,-3.33642716,-1.06876354,-4.24
 926537\H,0,-2.16875635,-1.85588196,-5.3027784\C,0,4.85600147,3.8341103
 6,1.60748849\H,0,5.1069478,4.89709874,1.71952662\H,0,4.67818538,3.4619
 9781,2.62464411\C,0,-2.62508309,-2.94401608,-3.50247094\H,0,-1.7198402
 ,-3.56762968,-3.58854861\C,0,3.70956986,4.45108309,-0.5720464\H,0,4.29
 609029,3.84077745,-1.26792175\H,0,4.22881825,5.40938562,-0.45202529\H,
 0,2.74926806,4.66121861,-1.04943991\C,0,6.06543529,3.08882193,1.018222
 15\H,0,5.80566497,2.03346292,0.86633879\H,0,6.30244869,3.48353789,0.02
 2744\C,0,7.32298413,3.13355068,1.90737069\H,0,8.09069426,2.48377944,1.
 46134805\H,0,7.07704942,2.68600111,2.88135737\C,0,7.95545097,4.5197929
 6,2.15531376\H,0,7.19760185,5.16813427,2.61776799\C,0,8.42202419,5.192
 75988,0.85472579\H,0,7.59494689,5.36519322,0.1585109\H,0,8.88626612,6.
 16380225,1.06140415\H,0,9.16689496,4.57133974,0.34053845\C,0,9.1230927
 3,4.39869085,3.14780052\H,0,8.79743511,3.95524078,4.09582501\H,0,9.561
 24459,5.37871168,3.36879621\H,0,9.91941152,3.76319869,2.73918494\\Vers
 ion=EM64L-G09RevD.01\HF=-1124.0783879\RMSD=4.552e-07\Dipole=0.3590978,
 -0.0969158,0.5380746\Quadrupole=-3.1954135,7.8213888,-4.6259753,-1.083
 4585,-6.4794712,-2.9405067\PG=C01 [X(C27H46O1)]\\@


 THOSE WHO ASPIRE NOT TO GUESS AND DIVINE,
 BUT TO DISCOVER AND KNOW, WHO PROPOSE NOT TO DEVISE 
 MIMIC AND FABULOUS WORLDS OF THEIR OWN, BUT TO 
 EXAMINE AND DISSECT THE NATURE OF THIS VERY WORLD 
 ITSELF, MUST GO TO THE FACTS THEMSELVES FOR EVERYTHING.

                               -- FRANCIS BACON, 1620
 Job cpu time:       0 days  0 hours 11 minutes 10.2 seconds.
 File lengths (MBytes):  RWF=    142 Int=      0 D2E=      0 Chk=     10 Scr=      1
 Normal termination of Gaussian 09 at Mon Mar 20 12:50:42 2017.
