 Entering Gaussian System, Link 0=/home/michal/g09/g09
 Input=JOB2-gau_m1-24-1.com
 Output=JOB2-gau_m1-24-1.log
 Initial command:
 /home/michal/g09/l1.exe "/home/michal/gauss_scratch/Gau-26331.inp" -scrdir="/home/michal/gauss_scratch/"
 Entering Link 1 = /home/michal/g09/l1.exe PID=     26332.
  
 Copyright (c) 1988,1990,1992,1993,1995,1998,2003,2009,2013,
            Gaussian, Inc.  All Rights Reserved.
  
 This is part of the Gaussian(R) 09 program.  It is based on
 the Gaussian(R) 03 system (copyright 2003, Gaussian, Inc.),
 the Gaussian(R) 98 system (copyright 1998, Gaussian, Inc.),
 the Gaussian(R) 94 system (copyright 1995, Gaussian, Inc.),
 the Gaussian 92(TM) system (copyright 1992, Gaussian, Inc.),
 the Gaussian 90(TM) system (copyright 1990, Gaussian, Inc.),
 the Gaussian 88(TM) system (copyright 1988, Gaussian, Inc.),
 the Gaussian 86(TM) system (copyright 1986, Carnegie Mellon
 University), and the Gaussian 82(TM) system (copyright 1983,
 Carnegie Mellon University). Gaussian is a federally registered
 trademark of Gaussian, Inc.
  
 This software contains proprietary and confidential information,
 including trade secrets, belonging to Gaussian, Inc.
  
 This software is provided under written license and may be
 used, copied, transmitted, or stored only in accord with that
 written license.
  
 The following legend is applicable only to US Government
 contracts under FAR:
  
                    RESTRICTED RIGHTS LEGEND
  
 Use, reproduction and disclosure by the US Government is
 subject to restrictions as set forth in subparagraphs (a)
 and (c) of the Commercial Computer Software - Restricted
 Rights clause in FAR 52.227-19.
  
 Gaussian, Inc.
 340 Quinnipiac St., Bldg. 40, Wallingford CT 06492
  
  
 ---------------------------------------------------------------
 Warning -- This program may not be used in any manner that
 competes with the business of Gaussian, Inc. or will provide
 assistance to any competitor of Gaussian, Inc.  The licensee
 of this program is prohibited from giving any competitor of
 Gaussian, Inc. access to this program.  By using this program,
 the user acknowledges that Gaussian, Inc. is engaged in the
 business of creating and licensing software in the field of
 computational chemistry and represents and warrants to the
 licensee that it is not a competitor of Gaussian, Inc. and that
 it will not use this program in any manner prohibited above.
 ---------------------------------------------------------------
  

 Cite this work as:
 Gaussian 09, Revision D.01,
 M. J. Frisch, G. W. Trucks, H. B. Schlegel, G. E. Scuseria, 
 M. A. Robb, J. R. Cheeseman, G. Scalmani, V. Barone, B. Mennucci, 
 G. A. Petersson, H. Nakatsuji, M. Caricato, X. Li, H. P. Hratchian, 
 A. F. Izmaylov, J. Bloino, G. Zheng, J. L. Sonnenberg, M. Hada, 
 M. Ehara, K. Toyota, R. Fukuda, J. Hasegawa, M. Ishida, T. Nakajima, 
 Y. Honda, O. Kitao, H. Nakai, T. Vreven, J. A. Montgomery, Jr., 
 J. E. Peralta, F. Ogliaro, M. Bearpark, J. J. Heyd, E. Brothers, 
 K. N. Kudin, V. N. Staroverov, T. Keith, R. Kobayashi, J. Normand, 
 K. Raghavachari, A. Rendell, J. C. Burant, S. S. Iyengar, J. Tomasi, 
 M. Cossi, N. Rega, J. M. Millam, M. Klene, J. E. Knox, J. B. Cross, 
 V. Bakken, C. Adamo, J. Jaramillo, R. Gomperts, R. E. Stratmann, 
 O. Yazyev, A. J. Austin, R. Cammi, C. Pomelli, J. W. Ochterski, 
 R. L. Martin, K. Morokuma, V. G. Zakrzewski, G. A. Voth, 
 P. Salvador, J. J. Dannenberg, S. Dapprich, A. D. Daniels, 
 O. Farkas, J. B. Foresman, J. V. Ortiz, J. Cioslowski, 
 and D. J. Fox, Gaussian, Inc., Wallingford CT, 2013.
 
 ******************************************
 Gaussian 09:  EM64L-G09RevD.01 24-Apr-2013
                20-Mar-2017 
 ******************************************
 %Mem=256MB
 %NProc=12
 Will use up to   12 processors via shared memory.
 ----------------------------------------------------------------------
 #P HF/6-31G* SCF(Conver=6) NoSymm Test Pop=chelpg IOp(6/33=2) GFInput 
 GFPrint
 ----------------------------------------------------------------------
 1/38=1/1;
 2/12=2,15=1,17=6,18=5,40=1/2;
 3/5=1,6=6,7=1,11=9,16=1,24=110,25=1,30=1/1,2,3;
 4//1;
 5/5=2,6=6,38=5/2;
 6/7=2,8=2,9=2,10=2,15=8,20=3,28=1,33=2/1,2;
 99/5=1,9=1/99;
 Leave Link    1 at Mon Mar 20 13:06:17 2017, MaxMem=    33554432 cpu:         0.6
 (Enter /home/michal/g09/l101.exe)
 ----------------------------------------------
 MEP - Input generated by R.E.D.-III.x MOLECULE
 ----------------------------------------------
 Symbolic Z-matrix:
 Charge =  0 Multiplicity = 1
 O                     5.01081  -0.22473  -7.24813 
 H                     5.96195  -0.31108  -7.10039 
 C                     0.        0.        0. 
 C                     1.5549    0.        0. 
 H                     1.84122   1.06609   0. 
 C                     2.21529  -0.60525  -1.2459 
 H                     1.94787  -1.66921  -1.31619 
 C                     1.71482   0.13005  -2.51637 
 H                     2.11893   1.15334  -2.44239 
 C                    -0.27227   0.64908   1.4024 
 H                    -0.03779   1.71996   1.29179 
 C                    -0.43278   0.81801  -1.2349 
 H                    -0.10854   1.85974  -1.09676 
 H                    -1.52144   0.84427  -1.34484 
 C                     2.31235  -0.46769  -3.83848 
 C                     1.93614  -0.54928   1.38229 
 H                     2.9371   -0.23649   1.69584 
 H                     1.93556  -1.64639   1.37693 
 C                     0.17426   0.2591   -2.53847 
 H                    -0.27752  -0.71763  -2.74191 
 H                    -0.12977   0.90867  -3.36709 
 C                     0.82715   0.00699   2.31678 
 H                     0.39446  -0.79435   2.92756 
 H                     1.23236   0.74325   3.01727 
 C                     3.74707  -0.51033  -1.15665 
 H                     4.12872  -1.24072  -0.43083 
 H                     4.03106   0.476    -0.7533 
 C                    -1.68898   0.56665   2.02977 
 H                    -1.91278  -0.49603   2.20148 
 C                    -0.59223  -1.42707  -0.05356 
 H                    -1.68548  -1.38986  -0.10442 
 H                    -0.24804  -1.9876   -0.9262 
 H                    -0.32817  -2.01404   0.83144 
 C                     3.81751  -0.71996  -3.67213 
 C                     2.11838   0.57168  -4.98637 
 H                     2.44262   1.55449  -4.61672 
 H                     1.05176   0.6637   -5.21841 
 C                     4.42987  -0.71688  -2.47889 
 H                     5.50791  -0.87884  -2.44642 
 C                     1.6225   -1.80298  -4.22658 
 H                     0.58375  -1.64284  -4.53222 
 H                     2.13138  -2.28937  -5.06248 
 H                     1.62939  -2.50882  -3.39025 
 C                     4.60746  -0.97844  -4.94171 
 H                     5.67562  -1.05089  -4.69952 
 H                     4.31952  -1.93911  -5.3917 
 C                     2.88558   0.25916  -6.27939 
 H                     2.51982  -0.66483  -6.74436 
 H                     2.72991   1.06086  -7.01022 
 C                    -1.69356   1.28056   3.40611 
 H                    -0.87883   0.88197   4.01979 
 H                    -1.45144   2.34127   3.24169 
 C                     4.37588   0.10377  -6.0062 
 H                     4.77296   1.06262  -5.63377 
 C                    -2.79015   1.14145   1.12246 
 H                    -2.57804   2.18557   0.85945 
 H                    -3.76558   1.11745   1.61743 
 H                    -2.89272   0.5781    0.19266 
 C                    -2.99862   1.20926   4.22439 
 H                    -2.84583   1.78109   5.14863 
 H                    -3.80151   1.73411   3.69251 
 C                    -3.50062  -0.20413   4.57609 
 H                    -3.75058  -0.74023   3.65044 
 H                    -4.44754  -0.10585   5.12748 
 C                    -2.54902  -1.08924   5.4088 
 H                    -1.60584  -1.19823   4.85413 
 C                    -3.14633  -2.49517   5.58091 
 H                    -3.35032  -2.96446   4.61152 
 H                    -2.46632  -3.15212   6.13523 
 H                    -4.09266  -2.45256   6.13537 
 C                    -2.22004  -0.47266   6.7778 
 H                    -1.71734   0.49545   6.68535 
 H                    -1.56175  -1.13146   7.35553 
 H                    -3.13476  -0.31912   7.36516 
 
 NAtoms=     74 NQM=       74 NQMF=       0 NMMI=      0 NMMIF=      0
                NMic=       0 NMicF=      0.
                    Isotopes and Nuclear Properties:
 (Nuclear quadrupole moments (NQMom) in fm**2, nuclear magnetic moments (NMagM)
  in nuclear magnetons)

  Atom         1           2           3           4           5           6           7           8           9          10
 IAtWgt=          16           1          12          12           1          12           1          12           1          12
 AtmWgt=  15.9949146   1.0078250  12.0000000  12.0000000   1.0078250  12.0000000   1.0078250  12.0000000   1.0078250  12.0000000
 NucSpn=           0           1           0           0           1           0           1           0           1           0
 AtZEff=   0.0000000   0.0000000   0.0000000   0.0000000   0.0000000   0.0000000   0.0000000   0.0000000   0.0000000   0.0000000
 NQMom=    0.0000000   0.0000000   0.0000000   0.0000000   0.0000000   0.0000000   0.0000000   0.0000000   0.0000000   0.0000000
 NMagM=    0.0000000   2.7928460   0.0000000   0.0000000   2.7928460   0.0000000   2.7928460   0.0000000   2.7928460   0.0000000
 AtZNuc=   8.0000000   1.0000000   6.0000000   6.0000000   1.0000000   6.0000000   1.0000000   6.0000000   1.0000000   6.0000000

  Atom        11          12          13          14          15          16          17          18          19          20
 IAtWgt=           1          12           1           1          12          12           1           1          12           1
 AtmWgt=   1.0078250  12.0000000   1.0078250   1.0078250  12.0000000  12.0000000   1.0078250   1.0078250  12.0000000   1.0078250
 NucSpn=           1           0           1           1           0           0           1           1           0           1
 AtZEff=   0.0000000   0.0000000   0.0000000   0.0000000   0.0000000   0.0000000   0.0000000   0.0000000   0.0000000   0.0000000
 NQMom=    0.0000000   0.0000000   0.0000000   0.0000000   0.0000000   0.0000000   0.0000000   0.0000000   0.0000000   0.0000000
 NMagM=    2.7928460   0.0000000   2.7928460   2.7928460   0.0000000   0.0000000   2.7928460   2.7928460   0.0000000   2.7928460
 AtZNuc=   1.0000000   6.0000000   1.0000000   1.0000000   6.0000000   6.0000000   1.0000000   1.0000000   6.0000000   1.0000000

  Atom        21          22          23          24          25          26          27          28          29          30
 IAtWgt=           1          12           1           1          12           1           1          12           1          12
 AtmWgt=   1.0078250  12.0000000   1.0078250   1.0078250  12.0000000   1.0078250   1.0078250  12.0000000   1.0078250  12.0000000
 NucSpn=           1           0           1           1           0           1           1           0           1           0
 AtZEff=   0.0000000   0.0000000   0.0000000   0.0000000   0.0000000   0.0000000   0.0000000   0.0000000   0.0000000   0.0000000
 NQMom=    0.0000000   0.0000000   0.0000000   0.0000000   0.0000000   0.0000000   0.0000000   0.0000000   0.0000000   0.0000000
 NMagM=    2.7928460   0.0000000   2.7928460   2.7928460   0.0000000   2.7928460   2.7928460   0.0000000   2.7928460   0.0000000
 AtZNuc=   1.0000000   6.0000000   1.0000000   1.0000000   6.0000000   1.0000000   1.0000000   6.0000000   1.0000000   6.0000000

  Atom        31          32          33          34          35          36          37          38          39          40
 IAtWgt=           1           1           1          12          12           1           1          12           1          12
 AtmWgt=   1.0078250   1.0078250   1.0078250  12.0000000  12.0000000   1.0078250   1.0078250  12.0000000   1.0078250  12.0000000
 NucSpn=           1           1           1           0           0           1           1           0           1           0
 AtZEff=   0.0000000   0.0000000   0.0000000   0.0000000   0.0000000   0.0000000   0.0000000   0.0000000   0.0000000   0.0000000
 NQMom=    0.0000000   0.0000000   0.0000000   0.0000000   0.0000000   0.0000000   0.0000000   0.0000000   0.0000000   0.0000000
 NMagM=    2.7928460   2.7928460   2.7928460   0.0000000   0.0000000   2.7928460   2.7928460   0.0000000   2.7928460   0.0000000
 AtZNuc=   1.0000000   1.0000000   1.0000000   6.0000000   6.0000000   1.0000000   1.0000000   6.0000000   1.0000000   6.0000000

  Atom        41          42          43          44          45          46          47          48          49          50
 IAtWgt=           1           1           1          12           1           1          12           1           1          12
 AtmWgt=   1.0078250   1.0078250   1.0078250  12.0000000   1.0078250   1.0078250  12.0000000   1.0078250   1.0078250  12.0000000
 NucSpn=           1           1           1           0           1           1           0           1           1           0
 AtZEff=   0.0000000   0.0000000   0.0000000   0.0000000   0.0000000   0.0000000   0.0000000   0.0000000   0.0000000   0.0000000
 NQMom=    0.0000000   0.0000000   0.0000000   0.0000000   0.0000000   0.0000000   0.0000000   0.0000000   0.0000000   0.0000000
 NMagM=    2.7928460   2.7928460   2.7928460   0.0000000   2.7928460   2.7928460   0.0000000   2.7928460   2.7928460   0.0000000
 AtZNuc=   1.0000000   1.0000000   1.0000000   6.0000000   1.0000000   1.0000000   6.0000000   1.0000000   1.0000000   6.0000000

  Atom        51          52          53          54          55          56          57          58          59          60
 IAtWgt=           1           1          12           1          12           1           1           1          12           1
 AtmWgt=   1.0078250   1.0078250  12.0000000   1.0078250  12.0000000   1.0078250   1.0078250   1.0078250  12.0000000   1.0078250
 NucSpn=           1           1           0           1           0           1           1           1           0           1
 AtZEff=   0.0000000   0.0000000   0.0000000   0.0000000   0.0000000   0.0000000   0.0000000   0.0000000   0.0000000   0.0000000
 NQMom=    0.0000000   0.0000000   0.0000000   0.0000000   0.0000000   0.0000000   0.0000000   0.0000000   0.0000000   0.0000000
 NMagM=    2.7928460   2.7928460   0.0000000   2.7928460   0.0000000   2.7928460   2.7928460   2.7928460   0.0000000   2.7928460
 AtZNuc=   1.0000000   1.0000000   6.0000000   1.0000000   6.0000000   1.0000000   1.0000000   1.0000000   6.0000000   1.0000000

  Atom        61          62          63          64          65          66          67          68          69          70
 IAtWgt=           1          12           1           1          12           1          12           1           1           1
 AtmWgt=   1.0078250  12.0000000   1.0078250   1.0078250  12.0000000   1.0078250  12.0000000   1.0078250   1.0078250   1.0078250
 NucSpn=           1           0           1           1           0           1           0           1           1           1
 AtZEff=   0.0000000   0.0000000   0.0000000   0.0000000   0.0000000   0.0000000   0.0000000   0.0000000   0.0000000   0.0000000
 NQMom=    0.0000000   0.0000000   0.0000000   0.0000000   0.0000000   0.0000000   0.0000000   0.0000000   0.0000000   0.0000000
 NMagM=    2.7928460   0.0000000   2.7928460   2.7928460   0.0000000   2.7928460   0.0000000   2.7928460   2.7928460   2.7928460
 AtZNuc=   1.0000000   6.0000000   1.0000000   1.0000000   6.0000000   1.0000000   6.0000000   1.0000000   1.0000000   1.0000000

  Atom        71          72          73          74
 IAtWgt=          12           1           1           1
 AtmWgt=  12.0000000   1.0078250   1.0078250   1.0078250
 NucSpn=           0           1           1           1
 AtZEff=   0.0000000   0.0000000   0.0000000   0.0000000
 NQMom=    0.0000000   0.0000000   0.0000000   0.0000000
 NMagM=    0.0000000   2.7928460   2.7928460   2.7928460
 AtZNuc=   6.0000000   1.0000000   1.0000000   1.0000000
 Leave Link  101 at Mon Mar 20 13:06:17 2017, MaxMem=    33554432 cpu:         1.0
 (Enter /home/michal/g09/l202.exe)
 Symmetry turned off by external request.
 Stoichiometry    C27H46O
 Framework group  C1[X(C27H46O)]
 Deg. of freedom   216
 Full point group                 C1      NOp   1
                          Input orientation:                          
 ---------------------------------------------------------------------
 Center     Atomic      Atomic             Coordinates (Angstroms)
 Number     Number       Type             X           Y           Z
 ---------------------------------------------------------------------
      1          8           0        5.010807   -0.224734   -7.248131
      2          1           0        5.961945   -0.311081   -7.100394
      3          6           0        0.000000    0.000000    0.000000
      4          6           0        1.554898    0.000000    0.000000
      5          1           0        1.841222    1.066089    0.000000
      6          6           0        2.215285   -0.605249   -1.245899
      7          1           0        1.947867   -1.669212   -1.316191
      8          6           0        1.714825    0.130053   -2.516369
      9          1           0        2.118933    1.153344   -2.442389
     10          6           0       -0.272268    0.649085    1.402395
     11          1           0       -0.037794    1.719960    1.291794
     12          6           0       -0.432782    0.818014   -1.234900
     13          1           0       -0.108540    1.859741   -1.096762
     14          1           0       -1.521444    0.844268   -1.344837
     15          6           0        2.312348   -0.467687   -3.838480
     16          6           0        1.936139   -0.549284    1.382288
     17          1           0        2.937104   -0.236490    1.695845
     18          1           0        1.935557   -1.646392    1.376932
     19          6           0        0.174258    0.259101   -2.538468
     20          1           0       -0.277523   -0.717633   -2.741907
     21          1           0       -0.129775    0.908666   -3.367090
     22          6           0        0.827147    0.006986    2.316776
     23          1           0        0.394464   -0.794353    2.927561
     24          1           0        1.232364    0.743249    3.017265
     25          6           0        3.747068   -0.510333   -1.156653
     26          1           0        4.128716   -1.240716   -0.430830
     27          1           0        4.031065    0.475999   -0.753298
     28          6           0       -1.688985    0.566645    2.029769
     29          1           0       -1.912778   -0.496026    2.201476
     30          6           0       -0.592235   -1.427071   -0.053561
     31          1           0       -1.685481   -1.389858   -0.104421
     32          1           0       -0.248036   -1.987603   -0.926205
     33          1           0       -0.328173   -2.014037    0.831445
     34          6           0        3.817511   -0.719965   -3.672126
     35          6           0        2.118380    0.571677   -4.986366
     36          1           0        2.442619    1.554493   -4.616721
     37          1           0        1.051759    0.663704   -5.218408
     38          6           0        4.429867   -0.716879   -2.478889
     39          1           0        5.507911   -0.878844   -2.446416
     40          6           0        1.622502   -1.802978   -4.226578
     41          1           0        0.583749   -1.642840   -4.532218
     42          1           0        2.131383   -2.289365   -5.062477
     43          1           0        1.629394   -2.508817   -3.390246
     44          6           0        4.607457   -0.978441   -4.941714
     45          1           0        5.675616   -1.050893   -4.699524
     46          1           0        4.319515   -1.939114   -5.391703
     47          6           0        2.885581    0.259163   -6.279387
     48          1           0        2.519820   -0.664833   -6.744356
     49          1           0        2.729906    1.060857   -7.010225
     50          6           0       -1.693565    1.280558    3.406107
     51          1           0       -0.878827    0.881974    4.019785
     52          1           0       -1.451437    2.341268    3.241688
     53          6           0        4.375880    0.103769   -6.006199
     54          1           0        4.772956    1.062620   -5.633772
     55          6           0       -2.790153    1.141454    1.122459
     56          1           0       -2.578040    2.185570    0.859455
     57          1           0       -3.765580    1.117451    1.617429
     58          1           0       -2.892721    0.578102    0.192659
     59          6           0       -2.998617    1.209261    4.224391
     60          1           0       -2.845825    1.781091    5.148633
     61          1           0       -3.801508    1.734114    3.692508
     62          6           0       -3.500618   -0.204125    4.576092
     63          1           0       -3.750575   -0.740229    3.650443
     64          1           0       -4.447538   -0.105849    5.127482
     65          6           0       -2.549021   -1.089237    5.408797
     66          1           0       -1.605842   -1.198233    4.854128
     67          6           0       -3.146333   -2.495172    5.580906
     68          1           0       -3.350317   -2.964457    4.611523
     69          1           0       -2.466323   -3.152120    6.135228
     70          1           0       -4.092659   -2.452563    6.135374
     71          6           0       -2.220041   -0.472665    6.777803
     72          1           0       -1.717338    0.495449    6.685345
     73          1           0       -1.561746   -1.131456    7.355528
     74          1           0       -3.134764   -0.319121    7.365157
 ---------------------------------------------------------------------
 Rotational constants (GHZ):      0.5386440      0.0602779      0.0580007
 Leave Link  202 at Mon Mar 20 13:06:17 2017, MaxMem=    33554432 cpu:         0.0
 (Enter /home/michal/g09/l301.exe)
 Standard basis: 6-31G(d) (6D, 7F)
 Ernie: Thresh=  0.10000D-02 Tol=  0.10000D-05 Strict=F.
 AO basis set in the form of general basis input (Overlap normalization):
      1 0
 S   6 1.00       0.000000000000
      0.5484671660D+04  0.1831074430D-02
      0.8252349460D+03  0.1395017220D-01
      0.1880469580D+03  0.6844507810D-01
      0.5296450000D+02  0.2327143360D+00
      0.1689757040D+02  0.4701928980D+00
      0.5799635340D+01  0.3585208530D+00
 SP   3 1.00       0.000000000000
      0.1553961625D+02 -0.1107775495D+00  0.7087426823D-01
      0.3599933586D+01 -0.1480262627D+00  0.3397528391D+00
      0.1013761750D+01  0.1130767015D+01  0.7271585773D+00
 SP   1 1.00       0.000000000000
      0.2700058226D+00  0.1000000000D+01  0.1000000000D+01
 D   1 1.00       0.000000000000
      0.8000000000D+00  0.1000000000D+01
 ****
      2 0
 S   3 1.00       0.000000000000
      0.1873113696D+02  0.3349460434D-01
      0.2825394365D+01  0.2347269535D+00
      0.6401216923D+00  0.8137573261D+00
 S   1 1.00       0.000000000000
      0.1612777588D+00  0.1000000000D+01
 ****
      3 0
 S   6 1.00       0.000000000000
      0.3047524880D+04  0.1834737132D-02
      0.4573695180D+03  0.1403732281D-01
      0.1039486850D+03  0.6884262226D-01
      0.2921015530D+02  0.2321844432D+00
      0.9286662960D+01  0.4679413484D+00
      0.3163926960D+01  0.3623119853D+00
 SP   3 1.00       0.000000000000
      0.7868272350D+01 -0.1193324198D+00  0.6899906659D-01
      0.1881288540D+01 -0.1608541517D+00  0.3164239610D+00
      0.5442492580D+00  0.1143456438D+01  0.7443082909D+00
 SP   1 1.00       0.000000000000
      0.1687144782D+00  0.1000000000D+01  0.1000000000D+01
 D   1 1.00       0.000000000000
      0.8000000000D+00  0.1000000000D+01
 ****
      4 0
 S   6 1.00       0.000000000000
      0.3047524880D+04  0.1834737132D-02
      0.4573695180D+03  0.1403732281D-01
      0.1039486850D+03  0.6884262226D-01
      0.2921015530D+02  0.2321844432D+00
      0.9286662960D+01  0.4679413484D+00
      0.3163926960D+01  0.3623119853D+00
 SP   3 1.00       0.000000000000
      0.7868272350D+01 -0.1193324198D+00  0.6899906659D-01
      0.1881288540D+01 -0.1608541517D+00  0.3164239610D+00
      0.5442492580D+00  0.1143456438D+01  0.7443082909D+00
 SP   1 1.00       0.000000000000
      0.1687144782D+00  0.1000000000D+01  0.1000000000D+01
 D   1 1.00       0.000000000000
      0.8000000000D+00  0.1000000000D+01
 ****
      5 0
 S   3 1.00       0.000000000000
      0.1873113696D+02  0.3349460434D-01
      0.2825394365D+01  0.2347269535D+00
      0.6401216923D+00  0.8137573261D+00
 S   1 1.00       0.000000000000
      0.1612777588D+00  0.1000000000D+01
 ****
      6 0
 S   6 1.00       0.000000000000
      0.3047524880D+04  0.1834737132D-02
      0.4573695180D+03  0.1403732281D-01
      0.1039486850D+03  0.6884262226D-01
      0.2921015530D+02  0.2321844432D+00
      0.9286662960D+01  0.4679413484D+00
      0.3163926960D+01  0.3623119853D+00
 SP   3 1.00       0.000000000000
      0.7868272350D+01 -0.1193324198D+00  0.6899906659D-01
      0.1881288540D+01 -0.1608541517D+00  0.3164239610D+00
      0.5442492580D+00  0.1143456438D+01  0.7443082909D+00
 SP   1 1.00       0.000000000000
      0.1687144782D+00  0.1000000000D+01  0.1000000000D+01
 D   1 1.00       0.000000000000
      0.8000000000D+00  0.1000000000D+01
 ****
      7 0
 S   3 1.00       0.000000000000
      0.1873113696D+02  0.3349460434D-01
      0.2825394365D+01  0.2347269535D+00
      0.6401216923D+00  0.8137573261D+00
 S   1 1.00       0.000000000000
      0.1612777588D+00  0.1000000000D+01
 ****
      8 0
 S   6 1.00       0.000000000000
      0.3047524880D+04  0.1834737132D-02
      0.4573695180D+03  0.1403732281D-01
      0.1039486850D+03  0.6884262226D-01
      0.2921015530D+02  0.2321844432D+00
      0.9286662960D+01  0.4679413484D+00
      0.3163926960D+01  0.3623119853D+00
 SP   3 1.00       0.000000000000
      0.7868272350D+01 -0.1193324198D+00  0.6899906659D-01
      0.1881288540D+01 -0.1608541517D+00  0.3164239610D+00
      0.5442492580D+00  0.1143456438D+01  0.7443082909D+00
 SP   1 1.00       0.000000000000
      0.1687144782D+00  0.1000000000D+01  0.1000000000D+01
 D   1 1.00       0.000000000000
      0.8000000000D+00  0.1000000000D+01
 ****
      9 0
 S   3 1.00       0.000000000000
      0.1873113696D+02  0.3349460434D-01
      0.2825394365D+01  0.2347269535D+00
      0.6401216923D+00  0.8137573261D+00
 S   1 1.00       0.000000000000
      0.1612777588D+00  0.1000000000D+01
 ****
     10 0
 S   6 1.00       0.000000000000
      0.3047524880D+04  0.1834737132D-02
      0.4573695180D+03  0.1403732281D-01
      0.1039486850D+03  0.6884262226D-01
      0.2921015530D+02  0.2321844432D+00
      0.9286662960D+01  0.4679413484D+00
      0.3163926960D+01  0.3623119853D+00
 SP   3 1.00       0.000000000000
      0.7868272350D+01 -0.1193324198D+00  0.6899906659D-01
      0.1881288540D+01 -0.1608541517D+00  0.3164239610D+00
      0.5442492580D+00  0.1143456438D+01  0.7443082909D+00
 SP   1 1.00       0.000000000000
      0.1687144782D+00  0.1000000000D+01  0.1000000000D+01
 D   1 1.00       0.000000000000
      0.8000000000D+00  0.1000000000D+01
 ****
     11 0
 S   3 1.00       0.000000000000
      0.1873113696D+02  0.3349460434D-01
      0.2825394365D+01  0.2347269535D+00
      0.6401216923D+00  0.8137573261D+00
 S   1 1.00       0.000000000000
      0.1612777588D+00  0.1000000000D+01
 ****
     12 0
 S   6 1.00       0.000000000000
      0.3047524880D+04  0.1834737132D-02
      0.4573695180D+03  0.1403732281D-01
      0.1039486850D+03  0.6884262226D-01
      0.2921015530D+02  0.2321844432D+00
      0.9286662960D+01  0.4679413484D+00
      0.3163926960D+01  0.3623119853D+00
 SP   3 1.00       0.000000000000
      0.7868272350D+01 -0.1193324198D+00  0.6899906659D-01
      0.1881288540D+01 -0.1608541517D+00  0.3164239610D+00
      0.5442492580D+00  0.1143456438D+01  0.7443082909D+00
 SP   1 1.00       0.000000000000
      0.1687144782D+00  0.1000000000D+01  0.1000000000D+01
 D   1 1.00       0.000000000000
      0.8000000000D+00  0.1000000000D+01
 ****
     13 0
 S   3 1.00       0.000000000000
      0.1873113696D+02  0.3349460434D-01
      0.2825394365D+01  0.2347269535D+00
      0.6401216923D+00  0.8137573261D+00
 S   1 1.00       0.000000000000
      0.1612777588D+00  0.1000000000D+01
 ****
     14 0
 S   3 1.00       0.000000000000
      0.1873113696D+02  0.3349460434D-01
      0.2825394365D+01  0.2347269535D+00
      0.6401216923D+00  0.8137573261D+00
 S   1 1.00       0.000000000000
      0.1612777588D+00  0.1000000000D+01
 ****
     15 0
 S   6 1.00       0.000000000000
      0.3047524880D+04  0.1834737132D-02
      0.4573695180D+03  0.1403732281D-01
      0.1039486850D+03  0.6884262226D-01
      0.2921015530D+02  0.2321844432D+00
      0.9286662960D+01  0.4679413484D+00
      0.3163926960D+01  0.3623119853D+00
 SP   3 1.00       0.000000000000
      0.7868272350D+01 -0.1193324198D+00  0.6899906659D-01
      0.1881288540D+01 -0.1608541517D+00  0.3164239610D+00
      0.5442492580D+00  0.1143456438D+01  0.7443082909D+00
 SP   1 1.00       0.000000000000
      0.1687144782D+00  0.1000000000D+01  0.1000000000D+01
 D   1 1.00       0.000000000000
      0.8000000000D+00  0.1000000000D+01
 ****
     16 0
 S   6 1.00       0.000000000000
      0.3047524880D+04  0.1834737132D-02
      0.4573695180D+03  0.1403732281D-01
      0.1039486850D+03  0.6884262226D-01
      0.2921015530D+02  0.2321844432D+00
      0.9286662960D+01  0.4679413484D+00
      0.3163926960D+01  0.3623119853D+00
 SP   3 1.00       0.000000000000
      0.7868272350D+01 -0.1193324198D+00  0.6899906659D-01
      0.1881288540D+01 -0.1608541517D+00  0.3164239610D+00
      0.5442492580D+00  0.1143456438D+01  0.7443082909D+00
 SP   1 1.00       0.000000000000
      0.1687144782D+00  0.1000000000D+01  0.1000000000D+01
 D   1 1.00       0.000000000000
      0.8000000000D+00  0.1000000000D+01
 ****
     17 0
 S   3 1.00       0.000000000000
      0.1873113696D+02  0.3349460434D-01
      0.2825394365D+01  0.2347269535D+00
      0.6401216923D+00  0.8137573261D+00
 S   1 1.00       0.000000000000
      0.1612777588D+00  0.1000000000D+01
 ****
     18 0
 S   3 1.00       0.000000000000
      0.1873113696D+02  0.3349460434D-01
      0.2825394365D+01  0.2347269535D+00
      0.6401216923D+00  0.8137573261D+00
 S   1 1.00       0.000000000000
      0.1612777588D+00  0.1000000000D+01
 ****
     19 0
 S   6 1.00       0.000000000000
      0.3047524880D+04  0.1834737132D-02
      0.4573695180D+03  0.1403732281D-01
      0.1039486850D+03  0.6884262226D-01
      0.2921015530D+02  0.2321844432D+00
      0.9286662960D+01  0.4679413484D+00
      0.3163926960D+01  0.3623119853D+00
 SP   3 1.00       0.000000000000
      0.7868272350D+01 -0.1193324198D+00  0.6899906659D-01
      0.1881288540D+01 -0.1608541517D+00  0.3164239610D+00
      0.5442492580D+00  0.1143456438D+01  0.7443082909D+00
 SP   1 1.00       0.000000000000
      0.1687144782D+00  0.1000000000D+01  0.1000000000D+01
 D   1 1.00       0.000000000000
      0.8000000000D+00  0.1000000000D+01
 ****
     20 0
 S   3 1.00       0.000000000000
      0.1873113696D+02  0.3349460434D-01
      0.2825394365D+01  0.2347269535D+00
      0.6401216923D+00  0.8137573261D+00
 S   1 1.00       0.000000000000
      0.1612777588D+00  0.1000000000D+01
 ****
     21 0
 S   3 1.00       0.000000000000
      0.1873113696D+02  0.3349460434D-01
      0.2825394365D+01  0.2347269535D+00
      0.6401216923D+00  0.8137573261D+00
 S   1 1.00       0.000000000000
      0.1612777588D+00  0.1000000000D+01
 ****
     22 0
 S   6 1.00       0.000000000000
      0.3047524880D+04  0.1834737132D-02
      0.4573695180D+03  0.1403732281D-01
      0.1039486850D+03  0.6884262226D-01
      0.2921015530D+02  0.2321844432D+00
      0.9286662960D+01  0.4679413484D+00
      0.3163926960D+01  0.3623119853D+00
 SP   3 1.00       0.000000000000
      0.7868272350D+01 -0.1193324198D+00  0.6899906659D-01
      0.1881288540D+01 -0.1608541517D+00  0.3164239610D+00
      0.5442492580D+00  0.1143456438D+01  0.7443082909D+00
 SP   1 1.00       0.000000000000
      0.1687144782D+00  0.1000000000D+01  0.1000000000D+01
 D   1 1.00       0.000000000000
      0.8000000000D+00  0.1000000000D+01
 ****
     23 0
 S   3 1.00       0.000000000000
      0.1873113696D+02  0.3349460434D-01
      0.2825394365D+01  0.2347269535D+00
      0.6401216923D+00  0.8137573261D+00
 S   1 1.00       0.000000000000
      0.1612777588D+00  0.1000000000D+01
 ****
     24 0
 S   3 1.00       0.000000000000
      0.1873113696D+02  0.3349460434D-01
      0.2825394365D+01  0.2347269535D+00
      0.6401216923D+00  0.8137573261D+00
 S   1 1.00       0.000000000000
      0.1612777588D+00  0.1000000000D+01
 ****
     25 0
 S   6 1.00       0.000000000000
      0.3047524880D+04  0.1834737132D-02
      0.4573695180D+03  0.1403732281D-01
      0.1039486850D+03  0.6884262226D-01
      0.2921015530D+02  0.2321844432D+00
      0.9286662960D+01  0.4679413484D+00
      0.3163926960D+01  0.3623119853D+00
 SP   3 1.00       0.000000000000
      0.7868272350D+01 -0.1193324198D+00  0.6899906659D-01
      0.1881288540D+01 -0.1608541517D+00  0.3164239610D+00
      0.5442492580D+00  0.1143456438D+01  0.7443082909D+00
 SP   1 1.00       0.000000000000
      0.1687144782D+00  0.1000000000D+01  0.1000000000D+01
 D   1 1.00       0.000000000000
      0.8000000000D+00  0.1000000000D+01
 ****
     26 0
 S   3 1.00       0.000000000000
      0.1873113696D+02  0.3349460434D-01
      0.2825394365D+01  0.2347269535D+00
      0.6401216923D+00  0.8137573261D+00
 S   1 1.00       0.000000000000
      0.1612777588D+00  0.1000000000D+01
 ****
     27 0
 S   3 1.00       0.000000000000
      0.1873113696D+02  0.3349460434D-01
      0.2825394365D+01  0.2347269535D+00
      0.6401216923D+00  0.8137573261D+00
 S   1 1.00       0.000000000000
      0.1612777588D+00  0.1000000000D+01
 ****
     28 0
 S   6 1.00       0.000000000000
      0.3047524880D+04  0.1834737132D-02
      0.4573695180D+03  0.1403732281D-01
      0.1039486850D+03  0.6884262226D-01
      0.2921015530D+02  0.2321844432D+00
      0.9286662960D+01  0.4679413484D+00
      0.3163926960D+01  0.3623119853D+00
 SP   3 1.00       0.000000000000
      0.7868272350D+01 -0.1193324198D+00  0.6899906659D-01
      0.1881288540D+01 -0.1608541517D+00  0.3164239610D+00
      0.5442492580D+00  0.1143456438D+01  0.7443082909D+00
 SP   1 1.00       0.000000000000
      0.1687144782D+00  0.1000000000D+01  0.1000000000D+01
 D   1 1.00       0.000000000000
      0.8000000000D+00  0.1000000000D+01
 ****
     29 0
 S   3 1.00       0.000000000000
      0.1873113696D+02  0.3349460434D-01
      0.2825394365D+01  0.2347269535D+00
      0.6401216923D+00  0.8137573261D+00
 S   1 1.00       0.000000000000
      0.1612777588D+00  0.1000000000D+01
 ****
     30 0
 S   6 1.00       0.000000000000
      0.3047524880D+04  0.1834737132D-02
      0.4573695180D+03  0.1403732281D-01
      0.1039486850D+03  0.6884262226D-01
      0.2921015530D+02  0.2321844432D+00
      0.9286662960D+01  0.4679413484D+00
      0.3163926960D+01  0.3623119853D+00
 SP   3 1.00       0.000000000000
      0.7868272350D+01 -0.1193324198D+00  0.6899906659D-01
      0.1881288540D+01 -0.1608541517D+00  0.3164239610D+00
      0.5442492580D+00  0.1143456438D+01  0.7443082909D+00
 SP   1 1.00       0.000000000000
      0.1687144782D+00  0.1000000000D+01  0.1000000000D+01
 D   1 1.00       0.000000000000
      0.8000000000D+00  0.1000000000D+01
 ****
     31 0
 S   3 1.00       0.000000000000
      0.1873113696D+02  0.3349460434D-01
      0.2825394365D+01  0.2347269535D+00
      0.6401216923D+00  0.8137573261D+00
 S   1 1.00       0.000000000000
      0.1612777588D+00  0.1000000000D+01
 ****
     32 0
 S   3 1.00       0.000000000000
      0.1873113696D+02  0.3349460434D-01
      0.2825394365D+01  0.2347269535D+00
      0.6401216923D+00  0.8137573261D+00
 S   1 1.00       0.000000000000
      0.1612777588D+00  0.1000000000D+01
 ****
     33 0
 S   3 1.00       0.000000000000
      0.1873113696D+02  0.3349460434D-01
      0.2825394365D+01  0.2347269535D+00
      0.6401216923D+00  0.8137573261D+00
 S   1 1.00       0.000000000000
      0.1612777588D+00  0.1000000000D+01
 ****
     34 0
 S   6 1.00       0.000000000000
      0.3047524880D+04  0.1834737132D-02
      0.4573695180D+03  0.1403732281D-01
      0.1039486850D+03  0.6884262226D-01
      0.2921015530D+02  0.2321844432D+00
      0.9286662960D+01  0.4679413484D+00
      0.3163926960D+01  0.3623119853D+00
 SP   3 1.00       0.000000000000
      0.7868272350D+01 -0.1193324198D+00  0.6899906659D-01
      0.1881288540D+01 -0.1608541517D+00  0.3164239610D+00
      0.5442492580D+00  0.1143456438D+01  0.7443082909D+00
 SP   1 1.00       0.000000000000
      0.1687144782D+00  0.1000000000D+01  0.1000000000D+01
 D   1 1.00       0.000000000000
      0.8000000000D+00  0.1000000000D+01
 ****
     35 0
 S   6 1.00       0.000000000000
      0.3047524880D+04  0.1834737132D-02
      0.4573695180D+03  0.1403732281D-01
      0.1039486850D+03  0.6884262226D-01
      0.2921015530D+02  0.2321844432D+00
      0.9286662960D+01  0.4679413484D+00
      0.3163926960D+01  0.3623119853D+00
 SP   3 1.00       0.000000000000
      0.7868272350D+01 -0.1193324198D+00  0.6899906659D-01
      0.1881288540D+01 -0.1608541517D+00  0.3164239610D+00
      0.5442492580D+00  0.1143456438D+01  0.7443082909D+00
 SP   1 1.00       0.000000000000
      0.1687144782D+00  0.1000000000D+01  0.1000000000D+01
 D   1 1.00       0.000000000000
      0.8000000000D+00  0.1000000000D+01
 ****
     36 0
 S   3 1.00       0.000000000000
      0.1873113696D+02  0.3349460434D-01
      0.2825394365D+01  0.2347269535D+00
      0.6401216923D+00  0.8137573261D+00
 S   1 1.00       0.000000000000
      0.1612777588D+00  0.1000000000D+01
 ****
     37 0
 S   3 1.00       0.000000000000
      0.1873113696D+02  0.3349460434D-01
      0.2825394365D+01  0.2347269535D+00
      0.6401216923D+00  0.8137573261D+00
 S   1 1.00       0.000000000000
      0.1612777588D+00  0.1000000000D+01
 ****
     38 0
 S   6 1.00       0.000000000000
      0.3047524880D+04  0.1834737132D-02
      0.4573695180D+03  0.1403732281D-01
      0.1039486850D+03  0.6884262226D-01
      0.2921015530D+02  0.2321844432D+00
      0.9286662960D+01  0.4679413484D+00
      0.3163926960D+01  0.3623119853D+00
 SP   3 1.00       0.000000000000
      0.7868272350D+01 -0.1193324198D+00  0.6899906659D-01
      0.1881288540D+01 -0.1608541517D+00  0.3164239610D+00
      0.5442492580D+00  0.1143456438D+01  0.7443082909D+00
 SP   1 1.00       0.000000000000
      0.1687144782D+00  0.1000000000D+01  0.1000000000D+01
 D   1 1.00       0.000000000000
      0.8000000000D+00  0.1000000000D+01
 ****
     39 0
 S   3 1.00       0.000000000000
      0.1873113696D+02  0.3349460434D-01
      0.2825394365D+01  0.2347269535D+00
      0.6401216923D+00  0.8137573261D+00
 S   1 1.00       0.000000000000
      0.1612777588D+00  0.1000000000D+01
 ****
     40 0
 S   6 1.00       0.000000000000
      0.3047524880D+04  0.1834737132D-02
      0.4573695180D+03  0.1403732281D-01
      0.1039486850D+03  0.6884262226D-01
      0.2921015530D+02  0.2321844432D+00
      0.9286662960D+01  0.4679413484D+00
      0.3163926960D+01  0.3623119853D+00
 SP   3 1.00       0.000000000000
      0.7868272350D+01 -0.1193324198D+00  0.6899906659D-01
      0.1881288540D+01 -0.1608541517D+00  0.3164239610D+00
      0.5442492580D+00  0.1143456438D+01  0.7443082909D+00
 SP   1 1.00       0.000000000000
      0.1687144782D+00  0.1000000000D+01  0.1000000000D+01
 D   1 1.00       0.000000000000
      0.8000000000D+00  0.1000000000D+01
 ****
     41 0
 S   3 1.00       0.000000000000
      0.1873113696D+02  0.3349460434D-01
      0.2825394365D+01  0.2347269535D+00
      0.6401216923D+00  0.8137573261D+00
 S   1 1.00       0.000000000000
      0.1612777588D+00  0.1000000000D+01
 ****
     42 0
 S   3 1.00       0.000000000000
      0.1873113696D+02  0.3349460434D-01
      0.2825394365D+01  0.2347269535D+00
      0.6401216923D+00  0.8137573261D+00
 S   1 1.00       0.000000000000
      0.1612777588D+00  0.1000000000D+01
 ****
     43 0
 S   3 1.00       0.000000000000
      0.1873113696D+02  0.3349460434D-01
      0.2825394365D+01  0.2347269535D+00
      0.6401216923D+00  0.8137573261D+00
 S   1 1.00       0.000000000000
      0.1612777588D+00  0.1000000000D+01
 ****
     44 0
 S   6 1.00       0.000000000000
      0.3047524880D+04  0.1834737132D-02
      0.4573695180D+03  0.1403732281D-01
      0.1039486850D+03  0.6884262226D-01
      0.2921015530D+02  0.2321844432D+00
      0.9286662960D+01  0.4679413484D+00
      0.3163926960D+01  0.3623119853D+00
 SP   3 1.00       0.000000000000
      0.7868272350D+01 -0.1193324198D+00  0.6899906659D-01
      0.1881288540D+01 -0.1608541517D+00  0.3164239610D+00
      0.5442492580D+00  0.1143456438D+01  0.7443082909D+00
 SP   1 1.00       0.000000000000
      0.1687144782D+00  0.1000000000D+01  0.1000000000D+01
 D   1 1.00       0.000000000000
      0.8000000000D+00  0.1000000000D+01
 ****
     45 0
 S   3 1.00       0.000000000000
      0.1873113696D+02  0.3349460434D-01
      0.2825394365D+01  0.2347269535D+00
      0.6401216923D+00  0.8137573261D+00
 S   1 1.00       0.000000000000
      0.1612777588D+00  0.1000000000D+01
 ****
     46 0
 S   3 1.00       0.000000000000
      0.1873113696D+02  0.3349460434D-01
      0.2825394365D+01  0.2347269535D+00
      0.6401216923D+00  0.8137573261D+00
 S   1 1.00       0.000000000000
      0.1612777588D+00  0.1000000000D+01
 ****
     47 0
 S   6 1.00       0.000000000000
      0.3047524880D+04  0.1834737132D-02
      0.4573695180D+03  0.1403732281D-01
      0.1039486850D+03  0.6884262226D-01
      0.2921015530D+02  0.2321844432D+00
      0.9286662960D+01  0.4679413484D+00
      0.3163926960D+01  0.3623119853D+00
 SP   3 1.00       0.000000000000
      0.7868272350D+01 -0.1193324198D+00  0.6899906659D-01
      0.1881288540D+01 -0.1608541517D+00  0.3164239610D+00
      0.5442492580D+00  0.1143456438D+01  0.7443082909D+00
 SP   1 1.00       0.000000000000
      0.1687144782D+00  0.1000000000D+01  0.1000000000D+01
 D   1 1.00       0.000000000000
      0.8000000000D+00  0.1000000000D+01
 ****
     48 0
 S   3 1.00       0.000000000000
      0.1873113696D+02  0.3349460434D-01
      0.2825394365D+01  0.2347269535D+00
      0.6401216923D+00  0.8137573261D+00
 S   1 1.00       0.000000000000
      0.1612777588D+00  0.1000000000D+01
 ****
     49 0
 S   3 1.00       0.000000000000
      0.1873113696D+02  0.3349460434D-01
      0.2825394365D+01  0.2347269535D+00
      0.6401216923D+00  0.8137573261D+00
 S   1 1.00       0.000000000000
      0.1612777588D+00  0.1000000000D+01
 ****
     50 0
 S   6 1.00       0.000000000000
      0.3047524880D+04  0.1834737132D-02
      0.4573695180D+03  0.1403732281D-01
      0.1039486850D+03  0.6884262226D-01
      0.2921015530D+02  0.2321844432D+00
      0.9286662960D+01  0.4679413484D+00
      0.3163926960D+01  0.3623119853D+00
 SP   3 1.00       0.000000000000
      0.7868272350D+01 -0.1193324198D+00  0.6899906659D-01
      0.1881288540D+01 -0.1608541517D+00  0.3164239610D+00
      0.5442492580D+00  0.1143456438D+01  0.7443082909D+00
 SP   1 1.00       0.000000000000
      0.1687144782D+00  0.1000000000D+01  0.1000000000D+01
 D   1 1.00       0.000000000000
      0.8000000000D+00  0.1000000000D+01
 ****
     51 0
 S   3 1.00       0.000000000000
      0.1873113696D+02  0.3349460434D-01
      0.2825394365D+01  0.2347269535D+00
      0.6401216923D+00  0.8137573261D+00
 S   1 1.00       0.000000000000
      0.1612777588D+00  0.1000000000D+01
 ****
     52 0
 S   3 1.00       0.000000000000
      0.1873113696D+02  0.3349460434D-01
      0.2825394365D+01  0.2347269535D+00
      0.6401216923D+00  0.8137573261D+00
 S   1 1.00       0.000000000000
      0.1612777588D+00  0.1000000000D+01
 ****
     53 0
 S   6 1.00       0.000000000000
      0.3047524880D+04  0.1834737132D-02
      0.4573695180D+03  0.1403732281D-01
      0.1039486850D+03  0.6884262226D-01
      0.2921015530D+02  0.2321844432D+00
      0.9286662960D+01  0.4679413484D+00
      0.3163926960D+01  0.3623119853D+00
 SP   3 1.00       0.000000000000
      0.7868272350D+01 -0.1193324198D+00  0.6899906659D-01
      0.1881288540D+01 -0.1608541517D+00  0.3164239610D+00
      0.5442492580D+00  0.1143456438D+01  0.7443082909D+00
 SP   1 1.00       0.000000000000
      0.1687144782D+00  0.1000000000D+01  0.1000000000D+01
 D   1 1.00       0.000000000000
      0.8000000000D+00  0.1000000000D+01
 ****
     54 0
 S   3 1.00       0.000000000000
      0.1873113696D+02  0.3349460434D-01
      0.2825394365D+01  0.2347269535D+00
      0.6401216923D+00  0.8137573261D+00
 S   1 1.00       0.000000000000
      0.1612777588D+00  0.1000000000D+01
 ****
     55 0
 S   6 1.00       0.000000000000
      0.3047524880D+04  0.1834737132D-02
      0.4573695180D+03  0.1403732281D-01
      0.1039486850D+03  0.6884262226D-01
      0.2921015530D+02  0.2321844432D+00
      0.9286662960D+01  0.4679413484D+00
      0.3163926960D+01  0.3623119853D+00
 SP   3 1.00       0.000000000000
      0.7868272350D+01 -0.1193324198D+00  0.6899906659D-01
      0.1881288540D+01 -0.1608541517D+00  0.3164239610D+00
      0.5442492580D+00  0.1143456438D+01  0.7443082909D+00
 SP   1 1.00       0.000000000000
      0.1687144782D+00  0.1000000000D+01  0.1000000000D+01
 D   1 1.00       0.000000000000
      0.8000000000D+00  0.1000000000D+01
 ****
     56 0
 S   3 1.00       0.000000000000
      0.1873113696D+02  0.3349460434D-01
      0.2825394365D+01  0.2347269535D+00
      0.6401216923D+00  0.8137573261D+00
 S   1 1.00       0.000000000000
      0.1612777588D+00  0.1000000000D+01
 ****
     57 0
 S   3 1.00       0.000000000000
      0.1873113696D+02  0.3349460434D-01
      0.2825394365D+01  0.2347269535D+00
      0.6401216923D+00  0.8137573261D+00
 S   1 1.00       0.000000000000
      0.1612777588D+00  0.1000000000D+01
 ****
     58 0
 S   3 1.00       0.000000000000
      0.1873113696D+02  0.3349460434D-01
      0.2825394365D+01  0.2347269535D+00
      0.6401216923D+00  0.8137573261D+00
 S   1 1.00       0.000000000000
      0.1612777588D+00  0.1000000000D+01
 ****
     59 0
 S   6 1.00       0.000000000000
      0.3047524880D+04  0.1834737132D-02
      0.4573695180D+03  0.1403732281D-01
      0.1039486850D+03  0.6884262226D-01
      0.2921015530D+02  0.2321844432D+00
      0.9286662960D+01  0.4679413484D+00
      0.3163926960D+01  0.3623119853D+00
 SP   3 1.00       0.000000000000
      0.7868272350D+01 -0.1193324198D+00  0.6899906659D-01
      0.1881288540D+01 -0.1608541517D+00  0.3164239610D+00
      0.5442492580D+00  0.1143456438D+01  0.7443082909D+00
 SP   1 1.00       0.000000000000
      0.1687144782D+00  0.1000000000D+01  0.1000000000D+01
 D   1 1.00       0.000000000000
      0.8000000000D+00  0.1000000000D+01
 ****
     60 0
 S   3 1.00       0.000000000000
      0.1873113696D+02  0.3349460434D-01
      0.2825394365D+01  0.2347269535D+00
      0.6401216923D+00  0.8137573261D+00
 S   1 1.00       0.000000000000
      0.1612777588D+00  0.1000000000D+01
 ****
     61 0
 S   3 1.00       0.000000000000
      0.1873113696D+02  0.3349460434D-01
      0.2825394365D+01  0.2347269535D+00
      0.6401216923D+00  0.8137573261D+00
 S   1 1.00       0.000000000000
      0.1612777588D+00  0.1000000000D+01
 ****
     62 0
 S   6 1.00       0.000000000000
      0.3047524880D+04  0.1834737132D-02
      0.4573695180D+03  0.1403732281D-01
      0.1039486850D+03  0.6884262226D-01
      0.2921015530D+02  0.2321844432D+00
      0.9286662960D+01  0.4679413484D+00
      0.3163926960D+01  0.3623119853D+00
 SP   3 1.00       0.000000000000
      0.7868272350D+01 -0.1193324198D+00  0.6899906659D-01
      0.1881288540D+01 -0.1608541517D+00  0.3164239610D+00
      0.5442492580D+00  0.1143456438D+01  0.7443082909D+00
 SP   1 1.00       0.000000000000
      0.1687144782D+00  0.1000000000D+01  0.1000000000D+01
 D   1 1.00       0.000000000000
      0.8000000000D+00  0.1000000000D+01
 ****
     63 0
 S   3 1.00       0.000000000000
      0.1873113696D+02  0.3349460434D-01
      0.2825394365D+01  0.2347269535D+00
      0.6401216923D+00  0.8137573261D+00
 S   1 1.00       0.000000000000
      0.1612777588D+00  0.1000000000D+01
 ****
     64 0
 S   3 1.00       0.000000000000
      0.1873113696D+02  0.3349460434D-01
      0.2825394365D+01  0.2347269535D+00
      0.6401216923D+00  0.8137573261D+00
 S   1 1.00       0.000000000000
      0.1612777588D+00  0.1000000000D+01
 ****
     65 0
 S   6 1.00       0.000000000000
      0.3047524880D+04  0.1834737132D-02
      0.4573695180D+03  0.1403732281D-01
      0.1039486850D+03  0.6884262226D-01
      0.2921015530D+02  0.2321844432D+00
      0.9286662960D+01  0.4679413484D+00
      0.3163926960D+01  0.3623119853D+00
 SP   3 1.00       0.000000000000
      0.7868272350D+01 -0.1193324198D+00  0.6899906659D-01
      0.1881288540D+01 -0.1608541517D+00  0.3164239610D+00
      0.5442492580D+00  0.1143456438D+01  0.7443082909D+00
 SP   1 1.00       0.000000000000
      0.1687144782D+00  0.1000000000D+01  0.1000000000D+01
 D   1 1.00       0.000000000000
      0.8000000000D+00  0.1000000000D+01
 ****
     66 0
 S   3 1.00       0.000000000000
      0.1873113696D+02  0.3349460434D-01
      0.2825394365D+01  0.2347269535D+00
      0.6401216923D+00  0.8137573261D+00
 S   1 1.00       0.000000000000
      0.1612777588D+00  0.1000000000D+01
 ****
     67 0
 S   6 1.00       0.000000000000
      0.3047524880D+04  0.1834737132D-02
      0.4573695180D+03  0.1403732281D-01
      0.1039486850D+03  0.6884262226D-01
      0.2921015530D+02  0.2321844432D+00
      0.9286662960D+01  0.4679413484D+00
      0.3163926960D+01  0.3623119853D+00
 SP   3 1.00       0.000000000000
      0.7868272350D+01 -0.1193324198D+00  0.6899906659D-01
      0.1881288540D+01 -0.1608541517D+00  0.3164239610D+00
      0.5442492580D+00  0.1143456438D+01  0.7443082909D+00
 SP   1 1.00       0.000000000000
      0.1687144782D+00  0.1000000000D+01  0.1000000000D+01
 D   1 1.00       0.000000000000
      0.8000000000D+00  0.1000000000D+01
 ****
     68 0
 S   3 1.00       0.000000000000
      0.1873113696D+02  0.3349460434D-01
      0.2825394365D+01  0.2347269535D+00
      0.6401216923D+00  0.8137573261D+00
 S   1 1.00       0.000000000000
      0.1612777588D+00  0.1000000000D+01
 ****
     69 0
 S   3 1.00       0.000000000000
      0.1873113696D+02  0.3349460434D-01
      0.2825394365D+01  0.2347269535D+00
      0.6401216923D+00  0.8137573261D+00
 S   1 1.00       0.000000000000
      0.1612777588D+00  0.1000000000D+01
 ****
     70 0
 S   3 1.00       0.000000000000
      0.1873113696D+02  0.3349460434D-01
      0.2825394365D+01  0.2347269535D+00
      0.6401216923D+00  0.8137573261D+00
 S   1 1.00       0.000000000000
      0.1612777588D+00  0.1000000000D+01
 ****
     71 0
 S   6 1.00       0.000000000000
      0.3047524880D+04  0.1834737132D-02
      0.4573695180D+03  0.1403732281D-01
      0.1039486850D+03  0.6884262226D-01
      0.2921015530D+02  0.2321844432D+00
      0.9286662960D+01  0.4679413484D+00
      0.3163926960D+01  0.3623119853D+00
 SP   3 1.00       0.000000000000
      0.7868272350D+01 -0.1193324198D+00  0.6899906659D-01
      0.1881288540D+01 -0.1608541517D+00  0.3164239610D+00
      0.5442492580D+00  0.1143456438D+01  0.7443082909D+00
 SP   1 1.00       0.000000000000
      0.1687144782D+00  0.1000000000D+01  0.1000000000D+01
 D   1 1.00       0.000000000000
      0.8000000000D+00  0.1000000000D+01
 ****
     72 0
 S   3 1.00       0.000000000000
      0.1873113696D+02  0.3349460434D-01
      0.2825394365D+01  0.2347269535D+00
      0.6401216923D+00  0.8137573261D+00
 S   1 1.00       0.000000000000
      0.1612777588D+00  0.1000000000D+01
 ****
     73 0
 S   3 1.00       0.000000000000
      0.1873113696D+02  0.3349460434D-01
      0.2825394365D+01  0.2347269535D+00
      0.6401216923D+00  0.8137573261D+00
 S   1 1.00       0.000000000000
      0.1612777588D+00  0.1000000000D+01
 ****
     74 0
 S   3 1.00       0.000000000000
      0.1873113696D+02  0.3349460434D-01
      0.2825394365D+01  0.2347269535D+00
      0.6401216923D+00  0.8137573261D+00
 S   1 1.00       0.000000000000
      0.1612777588D+00  0.1000000000D+01
 ****

 AO basis set (Overlap normalization):
 Atom O1       Shell     1 S   6     bf    1 -     1          9.469053388281         -0.424684843474        -13.696981828285
      0.5484671660D+04  0.1831074430D-02
      0.8252349460D+03  0.1395017220D-01
      0.1880469580D+03  0.6844507810D-01
      0.5296450000D+02  0.2327143360D+00
      0.1689757040D+02  0.4701928980D+00
      0.5799635340D+01  0.3585208530D+00
 Atom O1       Shell     2 SP   3    bf    2 -     5          9.469053388281         -0.424684843474        -13.696981828285
      0.1553961625D+02 -0.1107775495D+00  0.7087426823D-01
      0.3599933586D+01 -0.1480262627D+00  0.3397528391D+00
      0.1013761750D+01  0.1130767015D+01  0.7271585773D+00
 Atom O1       Shell     3 SP   1    bf    6 -     9          9.469053388281         -0.424684843474        -13.696981828285
      0.2700058226D+00  0.1000000000D+01  0.1000000000D+01
 Atom O1       Shell     4 D   1     bf   10 -    15          9.469053388281         -0.424684843474        -13.696981828285
      0.8000000000D+00  0.1000000000D+01
 Atom H2       Shell     5 S   3     bf   16 -    16         11.266443458300         -0.587858027425        -13.417799831023
      0.1873113696D+02  0.3349460434D-01
      0.2825394365D+01  0.2347269535D+00
      0.6401216923D+00  0.8137573261D+00
 Atom H2       Shell     6 S   1     bf   17 -    17         11.266443458300         -0.587858027425        -13.417799831023
      0.1612777588D+00  0.1000000000D+01
 Atom C3       Shell     7 S   6     bf   18 -    18          0.000000000000          0.000000000000          0.000000000000
      0.3047524880D+04  0.1834737132D-02
      0.4573695180D+03  0.1403732281D-01
      0.1039486850D+03  0.6884262226D-01
      0.2921015530D+02  0.2321844432D+00
      0.9286662960D+01  0.4679413484D+00
      0.3163926960D+01  0.3623119853D+00
 Atom C3       Shell     8 SP   3    bf   19 -    22          0.000000000000          0.000000000000          0.000000000000
      0.7868272350D+01 -0.1193324198D+00  0.6899906659D-01
      0.1881288540D+01 -0.1608541517D+00  0.3164239610D+00
      0.5442492580D+00  0.1143456438D+01  0.7443082909D+00
 Atom C3       Shell     9 SP   1    bf   23 -    26          0.000000000000          0.000000000000          0.000000000000
      0.1687144782D+00  0.1000000000D+01  0.1000000000D+01
 Atom C3       Shell    10 D   1     bf   27 -    32          0.000000000000          0.000000000000          0.000000000000
      0.8000000000D+00  0.1000000000D+01
 Atom C4       Shell    11 S   6     bf   33 -    33          2.938330760962          0.000000000000          0.000000000000
      0.3047524880D+04  0.1834737132D-02
      0.4573695180D+03  0.1403732281D-01
      0.1039486850D+03  0.6884262226D-01
      0.2921015530D+02  0.2321844432D+00
      0.9286662960D+01  0.4679413484D+00
      0.3163926960D+01  0.3623119853D+00
 Atom C4       Shell    12 SP   3    bf   34 -    37          2.938330760962          0.000000000000          0.000000000000
      0.7868272350D+01 -0.1193324198D+00  0.6899906659D-01
      0.1881288540D+01 -0.1608541517D+00  0.3164239610D+00
      0.5442492580D+00  0.1143456438D+01  0.7443082909D+00
 Atom C4       Shell    13 SP   1    bf   38 -    41          2.938330760962          0.000000000000          0.000000000000
      0.1687144782D+00  0.1000000000D+01  0.1000000000D+01
 Atom C4       Shell    14 D   1     bf   42 -    47          2.938330760962          0.000000000000          0.000000000000
      0.8000000000D+00  0.1000000000D+01
 Atom H5       Shell    15 S   3     bf   48 -    48          3.479405197563          2.014616356665          0.000000000000
      0.1873113696D+02  0.3349460434D-01
      0.2825394365D+01  0.2347269535D+00
      0.6401216923D+00  0.8137573261D+00
 Atom H5       Shell    16 S   1     bf   49 -    49          3.479405197563          2.014616356665          0.000000000000
      0.1612777588D+00  0.1000000000D+01
 Atom C6       Shell    17 S   6     bf   50 -    50          4.186282220851         -1.143755135662         -2.354407577983
      0.3047524880D+04  0.1834737132D-02
      0.4573695180D+03  0.1403732281D-01
      0.1039486850D+03  0.6884262226D-01
      0.2921015530D+02  0.2321844432D+00
      0.9286662960D+01  0.4679413484D+00
      0.3163926960D+01  0.3623119853D+00
 Atom C6       Shell    18 SP   3    bf   51 -    54          4.186282220851         -1.143755135662         -2.354407577983
      0.7868272350D+01 -0.1193324198D+00  0.6899906659D-01
      0.1881288540D+01 -0.1608541517D+00  0.3164239610D+00
      0.5442492580D+00  0.1143456438D+01  0.7443082909D+00
 Atom C6       Shell    19 SP   1    bf   55 -    58          4.186282220851         -1.143755135662         -2.354407577983
      0.1687144782D+00  0.1000000000D+01  0.1000000000D+01
 Atom C6       Shell    20 D   1     bf   59 -    64          4.186282220851         -1.143755135662         -2.354407577983
      0.8000000000D+00  0.1000000000D+01
 Atom H7       Shell    21 S   3     bf   65 -    65          3.680935966971         -3.154354029055         -2.487241303357
      0.1873113696D+02  0.3349460434D-01
      0.2825394365D+01  0.2347269535D+00
      0.6401216923D+00  0.8137573261D+00
 Atom H7       Shell    22 S   1     bf   66 -    66          3.680935966971         -3.154354029055         -2.487241303357
      0.1612777588D+00  0.1000000000D+01
 Atom C8       Shell    23 S   6     bf   67 -    67          3.240549596928          0.245765365342         -4.755247503393
      0.3047524880D+04  0.1834737132D-02
      0.4573695180D+03  0.1403732281D-01
      0.1039486850D+03  0.6884262226D-01
      0.2921015530D+02  0.2321844432D+00
      0.9286662960D+01  0.4679413484D+00
      0.3163926960D+01  0.3623119853D+00
 Atom C8       Shell    24 SP   3    bf   68 -    71          3.240549596928          0.245765365342         -4.755247503393
      0.7868272350D+01 -0.1193324198D+00  0.6899906659D-01
      0.1881288540D+01 -0.1608541517D+00  0.3164239610D+00
      0.5442492580D+00  0.1143456438D+01  0.7443082909D+00
 Atom C8       Shell    25 SP   1    bf   72 -    75          3.240549596928          0.245765365342         -4.755247503393
      0.1687144782D+00  0.1000000000D+01  0.1000000000D+01
 Atom C8       Shell    26 D   1     bf   76 -    81          3.240549596928          0.245765365342         -4.755247503393
      0.8000000000D+00  0.1000000000D+01
 Atom H9       Shell    27 S   3     bf   82 -    82          4.004202856064          2.179504051342         -4.615446282178
      0.1873113696D+02  0.3349460434D-01
      0.2825394365D+01  0.2347269535D+00
      0.6401216923D+00  0.8137573261D+00
 Atom H9       Shell    28 S   1     bf   83 -    83          4.004202856064          2.179504051342         -4.615446282178
      0.1612777588D+00  0.1000000000D+01
 Atom C10      Shell    29 S   6     bf   84 -    84         -0.514512219310          1.226592414533          2.650143349402
      0.3047524880D+04  0.1834737132D-02
      0.4573695180D+03  0.1403732281D-01
      0.1039486850D+03  0.6884262226D-01
      0.2921015530D+02  0.2321844432D+00
      0.9286662960D+01  0.4679413484D+00
      0.3163926960D+01  0.3623119853D+00
 Atom C10      Shell    30 SP   3    bf   85 -    88         -0.514512219310          1.226592414533          2.650143349402
      0.7868272350D+01 -0.1193324198D+00  0.6899906659D-01
      0.1881288540D+01 -0.1608541517D+00  0.3164239610D+00
      0.5442492580D+00  0.1143456438D+01  0.7443082909D+00
 Atom C10      Shell    31 SP   1    bf   89 -    92         -0.514512219310          1.226592414533          2.650143349402
      0.1687144782D+00  0.1000000000D+01  0.1000000000D+01
 Atom C10      Shell    32 D   1     bf   93 -    98         -0.514512219310          1.226592414533          2.650143349402
      0.8000000000D+00  0.1000000000D+01
 Atom H11      Shell    33 S   3     bf   99 -    99         -0.071420876384          3.250253794155          2.441136899002
      0.1873113696D+02  0.3349460434D-01
      0.2825394365D+01  0.2347269535D+00
      0.6401216923D+00  0.8137573261D+00
 Atom H11      Shell    34 S   1     bf  100 -   100         -0.071420876384          3.250253794155          2.441136899002
      0.1612777588D+00  0.1000000000D+01
 Atom C12      Shell    35 S   6     bf  101 -   101         -0.817839058400          1.545823056476         -2.333622574733
      0.3047524880D+04  0.1834737132D-02
      0.4573695180D+03  0.1403732281D-01
      0.1039486850D+03  0.6884262226D-01
      0.2921015530D+02  0.2321844432D+00
      0.9286662960D+01  0.4679413484D+00
      0.3163926960D+01  0.3623119853D+00
 Atom C12      Shell    36 SP   3    bf  102 -   105         -0.817839058400          1.545823056476         -2.333622574733
      0.7868272350D+01 -0.1193324198D+00  0.6899906659D-01
      0.1881288540D+01 -0.1608541517D+00  0.3164239610D+00
      0.5442492580D+00  0.1143456438D+01  0.7443082909D+00
 Atom C12      Shell    37 SP   1    bf  106 -   109         -0.817839058400          1.545823056476         -2.333622574733
      0.1687144782D+00  0.1000000000D+01  0.1000000000D+01
 Atom C12      Shell    38 D   1     bf  110 -   115         -0.817839058400          1.545823056476         -2.333622574733
      0.8000000000D+00  0.1000000000D+01
 Atom H13      Shell    39 S   3     bf  116 -   116         -0.205111403587          3.514400468900         -2.072579623983
      0.1873113696D+02  0.3349460434D-01
      0.2825394365D+01  0.2347269535D+00
      0.6401216923D+00  0.8137573261D+00
 Atom H13      Shell    40 S   1     bf  117 -   117         -0.205111403587          3.514400468900         -2.072579623983
      0.1612777588D+00  0.1000000000D+01
 Atom H14      Shell    41 S   3     bf  118 -   118         -2.875111730632          1.595435586218         -2.541374209187
      0.1873113696D+02  0.3349460434D-01
      0.2825394365D+01  0.2347269535D+00
      0.6401216923D+00  0.8137573261D+00
 Atom H14      Shell    42 S   1     bf  119 -   119         -2.875111730632          1.595435586218         -2.541374209187
      0.1612777588D+00  0.1000000000D+01
 Atom C15      Shell    43 S   6     bf  120 -   120          4.369703574652         -0.883800459294         -7.253675588614
      0.3047524880D+04  0.1834737132D-02
      0.4573695180D+03  0.1403732281D-01
      0.1039486850D+03  0.6884262226D-01
      0.2921015530D+02  0.2321844432D+00
      0.9286662960D+01  0.4679413484D+00
      0.3163926960D+01  0.3623119853D+00
 Atom C15      Shell    44 SP   3    bf  121 -   124          4.369703574652         -0.883800459294         -7.253675588614
      0.7868272350D+01 -0.1193324198D+00  0.6899906659D-01
      0.1881288540D+01 -0.1608541517D+00  0.3164239610D+00
      0.5442492580D+00  0.1143456438D+01  0.7443082909D+00
 Atom C15      Shell    45 SP   1    bf  125 -   128          4.369703574652         -0.883800459294         -7.253675588614
      0.1687144782D+00  0.1000000000D+01  0.1000000000D+01
 Atom C15      Shell    46 D   1     bf  129 -   134          4.369703574652         -0.883800459294         -7.253675588614
      0.8000000000D+00  0.1000000000D+01
 Atom C16      Shell    47 S   6     bf  135 -   135          3.658772748658         -1.037995686669          2.612145945747
      0.3047524880D+04  0.1834737132D-02
      0.4573695180D+03  0.1403732281D-01
      0.1039486850D+03  0.6884262226D-01
      0.2921015530D+02  0.2321844432D+00
      0.9286662960D+01  0.4679413484D+00
      0.3163926960D+01  0.3623119853D+00
 Atom C16      Shell    48 SP   3    bf  136 -   139          3.658772748658         -1.037995686669          2.612145945747
      0.7868272350D+01 -0.1193324198D+00  0.6899906659D-01
      0.1881288540D+01 -0.1608541517D+00  0.3164239610D+00
      0.5442492580D+00  0.1143456438D+01  0.7443082909D+00
 Atom C16      Shell    49 SP   1    bf  140 -   143          3.658772748658         -1.037995686669          2.612145945747
      0.1687144782D+00  0.1000000000D+01  0.1000000000D+01
 Atom C16      Shell    50 D   1     bf  144 -   149          3.658772748658         -1.037995686669          2.612145945747
      0.8000000000D+00  0.1000000000D+01
 Atom H17      Shell    51 S   3     bf  150 -   150          5.550322448365         -0.446901654420          3.204682330365
      0.1873113696D+02  0.3349460434D-01
      0.2825394365D+01  0.2347269535D+00
      0.6401216923D+00  0.8137573261D+00
 Atom H17      Shell    52 S   1     bf  151 -   151          5.550322448365         -0.446901654420          3.204682330365
      0.1612777588D+00  0.1000000000D+01
 Atom H18      Shell    53 S   3     bf  152 -   152          3.657672455617         -3.111229760607          2.602024874935
      0.1873113696D+02  0.3349460434D-01
      0.2825394365D+01  0.2347269535D+00
      0.6401216923D+00  0.8137573261D+00
 Atom H18      Shell    54 S   1     bf  153 -   153          3.657672455617         -3.111229760607          2.602024874935
      0.1612777588D+00  0.1000000000D+01
 Atom C19      Shell    55 S   6     bf  154 -   154          0.329300425588          0.489629174866         -4.797010205265
      0.3047524880D+04  0.1834737132D-02
      0.4573695180D+03  0.1403732281D-01
      0.1039486850D+03  0.6884262226D-01
      0.2921015530D+02  0.2321844432D+00
      0.9286662960D+01  0.4679413484D+00
      0.3163926960D+01  0.3623119853D+00
 Atom C19      Shell    56 SP   3    bf  155 -   158          0.329300425588          0.489629174866         -4.797010205265
      0.7868272350D+01 -0.1193324198D+00  0.6899906659D-01
      0.1881288540D+01 -0.1608541517D+00  0.3164239610D+00
      0.5442492580D+00  0.1143456438D+01  0.7443082909D+00
 Atom C19      Shell    57 SP   1    bf  159 -   162          0.329300425588          0.489629174866         -4.797010205265
      0.1687144782D+00  0.1000000000D+01  0.1000000000D+01
 Atom C19      Shell    58 D   1     bf  163 -   168          0.329300425588          0.489629174866         -4.797010205265
      0.8000000000D+00  0.1000000000D+01
 Atom H20      Shell    59 S   3     bf  169 -   169         -0.524442295501         -1.356129739435         -5.181453255150
      0.1873113696D+02  0.3349460434D-01
      0.2825394365D+01  0.2347269535D+00
      0.6401216923D+00  0.8137573261D+00
 Atom H20      Shell    60 S   1     bf  170 -   170         -0.524442295501         -1.356129739435         -5.181453255150
      0.1612777588D+00  0.1000000000D+01
 Atom H21      Shell    61 S   3     bf  171 -   171         -0.245238698669          1.717129810676         -6.362878380518
      0.1873113696D+02  0.3349460434D-01
      0.2825394365D+01  0.2347269535D+00
      0.6401216923D+00  0.8137573261D+00
 Atom H21      Shell    62 S   1     bf  172 -   172         -0.245238698669          1.717129810676         -6.362878380518
      0.1612777588D+00  0.1000000000D+01
 Atom C22      Shell    63 S   6     bf  173 -   173          1.563081925248          0.013200738593          4.378072113448
      0.3047524880D+04  0.1834737132D-02
      0.4573695180D+03  0.1403732281D-01
      0.1039486850D+03  0.6884262226D-01
      0.2921015530D+02  0.2321844432D+00
      0.9286662960D+01  0.4679413484D+00
      0.3163926960D+01  0.3623119853D+00
 Atom C22      Shell    64 SP   3    bf  174 -   177          1.563081925248          0.013200738593          4.378072113448
      0.7868272350D+01 -0.1193324198D+00  0.6899906659D-01
      0.1881288540D+01 -0.1608541517D+00  0.3164239610D+00
      0.5442492580D+00  0.1143456438D+01  0.7443082909D+00
 Atom C22      Shell    65 SP   1    bf  178 -   181          1.563081925248          0.013200738593          4.378072113448
      0.1687144782D+00  0.1000000000D+01  0.1000000000D+01
 Atom C22      Shell    66 D   1     bf  182 -   187          1.563081925248          0.013200738593          4.378072113448
      0.8000000000D+00  0.1000000000D+01
 Atom H23      Shell    67 S   3     bf  188 -   188          0.745428513543         -1.501110208651          5.532289321002
      0.1873113696D+02  0.3349460434D-01
      0.2825394365D+01  0.2347269535D+00
      0.6401216923D+00  0.8137573261D+00
 Atom H23      Shell    68 S   1     bf  189 -   189          0.745428513543         -1.501110208651          5.532289321002
      0.1612777588D+00  0.1000000000D+01
 Atom H24      Shell    69 S   3     bf  190 -   190          2.328830096980          1.404537871123          5.701804860492
      0.1873113696D+02  0.3349460434D-01
      0.2825394365D+01  0.2347269535D+00
      0.6401216923D+00  0.8137573261D+00
 Atom H24      Shell    70 S   1     bf  191 -   191          2.328830096980          1.404537871123          5.701804860492
      0.1612777588D+00  0.1000000000D+01
 Atom C25      Shell    71 S   6     bf  192 -   192          7.080931678793         -0.964390532540         -2.185756720479
      0.3047524880D+04  0.1834737132D-02
      0.4573695180D+03  0.1403732281D-01
      0.1039486850D+03  0.6884262226D-01
      0.2921015530D+02  0.2321844432D+00
      0.9286662960D+01  0.4679413484D+00
      0.3163926960D+01  0.3623119853D+00
 Atom C25      Shell    72 SP   3    bf  193 -   196          7.080931678793         -0.964390532540         -2.185756720479
      0.7868272350D+01 -0.1193324198D+00  0.6899906659D-01
      0.1881288540D+01 -0.1608541517D+00  0.3164239610D+00
      0.5442492580D+00  0.1143456438D+01  0.7443082909D+00
 Atom C25      Shell    73 SP   1    bf  197 -   200          7.080931678793         -0.964390532540         -2.185756720479
      0.1687144782D+00  0.1000000000D+01  0.1000000000D+01
 Atom C25      Shell    74 D   1     bf  201 -   206          7.080931678793         -0.964390532540         -2.185756720479
      0.8000000000D+00  0.1000000000D+01
 Atom H26      Shell    75 S   3     bf  207 -   207          7.802141877956         -2.344614053402         -0.814150142913
      0.1873113696D+02  0.3349460434D-01
      0.2825394365D+01  0.2347269535D+00
      0.6401216923D+00  0.8137573261D+00
 Atom H26      Shell    76 S   1     bf  208 -   208          7.802141877956         -2.344614053402         -0.814150142913
      0.1612777588D+00  0.1000000000D+01
 Atom H27      Shell    77 S   3     bf  209 -   209          7.617608873861          0.899507220404         -1.423526462916
      0.1873113696D+02  0.3349460434D-01
      0.2825394365D+01  0.2347269535D+00
      0.6401216923D+00  0.8137573261D+00
 Atom H27      Shell    78 S   1     bf  210 -   210          7.617608873861          0.899507220404         -1.423526462916
      0.1612777588D+00  0.1000000000D+01
 Atom C28      Shell    79 S   6     bf  211 -   211         -3.191718374456          1.070804072439          3.835707107281
      0.3047524880D+04  0.1834737132D-02
      0.4573695180D+03  0.1403732281D-01
      0.1039486850D+03  0.6884262226D-01
      0.2921015530D+02  0.2321844432D+00
      0.9286662960D+01  0.4679413484D+00
      0.3163926960D+01  0.3623119853D+00
 Atom C28      Shell    80 SP   3    bf  212 -   215         -3.191718374456          1.070804072439          3.835707107281
      0.7868272350D+01 -0.1193324198D+00  0.6899906659D-01
      0.1881288540D+01 -0.1608541517D+00  0.3164239610D+00
      0.5442492580D+00  0.1143456438D+01  0.7443082909D+00
 Atom C28      Shell    81 SP   1    bf  216 -   219         -3.191718374456          1.070804072439          3.835707107281
      0.1687144782D+00  0.1000000000D+01  0.1000000000D+01
 Atom C28      Shell    82 D   1     bf  220 -   225         -3.191718374456          1.070804072439          3.835707107281
      0.8000000000D+00  0.1000000000D+01
 Atom H29      Shell    83 S   3     bf  226 -   226         -3.614626176166         -0.937353559352          4.160185896641
      0.1873113696D+02  0.3349460434D-01
      0.2825394365D+01  0.2347269535D+00
      0.6401216923D+00  0.8137573261D+00
 Atom H29      Shell    84 S   1     bf  227 -   227         -3.614626176166         -0.937353559352          4.160185896641
      0.1612777588D+00  0.1000000000D+01
 Atom C30      Shell    85 S   6     bf  228 -   228         -1.119161899618         -2.696772851957         -0.101216528472
      0.3047524880D+04  0.1834737132D-02
      0.4573695180D+03  0.1403732281D-01
      0.1039486850D+03  0.6884262226D-01
      0.2921015530D+02  0.2321844432D+00
      0.9286662960D+01  0.4679413484D+00
      0.3163926960D+01  0.3623119853D+00
 Atom C30      Shell    86 SP   3    bf  229 -   232         -1.119161899618         -2.696772851957         -0.101216528472
      0.7868272350D+01 -0.1193324198D+00  0.6899906659D-01
      0.1881288540D+01 -0.1608541517D+00  0.3164239610D+00
      0.5442492580D+00  0.1143456438D+01  0.7443082909D+00
 Atom C30      Shell    87 SP   1    bf  233 -   236         -1.119161899618         -2.696772851957         -0.101216528472
      0.1687144782D+00  0.1000000000D+01  0.1000000000D+01
 Atom C30      Shell    88 D   1     bf  237 -   242         -1.119161899618         -2.696772851957         -0.101216528472
      0.8000000000D+00  0.1000000000D+01
 Atom H31      Shell    89 S   3     bf  243 -   243         -3.185097057545         -2.626451437134         -0.197326827960
      0.1873113696D+02  0.3349460434D-01
      0.2825394365D+01  0.2347269535D+00
      0.6401216923D+00  0.8137573261D+00
 Atom H31      Shell    90 S   1     bf  244 -   244         -3.185097057545         -2.626451437134         -0.197326827960
      0.1612777588D+00  0.1000000000D+01
 Atom H32      Shell    91 S   3     bf  245 -   245         -0.468719695357         -3.756025519875         -1.750273055916
      0.1873113696D+02  0.3349460434D-01
      0.2825394365D+01  0.2347269535D+00
      0.6401216923D+00  0.8137573261D+00
 Atom H32      Shell    92 S   1     bf  246 -   246         -0.468719695357         -3.756025519875         -1.750273055916
      0.1612777588D+00  0.1000000000D+01
 Atom H33      Shell    93 S   3     bf  247 -   247         -0.620156451701         -3.805978389293          1.571202739845
      0.1873113696D+02  0.3349460434D-01
      0.2825394365D+01  0.2347269535D+00
      0.6401216923D+00  0.8137573261D+00
 Atom H33      Shell    94 S   1     bf  248 -   248         -0.620156451701         -3.805978389293          1.571202739845
      0.1612777588D+00  0.1000000000D+01
 Atom C34      Shell    95 S   6     bf  249 -   249          7.214049448902         -1.360536618571         -6.939312805600
      0.3047524880D+04  0.1834737132D-02
      0.4573695180D+03  0.1403732281D-01
      0.1039486850D+03  0.6884262226D-01
      0.2921015530D+02  0.2321844432D+00
      0.9286662960D+01  0.4679413484D+00
      0.3163926960D+01  0.3623119853D+00
 Atom C34      Shell    96 SP   3    bf  250 -   253          7.214049448902         -1.360536618571         -6.939312805600
      0.7868272350D+01 -0.1193324198D+00  0.6899906659D-01
      0.1881288540D+01 -0.1608541517D+00  0.3164239610D+00
      0.5442492580D+00  0.1143456438D+01  0.7443082909D+00
 Atom C34      Shell    97 SP   1    bf  254 -   257          7.214049448902         -1.360536618571         -6.939312805600
      0.1687144782D+00  0.1000000000D+01  0.1000000000D+01
 Atom C34      Shell    98 D   1     bf  258 -   263          7.214049448902         -1.360536618571         -6.939312805600
      0.8000000000D+00  0.1000000000D+01
 Atom C35      Shell    99 S   6     bf  264 -   264          4.003158291047          1.080312153887         -9.422865439134
      0.3047524880D+04  0.1834737132D-02
      0.4573695180D+03  0.1403732281D-01
      0.1039486850D+03  0.6884262226D-01
      0.2921015530D+02  0.2321844432D+00
      0.9286662960D+01  0.4679413484D+00
      0.3163926960D+01  0.3623119853D+00
 Atom C35      Shell   100 SP   3    bf  265 -   268          4.003158291047          1.080312153887         -9.422865439134
      0.7868272350D+01 -0.1193324198D+00  0.6899906659D-01
      0.1881288540D+01 -0.1608541517D+00  0.3164239610D+00
      0.5442492580D+00  0.1143456438D+01  0.7443082909D+00
 Atom C35      Shell   101 SP   1    bf  269 -   272          4.003158291047          1.080312153887         -9.422865439134
      0.1687144782D+00  0.1000000000D+01  0.1000000000D+01
 Atom C35      Shell   102 D   1     bf  273 -   278          4.003158291047          1.080312153887         -9.422865439134
      0.8000000000D+00  0.1000000000D+01
 Atom H36      Shell   103 S   3     bf  279 -   279          4.615880295579          2.937565176214         -8.724337849510
      0.1873113696D+02  0.3349460434D-01
      0.2825394365D+01  0.2347269535D+00
      0.6401216923D+00  0.8137573261D+00
 Atom H36      Shell   104 S   1     bf  280 -   280          4.615880295579          2.937565176214         -8.724337849510
      0.1612777588D+00  0.1000000000D+01
 Atom H37      Shell   105 S   3     bf  281 -   281          1.987535541832          1.254218056308         -9.861362574372
      0.1873113696D+02  0.3349460434D-01
      0.2825394365D+01  0.2347269535D+00
      0.6401216923D+00  0.8137573261D+00
 Atom H37      Shell   106 S   1     bf  282 -   282          1.987535541832          1.254218056308         -9.861362574372
      0.1612777588D+00  0.1000000000D+01
 Atom C38      Shell   107 S   6     bf  283 -   283          8.371234773704         -1.354704054451         -4.684421002569
      0.3047524880D+04  0.1834737132D-02
      0.4573695180D+03  0.1403732281D-01
      0.1039486850D+03  0.6884262226D-01
      0.2921015530D+02  0.2321844432D+00
      0.9286662960D+01  0.4679413484D+00
      0.3163926960D+01  0.3623119853D+00
 Atom C38      Shell   108 SP   3    bf  284 -   287          8.371234773704         -1.354704054451         -4.684421002569
      0.7868272350D+01 -0.1193324198D+00  0.6899906659D-01
      0.1881288540D+01 -0.1608541517D+00  0.3164239610D+00
      0.5442492580D+00  0.1143456438D+01  0.7443082909D+00
 Atom C38      Shell   109 SP   1    bf  288 -   291          8.371234773704         -1.354704054451         -4.684421002569
      0.1687144782D+00  0.1000000000D+01  0.1000000000D+01
 Atom C38      Shell   110 D   1     bf  292 -   297          8.371234773704         -1.354704054451         -4.684421002569
      0.8000000000D+00  0.1000000000D+01
 Atom H39      Shell   111 S   3     bf  298 -   298         10.408443392103         -1.660773812126         -4.623056303801
      0.1873113696D+02  0.3349460434D-01
      0.2825394365D+01  0.2347269535D+00
      0.6401216923D+00  0.8137573261D+00
 Atom H39      Shell   112 S   1     bf  299 -   299         10.408443392103         -1.660773812126         -4.623056303801
      0.1612777588D+00  0.1000000000D+01
 Atom C40      Shell   113 S   6     bf  300 -   300          3.066084770210         -3.407134586926         -7.987074407951
      0.3047524880D+04  0.1834737132D-02
      0.4573695180D+03  0.1403732281D-01
      0.1039486850D+03  0.6884262226D-01
      0.2921015530D+02  0.2321844432D+00
      0.9286662960D+01  0.4679413484D+00
      0.3163926960D+01  0.3623119853D+00
 Atom C40      Shell   114 SP   3    bf  301 -   304          3.066084770210         -3.407134586926         -7.987074407951
      0.7868272350D+01 -0.1193324198D+00  0.6899906659D-01
      0.1881288540D+01 -0.1608541517D+00  0.3164239610D+00
      0.5442492580D+00  0.1143456438D+01  0.7443082909D+00
[...]
 **** Fit       0.006735
 **** Fit       0.006010
 **** Fit       0.005318
 **** Fit       0.004704
 **** Fit       0.001180
 **** Fit       0.003745
 **** Fit       0.007163
 **** Fit       0.011464
 **** Fit       0.016471
 **** Fit       0.021686
 **** Fit       0.026267
 **** Fit       0.029276
 **** Fit       0.030146
 **** Fit       0.029013
 **** Fit       0.026577
 **** Fit       0.023658
 **** Fit       0.020860
 **** Fit       0.018474
 **** Fit       0.016523
 **** Fit       0.014880
 **** Fit       0.013409
 **** Fit       0.012068
 **** Fit       0.010915
 **** Fit       0.010017
 **** Fit       0.009386
 **** Fit       0.008944
 **** Fit       0.008559
 **** Fit       0.008101
 **** Fit       0.007508
 **** Fit       0.006805
 **** Fit       0.006065
 **** Fit       0.005360
 **** Fit       0.004735
 **** Fit       0.001310
 **** Fit       0.004048
 **** Fit       0.007742
 **** Fit       0.012453
 **** Fit       0.018013
 **** Fit       0.023872
 **** Fit       0.029050
 **** Fit       0.032410
 **** Fit       0.033258
 **** Fit       0.031771
 **** Fit       0.028809
 **** Fit       0.025340
 **** Fit       0.022045
 **** Fit       0.019234
 **** Fit       0.016936
 **** Fit       0.015032
 **** Fit       0.013388
 **** Fit       0.011947
 **** Fit       0.010734
 **** Fit       0.009793
 **** Fit       0.009121
 **** Fit       0.008642
 **** Fit       0.008235
 **** Fit       0.007779
 **** Fit       0.007215
 **** Fit       0.006558
 **** Fit       0.005869
 **** Fit       0.005212
 **** Fit       0.004625
 **** Fit       0.001214
 **** Fit       0.003968
 **** Fit       0.007704
 **** Fit       0.012496
 **** Fit       0.018183
 **** Fit       0.024210
 **** Fit       0.029561
 **** Fit       0.033047
 **** Fit       0.033929
 **** Fit       0.032385
 **** Fit       0.029301
 **** Fit       0.025675
 **** Fit       0.022197
 **** Fit       0.019188
 **** Fit       0.016699
 **** Fit       0.014639
 **** Fit       0.012898
 **** Fit       0.011414
 **** Fit       0.010184
 **** Fit       0.009222
 **** Fit       0.008514
 **** Fit       0.007995
 **** Fit       0.007567
 **** Fit       0.007128
 **** Fit       0.006625
 **** Fit       0.006059
 **** Fit       0.005472
 **** Fit       0.004908
 **** Fit       0.004398
 **** Fit       0.000898
 **** Fit       0.003505
 **** Fit       0.007036
 **** Fit       0.011551
 **** Fit       0.016895
 **** Fit       0.022548
 **** Fit       0.027584
 **** Fit       0.030930
 **** Fit       0.031909
 **** Fit       0.030649
 **** Fit       0.027913
 **** Fit       0.024585
 **** Fit       0.021302
 **** Fit       0.018382
 **** Fit       0.015907
 **** Fit       0.013835
 **** Fit       0.012090
 **** Fit       0.010619
 **** Fit       0.009404
 **** Fit       0.008440
 **** Fit       0.007709
 **** Fit       0.007159
 **** Fit       0.006716
 **** Fit       0.006305
 **** Fit       0.005876
 **** Fit       0.005421
 **** Fit       0.004955
 **** Fit       0.004507
 **** Fit       0.002748
 **** Fit       0.005879
 **** Fit       0.009846
 **** Fit       0.014496
 **** Fit       0.019383
 **** Fit       0.023755
 **** Fit       0.026762
 **** Fit       0.027858
 **** Fit       0.027098
 **** Fit       0.025030
 **** Fit       0.022338
 **** Fit       0.019551
 **** Fit       0.016968
 **** Fit       0.014702
 **** Fit       0.012757
 **** Fit       0.011099
 **** Fit       0.009694
 **** Fit       0.008525
 **** Fit       0.007582
 **** Fit       0.006847
 **** Fit       0.006284
 **** Fit       0.005841
 **** Fit       0.005463
 **** Fit       0.005108
 **** Fit       0.004756
 **** Fit       0.004408
 **** Fit       0.004074
 **** Fit       0.001839
 **** Fit       0.004473
 **** Fit       0.007765
 **** Fit       0.011575
 **** Fit       0.015552
 **** Fit       0.019137
 **** Fit       0.021720
 **** Fit       0.022898
 **** Fit       0.022660
 **** Fit       0.021342
 **** Fit       0.019410
 **** Fit       0.017265
 **** Fit       0.015164
 **** Fit       0.013235
 **** Fit       0.011522
 **** Fit       0.010024
 **** Fit       0.008733
 **** Fit       0.007641
 **** Fit       0.006030
 **** Fit       0.005476
 **** Fit       0.005047
 **** Fit       0.004704
 **** Fit       0.004412
 **** Fit       0.004146
 **** Fit       0.003056
 **** Fit       0.005680
 **** Fit       0.008681
 **** Fit       0.011799
 **** Fit       0.014648
 **** Fit       0.016813
 **** Fit       0.018009
 **** Fit       0.018186
 **** Fit       0.017518
 **** Fit       0.016292
 **** Fit       0.014783
 **** Fit       0.013198
 **** Fit       0.001798
 **** Fit       0.003843
 **** Fit       0.006159
 **** Fit       0.008566
 **** Fit       0.010804
 **** Fit       0.012600
 **** Fit       0.013754
 **** Fit       0.014199
 **** Fit       0.014008
 **** Fit       0.013342
 **** Fit       0.012375
 **** Fit       0.004146
 **** Fit       0.006002
 **** Fit       0.007764
 **** Fit       0.009250
 **** Fit       0.010320
 **** Fit       0.010905
 **** Fit       0.011024
 **** Fit       0.010755
 **** Fit       0.005479
 **** Fit       0.006711
 **** Fit       0.007674
 **** Fit       0.008309
 **** Fit       0.006118
 **** Fit       0.008458
 **** Fit       0.008121
 **** Fit       0.007744
 **** Fit       0.007346
 **** Fit       0.006939
 **** Fit       0.006535
 **** Fit       0.006148
 **** Fit       0.007638
 **** Fit       0.009048
 **** Fit       0.010144
 **** Fit       0.010842
 **** Fit       0.011131
 **** Fit       0.011069
 **** Fit       0.010755
 **** Fit       0.010293
 **** Fit       0.009767
 **** Fit       0.009224
 **** Fit       0.008679
 **** Fit       0.008140
 **** Fit       0.007616
 **** Fit       0.007125
 **** Fit       0.006687
 **** Fit       0.005976
 **** Fit       0.005668
 **** Fit       0.005360
 **** Fit       0.005035
 **** Fit       0.005799
 **** Fit       0.007855
 **** Fit       0.009865
 **** Fit       0.011624
 **** Fit       0.012938
 **** Fit       0.013691
 **** Fit       0.013879
 **** Fit       0.013603
 **** Fit       0.013018
 **** Fit       0.012282
 **** Fit       0.011510
 **** Fit       0.010756
 **** Fit       0.010033
 **** Fit       0.009337
 **** Fit       0.008674
 **** Fit       0.008067
 **** Fit       0.007537
 **** Fit       0.007092
 **** Fit       0.006711
 **** Fit       0.006360
 **** Fit       0.006001
 **** Fit       0.005613
 **** Fit       0.005198
 **** Fit       0.004772
 **** Fit       0.004920
 **** Fit       0.007282
 **** Fit       0.009826
 **** Fit       0.012324
 **** Fit       0.014490
 **** Fit       0.016051
 **** Fit       0.016843
 **** Fit       0.016876
 **** Fit       0.016307
 **** Fit       0.015372
 **** Fit       0.014292
 **** Fit       0.013217
 **** Fit       0.012212
 **** Fit       0.011282
 **** Fit       0.010412
 **** Fit       0.009601
 **** Fit       0.008874
 **** Fit       0.008254
 **** Fit       0.007745
 **** Fit       0.007320
 **** Fit       0.006931
 **** Fit       0.006529
 **** Fit       0.006088
 **** Fit       0.005609
 **** Fit       0.005116
 **** Fit       0.005909
 **** Fit       0.008709
 **** Fit       0.011761
 **** Fit       0.014779
 **** Fit       0.017382
 **** Fit       0.019201
 **** Fit       0.020015
 **** Fit       0.019848
 **** Fit       0.018935
 **** Fit       0.017598
 **** Fit       0.016130
 **** Fit       0.014718
 **** Fit       0.013438
 **** Fit       0.012287
 **** Fit       0.011238
 **** Fit       0.010284
 **** Fit       0.009445
 **** Fit       0.008744
 **** Fit       0.008179
 **** Fit       0.007717
 **** Fit       0.007297
 **** Fit       0.006864
 **** Fit       0.006386
 **** Fit       0.005865
 **** Fit       0.005328
 **** Fit       0.004809
 **** Fit       0.004014
 **** Fit       0.006692
 **** Fit       0.009870
 **** Fit       0.013374
 **** Fit       0.016865
 **** Fit       0.019872
 **** Fit       0.021927
 **** Fit       0.022752
 **** Fit       0.022385
 **** Fit       0.021134
 **** Fit       0.019411
 **** Fit       0.017572
 **** Fit       0.015837
 **** Fit       0.014290
 **** Fit       0.012928
 **** Fit       0.011717
 **** Fit       0.010641
 **** Fit       0.009713
 **** Fit       0.008946
 **** Fit       0.008335
 **** Fit       0.007840
 **** Fit       0.007398
 **** Fit       0.006948
 **** Fit       0.006456
 **** Fit       0.005923
 **** Fit       0.005377
 **** Fit       0.004849
 **** Fit       0.004266
 **** Fit       0.007124
 **** Fit       0.010545
 **** Fit       0.014348
 **** Fit       0.018162
 **** Fit       0.021452
 **** Fit       0.023676
 **** Fit       0.024512
 **** Fit       0.024007
 **** Fit       0.022519
 **** Fit       0.020522
 **** Fit       0.018412
 **** Fit       0.016432
 **** Fit       0.014677
 **** Fit       0.013148
 **** Fit       0.011813
 **** Fit       0.010651
 **** Fit       0.009661
 **** Fit       0.008849
 **** Fit       0.008202
 **** Fit       0.007681
 **** Fit       0.007223
 **** Fit       0.006772
 **** Fit       0.006291
 **** Fit       0.005779
 **** Fit       0.005257
 **** Fit       0.004755
 **** Fit       0.004220
 **** Fit       0.007107
 **** Fit       0.010577
 **** Fit       0.014450
 **** Fit       0.018347
 **** Fit       0.021720
 **** Fit       0.024007
 **** Fit       0.024867
 **** Fit       0.024343
 **** Fit       0.022803
 **** Fit       0.020726
 **** Fit       0.018519
 **** Fit       0.016434
 **** Fit       0.014575
 **** Fit       0.012957
 **** Fit       0.011556
 **** Fit       0.010349
 **** Fit       0.009330
 **** Fit       0.008494
 **** Fit       0.007825
 **** Fit       0.007284
 **** Fit       0.006820
 **** Fit       0.006379
 **** Fit       0.005930
 **** Fit       0.005465
 **** Fit       0.004997
 **** Fit       0.003875
 **** Fit       0.006634
 **** Fit       0.009946
 **** Fit       0.013638
 **** Fit       0.017357
 **** Fit       0.020591
 **** Fit       0.022817
 **** Fit       0.023714
 **** Fit       0.023308
 **** Fit       0.021920
 **** Fit       0.019987
 **** Fit       0.017886
 **** Fit       0.015860
 **** Fit       0.014026
 **** Fit       0.012414
 **** Fit       0.011014
 **** Fit       0.009812
 **** Fit       0.008795
 **** Fit       0.007957
 **** Fit       0.007280
 **** Fit       0.006732
 **** Fit       0.006270
 **** Fit       0.005851
 **** Fit       0.005445
 **** Fit       0.005041
 **** Fit       0.003287
 **** Fit       0.005790
 **** Fit       0.008777
 **** Fit       0.012091
 **** Fit       0.015425
 **** Fit       0.018344
 **** Fit       0.020410
 **** Fit       0.021344
 **** Fit       0.021149
 **** Fit       0.020068
 **** Fit       0.018454
 **** Fit       0.016628
 **** Fit       0.014810
 **** Fit       0.013120
 **** Fit       0.011605
 **** Fit       0.010274
 **** Fit       0.009120
 **** Fit       0.006111
 **** Fit       0.005662
 **** Fit       0.005272
 **** Fit       0.004914
 **** Fit       0.004724
 **** Fit       0.007293
 **** Fit       0.010124
 **** Fit       0.012968
 **** Fit       0.015484
 **** Fit       0.017330
 **** Fit       0.018284
 **** Fit       0.018324
 **** Fit       0.017612
 **** Fit       0.016403
 **** Fit       0.014946
 **** Fit       0.005728
 **** Fit       0.008062
 **** Fit       0.010406
 **** Fit       0.012508
 **** Fit       0.014118
 **** Fit       0.015063
 **** Fit       0.015307
 **** Fit       0.014941
 **** Fit       0.014134
 **** Fit       0.013065
 **** Fit       0.006147
 **** Fit       0.008042
 **** Fit       0.009770
 **** Fit       0.011153
 **** Fit       0.012060
 **** Fit       0.012449
 **** Fit       0.012360
 **** Fit       0.011896
 **** Fit       0.006033
 **** Fit       0.007445
 **** Fit       0.008624
 **** Fit       0.009471
 **** Fit       0.009942
 **** Fit       0.008456
 **** Fit       0.007983
 **** Fit       0.007511
 **** Fit       0.008623
 **** Fit       0.009983
 **** Fit       0.011022
 **** Fit       0.011663
 **** Fit       0.011899
 **** Fit       0.010286
 **** Fit       0.009664
 **** Fit       0.009048
 **** Fit       0.008452
 **** Fit       0.007887
 **** Fit       0.008501
 **** Fit       0.010365
 **** Fit       0.011975
 **** Fit       0.013169
 **** Fit       0.013848
 **** Fit       0.014008
 **** Fit       0.013732
 **** Fit       0.012404
 **** Fit       0.011596
 **** Fit       0.010791
 **** Fit       0.010018
 **** Fit       0.009289
 **** Fit       0.008612
 **** Fit       0.007999
 **** Fit       0.007606
 **** Fit       0.009852
 **** Fit       0.012020
 **** Fit       0.013882
 **** Fit       0.015229
 **** Fit       0.015936
 **** Fit       0.016003
 **** Fit       0.015546
 **** Fit       0.014740
 **** Fit       0.013758
 **** Fit       0.012731
 **** Fit       0.011736
 **** Fit       0.010803
 **** Fit       0.009942
 **** Fit       0.009158
 **** Fit       0.008458
 **** Fit       0.006465
 **** Fit       0.006061
 **** Fit       0.005649
 **** Fit       0.008426
 **** Fit       0.010936
 **** Fit       0.013368
 **** Fit       0.015450
 **** Fit       0.016929
 **** Fit       0.017655
 **** Fit       0.017635
 **** Fit       0.017010
 **** Fit       0.015995
 **** Fit       0.014799
 **** Fit       0.013572
 **** Fit       0.012403
 **** Fit       0.011326
 **** Fit       0.010348
 **** Fit       0.009471
 **** Fit       0.008700
 **** Fit       0.006995
 **** Fit       0.006560
 **** Fit       0.006139
 **** Fit       0.005714
 **** Fit       0.006377
 **** Fit       0.008893
 **** Fit       0.011573
 **** Fit       0.014179
 **** Fit       0.016408
 **** Fit       0.017978
 **** Fit       0.018720
 **** Fit       0.018641
 **** Fit       0.017904
 **** Fit       0.016745
 **** Fit       0.015397
 **** Fit       0.014025
 **** Fit       0.012727
 **** Fit       0.011541
 **** Fit       0.010476
 **** Fit       0.009532
 **** Fit       0.008711
 **** Fit       0.006468
 **** Fit       0.006043
 **** Fit       0.005621
 **** Fit       0.006370
 **** Fit       0.008917
 **** Fit       0.011637
 **** Fit       0.014288
 **** Fit       0.016561
 **** Fit       0.018164
 **** Fit       0.018922
 **** Fit       0.018838
 **** Fit       0.018074
 **** Fit       0.016874
 **** Fit       0.015472
 **** Fit       0.014041
 **** Fit       0.012683
 **** Fit       0.011442
 **** Fit       0.010333
 **** Fit       0.009355
 **** Fit       0.006033
 **** Fit       0.008486
 **** Fit       0.011108
 **** Fit       0.013666
 **** Fit       0.015870
 **** Fit       0.017443
 **** Fit       0.018216
 **** Fit       0.018183
 **** Fit       0.017491
 **** Fit       0.016364
 **** Fit       0.015020
 **** Fit       0.007674
 **** Fit       0.010081
 **** Fit       0.012433
 **** Fit       0.014474
 **** Fit       0.015961
 **** Fit       0.016743
 **** Fit       0.016805
 **** Fit       0.016262
 **** Fit       0.015301
 **** Fit       0.014111
 **** Fit       0.006612
 **** Fit       0.008733
 **** Fit       0.010808
 **** Fit       0.012628
 **** Fit       0.013992
 **** Fit       0.014771
 **** Fit       0.014944
 **** Fit       0.014589
 **** Fit       0.013848
 **** Fit       0.007258
 **** Fit       0.009034
 **** Fit       0.010612
 **** Fit       0.011835
 **** Fit       0.012597
 **** Fit       0.012870
 **** Fit       0.012703
 **** Fit       0.008653
 **** Fit       0.009732
 **** Fit       0.010461
 **** Fit       0.011258
 **** Fit       0.012285
 **** Fit       0.012889
 **** Fit       0.013063
 **** Fit       0.010784
 **** Fit       0.012287
 **** Fit       0.013393
 **** Fit       0.014016
 **** Fit       0.014150
 **** Fit       0.013864
 **** Fit       0.009460
 **** Fit       0.011313
 **** Fit       0.012899
 **** Fit       0.014058
 **** Fit       0.014695
 **** Fit       0.014804
 **** Fit       0.014460
 **** Fit       0.009502
 **** Fit       0.011381
 **** Fit       0.012992
 **** Fit       0.014170
 **** Fit       0.014817
 **** Fit       0.014924
 **** Fit       0.014567
 **** Fit       0.009146
 **** Fit       0.010974
 **** Fit       0.012547
 **** Fit       0.013709
 **** Fit       0.014361
 **** Fit       0.014492
 **** Fit       0.014171
 **** Fit       0.010157
 **** Fit       0.011638
 **** Fit       0.012750
 **** Fit       0.013401
 **** Fit       0.013576
 **** Fit       0.010404
 **** Fit       0.011441
 **** Fit       0.012083
 -----------------------------------------------------------------
 Leave Link  602 at Mon Mar 20 13:07:15 2017, MaxMem=    33554432 cpu:        47.7
 (Enter /home/michal/g09/l9999.exe)

 Test job not archived.
 1\1\GINC-LINUX\SP\RHF\6-31G(d)\C27H46O1\MICHAL\20-Mar-2017\0\\#P HF/6-
 31G* SCF(Conver=6) NoSymm Test Pop=chelpg IOp(6/33=2) GFInput GFPrint\
 \MEP - Input generated by R.E.D.-III.x MOLECULE\\0,1\O,0,5.01080724,-0
 .22473354,-7.24813061\H,0,5.9619451,-0.31108107,-7.10039386\C,0,0.,0.,
 0.\C,0,1.55489767,0.,0.\H,0,1.84122193,1.06608906,0.\C,0,2.21528514,-0
 .60524915,-1.24589883\H,0,1.94786742,-1.66921226,-1.31619141\C,0,1.714
 82499,0.13005343,-2.5163686\H,0,2.11893289,1.15334387,-2.44238898\C,0,
 -0.27226814,0.64908475,1.40239546\H,0,-0.0377943,1.71996023,1.29179401
 \C,0,-0.43278179,0.81801433,-1.23489988\H,0,-0.10854028,1.85974063,-1.
 0967619\H,0,-1.5214436,0.84426815,-1.34483731\C,0,2.31234754,-0.467687
 06,-3.8384798\C,0,1.93613915,-0.54928366,1.3822881\H,0,2.93710414,-0.2
 3649017,1.69584485\H,0,1.9355569,-1.64639188,1.37693226\C,0,0.17425828
 ,0.2591006,-2.53846847\H,0,-0.27752291,-0.71763295,-2.74190697\H,0,-0.
 12977473,0.90866596,-3.36709022\C,0,0.82714733,0.00698553,2.31677598\H
 ,0,0.39446378,-0.79435331,2.92756142\H,0,1.23236381,0.74324943,3.01726
 518\C,0,3.74706766,-0.51033349,-1.15665264\H,0,4.12871566,-1.24071632,
 -0.4308297\H,0,4.031065,0.47599872,-0.75329776\C,0,-1.68898462,0.56664
 511,2.02976878\H,0,-1.91277779,-0.49602614,2.20147556\C,0,-0.59223497,
 -1.42707073,-0.05356148\H,0,-1.68548077,-1.38985824,-0.10442086\H,0,-0
 .24803578,-1.9876031,-0.92620461\H,0,-0.32817266,-2.01403702,0.8314446
 8\C,0,3.81751055,-0.71996497,-3.67212618\C,0,2.11838013,0.57167657,-4.
 98636563\H,0,2.44261865,1.55449254,-4.61672075\H,0,1.05175851,0.663703
 61,-5.21840832\C,0,4.42986665,-0.71687851,-2.47888883\H,0,5.50791102,-
 0.87884365,-2.44641603\C,0,1.62250218,-1.80297797,-4.22657774\H,0,0.58
 374929,-1.64284049,-4.53221805\H,0,2.13138321,-2.28936523,-5.06247746\
 H,0,1.62939387,-2.50881729,-3.39024622\C,0,4.60745695,-0.97844058,-4.9
 4171395\H,0,5.67561578,-1.05089278,-4.69952435\H,0,4.31951526,-1.93911
 377,-5.3917028\C,0,2.88558145,0.25916267,-6.27938711\H,0,2.51981976,-0
 .66483306,-6.74435595\H,0,2.72990641,1.06085724,-7.01022496\C,0,-1.693
 56495,1.28055845,3.40610748\H,0,-0.87882695,0.88197427,4.01978524\H,0,
 -1.45143694,2.34126784,3.24168763\C,0,4.37588034,0.10376904,-6.0061989
 9\H,0,4.77295563,1.0626204,-5.63377182\C,0,-2.79015298,1.14145353,1.12
 245897\H,0,-2.57803982,2.18557021,0.85945483\H,0,-3.76557996,1.1174514
 7,1.61742922\H,0,-2.89272098,0.57810222,0.19265895\C,0,-2.99861665,1.2
 0926131,4.22439123\H,0,-2.84582525,1.78109105,5.14863271\H,0,-3.801507
 93,1.734114,3.69250756\C,0,-3.50061762,-0.20412505,4.57609179\H,0,-3.7
 5057529,-0.74022942,3.65044348\H,0,-4.44753796,-0.10584904,5.12748173\
 C,0,-2.54902112,-1.08923735,5.40879655\H,0,-1.60584224,-1.19823342,4.8
 5412777\C,0,-3.14633329,-2.49517181,5.5809057\H,0,-3.35031683,-2.96445
 724,4.61152281\H,0,-2.46632272,-3.15212011,6.13522793\H,0,-4.09265861,
 -2.45256302,6.13537354\C,0,-2.22004113,-0.47266475,6.77780321\H,0,-1.7
 1733813,0.49544871,6.6853453\H,0,-1.56174621,-1.13145579,7.35552847\H,
 0,-3.13476412,-0.31912146,7.36515658\\Version=EM64L-G09RevD.01\HF=-112
 4.0775214\RMSD=4.548e-07\Dipole=0.2064782,0.0910428,0.6303863\Quadrupo
 le=10.1722178,2.8811469,-13.0533647,0.2187191,3.0096281,-0.7578018\PG=
 C01 [X(C27H46O1)]\\@


 The arm of the moral universe is long, but it bends toward justice.
 -- Martin Luther King, Jr.
 Job cpu time:       0 days  0 hours 11 minutes 15.4 seconds.
 File lengths (MBytes):  RWF=    142 Int=      0 D2E=      0 Chk=     10 Scr=      1
 Normal termination of Gaussian 09 at Mon Mar 20 13:07:15 2017.
