 Entering Gaussian System, Link 0=/home/michal/g09/g09
 Input=JOB2-gau_m1-8-1.com
 Output=JOB2-gau_m1-8-1.log
 Initial command:
 /home/michal/g09/l1.exe "/home/michal/gauss_scratch/Gau-22452.inp" -scrdir="/home/michal/gauss_scratch/"
 Entering Link 1 = /home/michal/g09/l1.exe PID=     22453.
  
 Copyright (c) 1988,1990,1992,1993,1995,1998,2003,2009,2013,
            Gaussian, Inc.  All Rights Reserved.
  
 This is part of the Gaussian(R) 09 program.  It is based on
 the Gaussian(R) 03 system (copyright 2003, Gaussian, Inc.),
 the Gaussian(R) 98 system (copyright 1998, Gaussian, Inc.),
 the Gaussian(R) 94 system (copyright 1995, Gaussian, Inc.),
 the Gaussian 92(TM) system (copyright 1992, Gaussian, Inc.),
 the Gaussian 90(TM) system (copyright 1990, Gaussian, Inc.),
 the Gaussian 88(TM) system (copyright 1988, Gaussian, Inc.),
 the Gaussian 86(TM) system (copyright 1986, Carnegie Mellon
 University), and the Gaussian 82(TM) system (copyright 1983,
 Carnegie Mellon University). Gaussian is a federally registered
 trademark of Gaussian, Inc.
  
 This software contains proprietary and confidential information,
 including trade secrets, belonging to Gaussian, Inc.
  
 This software is provided under written license and may be
 used, copied, transmitted, or stored only in accord with that
 written license.
  
 The following legend is applicable only to US Government
 contracts under FAR:
  
                    RESTRICTED RIGHTS LEGEND
  
 Use, reproduction and disclosure by the US Government is
 subject to restrictions as set forth in subparagraphs (a)
 and (c) of the Commercial Computer Software - Restricted
 Rights clause in FAR 52.227-19.
  
 Gaussian, Inc.
 340 Quinnipiac St., Bldg. 40, Wallingford CT 06492
  
  
 ---------------------------------------------------------------
 Warning -- This program may not be used in any manner that
 competes with the business of Gaussian, Inc. or will provide
 assistance to any competitor of Gaussian, Inc.  The licensee
 of this program is prohibited from giving any competitor of
 Gaussian, Inc. access to this program.  By using this program,
 the user acknowledges that Gaussian, Inc. is engaged in the
 business of creating and licensing software in the field of
 computational chemistry and represents and warrants to the
 licensee that it is not a competitor of Gaussian, Inc. and that
 it will not use this program in any manner prohibited above.
 ---------------------------------------------------------------
  

 Cite this work as:
 Gaussian 09, Revision D.01,
 M. J. Frisch, G. W. Trucks, H. B. Schlegel, G. E. Scuseria, 
 M. A. Robb, J. R. Cheeseman, G. Scalmani, V. Barone, B. Mennucci, 
 G. A. Petersson, H. Nakatsuji, M. Caricato, X. Li, H. P. Hratchian, 
 A. F. Izmaylov, J. Bloino, G. Zheng, J. L. Sonnenberg, M. Hada, 
 M. Ehara, K. Toyota, R. Fukuda, J. Hasegawa, M. Ishida, T. Nakajima, 
 Y. Honda, O. Kitao, H. Nakai, T. Vreven, J. A. Montgomery, Jr., 
 J. E. Peralta, F. Ogliaro, M. Bearpark, J. J. Heyd, E. Brothers, 
 K. N. Kudin, V. N. Staroverov, T. Keith, R. Kobayashi, J. Normand, 
 K. Raghavachari, A. Rendell, J. C. Burant, S. S. Iyengar, J. Tomasi, 
 M. Cossi, N. Rega, J. M. Millam, M. Klene, J. E. Knox, J. B. Cross, 
 V. Bakken, C. Adamo, J. Jaramillo, R. Gomperts, R. E. Stratmann, 
 O. Yazyev, A. J. Austin, R. Cammi, C. Pomelli, J. W. Ochterski, 
 R. L. Martin, K. Morokuma, V. G. Zakrzewski, G. A. Voth, 
 P. Salvador, J. J. Dannenberg, S. Dapprich, A. D. Daniels, 
 O. Farkas, J. B. Foresman, J. V. Ortiz, J. Cioslowski, 
 and D. J. Fox, Gaussian, Inc., Wallingford CT, 2013.
 
 ******************************************
 Gaussian 09:  EM64L-G09RevD.01 24-Apr-2013
                18-May-2017 
 ******************************************
 %Mem=256MB
 %NProc=12
 Will use up to   12 processors via shared memory.
 ----------------------------------------------------------------------
 #P HF/6-31G* SCF(Conver=6) NoSymm Test Pop=mk IOp(6/33=2) GFInput GFPr
 int
 ----------------------------------------------------------------------
 1/38=1/1;
 2/12=2,15=1,17=6,18=5,40=1/2;
 3/5=1,6=6,7=1,11=9,16=1,24=110,25=1,30=1/1,2,3;
 4//1;
 5/5=2,6=6,38=5/2;
 6/7=2,8=2,9=2,10=2,15=8,20=1,28=1,33=2/1,2;
 99/5=1,9=1/99;
 Leave Link    1 at Thu May 18 12:47:14 2017, MaxMem=    33554432 cpu:         0.8
 (Enter /home/michal/g09/l101.exe)
 ----------------------------------------------
 MEP - Input generated by R.E.D.-III.x MOLECULE
 ----------------------------------------------
 Symbolic Z-matrix:
 Charge =  0 Multiplicity = 1
 O                     0.        0.        0. 
 H                     0.96763   0.        0. 
 O                     1.59721  -1.00119   6.91425 
 H                     2.53391  -0.75902   6.92518 
 C                    -1.16409   4.37365   0.49141 
 C                    -1.272     2.82645   0.44755 
 H                    -2.24815   2.59446   0.90721 
 C                    -0.23591   2.08658   1.31041 
 H                     0.77598   2.28876   0.92975 
 C                    -0.34483   2.5782    2.784 
 H                    -1.32853   2.22784   3.13772 
 C                    -2.33734   4.74644  -0.46801 
 H                    -3.23991   4.4728    0.09781 
 C                    -1.36767   4.81133   1.95139 
 H                    -2.39131   4.55226   2.25834 
 H                    -1.27483   5.90044   2.05859 
 C                     0.7067    1.90678   3.73592 
 C                    -1.41381   2.50343  -1.05344 
 H                    -1.91226   1.54634  -1.22425 
 H                    -0.42994   2.42047  -1.52693 
 C                    -0.36156   4.1237    2.89467 
 H                     0.63844   4.52113   2.69261 
 H                    -0.5967    4.41145   3.92523 
 C                    -2.21328   3.71231  -1.62992 
 H                    -1.69061   4.13825  -2.49101 
 H                    -3.20189   3.40822  -1.98972 
 C                    -0.44319   0.56116   1.25134 
 H                    -1.52185   0.34885   1.25517 
 C                    -2.53591   6.24052  -0.85708 
 H                    -2.1901    6.83893   0. 
 C                     0.19501   4.88675  -0.03384 
 H                     1.03343   4.51566   0.56133 
 H                     0.37875   4.58457  -1.06846 
 H                     0.23237   5.98076   0.00554 
 C                     0.75378   0.39636   3.4784 
 C                     0.26      2.13438   5.21421 
 H                    -0.80936   1.89365   5.29062 
 H                     0.35802   3.19572   5.46535 
 C                     0.20877  -0.1695    2.39152 
 H                     0.24181  -1.25281   2.27567 
 C                     2.12866   2.4938    3.52753 
 H                     2.1872    3.53037   3.87338 
 H                     2.88253   1.92738   4.08042 
 H                     2.417     2.46875   2.4722 
 C                     1.44243  -0.46288   4.52203 
 H                     1.32189  -1.5232    4.27934 
 H                     2.52535  -0.25849   4.51701 
 C                     1.01781   1.29931   6.25802 
 H                     2.07723   1.59426   6.29134 
 H                     0.60861   1.48864   7.25689 
 C                    -1.74529   6.72059  -2.098 
 H                    -0.75586   6.25297  -2.12522 
 H                    -2.26292   6.38235  -3.00699 
 C                     0.92646  -0.19354   5.94323 
 H                    -0.12132  -0.51141   6.00776 
 C                    -4.03949   6.53634  -1.03477 
 H                    -4.46615   5.91499  -1.83204 
 H                    -4.2229    7.58308  -1.29785 
 H                    -4.59608   6.32561  -0.11479 
 C                    -1.55235   8.24492  -2.16893 
 H                    -2.52774   8.74522  -2.14191 
 H                    -1.01328   8.57302  -1.26976 
 C                    -0.7841    8.68023  -3.42709 
 H                    -1.33288   8.32745  -4.31228 
 H                     0.18449   8.15968  -3.44528 
 C                    -0.5232    10.19584  -3.59072 
 H                     0.02983   10.30583  -4.53535 
 C                     0.3695    10.76736  -2.47665 
 H                    -0.137     10.75201  -1.50468 
 H                     0.63828   11.80867  -2.68806 
 H                     1.30001   10.19582  -2.37819 
 C                    -1.8206    11.00939  -3.73073 
 H                    -2.40419   11.00324  -2.80289 
 H                    -1.60042   12.05592  -3.97062 
 H                    -2.4575    10.61077  -4.52919 
 
 NAtoms=     75 NQM=       75 NQMF=       0 NMMI=      0 NMMIF=      0
                NMic=       0 NMicF=      0.
                    Isotopes and Nuclear Properties:
 (Nuclear quadrupole moments (NQMom) in fm**2, nuclear magnetic moments (NMagM)
  in nuclear magnetons)

  Atom         1           2           3           4           5           6           7           8           9          10
 IAtWgt=          16           1          16           1          12          12           1          12           1          12
 AtmWgt=  15.9949146   1.0078250  15.9949146   1.0078250  12.0000000  12.0000000   1.0078250  12.0000000   1.0078250  12.0000000
 NucSpn=           0           1           0           1           0           0           1           0           1           0
 AtZEff=   0.0000000   0.0000000   0.0000000   0.0000000   0.0000000   0.0000000   0.0000000   0.0000000   0.0000000   0.0000000
 NQMom=    0.0000000   0.0000000   0.0000000   0.0000000   0.0000000   0.0000000   0.0000000   0.0000000   0.0000000   0.0000000
 NMagM=    0.0000000   2.7928460   0.0000000   2.7928460   0.0000000   0.0000000   2.7928460   0.0000000   2.7928460   0.0000000
 AtZNuc=   8.0000000   1.0000000   8.0000000   1.0000000   6.0000000   6.0000000   1.0000000   6.0000000   1.0000000   6.0000000

  Atom        11          12          13          14          15          16          17          18          19          20
 IAtWgt=           1          12           1          12           1           1          12          12           1           1
 AtmWgt=   1.0078250  12.0000000   1.0078250  12.0000000   1.0078250   1.0078250  12.0000000  12.0000000   1.0078250   1.0078250
 NucSpn=           1           0           1           0           1           1           0           0           1           1
 AtZEff=   0.0000000   0.0000000   0.0000000   0.0000000   0.0000000   0.0000000   0.0000000   0.0000000   0.0000000   0.0000000
 NQMom=    0.0000000   0.0000000   0.0000000   0.0000000   0.0000000   0.0000000   0.0000000   0.0000000   0.0000000   0.0000000
 NMagM=    2.7928460   0.0000000   2.7928460   0.0000000   2.7928460   2.7928460   0.0000000   0.0000000   2.7928460   2.7928460
 AtZNuc=   1.0000000   6.0000000   1.0000000   6.0000000   1.0000000   1.0000000   6.0000000   6.0000000   1.0000000   1.0000000

  Atom        21          22          23          24          25          26          27          28          29          30
 IAtWgt=          12           1           1          12           1           1          12           1          12           1
 AtmWgt=  12.0000000   1.0078250   1.0078250  12.0000000   1.0078250   1.0078250  12.0000000   1.0078250  12.0000000   1.0078250
 NucSpn=           0           1           1           0           1           1           0           1           0           1
 AtZEff=   0.0000000   0.0000000   0.0000000   0.0000000   0.0000000   0.0000000   0.0000000   0.0000000   0.0000000   0.0000000
 NQMom=    0.0000000   0.0000000   0.0000000   0.0000000   0.0000000   0.0000000   0.0000000   0.0000000   0.0000000   0.0000000
 NMagM=    0.0000000   2.7928460   2.7928460   0.0000000   2.7928460   2.7928460   0.0000000   2.7928460   0.0000000   2.7928460
 AtZNuc=   6.0000000   1.0000000   1.0000000   6.0000000   1.0000000   1.0000000   6.0000000   1.0000000   6.0000000   1.0000000

  Atom        31          32          33          34          35          36          37          38          39          40
 IAtWgt=          12           1           1           1          12          12           1           1          12           1
 AtmWgt=  12.0000000   1.0078250   1.0078250   1.0078250  12.0000000  12.0000000   1.0078250   1.0078250  12.0000000   1.0078250
 NucSpn=           0           1           1           1           0           0           1           1           0           1
 AtZEff=   0.0000000   0.0000000   0.0000000   0.0000000   0.0000000   0.0000000   0.0000000   0.0000000   0.0000000   0.0000000
 NQMom=    0.0000000   0.0000000   0.0000000   0.0000000   0.0000000   0.0000000   0.0000000   0.0000000   0.0000000   0.0000000
 NMagM=    0.0000000   2.7928460   2.7928460   2.7928460   0.0000000   0.0000000   2.7928460   2.7928460   0.0000000   2.7928460
 AtZNuc=   6.0000000   1.0000000   1.0000000   1.0000000   6.0000000   6.0000000   1.0000000   1.0000000   6.0000000   1.0000000

  Atom        41          42          43          44          45          46          47          48          49          50
 IAtWgt=          12           1           1           1          12           1           1          12           1           1
 AtmWgt=  12.0000000   1.0078250   1.0078250   1.0078250  12.0000000   1.0078250   1.0078250  12.0000000   1.0078250   1.0078250
 NucSpn=           0           1           1           1           0           1           1           0           1           1
 AtZEff=   0.0000000   0.0000000   0.0000000   0.0000000   0.0000000   0.0000000   0.0000000   0.0000000   0.0000000   0.0000000
 NQMom=    0.0000000   0.0000000   0.0000000   0.0000000   0.0000000   0.0000000   0.0000000   0.0000000   0.0000000   0.0000000
 NMagM=    0.0000000   2.7928460   2.7928460   2.7928460   0.0000000   2.7928460   2.7928460   0.0000000   2.7928460   2.7928460
 AtZNuc=   6.0000000   1.0000000   1.0000000   1.0000000   6.0000000   1.0000000   1.0000000   6.0000000   1.0000000   1.0000000

  Atom        51          52          53          54          55          56          57          58          59          60
 IAtWgt=          12           1           1          12           1          12           1           1           1          12
 AtmWgt=  12.0000000   1.0078250   1.0078250  12.0000000   1.0078250  12.0000000   1.0078250   1.0078250   1.0078250  12.0000000
 NucSpn=           0           1           1           0           1           0           1           1           1           0
 AtZEff=   0.0000000   0.0000000   0.0000000   0.0000000   0.0000000   0.0000000   0.0000000   0.0000000   0.0000000   0.0000000
 NQMom=    0.0000000   0.0000000   0.0000000   0.0000000   0.0000000   0.0000000   0.0000000   0.0000000   0.0000000   0.0000000
 NMagM=    0.0000000   2.7928460   2.7928460   0.0000000   2.7928460   0.0000000   2.7928460   2.7928460   2.7928460   0.0000000
 AtZNuc=   6.0000000   1.0000000   1.0000000   6.0000000   1.0000000   6.0000000   1.0000000   1.0000000   1.0000000   6.0000000

  Atom        61          62          63          64          65          66          67          68          69          70
 IAtWgt=           1           1          12           1           1          12           1          12           1           1
 AtmWgt=   1.0078250   1.0078250  12.0000000   1.0078250   1.0078250  12.0000000   1.0078250  12.0000000   1.0078250   1.0078250
 NucSpn=           1           1           0           1           1           0           1           0           1           1
 AtZEff=   0.0000000   0.0000000   0.0000000   0.0000000   0.0000000   0.0000000   0.0000000   0.0000000   0.0000000   0.0000000
 NQMom=    0.0000000   0.0000000   0.0000000   0.0000000   0.0000000   0.0000000   0.0000000   0.0000000   0.0000000   0.0000000
 NMagM=    2.7928460   2.7928460   0.0000000   2.7928460   2.7928460   0.0000000   2.7928460   0.0000000   2.7928460   2.7928460
 AtZNuc=   1.0000000   1.0000000   6.0000000   1.0000000   1.0000000   6.0000000   1.0000000   6.0000000   1.0000000   1.0000000

  Atom        71          72          73          74          75
 IAtWgt=           1          12           1           1           1
 AtmWgt=   1.0078250  12.0000000   1.0078250   1.0078250   1.0078250
 NucSpn=           1           0           1           1           1
 AtZEff=   0.0000000   0.0000000   0.0000000   0.0000000   0.0000000
 NQMom=    0.0000000   0.0000000   0.0000000   0.0000000   0.0000000
 NMagM=    2.7928460   0.0000000   2.7928460   2.7928460   2.7928460
 AtZNuc=   1.0000000   6.0000000   1.0000000   1.0000000   1.0000000
 Leave Link  101 at Thu May 18 12:47:15 2017, MaxMem=    33554432 cpu:         1.0
 (Enter /home/michal/g09/l202.exe)
 Symmetry turned off by external request.
 Stoichiometry    C27H46O2
 Framework group  C1[X(C27H46O2)]
 Deg. of freedom   219
 Full point group                 C1      NOp   1
                          Input orientation:                          
 ---------------------------------------------------------------------
 Center     Atomic      Atomic             Coordinates (Angstroms)
 Number     Number       Type             X           Y           Z
 ---------------------------------------------------------------------
      1          8           0        0.000000    0.000000    0.000000
      2          1           0        0.967634    0.000000    0.000000
      3          8           0        1.597214   -1.001194    6.914251
      4          1           0        2.533905   -0.759019    6.925179
      5          6           0       -1.164091    4.373655    0.491407
      6          6           0       -1.272000    2.826450    0.447550
      7          1           0       -2.248148    2.594461    0.907209
      8          6           0       -0.235914    2.086580    1.310407
      9          1           0        0.775975    2.288762    0.929752
     10          6           0       -0.344832    2.578200    2.783997
     11          1           0       -1.328526    2.227840    3.137721
     12          6           0       -2.337337    4.746445   -0.468012
     13          1           0       -3.239911    4.472801    0.097810
     14          6           0       -1.367667    4.811329    1.951387
     15          1           0       -2.391310    4.552256    2.258340
     16          1           0       -1.274826    5.900438    2.058588
     17          6           0        0.706704    1.906780    3.735917
     18          6           0       -1.413815    2.503428   -1.053439
     19          1           0       -1.912260    1.546343   -1.224250
     20          1           0       -0.429941    2.420470   -1.526927
     21          6           0       -0.361562    4.123705    2.894671
     22          1           0        0.638436    4.521133    2.692609
     23          1           0       -0.596699    4.411447    3.925227
     24          6           0       -2.213277    3.712309   -1.629925
     25          1           0       -1.690606    4.138246   -2.491011
     26          1           0       -3.201893    3.408216   -1.989722
     27          6           0       -0.443193    0.561164    1.251338
     28          1           0       -1.521848    0.348848    1.255171
     29          6           0       -2.535914    6.240523   -0.857083
     30          1           0       -2.190100    6.838930    0.000000
     31          6           0        0.195009    4.886750   -0.033842
     32          1           0        1.033434    4.515663    0.561329
     33          1           0        0.378746    4.584571   -1.068464
     34          1           0        0.232367    5.980765    0.005535
     35          6           0        0.753782    0.396356    3.478397
     36          6           0        0.259998    2.134378    5.214207
     37          1           0       -0.809363    1.893647    5.290617
     38          1           0        0.358019    3.195724    5.465353
     39          6           0        0.208771   -0.169502    2.391521
     40          1           0        0.241815   -1.252807    2.275670
     41          6           0        2.128656    2.493795    3.527525
     42          1           0        2.187202    3.530368    3.873377
     43          1           0        2.882530    1.927378    4.080420
     44          1           0        2.416997    2.468752    2.472196
     45          6           0        1.442426   -0.462879    4.522027
     46          1           0        1.321894   -1.523197    4.279336
     47          1           0        2.525351   -0.258487    4.517006
     48          6           0        1.017813    1.299310    6.258020
     49          1           0        2.077233    1.594260    6.291336
     50          1           0        0.608608    1.488639    7.256892
     51          6           0       -1.745289    6.720587   -2.097999
     52          1           0       -0.755862    6.252971   -2.125221
     53          1           0       -2.262922    6.382346   -3.006987
     54          6           0        0.926455   -0.193542    5.943230
     55          1           0       -0.121323   -0.511406    6.007755
     56          6           0       -4.039489    6.536339   -1.034772
     57          1           0       -4.466154    5.914990   -1.832041
     58          1           0       -4.222896    7.583079   -1.297853
     59          1           0       -4.596078    6.325607   -0.114787
     60          6           0       -1.552348    8.244916   -2.168930
     61          1           0       -2.527736    8.745216   -2.141912
     62          1           0       -1.013282    8.573020   -1.269759
     63          6           0       -0.784101    8.680234   -3.427094
     64          1           0       -1.332880    8.327448   -4.312283
     65          1           0        0.184489    8.159677   -3.445279
     66          6           0       -0.523200   10.195841   -3.590716
     67          1           0        0.029835   10.305831   -4.535351
     68          6           0        0.369498   10.767360   -2.476651
     69          1           0       -0.136998   10.752014   -1.504683
     70          1           0        0.638284   11.808668   -2.688059
     71          1           0        1.300009   10.195818   -2.378191
     72          6           0       -1.820603   11.009390   -3.730727
     73          1           0       -2.404194   11.003244   -2.802890
     74          1           0       -1.600422   12.055915   -3.970617
     75          1           0       -2.457498   10.610773   -4.529188
 ---------------------------------------------------------------------
 Rotational constants (GHZ):      0.3714331      0.0583692      0.0549340
 Leave Link  202 at Thu May 18 12:47:15 2017, MaxMem=    33554432 cpu:         0.0
 (Enter /home/michal/g09/l301.exe)
 Standard basis: 6-31G(d) (6D, 7F)
 Ernie: Thresh=  0.10000D-02 Tol=  0.10000D-05 Strict=F.
 AO basis set in the form of general basis input (Overlap normalization):
      1 0
 S   6 1.00       0.000000000000
      0.5484671660D+04  0.1831074430D-02
      0.8252349460D+03  0.1395017220D-01
      0.1880469580D+03  0.6844507810D-01
      0.5296450000D+02  0.2327143360D+00
      0.1689757040D+02  0.4701928980D+00
      0.5799635340D+01  0.3585208530D+00
 SP   3 1.00       0.000000000000
      0.1553961625D+02 -0.1107775495D+00  0.7087426823D-01
      0.3599933586D+01 -0.1480262627D+00  0.3397528391D+00
      0.1013761750D+01  0.1130767015D+01  0.7271585773D+00
 SP   1 1.00       0.000000000000
      0.2700058226D+00  0.1000000000D+01  0.1000000000D+01
 D   1 1.00       0.000000000000
      0.8000000000D+00  0.1000000000D+01
 ****
      2 0
 S   3 1.00       0.000000000000
      0.1873113696D+02  0.3349460434D-01
      0.2825394365D+01  0.2347269535D+00
      0.6401216923D+00  0.8137573261D+00
 S   1 1.00       0.000000000000
      0.1612777588D+00  0.1000000000D+01
 ****
      3 0
 S   6 1.00       0.000000000000
      0.5484671660D+04  0.1831074430D-02
      0.8252349460D+03  0.1395017220D-01
      0.1880469580D+03  0.6844507810D-01
      0.5296450000D+02  0.2327143360D+00
      0.1689757040D+02  0.4701928980D+00
      0.5799635340D+01  0.3585208530D+00
 SP   3 1.00       0.000000000000
      0.1553961625D+02 -0.1107775495D+00  0.7087426823D-01
      0.3599933586D+01 -0.1480262627D+00  0.3397528391D+00
      0.1013761750D+01  0.1130767015D+01  0.7271585773D+00
 SP   1 1.00       0.000000000000
      0.2700058226D+00  0.1000000000D+01  0.1000000000D+01
 D   1 1.00       0.000000000000
      0.8000000000D+00  0.1000000000D+01
 ****
      4 0
 S   3 1.00       0.000000000000
      0.1873113696D+02  0.3349460434D-01
      0.2825394365D+01  0.2347269535D+00
      0.6401216923D+00  0.8137573261D+00
 S   1 1.00       0.000000000000
      0.1612777588D+00  0.1000000000D+01
 ****
      5 0
 S   6 1.00       0.000000000000
      0.3047524880D+04  0.1834737132D-02
      0.4573695180D+03  0.1403732281D-01
      0.1039486850D+03  0.6884262226D-01
      0.2921015530D+02  0.2321844432D+00
      0.9286662960D+01  0.4679413484D+00
      0.3163926960D+01  0.3623119853D+00
 SP   3 1.00       0.000000000000
      0.7868272350D+01 -0.1193324198D+00  0.6899906659D-01
      0.1881288540D+01 -0.1608541517D+00  0.3164239610D+00
      0.5442492580D+00  0.1143456438D+01  0.7443082909D+00
 SP   1 1.00       0.000000000000
      0.1687144782D+00  0.1000000000D+01  0.1000000000D+01
 D   1 1.00       0.000000000000
      0.8000000000D+00  0.1000000000D+01
 ****
      6 0
 S   6 1.00       0.000000000000
      0.3047524880D+04  0.1834737132D-02
      0.4573695180D+03  0.1403732281D-01
      0.1039486850D+03  0.6884262226D-01
      0.2921015530D+02  0.2321844432D+00
      0.9286662960D+01  0.4679413484D+00
      0.3163926960D+01  0.3623119853D+00
 SP   3 1.00       0.000000000000
      0.7868272350D+01 -0.1193324198D+00  0.6899906659D-01
      0.1881288540D+01 -0.1608541517D+00  0.3164239610D+00
      0.5442492580D+00  0.1143456438D+01  0.7443082909D+00
 SP   1 1.00       0.000000000000
      0.1687144782D+00  0.1000000000D+01  0.1000000000D+01
 D   1 1.00       0.000000000000
      0.8000000000D+00  0.1000000000D+01
 ****
      7 0
 S   3 1.00       0.000000000000
      0.1873113696D+02  0.3349460434D-01
      0.2825394365D+01  0.2347269535D+00
      0.6401216923D+00  0.8137573261D+00
 S   1 1.00       0.000000000000
      0.1612777588D+00  0.1000000000D+01
 ****
      8 0
 S   6 1.00       0.000000000000
      0.3047524880D+04  0.1834737132D-02
      0.4573695180D+03  0.1403732281D-01
      0.1039486850D+03  0.6884262226D-01
      0.2921015530D+02  0.2321844432D+00
      0.9286662960D+01  0.4679413484D+00
      0.3163926960D+01  0.3623119853D+00
 SP   3 1.00       0.000000000000
      0.7868272350D+01 -0.1193324198D+00  0.6899906659D-01
      0.1881288540D+01 -0.1608541517D+00  0.3164239610D+00
      0.5442492580D+00  0.1143456438D+01  0.7443082909D+00
 SP   1 1.00       0.000000000000
      0.1687144782D+00  0.1000000000D+01  0.1000000000D+01
 D   1 1.00       0.000000000000
      0.8000000000D+00  0.1000000000D+01
 ****
      9 0
 S   3 1.00       0.000000000000
      0.1873113696D+02  0.3349460434D-01
      0.2825394365D+01  0.2347269535D+00
      0.6401216923D+00  0.8137573261D+00
 S   1 1.00       0.000000000000
      0.1612777588D+00  0.1000000000D+01
 ****
     10 0
 S   6 1.00       0.000000000000
      0.3047524880D+04  0.1834737132D-02
      0.4573695180D+03  0.1403732281D-01
      0.1039486850D+03  0.6884262226D-01
      0.2921015530D+02  0.2321844432D+00
      0.9286662960D+01  0.4679413484D+00
      0.3163926960D+01  0.3623119853D+00
 SP   3 1.00       0.000000000000
      0.7868272350D+01 -0.1193324198D+00  0.6899906659D-01
      0.1881288540D+01 -0.1608541517D+00  0.3164239610D+00
      0.5442492580D+00  0.1143456438D+01  0.7443082909D+00
 SP   1 1.00       0.000000000000
      0.1687144782D+00  0.1000000000D+01  0.1000000000D+01
 D   1 1.00       0.000000000000
      0.8000000000D+00  0.1000000000D+01
 ****
     11 0
 S   3 1.00       0.000000000000
      0.1873113696D+02  0.3349460434D-01
      0.2825394365D+01  0.2347269535D+00
      0.6401216923D+00  0.8137573261D+00
 S   1 1.00       0.000000000000
      0.1612777588D+00  0.1000000000D+01
 ****
     12 0
 S   6 1.00       0.000000000000
      0.3047524880D+04  0.1834737132D-02
      0.4573695180D+03  0.1403732281D-01
      0.1039486850D+03  0.6884262226D-01
      0.2921015530D+02  0.2321844432D+00
      0.9286662960D+01  0.4679413484D+00
      0.3163926960D+01  0.3623119853D+00
 SP   3 1.00       0.000000000000
      0.7868272350D+01 -0.1193324198D+00  0.6899906659D-01
      0.1881288540D+01 -0.1608541517D+00  0.3164239610D+00
      0.5442492580D+00  0.1143456438D+01  0.7443082909D+00
 SP   1 1.00       0.000000000000
      0.1687144782D+00  0.1000000000D+01  0.1000000000D+01
 D   1 1.00       0.000000000000
      0.8000000000D+00  0.1000000000D+01
 ****
     13 0
 S   3 1.00       0.000000000000
      0.1873113696D+02  0.3349460434D-01
      0.2825394365D+01  0.2347269535D+00
      0.6401216923D+00  0.8137573261D+00
 S   1 1.00       0.000000000000
      0.1612777588D+00  0.1000000000D+01
 ****
     14 0
 S   6 1.00       0.000000000000
      0.3047524880D+04  0.1834737132D-02
      0.4573695180D+03  0.1403732281D-01
      0.1039486850D+03  0.6884262226D-01
      0.2921015530D+02  0.2321844432D+00
      0.9286662960D+01  0.4679413484D+00
      0.3163926960D+01  0.3623119853D+00
 SP   3 1.00       0.000000000000
      0.7868272350D+01 -0.1193324198D+00  0.6899906659D-01
      0.1881288540D+01 -0.1608541517D+00  0.3164239610D+00
      0.5442492580D+00  0.1143456438D+01  0.7443082909D+00
 SP   1 1.00       0.000000000000
      0.1687144782D+00  0.1000000000D+01  0.1000000000D+01
 D   1 1.00       0.000000000000
      0.8000000000D+00  0.1000000000D+01
 ****
     15 0
 S   3 1.00       0.000000000000
      0.1873113696D+02  0.3349460434D-01
      0.2825394365D+01  0.2347269535D+00
      0.6401216923D+00  0.8137573261D+00
 S   1 1.00       0.000000000000
      0.1612777588D+00  0.1000000000D+01
 ****
     16 0
 S   3 1.00       0.000000000000
      0.1873113696D+02  0.3349460434D-01
      0.2825394365D+01  0.2347269535D+00
      0.6401216923D+00  0.8137573261D+00
 S   1 1.00       0.000000000000
      0.1612777588D+00  0.1000000000D+01
 ****
     17 0
 S   6 1.00       0.000000000000
      0.3047524880D+04  0.1834737132D-02
      0.4573695180D+03  0.1403732281D-01
      0.1039486850D+03  0.6884262226D-01
      0.2921015530D+02  0.2321844432D+00
      0.9286662960D+01  0.4679413484D+00
      0.3163926960D+01  0.3623119853D+00
 SP   3 1.00       0.000000000000
      0.7868272350D+01 -0.1193324198D+00  0.6899906659D-01
      0.1881288540D+01 -0.1608541517D+00  0.3164239610D+00
      0.5442492580D+00  0.1143456438D+01  0.7443082909D+00
 SP   1 1.00       0.000000000000
      0.1687144782D+00  0.1000000000D+01  0.1000000000D+01
 D   1 1.00       0.000000000000
      0.8000000000D+00  0.1000000000D+01
 ****
     18 0
 S   6 1.00       0.000000000000
      0.3047524880D+04  0.1834737132D-02
      0.4573695180D+03  0.1403732281D-01
      0.1039486850D+03  0.6884262226D-01
      0.2921015530D+02  0.2321844432D+00
      0.9286662960D+01  0.4679413484D+00
      0.3163926960D+01  0.3623119853D+00
 SP   3 1.00       0.000000000000
      0.7868272350D+01 -0.1193324198D+00  0.6899906659D-01
      0.1881288540D+01 -0.1608541517D+00  0.3164239610D+00
      0.5442492580D+00  0.1143456438D+01  0.7443082909D+00
 SP   1 1.00       0.000000000000
      0.1687144782D+00  0.1000000000D+01  0.1000000000D+01
 D   1 1.00       0.000000000000
      0.8000000000D+00  0.1000000000D+01
 ****
     19 0
 S   3 1.00       0.000000000000
      0.1873113696D+02  0.3349460434D-01
      0.2825394365D+01  0.2347269535D+00
      0.6401216923D+00  0.8137573261D+00
 S   1 1.00       0.000000000000
      0.1612777588D+00  0.1000000000D+01
 ****
     20 0
 S   3 1.00       0.000000000000
      0.1873113696D+02  0.3349460434D-01
      0.2825394365D+01  0.2347269535D+00
      0.6401216923D+00  0.8137573261D+00
 S   1 1.00       0.000000000000
      0.1612777588D+00  0.1000000000D+01
 ****
     21 0
 S   6 1.00       0.000000000000
      0.3047524880D+04  0.1834737132D-02
      0.4573695180D+03  0.1403732281D-01
      0.1039486850D+03  0.6884262226D-01
      0.2921015530D+02  0.2321844432D+00
      0.9286662960D+01  0.4679413484D+00
      0.3163926960D+01  0.3623119853D+00
 SP   3 1.00       0.000000000000
      0.7868272350D+01 -0.1193324198D+00  0.6899906659D-01
      0.1881288540D+01 -0.1608541517D+00  0.3164239610D+00
      0.5442492580D+00  0.1143456438D+01  0.7443082909D+00
 SP   1 1.00       0.000000000000
      0.1687144782D+00  0.1000000000D+01  0.1000000000D+01
 D   1 1.00       0.000000000000
      0.8000000000D+00  0.1000000000D+01
 ****
     22 0
 S   3 1.00       0.000000000000
      0.1873113696D+02  0.3349460434D-01
      0.2825394365D+01  0.2347269535D+00
      0.6401216923D+00  0.8137573261D+00
 S   1 1.00       0.000000000000
      0.1612777588D+00  0.1000000000D+01
 ****
     23 0
 S   3 1.00       0.000000000000
      0.1873113696D+02  0.3349460434D-01
      0.2825394365D+01  0.2347269535D+00
      0.6401216923D+00  0.8137573261D+00
 S   1 1.00       0.000000000000
      0.1612777588D+00  0.1000000000D+01
 ****
     24 0
 S   6 1.00       0.000000000000
      0.3047524880D+04  0.1834737132D-02
      0.4573695180D+03  0.1403732281D-01
      0.1039486850D+03  0.6884262226D-01
      0.2921015530D+02  0.2321844432D+00
      0.9286662960D+01  0.4679413484D+00
      0.3163926960D+01  0.3623119853D+00
 SP   3 1.00       0.000000000000
      0.7868272350D+01 -0.1193324198D+00  0.6899906659D-01
      0.1881288540D+01 -0.1608541517D+00  0.3164239610D+00
      0.5442492580D+00  0.1143456438D+01  0.7443082909D+00
 SP   1 1.00       0.000000000000
      0.1687144782D+00  0.1000000000D+01  0.1000000000D+01
 D   1 1.00       0.000000000000
      0.8000000000D+00  0.1000000000D+01
 ****
     25 0
 S   3 1.00       0.000000000000
      0.1873113696D+02  0.3349460434D-01
      0.2825394365D+01  0.2347269535D+00
      0.6401216923D+00  0.8137573261D+00
 S   1 1.00       0.000000000000
      0.1612777588D+00  0.1000000000D+01
 ****
     26 0
 S   3 1.00       0.000000000000
      0.1873113696D+02  0.3349460434D-01
      0.2825394365D+01  0.2347269535D+00
      0.6401216923D+00  0.8137573261D+00
 S   1 1.00       0.000000000000
      0.1612777588D+00  0.1000000000D+01
 ****
     27 0
 S   6 1.00       0.000000000000
      0.3047524880D+04  0.1834737132D-02
      0.4573695180D+03  0.1403732281D-01
      0.1039486850D+03  0.6884262226D-01
      0.2921015530D+02  0.2321844432D+00
      0.9286662960D+01  0.4679413484D+00
      0.3163926960D+01  0.3623119853D+00
 SP   3 1.00       0.000000000000
      0.7868272350D+01 -0.1193324198D+00  0.6899906659D-01
      0.1881288540D+01 -0.1608541517D+00  0.3164239610D+00
      0.5442492580D+00  0.1143456438D+01  0.7443082909D+00
 SP   1 1.00       0.000000000000
      0.1687144782D+00  0.1000000000D+01  0.1000000000D+01
 D   1 1.00       0.000000000000
      0.8000000000D+00  0.1000000000D+01
 ****
     28 0
 S   3 1.00       0.000000000000
      0.1873113696D+02  0.3349460434D-01
      0.2825394365D+01  0.2347269535D+00
      0.6401216923D+00  0.8137573261D+00
 S   1 1.00       0.000000000000
      0.1612777588D+00  0.1000000000D+01
 ****
     29 0
 S   6 1.00       0.000000000000
      0.3047524880D+04  0.1834737132D-02
      0.4573695180D+03  0.1403732281D-01
      0.1039486850D+03  0.6884262226D-01
      0.2921015530D+02  0.2321844432D+00
      0.9286662960D+01  0.4679413484D+00
      0.3163926960D+01  0.3623119853D+00
 SP   3 1.00       0.000000000000
      0.7868272350D+01 -0.1193324198D+00  0.6899906659D-01
      0.1881288540D+01 -0.1608541517D+00  0.3164239610D+00
      0.5442492580D+00  0.1143456438D+01  0.7443082909D+00
 SP   1 1.00       0.000000000000
      0.1687144782D+00  0.1000000000D+01  0.1000000000D+01
 D   1 1.00       0.000000000000
      0.8000000000D+00  0.1000000000D+01
 ****
     30 0
 S   3 1.00       0.000000000000
      0.1873113696D+02  0.3349460434D-01
      0.2825394365D+01  0.2347269535D+00
      0.6401216923D+00  0.8137573261D+00
 S   1 1.00       0.000000000000
      0.1612777588D+00  0.1000000000D+01
 ****
     31 0
 S   6 1.00       0.000000000000
      0.3047524880D+04  0.1834737132D-02
      0.4573695180D+03  0.1403732281D-01
      0.1039486850D+03  0.6884262226D-01
      0.2921015530D+02  0.2321844432D+00
      0.9286662960D+01  0.4679413484D+00
      0.3163926960D+01  0.3623119853D+00
 SP   3 1.00       0.000000000000
      0.7868272350D+01 -0.1193324198D+00  0.6899906659D-01
      0.1881288540D+01 -0.1608541517D+00  0.3164239610D+00
      0.5442492580D+00  0.1143456438D+01  0.7443082909D+00
 SP   1 1.00       0.000000000000
      0.1687144782D+00  0.1000000000D+01  0.1000000000D+01
 D   1 1.00       0.000000000000
      0.8000000000D+00  0.1000000000D+01
 ****
     32 0
 S   3 1.00       0.000000000000
      0.1873113696D+02  0.3349460434D-01
      0.2825394365D+01  0.2347269535D+00
      0.6401216923D+00  0.8137573261D+00
 S   1 1.00       0.000000000000
      0.1612777588D+00  0.1000000000D+01
 ****
     33 0
 S   3 1.00       0.000000000000
      0.1873113696D+02  0.3349460434D-01
      0.2825394365D+01  0.2347269535D+00
      0.6401216923D+00  0.8137573261D+00
 S   1 1.00       0.000000000000
      0.1612777588D+00  0.1000000000D+01
 ****
     34 0
 S   3 1.00       0.000000000000
      0.1873113696D+02  0.3349460434D-01
      0.2825394365D+01  0.2347269535D+00
      0.6401216923D+00  0.8137573261D+00
 S   1 1.00       0.000000000000
      0.1612777588D+00  0.1000000000D+01
 ****
     35 0
 S   6 1.00       0.000000000000
      0.3047524880D+04  0.1834737132D-02
      0.4573695180D+03  0.1403732281D-01
      0.1039486850D+03  0.6884262226D-01
      0.2921015530D+02  0.2321844432D+00
      0.9286662960D+01  0.4679413484D+00
      0.3163926960D+01  0.3623119853D+00
 SP   3 1.00       0.000000000000
      0.7868272350D+01 -0.1193324198D+00  0.6899906659D-01
      0.1881288540D+01 -0.1608541517D+00  0.3164239610D+00
      0.5442492580D+00  0.1143456438D+01  0.7443082909D+00
 SP   1 1.00       0.000000000000
      0.1687144782D+00  0.1000000000D+01  0.1000000000D+01
 D   1 1.00       0.000000000000
      0.8000000000D+00  0.1000000000D+01
 ****
     36 0
 S   6 1.00       0.000000000000
      0.3047524880D+04  0.1834737132D-02
      0.4573695180D+03  0.1403732281D-01
      0.1039486850D+03  0.6884262226D-01
      0.2921015530D+02  0.2321844432D+00
      0.9286662960D+01  0.4679413484D+00
      0.3163926960D+01  0.3623119853D+00
 SP   3 1.00       0.000000000000
      0.7868272350D+01 -0.1193324198D+00  0.6899906659D-01
      0.1881288540D+01 -0.1608541517D+00  0.3164239610D+00
      0.5442492580D+00  0.1143456438D+01  0.7443082909D+00
 SP   1 1.00       0.000000000000
      0.1687144782D+00  0.1000000000D+01  0.1000000000D+01
 D   1 1.00       0.000000000000
      0.8000000000D+00  0.1000000000D+01
 ****
     37 0
 S   3 1.00       0.000000000000
      0.1873113696D+02  0.3349460434D-01
      0.2825394365D+01  0.2347269535D+00
      0.6401216923D+00  0.8137573261D+00
 S   1 1.00       0.000000000000
      0.1612777588D+00  0.1000000000D+01
 ****
     38 0
 S   3 1.00       0.000000000000
      0.1873113696D+02  0.3349460434D-01
      0.2825394365D+01  0.2347269535D+00
      0.6401216923D+00  0.8137573261D+00
 S   1 1.00       0.000000000000
      0.1612777588D+00  0.1000000000D+01
 ****
     39 0
 S   6 1.00       0.000000000000
      0.3047524880D+04  0.1834737132D-02
      0.4573695180D+03  0.1403732281D-01
      0.1039486850D+03  0.6884262226D-01
      0.2921015530D+02  0.2321844432D+00
      0.9286662960D+01  0.4679413484D+00
      0.3163926960D+01  0.3623119853D+00
 SP   3 1.00       0.000000000000
      0.7868272350D+01 -0.1193324198D+00  0.6899906659D-01
      0.1881288540D+01 -0.1608541517D+00  0.3164239610D+00
      0.5442492580D+00  0.1143456438D+01  0.7443082909D+00
 SP   1 1.00       0.000000000000
      0.1687144782D+00  0.1000000000D+01  0.1000000000D+01
 D   1 1.00       0.000000000000
      0.8000000000D+00  0.1000000000D+01
 ****
     40 0
 S   3 1.00       0.000000000000
      0.1873113696D+02  0.3349460434D-01
      0.2825394365D+01  0.2347269535D+00
      0.6401216923D+00  0.8137573261D+00
 S   1 1.00       0.000000000000
      0.1612777588D+00  0.1000000000D+01
 ****
     41 0
 S   6 1.00       0.000000000000
      0.3047524880D+04  0.1834737132D-02
      0.4573695180D+03  0.1403732281D-01
      0.1039486850D+03  0.6884262226D-01
      0.2921015530D+02  0.2321844432D+00
      0.9286662960D+01  0.4679413484D+00
      0.3163926960D+01  0.3623119853D+00
 SP   3 1.00       0.000000000000
      0.7868272350D+01 -0.1193324198D+00  0.6899906659D-01
      0.1881288540D+01 -0.1608541517D+00  0.3164239610D+00
      0.5442492580D+00  0.1143456438D+01  0.7443082909D+00
 SP   1 1.00       0.000000000000
      0.1687144782D+00  0.1000000000D+01  0.1000000000D+01
 D   1 1.00       0.000000000000
      0.8000000000D+00  0.1000000000D+01
 ****
     42 0
 S   3 1.00       0.000000000000
      0.1873113696D+02  0.3349460434D-01
      0.2825394365D+01  0.2347269535D+00
      0.6401216923D+00  0.8137573261D+00
 S   1 1.00       0.000000000000
      0.1612777588D+00  0.1000000000D+01
 ****
     43 0
 S   3 1.00       0.000000000000
      0.1873113696D+02  0.3349460434D-01
      0.2825394365D+01  0.2347269535D+00
      0.6401216923D+00  0.8137573261D+00
 S   1 1.00       0.000000000000
      0.1612777588D+00  0.1000000000D+01
 ****
     44 0
 S   3 1.00       0.000000000000
      0.1873113696D+02  0.3349460434D-01
      0.2825394365D+01  0.2347269535D+00
      0.6401216923D+00  0.8137573261D+00
 S   1 1.00       0.000000000000
      0.1612777588D+00  0.1000000000D+01
 ****
     45 0
 S   6 1.00       0.000000000000
      0.3047524880D+04  0.1834737132D-02
      0.4573695180D+03  0.1403732281D-01
      0.1039486850D+03  0.6884262226D-01
      0.2921015530D+02  0.2321844432D+00
      0.9286662960D+01  0.4679413484D+00
      0.3163926960D+01  0.3623119853D+00
 SP   3 1.00       0.000000000000
      0.7868272350D+01 -0.1193324198D+00  0.6899906659D-01
      0.1881288540D+01 -0.1608541517D+00  0.3164239610D+00
      0.5442492580D+00  0.1143456438D+01  0.7443082909D+00
 SP   1 1.00       0.000000000000
      0.1687144782D+00  0.1000000000D+01  0.1000000000D+01
 D   1 1.00       0.000000000000
      0.8000000000D+00  0.1000000000D+01
 ****
     46 0
 S   3 1.00       0.000000000000
      0.1873113696D+02  0.3349460434D-01
      0.2825394365D+01  0.2347269535D+00
      0.6401216923D+00  0.8137573261D+00
 S   1 1.00       0.000000000000
      0.1612777588D+00  0.1000000000D+01
 ****
     47 0
 S   3 1.00       0.000000000000
      0.1873113696D+02  0.3349460434D-01
      0.2825394365D+01  0.2347269535D+00
      0.6401216923D+00  0.8137573261D+00
 S   1 1.00       0.000000000000
      0.1612777588D+00  0.1000000000D+01
 ****
     48 0
 S   6 1.00       0.000000000000
      0.3047524880D+04  0.1834737132D-02
      0.4573695180D+03  0.1403732281D-01
      0.1039486850D+03  0.6884262226D-01
      0.2921015530D+02  0.2321844432D+00
      0.9286662960D+01  0.4679413484D+00
      0.3163926960D+01  0.3623119853D+00
 SP   3 1.00       0.000000000000
      0.7868272350D+01 -0.1193324198D+00  0.6899906659D-01
      0.1881288540D+01 -0.1608541517D+00  0.3164239610D+00
      0.5442492580D+00  0.1143456438D+01  0.7443082909D+00
 SP   1 1.00       0.000000000000
      0.1687144782D+00  0.1000000000D+01  0.1000000000D+01
 D   1 1.00       0.000000000000
      0.8000000000D+00  0.1000000000D+01
 ****
     49 0
 S   3 1.00       0.000000000000
      0.1873113696D+02  0.3349460434D-01
      0.2825394365D+01  0.2347269535D+00
      0.6401216923D+00  0.8137573261D+00
 S   1 1.00       0.000000000000
      0.1612777588D+00  0.1000000000D+01
 ****
     50 0
 S   3 1.00       0.000000000000
      0.1873113696D+02  0.3349460434D-01
      0.2825394365D+01  0.2347269535D+00
      0.6401216923D+00  0.8137573261D+00
 S   1 1.00       0.000000000000
      0.1612777588D+00  0.1000000000D+01
 ****
     51 0
 S   6 1.00       0.000000000000
      0.3047524880D+04  0.1834737132D-02
      0.4573695180D+03  0.1403732281D-01
      0.1039486850D+03  0.6884262226D-01
      0.2921015530D+02  0.2321844432D+00
      0.9286662960D+01  0.4679413484D+00
      0.3163926960D+01  0.3623119853D+00
 SP   3 1.00       0.000000000000
      0.7868272350D+01 -0.1193324198D+00  0.6899906659D-01
      0.1881288540D+01 -0.1608541517D+00  0.3164239610D+00
      0.5442492580D+00  0.1143456438D+01  0.7443082909D+00
 SP   1 1.00       0.000000000000
      0.1687144782D+00  0.1000000000D+01  0.1000000000D+01
 D   1 1.00       0.000000000000
      0.8000000000D+00  0.1000000000D+01
 ****
     52 0
 S   3 1.00       0.000000000000
      0.1873113696D+02  0.3349460434D-01
      0.2825394365D+01  0.2347269535D+00
      0.6401216923D+00  0.8137573261D+00
 S   1 1.00       0.000000000000
      0.1612777588D+00  0.1000000000D+01
 ****
     53 0
 S   3 1.00       0.000000000000
      0.1873113696D+02  0.3349460434D-01
      0.2825394365D+01  0.2347269535D+00
      0.6401216923D+00  0.8137573261D+00
 S   1 1.00       0.000000000000
      0.1612777588D+00  0.1000000000D+01
 ****
     54 0
 S   6 1.00       0.000000000000
      0.3047524880D+04  0.1834737132D-02
      0.4573695180D+03  0.1403732281D-01
      0.1039486850D+03  0.6884262226D-01
      0.2921015530D+02  0.2321844432D+00
      0.9286662960D+01  0.4679413484D+00
      0.3163926960D+01  0.3623119853D+00
 SP   3 1.00       0.000000000000
      0.7868272350D+01 -0.1193324198D+00  0.6899906659D-01
      0.1881288540D+01 -0.1608541517D+00  0.3164239610D+00
      0.5442492580D+00  0.1143456438D+01  0.7443082909D+00
 SP   1 1.00       0.000000000000
      0.1687144782D+00  0.1000000000D+01  0.1000000000D+01
 D   1 1.00       0.000000000000
      0.8000000000D+00  0.1000000000D+01
 ****
     55 0
 S   3 1.00       0.000000000000
      0.1873113696D+02  0.3349460434D-01
      0.2825394365D+01  0.2347269535D+00
      0.6401216923D+00  0.8137573261D+00
 S   1 1.00       0.000000000000
      0.1612777588D+00  0.1000000000D+01
 ****
     56 0
 S   6 1.00       0.000000000000
      0.3047524880D+04  0.1834737132D-02
      0.4573695180D+03  0.1403732281D-01
      0.1039486850D+03  0.6884262226D-01
      0.2921015530D+02  0.2321844432D+00
      0.9286662960D+01  0.4679413484D+00
      0.3163926960D+01  0.3623119853D+00
 SP   3 1.00       0.000000000000
      0.7868272350D+01 -0.1193324198D+00  0.6899906659D-01
      0.1881288540D+01 -0.1608541517D+00  0.3164239610D+00
      0.5442492580D+00  0.1143456438D+01  0.7443082909D+00
 SP   1 1.00       0.000000000000
      0.1687144782D+00  0.1000000000D+01  0.1000000000D+01
 D   1 1.00       0.000000000000
      0.8000000000D+00  0.1000000000D+01
 ****
     57 0
 S   3 1.00       0.000000000000
      0.1873113696D+02  0.3349460434D-01
      0.2825394365D+01  0.2347269535D+00
      0.6401216923D+00  0.8137573261D+00
 S   1 1.00       0.000000000000
      0.1612777588D+00  0.1000000000D+01
 ****
     58 0
 S   3 1.00       0.000000000000
      0.1873113696D+02  0.3349460434D-01
      0.2825394365D+01  0.2347269535D+00
      0.6401216923D+00  0.8137573261D+00
 S   1 1.00       0.000000000000
      0.1612777588D+00  0.1000000000D+01
 ****
     59 0
 S   3 1.00       0.000000000000
      0.1873113696D+02  0.3349460434D-01
      0.2825394365D+01  0.2347269535D+00
      0.6401216923D+00  0.8137573261D+00
 S   1 1.00       0.000000000000
      0.1612777588D+00  0.1000000000D+01
 ****
     60 0
 S   6 1.00       0.000000000000
      0.3047524880D+04  0.1834737132D-02
      0.4573695180D+03  0.1403732281D-01
      0.1039486850D+03  0.6884262226D-01
      0.2921015530D+02  0.2321844432D+00
      0.9286662960D+01  0.4679413484D+00
      0.3163926960D+01  0.3623119853D+00
 SP   3 1.00       0.000000000000
      0.7868272350D+01 -0.1193324198D+00  0.6899906659D-01
      0.1881288540D+01 -0.1608541517D+00  0.3164239610D+00
      0.5442492580D+00  0.1143456438D+01  0.7443082909D+00
 SP   1 1.00       0.000000000000
      0.1687144782D+00  0.1000000000D+01  0.1000000000D+01
 D   1 1.00       0.000000000000
      0.8000000000D+00  0.1000000000D+01
 ****
     61 0
 S   3 1.00       0.000000000000
      0.1873113696D+02  0.3349460434D-01
      0.2825394365D+01  0.2347269535D+00
      0.6401216923D+00  0.8137573261D+00
 S   1 1.00       0.000000000000
      0.1612777588D+00  0.1000000000D+01
 ****
     62 0
 S   3 1.00       0.000000000000
      0.1873113696D+02  0.3349460434D-01
      0.2825394365D+01  0.2347269535D+00
      0.6401216923D+00  0.8137573261D+00
 S   1 1.00       0.000000000000
      0.1612777588D+00  0.1000000000D+01
 ****
     63 0
 S   6 1.00       0.000000000000
      0.3047524880D+04  0.1834737132D-02
      0.4573695180D+03  0.1403732281D-01
      0.1039486850D+03  0.6884262226D-01
      0.2921015530D+02  0.2321844432D+00
      0.9286662960D+01  0.4679413484D+00
      0.3163926960D+01  0.3623119853D+00
 SP   3 1.00       0.000000000000
      0.7868272350D+01 -0.1193324198D+00  0.6899906659D-01
      0.1881288540D+01 -0.1608541517D+00  0.3164239610D+00
      0.5442492580D+00  0.1143456438D+01  0.7443082909D+00
 SP   1 1.00       0.000000000000
      0.1687144782D+00  0.1000000000D+01  0.1000000000D+01
 D   1 1.00       0.000000000000
      0.8000000000D+00  0.1000000000D+01
 ****
     64 0
 S   3 1.00       0.000000000000
      0.1873113696D+02  0.3349460434D-01
      0.2825394365D+01  0.2347269535D+00
      0.6401216923D+00  0.8137573261D+00
 S   1 1.00       0.000000000000
      0.1612777588D+00  0.1000000000D+01
 ****
     65 0
 S   3 1.00       0.000000000000
      0.1873113696D+02  0.3349460434D-01
      0.2825394365D+01  0.2347269535D+00
      0.6401216923D+00  0.8137573261D+00
 S   1 1.00       0.000000000000
      0.1612777588D+00  0.1000000000D+01
 ****
     66 0
 S   6 1.00       0.000000000000
      0.3047524880D+04  0.1834737132D-02
      0.4573695180D+03  0.1403732281D-01
      0.1039486850D+03  0.6884262226D-01
      0.2921015530D+02  0.2321844432D+00
      0.9286662960D+01  0.4679413484D+00
      0.3163926960D+01  0.3623119853D+00
 SP   3 1.00       0.000000000000
      0.7868272350D+01 -0.1193324198D+00  0.6899906659D-01
      0.1881288540D+01 -0.1608541517D+00  0.3164239610D+00
      0.5442492580D+00  0.1143456438D+01  0.7443082909D+00
 SP   1 1.00       0.000000000000
      0.1687144782D+00  0.1000000000D+01  0.1000000000D+01
 D   1 1.00       0.000000000000
      0.8000000000D+00  0.1000000000D+01
 ****
     67 0
 S   3 1.00       0.000000000000
      0.1873113696D+02  0.3349460434D-01
      0.2825394365D+01  0.2347269535D+00
      0.6401216923D+00  0.8137573261D+00
 S   1 1.00       0.000000000000
      0.1612777588D+00  0.1000000000D+01
 ****
     68 0
 S   6 1.00       0.000000000000
      0.3047524880D+04  0.1834737132D-02
      0.4573695180D+03  0.1403732281D-01
      0.1039486850D+03  0.6884262226D-01
      0.2921015530D+02  0.2321844432D+00
      0.9286662960D+01  0.4679413484D+00
      0.3163926960D+01  0.3623119853D+00
 SP   3 1.00       0.000000000000
      0.7868272350D+01 -0.1193324198D+00  0.6899906659D-01
      0.1881288540D+01 -0.1608541517D+00  0.3164239610D+00
      0.5442492580D+00  0.1143456438D+01  0.7443082909D+00
 SP   1 1.00       0.000000000000
      0.1687144782D+00  0.1000000000D+01  0.1000000000D+01
 D   1 1.00       0.000000000000
      0.8000000000D+00  0.1000000000D+01
 ****
     69 0
 S   3 1.00       0.000000000000
      0.1873113696D+02  0.3349460434D-01
      0.2825394365D+01  0.2347269535D+00
      0.6401216923D+00  0.8137573261D+00
 S   1 1.00       0.000000000000
      0.1612777588D+00  0.1000000000D+01
 ****
     70 0
 S   3 1.00       0.000000000000
      0.1873113696D+02  0.3349460434D-01
      0.2825394365D+01  0.2347269535D+00
      0.6401216923D+00  0.8137573261D+00
 S   1 1.00       0.000000000000
      0.1612777588D+00  0.1000000000D+01
 ****
     71 0
 S   3 1.00       0.000000000000
      0.1873113696D+02  0.3349460434D-01
      0.2825394365D+01  0.2347269535D+00
      0.6401216923D+00  0.8137573261D+00
 S   1 1.00       0.000000000000
      0.1612777588D+00  0.1000000000D+01
 ****
     72 0
 S   6 1.00       0.000000000000
      0.3047524880D+04  0.1834737132D-02
      0.4573695180D+03  0.1403732281D-01
      0.1039486850D+03  0.6884262226D-01
      0.2921015530D+02  0.2321844432D+00
      0.9286662960D+01  0.4679413484D+00
      0.3163926960D+01  0.3623119853D+00
 SP   3 1.00       0.000000000000
      0.7868272350D+01 -0.1193324198D+00  0.6899906659D-01
      0.1881288540D+01 -0.1608541517D+00  0.3164239610D+00
      0.5442492580D+00  0.1143456438D+01  0.7443082909D+00
 SP   1 1.00       0.000000000000
      0.1687144782D+00  0.1000000000D+01  0.1000000000D+01
 D   1 1.00       0.000000000000
      0.8000000000D+00  0.1000000000D+01
 ****
     73 0
 S   3 1.00       0.000000000000
      0.1873113696D+02  0.3349460434D-01
      0.2825394365D+01  0.2347269535D+00
      0.6401216923D+00  0.8137573261D+00
 S   1 1.00       0.000000000000
      0.1612777588D+00  0.1000000000D+01
 ****
     74 0
 S   3 1.00       0.000000000000
      0.1873113696D+02  0.3349460434D-01
      0.2825394365D+01  0.2347269535D+00
      0.6401216923D+00  0.8137573261D+00
 S   1 1.00       0.000000000000
      0.1612777588D+00  0.1000000000D+01
 ****
     75 0
 S   3 1.00       0.000000000000
      0.1873113696D+02  0.3349460434D-01
      0.2825394365D+01  0.2347269535D+00
      0.6401216923D+00  0.8137573261D+00
 S   1 1.00       0.000000000000
      0.1612777588D+00  0.1000000000D+01
 ****

 AO basis set (Overlap normalization):
 Atom O1       Shell     1 S   6     bf    1 -     1          0.000000000000          0.000000000000          0.000000000000
      0.5484671660D+04  0.1831074430D-02
      0.8252349460D+03  0.1395017220D-01
      0.1880469580D+03  0.6844507810D-01
      0.5296450000D+02  0.2327143360D+00
      0.1689757040D+02  0.4701928980D+00
      0.5799635340D+01  0.3585208530D+00
 Atom O1       Shell     2 SP   3    bf    2 -     5          0.000000000000          0.000000000000          0.000000000000
      0.1553961625D+02 -0.1107775495D+00  0.7087426823D-01
      0.3599933586D+01 -0.1480262627D+00  0.3397528391D+00
      0.1013761750D+01  0.1130767015D+01  0.7271585773D+00
 Atom O1       Shell     3 SP   1    bf    6 -     9          0.000000000000          0.000000000000          0.000000000000
      0.2700058226D+00  0.1000000000D+01  0.1000000000D+01
 Atom O1       Shell     4 D   1     bf   10 -    15          0.000000000000          0.000000000000          0.000000000000
      0.8000000000D+00  0.1000000000D+01
 Atom H2       Shell     5 S   3     bf   16 -    16          1.828563011204          0.000000000000          0.000000000000
      0.1873113696D+02  0.3349460434D-01
      0.2825394365D+01  0.2347269535D+00
      0.6401216923D+00  0.8137573261D+00
 Atom H2       Shell     6 S   1     bf   17 -    17          1.828563011204          0.000000000000          0.000000000000
      0.1612777588D+00  0.1000000000D+01
 Atom O3       Shell     7 S   6     bf   18 -    18          3.018296223029         -1.891982522580         13.066041541024
      0.5484671660D+04  0.1831074430D-02
      0.8252349460D+03  0.1395017220D-01
      0.1880469580D+03  0.6844507810D-01
      0.5296450000D+02  0.2327143360D+00
      0.1689757040D+02  0.4701928980D+00
      0.5799635340D+01  0.3585208530D+00
 Atom O3       Shell     8 SP   3    bf   19 -    22          3.018296223029         -1.891982522580         13.066041541024
      0.1553961625D+02 -0.1107775495D+00  0.7087426823D-01
      0.3599933586D+01 -0.1480262627D+00  0.3397528391D+00
      0.1013761750D+01  0.1130767015D+01  0.7271585773D+00
 Atom O3       Shell     9 SP   1    bf   23 -    26          3.018296223029         -1.891982522580         13.066041541024
      0.2700058226D+00  0.1000000000D+01  0.1000000000D+01
 Atom O3       Shell    10 D   1     bf   27 -    32          3.018296223029         -1.891982522580         13.066041541024
      0.8000000000D+00  0.1000000000D+01
 Atom H4       Shell    11 S   3     bf   33 -    33          4.788386496750         -1.434338398705         13.086692600485
      0.1873113696D+02  0.3349460434D-01
      0.2825394365D+01  0.2347269535D+00
      0.6401216923D+00  0.8137573261D+00
 Atom H4       Shell    12 S   1     bf   34 -    34          4.788386496750         -1.434338398705         13.086692600485
      0.1612777588D+00  0.1000000000D+01
 Atom C5       Shell    13 S   6     bf   35 -    35         -2.199813523908          8.265009809575          0.928624063968
      0.3047524880D+04  0.1834737132D-02
      0.4573695180D+03  0.1403732281D-01
      0.1039486850D+03  0.6884262226D-01
      0.2921015530D+02  0.2321844432D+00
      0.9286662960D+01  0.4679413484D+00
      0.3163926960D+01  0.3623119853D+00
 Atom C5       Shell    14 SP   3    bf   36 -    39         -2.199813523908          8.265009809575          0.928624063968
      0.7868272350D+01 -0.1193324198D+00  0.6899906659D-01
      0.1881288540D+01 -0.1608541517D+00  0.3164239610D+00
      0.5442492580D+00  0.1143456438D+01  0.7443082909D+00
 Atom C5       Shell    15 SP   1    bf   40 -    43         -2.199813523908          8.265009809575          0.928624063968
      0.1687144782D+00  0.1000000000D+01  0.1000000000D+01
 Atom C5       Shell    16 D   1     bf   44 -    49         -2.199813523908          8.265009809575          0.928624063968
      0.8000000000D+00  0.1000000000D+01
 Atom C6       Shell    17 S   6     bf   50 -    50         -2.403731111907          5.341215521226          0.845746855184
      0.3047524880D+04  0.1834737132D-02
      0.4573695180D+03  0.1403732281D-01
      0.1039486850D+03  0.6884262226D-01
      0.2921015530D+02  0.2321844432D+00
      0.9286662960D+01  0.4679413484D+00
      0.3163926960D+01  0.3623119853D+00
 Atom C6       Shell    18 SP   3    bf   51 -    54         -2.403731111907          5.341215521226          0.845746855184
      0.7868272350D+01 -0.1193324198D+00  0.6899906659D-01
      0.1881288540D+01 -0.1608541517D+00  0.3164239610D+00
      0.5442492580D+00  0.1143456438D+01  0.7443082909D+00
 Atom C6       Shell    19 SP   1    bf   55 -    58         -2.403731111907          5.341215521226          0.845746855184
      0.1687144782D+00  0.1000000000D+01  0.1000000000D+01
 Atom C6       Shell    20 D   1     bf   59 -    64         -2.403731111907          5.341215521226          0.845746855184
      0.8000000000D+00  0.1000000000D+01
 Atom H7       Shell    21 S   3     bf   65 -    65         -4.248383704941          4.902820091048          1.714375931679
      0.1873113696D+02  0.3349460434D-01
      0.2825394365D+01  0.2347269535D+00
      0.6401216923D+00  0.8137573261D+00
 Atom H7       Shell    22 S   1     bf   66 -    66         -4.248383704941          4.902820091048          1.714375931679
      0.1612777588D+00  0.1000000000D+01
 Atom C8       Shell    23 S   6     bf   67 -    67         -0.445813228859          3.943064017363          2.476309445548
      0.3047524880D+04  0.1834737132D-02
      0.4573695180D+03  0.1403732281D-01
      0.1039486850D+03  0.6884262226D-01
      0.2921015530D+02  0.2321844432D+00
      0.9286662960D+01  0.4679413484D+00
      0.3163926960D+01  0.3623119853D+00
 Atom C8       Shell    24 SP   3    bf   68 -    71         -0.445813228859          3.943064017363          2.476309445548
      0.7868272350D+01 -0.1193324198D+00  0.6899906659D-01
      0.1881288540D+01 -0.1608541517D+00  0.3164239610D+00
      0.5442492580D+00  0.1143456438D+01  0.7443082909D+00
 Atom C8       Shell    25 SP   1    bf   72 -    75         -0.445813228859          3.943064017363          2.476309445548
      0.1687144782D+00  0.1000000000D+01  0.1000000000D+01
 Atom C8       Shell    26 D   1     bf   76 -    81         -0.445813228859          3.943064017363          2.476309445548
      0.8000000000D+00  0.1000000000D+01
 Atom H9       Shell    27 S   3     bf   82 -    82          1.466380954062          4.325134157041          1.756976802681
      0.1873113696D+02  0.3349460434D-01
      0.2825394365D+01  0.2347269535D+00
      0.6401216923D+00  0.8137573261D+00
 Atom H9       Shell    28 S   1     bf   83 -    83          1.466380954062          4.325134157041          1.756976802681
      0.1612777588D+00  0.1000000000D+01
 Atom C10      Shell    29 S   6     bf   84 -    84         -0.651638854437          4.872091575655          5.260991053296
      0.3047524880D+04  0.1834737132D-02
      0.4573695180D+03  0.1403732281D-01
      0.1039486850D+03  0.6884262226D-01
      0.2921015530D+02  0.2321844432D+00
      0.9286662960D+01  0.4679413484D+00
      0.3163926960D+01  0.3623119853D+00
 Atom C10      Shell    30 SP   3    bf   85 -    88         -0.651638854437          4.872091575655          5.260991053296
      0.7868272350D+01 -0.1193324198D+00  0.6899906659D-01
      0.1881288540D+01 -0.1608541517D+00  0.3164239610D+00
      0.5442492580D+00  0.1143456438D+01  0.7443082909D+00
 Atom C10      Shell    31 SP   1    bf   89 -    92         -0.651638854437          4.872091575655          5.260991053296
      0.1687144782D+00  0.1000000000D+01  0.1000000000D+01
 Atom C10      Shell    32 D   1     bf   93 -    98         -0.651638854437          4.872091575655          5.260991053296
      0.8000000000D+00  0.1000000000D+01
 Atom H11      Shell    33 S   3     bf   99 -    99         -2.510549884678          4.210007940319          5.929433484788
      0.1873113696D+02  0.3349460434D-01
      0.2825394365D+01  0.2347269535D+00
      0.6401216923D+00  0.8137573261D+00
 Atom H11      Shell    34 S   1     bf  100 -   100         -2.510549884678          4.210007940319          5.929433484788
      0.1612777588D+00  0.1000000000D+01
 Atom C12      Shell    35 S   6     bf  101 -   101         -4.416926545699          8.969480984729         -0.884414280137
      0.3047524880D+04  0.1834737132D-02
      0.4573695180D+03  0.1403732281D-01
      0.1039486850D+03  0.6884262226D-01
      0.2921015530D+02  0.2321844432D+00
      0.9286662960D+01  0.4679413484D+00
      0.3163926960D+01  0.3623119853D+00
 Atom C12      Shell    36 SP   3    bf  102 -   105         -4.416926545699          8.969480984729         -0.884414280137
      0.7868272350D+01 -0.1193324198D+00  0.6899906659D-01
      0.1881288540D+01 -0.1608541517D+00  0.3164239610D+00
      0.5442492580D+00  0.1143456438D+01  0.7443082909D+00
 Atom C12      Shell    37 SP   1    bf  106 -   109         -4.416926545699          8.969480984729         -0.884414280137
      0.1687144782D+00  0.1000000000D+01  0.1000000000D+01
 Atom C12      Shell    38 D   1     bf  110 -   115         -4.416926545699          8.969480984729         -0.884414280137
      0.8000000000D+00  0.1000000000D+01
 Atom H13      Shell    39 S   3     bf  116 -   116         -6.122544995150          8.452369503815          0.184834585489
      0.1873113696D+02  0.3349460434D-01
      0.2825394365D+01  0.2347269535D+00
      0.6401216923D+00  0.8137573261D+00
 Atom H13      Shell    40 S   1     bf  117 -   117         -6.122544995150          8.452369503815          0.184834585489
      0.1612777588D+00  0.1000000000D+01
 Atom C14      Shell    41 S   6     bf  118 -   118         -2.584516619006          9.092094598745          3.687586121102
      0.3047524880D+04  0.1834737132D-02
      0.4573695180D+03  0.1403732281D-01
      0.1039486850D+03  0.6884262226D-01
      0.2921015530D+02  0.2321844432D+00
      0.9286662960D+01  0.4679413484D+00
      0.3163926960D+01  0.3623119853D+00
 Atom C14      Shell    42 SP   3    bf  119 -   122         -2.584516619006          9.092094598745          3.687586121102
      0.7868272350D+01 -0.1193324198D+00  0.6899906659D-01
      0.1881288540D+01 -0.1608541517D+00  0.3164239610D+00
      0.5442492580D+00  0.1143456438D+01  0.7443082909D+00
 Atom C14      Shell    43 SP   1    bf  123 -   126         -2.584516619006          9.092094598745          3.687586121102
      0.1687144782D+00  0.1000000000D+01  0.1000000000D+01
 Atom C14      Shell    44 D   1     bf  127 -   132         -2.584516619006          9.092094598745          3.687586121102
      0.8000000000D+00  0.1000000000D+01
 Atom H15      Shell    45 S   3     bf  133 -   133         -4.518920186249          8.602517202375          4.267644795242
      0.1873113696D+02  0.3349460434D-01
      0.2825394365D+01  0.2347269535D+00
      0.6401216923D+00  0.8137573261D+00
 Atom H15      Shell    46 S   1     bf  134 -   134         -4.518920186249          8.602517202375          4.267644795242
      0.1612777588D+00  0.1000000000D+01
 Atom H16      Shell    47 S   3     bf  135 -   135         -2.409071818109         11.150211732893          3.890167880595
      0.1873113696D+02  0.3349460434D-01
      0.2825394365D+01  0.2347269535D+00
      0.6401216923D+00  0.8137573261D+00
 Atom H16      Shell    48 S   1     bf  136 -   136         -2.409071818109         11.150211732893          3.890167880595
      0.1612777588D+00  0.1000000000D+01
 Atom C17      Shell    49 S   6     bf  137 -   137          1.335476809145          3.603292468095          7.059860287548
      0.3047524880D+04  0.1834737132D-02
      0.4573695180D+03  0.1403732281D-01
      0.1039486850D+03  0.6884262226D-01
      0.2921015530D+02  0.2321844432D+00
      0.9286662960D+01  0.4679413484D+00
      0.3163926960D+01  0.3623119853D+00
 Atom C17      Shell    50 SP   3    bf  138 -   141          1.335476809145          3.603292468095          7.059860287548
      0.7868272350D+01 -0.1193324198D+00  0.6899906659D-01
      0.1881288540D+01 -0.1608541517D+00  0.3164239610D+00
      0.5442492580D+00  0.1143456438D+01  0.7443082909D+00
 Atom C17      Shell    51 SP   1    bf  142 -   145          1.335476809145          3.603292468095          7.059860287548
      0.1687144782D+00  0.1000000000D+01  0.1000000000D+01
 Atom C17      Shell    52 D   1     bf  146 -   151          1.335476809145          3.603292468095          7.059860287548
      0.8000000000D+00  0.1000000000D+01
 Atom C18      Shell    53 S   6     bf  152 -   152         -2.671722831312          4.730793710240         -1.990711491160
      0.3047524880D+04  0.1834737132D-02
      0.4573695180D+03  0.1403732281D-01
      0.1039486850D+03  0.6884262226D-01
      0.2921015530D+02  0.2321844432D+00
      0.9286662960D+01  0.4679413484D+00
      0.3163926960D+01  0.3623119853D+00
 Atom C18      Shell    54 SP   3    bf  153 -   156         -2.671722831312          4.730793710240         -1.990711491160
      0.7868272350D+01 -0.1193324198D+00  0.6899906659D-01
      0.1881288540D+01 -0.1608541517D+00  0.3164239610D+00
      0.5442492580D+00  0.1143456438D+01  0.7443082909D+00
 Atom C18      Shell    55 SP   1    bf  157 -   160         -2.671722831312          4.730793710240         -1.990711491160
      0.1687144782D+00  0.1000000000D+01  0.1000000000D+01
 Atom C18      Shell    56 D   1     bf  161 -   166         -2.671722831312          4.730793710240         -1.990711491160
      0.8000000000D+00  0.1000000000D+01
 Atom H19      Shell    57 S   3     bf  167 -   167         -3.613648053920          2.922164626327         -2.313496462295
      0.1873113696D+02  0.3349460434D-01
      0.2825394365D+01  0.2347269535D+00
      0.6401216923D+00  0.8137573261D+00
 Atom H19      Shell    58 S   1     bf  168 -   168         -3.613648053920          2.922164626327         -2.313496462295
      0.1612777588D+00  0.1000000000D+01
 Atom H20      Shell    59 S   3     bf  169 -   169         -0.812470327559          4.574025601838         -2.885473420272
      0.1873113696D+02  0.3349460434D-01
      0.2825394365D+01  0.2347269535D+00
      0.6401216923D+00  0.8137573261D+00
 Atom H20      Shell    60 S   1     bf  170 -   170         -0.812470327559          4.574025601838         -2.885473420272
      0.1612777588D+00  0.1000000000D+01
 Atom C21      Shell    61 S   6     bf  171 -   171         -0.683253084469          7.792672365818          5.470135982827
      0.3047524880D+04  0.1834737132D-02
      0.4573695180D+03  0.1403732281D-01
      0.1039486850D+03  0.6884262226D-01
      0.2921015530D+02  0.2321844432D+00
      0.9286662960D+01  0.4679413484D+00
      0.3163926960D+01  0.3623119853D+00
 Atom C21      Shell    62 SP   3    bf  172 -   175         -0.683253084469          7.792672365818          5.470135982827
      0.7868272350D+01 -0.1193324198D+00  0.6899906659D-01
      0.1881288540D+01 -0.1608541517D+00  0.3164239610D+00
      0.5442492580D+00  0.1143456438D+01  0.7443082909D+00
 Atom C21      Shell    63 SP   1    bf  176 -   179         -0.683253084469          7.792672365818          5.470135982827
      0.1687144782D+00  0.1000000000D+01  0.1000000000D+01
 Atom C21      Shell    64 D   1     bf  180 -   185         -0.683253084469          7.792672365818          5.470135982827
      0.8000000000D+00  0.1000000000D+01
 Atom H22      Shell    65 S   3     bf  186 -   186          1.206469571320          8.543703388222          5.088292742566
      0.1873113696D+02  0.3349460434D-01
      0.2825394365D+01  0.2347269535D+00
      0.6401216923D+00  0.8137573261D+00
 Atom H22      Shell    66 S   1     bf  187 -   187          1.206469571320          8.543703388222          5.088292742566
      0.1612777588D+00  0.1000000000D+01
 Atom H23      Shell    67 S   3     bf  188 -   188         -1.127598355171          8.336427473425          7.417604303970
      0.1873113696D+02  0.3349460434D-01
      0.2825394365D+01  0.2347269535D+00
      0.6401216923D+00  0.8137573261D+00
 Atom H23      Shell    68 S   1     bf  189 -   189         -1.127598355171          8.336427473425          7.417604303970
      0.1612777588D+00  0.1000000000D+01
 Atom C24      Shell    69 S   6     bf  190 -   190         -4.182486970475          7.015247784181         -3.080110941178
      0.3047524880D+04  0.1834737132D-02
      0.4573695180D+03  0.1403732281D-01
      0.1039486850D+03  0.6884262226D-01
      0.2921015530D+02  0.2321844432D+00
      0.9286662960D+01  0.4679413484D+00
      0.3163926960D+01  0.3623119853D+00
 Atom C24      Shell    70 SP   3    bf  191 -   194         -4.182486970475          7.015247784181         -3.080110941178
      0.7868272350D+01 -0.1193324198D+00  0.6899906659D-01
      0.1881288540D+01 -0.1608541517D+00  0.3164239610D+00
      0.5442492580D+00  0.1143456438D+01  0.7443082909D+00
 Atom C24      Shell    71 SP   1    bf  195 -   198         -4.182486970475          7.015247784181         -3.080110941178
      0.1687144782D+00  0.1000000000D+01  0.1000000000D+01
 Atom C24      Shell    72 D   1     bf  199 -   204         -4.182486970475          7.015247784181         -3.080110941178
      0.8000000000D+00  0.1000000000D+01
 Atom H25      Shell    73 S   3     bf  205 -   205         -3.194782111846          7.820150835722         -4.707328716286
      0.1873113696D+02  0.3349460434D-01
      0.2825394365D+01  0.2347269535D+00
      0.6401216923D+00  0.8137573261D+00
 Atom H25      Shell    74 S   1     bf  206 -   206         -3.194782111846          7.820150835722         -4.707328716286
      0.1612777588D+00  0.1000000000D+01
 Atom H26      Shell    75 S   3     bf  207 -   207         -6.050700083119          6.440594463774         -3.760030435365
      0.1873113696D+02  0.3349460434D-01
      0.2825394365D+01  0.2347269535D+00
      0.6401216923D+00  0.8137573261D+00
 Atom H26      Shell    76 S   1     bf  208 -   208         -6.050700083119          6.440594463774         -3.760030435365
      0.1612777588D+00  0.1000000000D+01
 Atom C27      Shell    77 S   6     bf  209 -   209         -0.837513923135          1.060446124457          2.364685439371
      0.3047524880D+04  0.1834737132D-02
      0.4573695180D+03  0.1403732281D-01
      0.1039486850D+03  0.6884262226D-01
      0.2921015530D+02  0.2321844432D+00
      0.9286662960D+01  0.4679413484D+00
      0.3163926960D+01  0.3623119853D+00
 Atom C27      Shell    78 SP   3    bf  210 -   213         -0.837513923135          1.060446124457          2.364685439371
      0.7868272350D+01 -0.1193324198D+00  0.6899906659D-01
      0.1881288540D+01 -0.1608541517D+00  0.3164239610D+00
      0.5442492580D+00  0.1143456438D+01  0.7443082909D+00
 Atom C27      Shell    79 SP   1    bf  214 -   217         -0.837513923135          1.060446124457          2.364685439371
      0.1687144782D+00  0.1000000000D+01  0.1000000000D+01
 Atom C27      Shell    80 D   1     bf  218 -   223         -0.837513923135          1.060446124457          2.364685439371
      0.8000000000D+00  0.1000000000D+01
 Atom H28      Shell    81 S   3     bf  224 -   224         -2.875876011469          0.659227843409          2.371929780091
      0.1873113696D+02  0.3349460434D-01
      0.2825394365D+01  0.2347269535D+00
      0.6401216923D+00  0.8137573261D+00
 Atom H28      Shell    82 S   1     bf  225 -   225         -2.875876011469          0.659227843409          2.371929780091
      0.1612777588D+00  0.1000000000D+01
 Atom C29      Shell    83 S   6     bf  226 -   226         -4.792182767578         11.792878621186         -1.619651859693
      0.3047524880D+04  0.1834737132D-02
      0.4573695180D+03  0.1403732281D-01
      0.1039486850D+03  0.6884262226D-01
      0.2921015530D+02  0.2321844432D+00
      0.9286662960D+01  0.4679413484D+00
      0.3163926960D+01  0.3623119853D+00
 Atom C29      Shell    84 SP   3    bf  227 -   230         -4.792182767578         11.792878621186         -1.619651859693
      0.7868272350D+01 -0.1193324198D+00  0.6899906659D-01
      0.1881288540D+01 -0.1608541517D+00  0.3164239610D+00
      0.5442492580D+00  0.1143456438D+01  0.7443082909D+00
 Atom C29      Shell    85 SP   1    bf  231 -   234         -4.792182767578         11.792878621186         -1.619651859693
      0.1687144782D+00  0.1000000000D+01  0.1000000000D+01
 Atom C29      Shell    86 D   1     bf  235 -   240         -4.792182767578         11.792878621186         -1.619651859693
      0.8000000000D+00  0.1000000000D+01
 Atom H30      Shell    87 S   3     bf  241 -   241         -4.138688674510         12.923705478969          0.000000000000
      0.1873113696D+02  0.3349460434D-01
      0.2825394365D+01  0.2347269535D+00
      0.6401216923D+00  0.8137573261D+00
 Atom H30      Shell    88 S   1     bf  242 -   242         -4.138688674510         12.923705478969          0.000000000000
      0.1612777588D+00  0.1000000000D+01
 Atom C31      Shell    89 S   6     bf  243 -   243          0.368512734174          9.234618253913         -0.063951733844
      0.3047524880D+04  0.1834737132D-02
      0.4573695180D+03  0.1403732281D-01
      0.1039486850D+03  0.6884262226D-01
      0.2921015530D+02  0.2321844432D+00
      0.9286662960D+01  0.4679413484D+00
      0.3163926960D+01  0.3623119853D+00
 Atom C31      Shell    90 SP   3    bf  244 -   247          0.368512734174          9.234618253913         -0.063951733844
      0.7868272350D+01 -0.1193324198D+00  0.6899906659D-01
      0.1881288540D+01 -0.1608541517D+00  0.3164239610D+00
      0.5442492580D+00  0.1143456438D+01  0.7443082909D+00
 Atom C31      Shell    91 SP   1    bf  248 -   251          0.368512734174          9.234618253913         -0.063951733844
      0.1687144782D+00  0.1000000000D+01  0.1000000000D+01
 Atom C31      Shell    92 D   1     bf  252 -   257          0.368512734174          9.234618253913         -0.063951733844
      0.8000000000D+00  0.1000000000D+01
 Atom H32      Shell    93 S   3     bf  258 -   258          1.952907387591          8.533366265021          1.060758458392
      0.1873113696D+02  0.3349460434D-01
      0.2825394365D+01  0.2347269535D+00
      0.6401216923D+00  0.8137573261D+00
 Atom H32      Shell    94 S   1     bf  259 -   259          1.952907387591          8.533366265021          1.060758458392
      0.1612777588D+00  0.1000000000D+01
 Atom H33      Shell    95 S   3     bf  260 -   260          0.715726251720          8.663583626770         -2.019104985354
      0.1873113696D+02  0.3349460434D-01
      0.2825394365D+01  0.2347269535D+00
      0.6401216923D+00  0.8137573261D+00
 Atom H33      Shell    96 S   1     bf  261 -   261          0.715726251720          8.663583626770         -2.019104985354
      0.1612777588D+00  0.1000000000D+01
 Atom H34      Shell    97 S   3     bf  262 -   262          0.439109123046         11.302007896251          0.010459993193
      0.1873113696D+02  0.3349460434D-01
      0.2825394365D+01  0.2347269535D+00
      0.6401216923D+00  0.8137573261D+00
 Atom H34      Shell    98 S   1     bf  263 -   263          0.439109123046         11.302007896251          0.010459993193
      0.1612777588D+00  0.1000000000D+01
 Atom C35      Shell    99 S   6     bf  264 -   264          1.424440920289          0.749003384057          6.573217824835
      0.3047524880D+04  0.1834737132D-02
      0.4573695180D+03  0.1403732281D-01
      0.1039486850D+03  0.6884262226D-01
      0.2921015530D+02  0.2321844432D+00
      0.9286662960D+01  0.4679413484D+00
      0.3163926960D+01  0.3623119853D+00
 Atom C35      Shell   100 SP   3    bf  265 -   268          1.424440920289          0.749003384057          6.573217824835
      0.7868272350D+01 -0.1193324198D+00  0.6899906659D-01
      0.1881288540D+01 -0.1608541517D+00  0.3164239610D+00
      0.5442492580D+00  0.1143456438D+01  0.7443082909D+00
 Atom C35      Shell   101 SP   1    bf  269 -   272          1.424440920289          0.749003384057          6.573217824835
      0.1687144782D+00  0.1000000000D+01  0.1000000000D+01
 Atom C35      Shell   102 D   1     bf  273 -   278          1.424440920289          0.749003384057          6.573217824835
      0.8000000000D+00  0.1000000000D+01
 Atom C36      Shell   103 S   6     bf  279 -   279          0.491325355249          4.033389638392          9.853423815990
      0.3047524880D+04  0.1834737132D-02
      0.4573695180D+03  0.1403732281D-01
      0.1039486850D+03  0.6884262226D-01
      0.2921015530D+02  0.2321844432D+00
      0.9286662960D+01  0.4679413484D+00
      0.3163926960D+01  0.3623119853D+00
 Atom C36      Shell   104 SP   3    bf  280 -   283          0.491325355249          4.033389638392          9.853423815990
      0.7868272350D+01 -0.1193324198D+00  0.6899906659D-01
      0.1881288540D+01 -0.1608541517D+00  0.3164239610D+00
      0.5442492580D+00  0.1143456438D+01  0.7443082909D+00
 Atom C36      Shell   105 SP   1    bf  284 -   287          0.491325355249          4.033389638392          9.853423815990
      0.1687144782D+00  0.1000000000D+01  0.1000000000D+01
 Atom C36      Shell   106 D   1     bf  288 -   293          0.491325355249          4.033389638392          9.853423815990
      0.8000000000D+00  0.1000000000D+01
 Atom H37      Shell   107 S   3     bf  294 -   294         -1.529474071940          3.578474241258          9.997817752010
      0.1873113696D+02  0.3349460434D-01
      0.2825394365D+01  0.2347269535D+00
      0.6401216923D+00  0.8137573261D+00
 Atom H37      Shell   108 S   1     bf  295 -   295         -1.529474071940          3.578474241258          9.997817752010
      0.1612777588D+00  0.1000000000D+01
 Atom H38      Shell   109 S   3     bf  296 -   296          0.676557690294          6.039043288571         10.328019444682
      0.1873113696D+02  0.3349460434D-01
      0.2825394365D+01  0.2347269535D+00
      0.6401216923D+00  0.8137573261D+00
 Atom H38      Shell   110 S   1     bf  297 -   297          0.676557690294          6.039043288571         10.328019444682
      0.1612777588D+00  0.1000000000D+01
 Atom C39      Shell   111 S   6     bf  298 -   298          0.394519371982         -0.320312340079          4.519319806634
      0.3047524880D+04  0.1834737132D-02
[...]
 1570 Fit      -0.000982
 1571 Fit       0.001158
 1572 Fit       0.002665
 1573 Fit       0.003222
 1574 Fit       0.001833
 1575 Fit       0.000469
 1576 Fit       0.001494
 1577 Fit       0.001795
 1578 Fit      -0.000686
 1579 Fit       0.003039
 1580 Fit       0.003141
 1581 Fit       0.002102
 1582 Fit      -0.000243
 1583 Fit       0.003891
 1584 Fit       0.003534
 1585 Fit       0.001383
 1586 Fit      -0.000947
 1587 Fit       0.002824
 1588 Fit       0.000376
 1589 Fit      -0.002205
 1590 Fit      -0.002693
 1591 Fit      -0.002649
 1592 Fit      -0.001912
 1593 Fit      -0.002492
 1594 Fit      -0.002301
 1595 Fit      -0.001338
 1596 Fit       0.002795
 1597 Fit       0.000991
 1598 Fit       0.001851
 1599 Fit       0.003120
 1600 Fit      -0.000936
 1601 Fit       0.000422
 1602 Fit       0.001699
 1603 Fit       0.003246
 1604 Fit      -0.001669
 1605 Fit      -0.000637
 1606 Fit       0.000466
 1607 Fit       0.001455
 1608 Fit       0.000290
 1609 Fit      -0.001591
 1610 Fit       0.003081
 1611 Fit       0.002316
 1612 Fit       0.000863
 1613 Fit      -0.001327
 1614 Fit       0.002174
 1615 Fit       0.002410
 1616 Fit       0.001513
 1617 Fit      -0.000509
 1618 Fit       0.000638
 1619 Fit      -0.000646
 1620 Fit      -0.001197
 1621 Fit       0.000138
 1622 Fit       0.000836
 1623 Fit      -0.001514
 1624 Fit       0.000289
 1625 Fit       0.001631
 1626 Fit       0.002280
 1627 Fit      -0.000151
 1628 Fit      -0.001340
 1629 Fit      -0.000353
 1630 Fit       0.001534
 1631 Fit       0.002298
 1632 Fit       0.001469
 1633 Fit       0.000881
 1634 Fit      -0.019155
 1635 Fit      -0.018490
 1636 Fit      -0.013749
 1637 Fit      -0.005246
 1638 Fit      -0.022608
 1639 Fit      -0.023860
 1640 Fit      -0.020682
 1641 Fit      -0.012770
 1642 Fit      -0.024690
 1643 Fit      -0.024841
 1644 Fit      -0.020308
 1645 Fit      -0.011442
 1646 Fit      -0.009699
 1647 Fit      -0.023339
 1648 Fit      -0.016028
 1649 Fit      -0.019909
 1650 Fit       0.016662
 1651 Fit       0.018502
 1652 Fit       0.008053
 1653 Fit       0.013459
 1654 Fit       0.016240
 1655 Fit       0.016710
 1656 Fit       0.006935
 1657 Fit       0.013159
 1658 Fit       0.011608
 1659 Fit       0.010716
 1660 Fit      -0.001285
 1661 Fit       0.007820
 1662 Fit       0.002738
 1663 Fit      -0.017594
 1664 Fit      -0.008432
 1665 Fit      -0.009394
 1666 Fit      -0.015399
 1667 Fit      -0.021160
 1668 Fit      -0.022897
 1669 Fit      -0.016814
 1670 Fit       0.000830
 1671 Fit      -0.019138
 1672 Fit      -0.023582
 1673 Fit      -0.025297
 1674 Fit      -0.022579
 1675 Fit      -0.014969
 1676 Fit      -0.004096
 1677 Fit      -0.021690
 1678 Fit      -0.024932
 1679 Fit      -0.023967
 1680 Fit      -0.018039
 1681 Fit      -0.007242
 1682 Fit      -0.020622
 1683 Fit      -0.022605
 1684 Fit      -0.020249
 1685 Fit      -0.013161
 1686 Fit      -0.001393
 1687 Fit      -0.015124
 1688 Fit      -0.016528
 1689 Fit      -0.012796
 1690 Fit      -0.003325
 1691 Fit       0.004271
 1692 Fit       0.002665
 1693 Fit       0.013136
 1694 Fit       0.014603
 1695 Fit       0.010892
 1696 Fit       0.006660
 1697 Fit       0.018317
 1698 Fit       0.020712
 1699 Fit       0.003196
 1700 Fit       0.012735
 1701 Fit       0.020737
 1702 Fit       0.024125
 1703 Fit       0.004882
 1704 Fit       0.014620
 1705 Fit       0.004757
 1706 Fit       0.005484
 1707 Fit       0.003257
 1708 Fit       0.002737
 1709 Fit       0.000434
 1710 Fit       0.011131
 1711 Fit       0.006330
 1712 Fit       0.006436
 1713 Fit       0.005658
 1714 Fit       0.004971
 1715 Fit       0.002785
 1716 Fit       0.005573
 1717 Fit       0.003324
 1718 Fit       0.001520
 1719 Fit       0.001813
 1720 Fit      -0.000227
 1721 Fit       0.002692
 1722 Fit       0.001526
 1723 Fit       0.004289
 1724 Fit       0.005765
 1725 Fit       0.002172
 1726 Fit       0.003396
 1727 Fit       0.004474
 1728 Fit       0.005710
 1729 Fit       0.001379
 1730 Fit       0.002838
 1731 Fit       0.003856
 1732 Fit       0.004583
 1733 Fit       0.005663
 1734 Fit       0.004665
 1735 Fit       0.003586
 1736 Fit       0.004759
 1737 Fit       0.004022
 1738 Fit       0.002643
 1739 Fit       0.005086
 1740 Fit       0.005167
 1741 Fit       0.005028
 1742 Fit       0.004159
 1743 Fit       0.002579
 1744 Fit       0.005710
 1745 Fit      -0.013932
 1746 Fit      -0.008604
 1747 Fit      -0.008675
 1748 Fit      -0.002025
 1749 Fit      -0.003555
 1750 Fit      -0.007636
 1751 Fit      -0.004848
 1752 Fit      -0.008667
 1753 Fit      -0.017408
 1754 Fit      -0.005523
 1755 Fit      -0.008469
 1756 Fit      -0.014468
 1757 Fit      -0.021854
 1758 Fit      -0.009673
 1759 Fit       0.003266
 1760 Fit       0.001093
 1761 Fit       0.000324
 1762 Fit      -0.012773
 1763 Fit      -0.004119
 1764 Fit      -0.002394
 1765 Fit      -0.007244
 1766 Fit      -0.005105
 1767 Fit       0.007225
 1768 Fit       0.005389
 1769 Fit       0.005870
 1770 Fit       0.006808
 1771 Fit       0.007026
 1772 Fit       0.005441
 1773 Fit       0.007666
 1774 Fit       0.005899
 1775 Fit       0.004864
 1776 Fit       0.007530
 1777 Fit       0.006817
 1778 Fit       0.007227
 1779 Fit       0.006199
 1780 Fit       0.005633
 1781 Fit       0.005526
 1782 Fit       0.005911
 1783 Fit       0.005171
 1784 Fit       0.004617
 1785 Fit      -0.007431
 1786 Fit      -0.003593
 1787 Fit      -0.005143
 1788 Fit       0.000724
 1789 Fit      -0.001990
 1790 Fit      -0.000893
 1791 Fit      -0.002736
 1792 Fit      -0.004210
 1793 Fit      -0.003125
 1794 Fit      -0.001869
 1795 Fit      -0.000176
 1796 Fit      -0.001069
 1797 Fit      -0.000430
 1798 Fit      -0.000726
 1799 Fit      -0.002165
 1800 Fit      -0.000080
 1801 Fit      -0.000881
 1802 Fit      -0.002589
 1803 Fit      -0.000250
 1804 Fit      -0.001122
 1805 Fit      -0.002821
 1806 Fit      -0.005679
 1807 Fit      -0.002187
 1808 Fit      -0.003926
 1809 Fit       0.005097
 1810 Fit       0.001987
 1811 Fit      -0.001118
 1812 Fit       0.002605
 1813 Fit       0.000246
 1814 Fit      -0.002400
 1815 Fit       0.000154
 1816 Fit      -0.002513
 1817 Fit      -0.006436
 1818 Fit      -0.012028
 1819 Fit      -0.006003
 1820 Fit      -0.013050
 1821 Fit       0.004532
 1822 Fit       0.002604
 1823 Fit       0.000882
 1824 Fit       0.000973
 1825 Fit       0.003368
 1826 Fit       0.002042
 1827 Fit       0.002332
 1828 Fit       0.001669
 1829 Fit       0.002038
 1830 Fit       0.007633
 1831 Fit       0.005459
 1832 Fit       0.005553
 1833 Fit       0.003326
 1834 Fit       0.008562
 1835 Fit       0.003882
 1836 Fit       0.002992
 1837 Fit       0.002705
 1838 Fit       0.003223
 1839 Fit       0.003077
 1840 Fit       0.002338
 1841 Fit       0.004005
 1842 Fit       0.004740
 1843 Fit       0.002889
 1844 Fit       0.003805
 1845 Fit       0.004871
 1846 Fit       0.002187
 1847 Fit       0.003172
 1848 Fit       0.002245
 1849 Fit       0.005581
 1850 Fit       0.004952
 1851 Fit       0.005190
 1852 Fit       0.004684
 1853 Fit       0.004988
 1854 Fit       0.004929
 1855 Fit       0.004739
 1856 Fit       0.005712
 1857 Fit       0.005567
 1858 Fit       0.005545
 1859 Fit       0.005085
 1860 Fit       0.006484
 1861 Fit       0.005208
 1862 Fit       0.002899
 1863 Fit       0.007106
 1864 Fit       0.006574
 1865 Fit       0.008447
 1866 Fit       0.008364
 1867 Fit       0.007892
 1868 Fit       0.006822
 1869 Fit       0.009827
 1870 Fit       0.009205
 1871 Fit      -0.002331
 1872 Fit      -0.003480
 1873 Fit      -0.002971
 1874 Fit       0.004821
 1875 Fit      -0.001170
 1876 Fit      -0.001137
 1877 Fit       0.000995
 1878 Fit       0.003159
 1879 Fit      -0.004872
 1880 Fit      -0.003486
 1881 Fit      -0.001191
 1882 Fit       0.000974
 1883 Fit       0.002682
 1884 Fit       0.003833
 1885 Fit      -0.011662
 1886 Fit      -0.006840
 1887 Fit      -0.002551
 1888 Fit       0.002709
 1889 Fit       0.009707
 1890 Fit       0.008322
 1891 Fit       0.006945
 1892 Fit       0.007203
 1893 Fit       0.006171
 1894 Fit       0.006224
 1895 Fit       0.006737
 1896 Fit       0.008225
 1897 Fit       0.008453
 1898 Fit       0.009418
 1899 Fit       0.008277
 1900 Fit       0.008877
 1901 Fit       0.009724
 1902 Fit       0.007213
 1903 Fit       0.007956
 1904 Fit       0.008638
 1905 Fit       0.007400
 1906 Fit       0.008393
 1907 Fit       0.008038
 1908 Fit       0.014714
 1909 Fit       0.010918
 1910 Fit       0.021439
 1911 Fit       0.011472
 1912 Fit       0.008919
 1913 Fit       0.014832
 1914 Fit       0.008984
 1915 Fit       0.010944
 1916 Fit       0.007503
 1917 Fit       0.006867
 1918 Fit       0.008688
 1919 Fit       0.008347
 1920 Fit       0.009298
 1921 Fit       0.008494
 1922 Fit       0.015457
 1923 Fit       0.011068
 1924 Fit       0.011771
 1925 Fit       0.003617
 1926 Fit       0.003884
 1927 Fit       0.003693
 1928 Fit       0.005750
 1929 Fit       0.004108
 1930 Fit      -0.002569
 1931 Fit      -0.003934
 1932 Fit      -0.004544
 1933 Fit      -0.004256
 1934 Fit      -0.002366
 1935 Fit       0.000763
 1936 Fit       0.000826
 1937 Fit       0.000991
 1938 Fit       0.001724
 1939 Fit       0.003456
 1940 Fit       0.003605
 1941 Fit       0.016958
 1942 Fit       0.007848
 1943 Fit       0.013766
 1944 Fit       0.012351
 1945 Fit       0.005800
 1946 Fit       0.009558
 1947 Fit       0.009398
 1948 Fit       0.006900
 1949 Fit       0.006691
 1950 Fit       0.006674
 1951 Fit       0.005180
 1952 Fit       0.006485
 1953 Fit       0.006789
 1954 Fit       0.008792
 1955 Fit       0.007775
 1956 Fit       0.013812
 1957 Fit       0.009573
 1958 Fit       0.007271
 1959 Fit       0.017011
 1960 Fit       0.012281
 1961 Fit       0.009708
 1962 Fit       0.008699
 1963 Fit      -0.000901
 1964 Fit      -0.000599
 1965 Fit       0.002494
 1966 Fit       0.002755
 1967 Fit       0.000161
 1968 Fit      -0.006496
 1969 Fit      -0.008556
 1970 Fit       0.004028
 1971 Fit       0.004548
 1972 Fit       0.004883
 1973 Fit       0.004426
 1974 Fit       0.002972
 1975 Fit      -0.000418
 1976 Fit      -0.008544
 1977 Fit       0.006563
 1978 Fit       0.005616
 1979 Fit       0.004789
 1980 Fit       0.003583
 1981 Fit       0.000608
 1982 Fit      -0.001307
 1983 Fit       0.002980
 1984 Fit       0.002133
 1985 Fit       0.000159
 1986 Fit       0.000161
 1987 Fit      -0.000862
 1988 Fit       0.000637
 1989 Fit      -0.000179
 1990 Fit      -0.000780
 1991 Fit       0.000400
 1992 Fit      -0.008019
 1993 Fit       0.000386
 1994 Fit      -0.003685
 1995 Fit      -0.010434
 1996 Fit       0.001799
 1997 Fit      -0.001541
 1998 Fit      -0.006128
 1999 Fit      -0.014030
 2000 Fit       0.002631
 2001 Fit      -0.000137
 2002 Fit      -0.002922
 2003 Fit      -0.006476
 2004 Fit      -0.001580
 2005 Fit      -0.002157
 2006 Fit      -0.000315
 2007 Fit       0.000400
 2008 Fit      -0.000835
 2009 Fit      -0.001821
 2010 Fit      -0.002150
 2011 Fit      -0.001967
 2012 Fit      -0.001682
 2013 Fit      -0.001180
 2014 Fit      -0.002594
 2015 Fit      -0.002488
 2016 Fit      -0.002381
 2017 Fit      -0.001047
 2018 Fit      -0.001930
 2019 Fit      -0.001185
 2020 Fit      -0.001777
 2021 Fit      -0.000899
 2022 Fit      -0.000230
 2023 Fit      -0.001298
 2024 Fit      -0.000387
 2025 Fit       0.000147
 2026 Fit      -0.000917
 2027 Fit      -0.000291
 2028 Fit       0.000053
 2029 Fit       0.000023
 2030 Fit       0.000666
 2031 Fit       0.000695
 2032 Fit      -0.000430
 2033 Fit       0.002153
 2034 Fit       0.000718
 2035 Fit      -0.001018
 2036 Fit       0.002937
 2037 Fit       0.001175
 2038 Fit      -0.000659
 2039 Fit       0.000704
 2040 Fit      -0.001230
 2041 Fit       0.000167
 2042 Fit       0.002259
 2043 Fit       0.001080
 2044 Fit       0.001407
 2045 Fit       0.002263
 2046 Fit       0.003172
 2047 Fit      -0.000282
 2048 Fit       0.000211
 2049 Fit       0.000944
 2050 Fit       0.001597
 2051 Fit       0.002281
 2052 Fit      -0.000893
 2053 Fit      -0.000360
 2054 Fit       0.000031
 2055 Fit       0.000449
 2056 Fit       0.000952
 2057 Fit       0.002569
 2058 Fit       0.001870
 2059 Fit       0.000401
 2060 Fit      -0.000096
 2061 Fit       0.005142
 2062 Fit       0.004158
 2063 Fit       0.003137
 2064 Fit       0.004034
 2065 Fit       0.001648
 2066 Fit      -0.001881
 2067 Fit      -0.001732
 2068 Fit      -0.001067
 2069 Fit       0.001075
 2070 Fit       0.001474
 2071 Fit       0.000915
 2072 Fit      -0.000193
 2073 Fit      -0.001273
 2074 Fit      -0.000266
 2075 Fit       0.001413
 2076 Fit       0.001534
 2077 Fit       0.000798
 2078 Fit      -0.000196
 2079 Fit       0.000728
 2080 Fit       0.002777
 2081 Fit       0.003449
 2082 Fit       0.002942
 2083 Fit       0.003025
 2084 Fit       0.002380
 2085 Fit       0.001805
 2086 Fit       0.002291
 2087 Fit       0.001077
 2088 Fit      -0.000354
 2089 Fit       0.000785
 2090 Fit      -0.000340
 2091 Fit       0.000808
 2092 Fit       0.000562
 2093 Fit       0.000942
 2094 Fit       0.001548
 2095 Fit       0.001001
 2096 Fit       0.001265
 2097 Fit       0.001265
 2098 Fit       0.001119
 2099 Fit       0.000412
 2100 Fit      -0.000197
 2101 Fit       0.000902
 2102 Fit       0.001281
 2103 Fit       0.001124
 2104 Fit       0.000320
 2105 Fit       0.000347
 2106 Fit       0.000504
 2107 Fit       0.000748
 2108 Fit       0.000882
 2109 Fit       0.000272
 2110 Fit      -0.000208
 2111 Fit      -0.000974
 2112 Fit      -0.000984
 2113 Fit       0.002223
 2114 Fit      -0.000956
 2115 Fit      -0.000905
 2116 Fit      -0.000964
 2117 Fit      -0.000763
 2118 Fit      -0.000645
 2119 Fit      -0.000373
 2120 Fit       0.000339
 2121 Fit       0.002765
 2122 Fit       0.001322
 2123 Fit       0.001117
 2124 Fit       0.002060
 2125 Fit       0.003117
 2126 Fit       0.003067
 2127 Fit      -0.000625
 2128 Fit       0.000185
 2129 Fit       0.001285
 2130 Fit       0.002404
 2131 Fit      -0.000429
 2132 Fit      -0.000628
 2133 Fit       0.000146
 2134 Fit      -0.000039
 2135 Fit      -0.000034
 2136 Fit       0.001076
 2137 Fit       0.001533
 2138 Fit       0.001187
 2139 Fit      -0.000046
 2140 Fit       0.000488
 2141 Fit       0.001684
 2142 Fit       0.002289
 2143 Fit       0.002331
 2144 Fit       0.001015
 2145 Fit       0.002090
 2146 Fit       0.002738
 2147 Fit       0.001500
 2148 Fit       0.000580
 2149 Fit       0.001592
 2150 Fit       0.001438
 2151 Fit      -0.000397
 2152 Fit       0.002698
 2153 Fit       0.002539
 2154 Fit       0.001849
 2155 Fit       0.000154
 2156 Fit       0.003332
 2157 Fit       0.002976
 2158 Fit       0.001651
 2159 Fit       0.000025
 2160 Fit       0.003341
 2161 Fit       0.002782
 2162 Fit       0.001018
 2163 Fit       0.002082
 2164 Fit      -0.001273
 2165 Fit      -0.001671
 2166 Fit      -0.001732
 2167 Fit      -0.001190
 2168 Fit      -0.000329
 2169 Fit      -0.001602
 2170 Fit      -0.002064
 2171 Fit      -0.001583
 2172 Fit      -0.001813
 2173 Fit      -0.001461
 2174 Fit      -0.000756
 2175 Fit       0.002460
 2176 Fit       0.001705
 2177 Fit       0.002526
 2178 Fit      -0.000169
 2179 Fit       0.000779
 2180 Fit       0.001732
 2181 Fit       0.002983
 2182 Fit      -0.000813
 2183 Fit       0.000003
 2184 Fit       0.000900
 2185 Fit       0.000578
 2186 Fit      -0.000229
 2187 Fit       0.001700
 2188 Fit       0.000705
 2189 Fit      -0.000708
 2190 Fit       0.002495
 2191 Fit       0.002040
 2192 Fit       0.001108
 2193 Fit      -0.000347
 2194 Fit       0.001495
 2195 Fit       0.001598
 2196 Fit       0.000895
 2197 Fit      -0.000552
 2198 Fit       0.000279
 2199 Fit      -0.000637
 2200 Fit      -0.000876
 2201 Fit       0.000036
 2202 Fit      -0.001002
 2203 Fit       0.000097
 2204 Fit       0.000839
 2205 Fit       0.001272
 2206 Fit      -0.000886
 2207 Fit       0.000349
 2208 Fit       0.001322
 2209 Fit       0.001856
 2210 Fit       0.000068
 2211 Fit      -0.000720
 2212 Fit      -0.000163
 2213 Fit       0.001073
 2214 Fit       0.001648
 2215 Fit       0.001130
 2216 Fit       0.000656
 -----------------------------------------------------------------
 Leave Link  602 at Thu May 18 12:48:10 2017, MaxMem=    33554432 cpu:         3.3
 (Enter /home/michal/g09/l9999.exe)

 Test job not archived.
 1\1\GINC-LINUX\SP\RHF\6-31G(d)\C27H46O2\MICHAL\18-May-2017\0\\#P HF/6-
 31G* SCF(Conver=6) NoSymm Test Pop=mk IOp(6/33=2) GFInput GFPrint\\MEP
  - Input generated by R.E.D.-III.x MOLECULE\\0,1\O,0,0.,0.,0.\H,0,0.96
 763387,0.,0.\O,0,1.59721357,-1.00119403,6.91425139\H,0,2.533905,-0.759
 01919,6.92517946\C,0,-1.16409118,4.37365482,0.49140669\C,0,-1.27199972
 ,2.82644952,0.44754996\H,0,-2.24814783,2.59446065,0.90720867\C,0,-0.23
 59142,2.08657961,1.31040652\H,0,0.77597538,2.28876242,0.92975208\C,0,-
 0.34483243,2.57819982,2.78399656\H,0,-1.32852578,2.22784025,3.13772106
 \C,0,-2.33733686,4.74644491,-0.46801188\H,0,-3.23991127,4.4728013,0.09
 781025\C,0,-1.36766729,4.81132924,1.95138653\H,0,-2.39130957,4.5522560
 4,2.25834036\H,0,-1.2748259,5.90043792,2.05858818\C,0,0.70670389,1.906
 78025,3.73591716\C,0,-1.41381483,2.50342821,-1.05343915\H,0,-1.9122601
 9,1.54634292,-1.2242496\H,0,-0.42994078,2.4204701,-1.52692677\C,0,-0.3
 6156196,4.12370461,2.89467129\H,0,0.6384362,4.52113311,2.69260855\H,0,
 -0.59669935,4.41144742,3.92522714\C,0,-2.21327678,3.71230924,-1.629924
 51\H,0,-1.69060588,4.13824559,-2.49101107\H,0,-3.20189258,3.4082158,-1
 .98972241\C,0,-0.44319328,0.56116392,1.25133764\H,0,-1.52184804,0.3488
 4835,1.25517118\C,0,-2.5359139,6.24052259,-0.85708285\H,0,-2.19009972,
 6.83893039,0.\C,0,0.19500854,4.88674951,-0.0338418\H,0,1.03343408,4.51
 566294,0.5613292\H,0,0.37874602,4.584571,-1.06846434\H,0,0.23236654,5.
 98076499,0.00553519\C,0,0.75378167,0.39635552,3.47839706\C,0,0.2599981
 8,2.13437787,5.21420731\H,0,-0.80936282,1.89364701,5.29061729\H,0,0.35
 801891,3.19572407,5.4653525\C,0,0.20877066,-0.16950199,2.39152104\H,0,
 0.24181459,-1.25280741,2.27566957\C,0,2.12865631,2.49379533,3.52752544
 \H,0,2.18720171,3.53036783,3.87337717\H,0,2.88252972,1.92737833,4.0804
 1971\H,0,2.41699721,2.46875193,2.47219571\C,0,1.4424257,-0.46287912,4.
 52202684\H,0,1.32189405,-1.523197,4.27933605\H,0,2.52535145,-0.2584868
 7,4.51700626\C,0,1.01781277,1.29931024,6.25801957\H,0,2.07723328,1.594
 25977,6.29133585\H,0,0.60860811,1.488639,7.25689184\C,0,-1.74528895,6.
 72058746,-2.09799919\H,0,-0.75586181,6.25297136,-2.12522076\H,0,-2.262
 92231,6.38234597,-3.00698683\C,0,0.92645523,-0.19354226,5.94322963\H,0
 ,-0.12132258,-0.51140572,6.00775524\C,0,-4.0394885,6.53633867,-1.03477
 219\H,0,-4.46615441,5.91499014,-1.83204087\H,0,-4.22289642,7.58307899,
 -1.2978532\H,0,-4.5960779,6.32560683,-0.11478672\C,0,-1.55234811,8.244
 91591,-2.16892994\H,0,-2.52773603,8.74521627,-2.14191208\H,0,-1.013282
 22,8.57301969,-1.26975906\C,0,-0.78410051,8.68023367,-3.42709393\H,0,-
 1.33288011,8.32744763,-4.31228349\H,0,0.18448891,8.15967733,-3.4452786
 7\C,0,-0.52320003,10.19584053,-3.59071624\H,0,0.02983489,10.30583089,-
 4.53535126\C,0,0.36949769,10.76736044,-2.47665115\H,0,-0.13699769,10.7
 5201403,-1.50468316\H,0,0.63828396,11.80866846,-2.68805938\H,0,1.30000
 905,10.19581828,-2.37819073\C,0,-1.82060299,11.0093895,-3.73072741\H,0
 ,-2.40419417,11.00324446,-2.8028904\H,0,-1.60042162,12.05591548,-3.970
 6165\H,0,-2.45749798,10.61077257,-4.52918805\\Version=EM64L-G09RevD.01
 \HF=-1198.9250566\RMSD=4.997e-07\Dipole=0.6960407,0.8225283,0.1732948\
 Quadrupole=6.358013,-0.0250693,-6.3329437,1.3644763,2.7116586,8.361442
 8\PG=C01 [X(C27H46O2)]\\@


 EDUCATION IS NOT TRAINING BUT RATHER THE PROCESS THAT EQUIPS YOU TO
 ENTERTAIN YOURSELF, A FRIEND, OR AN IDEA.  -- WALLACE STERLING
 Job cpu time:       0 days  0 hours 10 minutes 59.5 seconds.
 File lengths (MBytes):  RWF=    150 Int=      0 D2E=      0 Chk=     11 Scr=      1
 Normal termination of Gaussian 09 at Thu May 18 12:48:10 2017.
