 Entering Gaussian System, Link 0=/home/michal/g09/g09
 Input=JOB2-gau_m1-22-1.com
 Output=JOB2-gau_m1-22-1.log
 Initial command:
 /home/michal/g09/l1.exe "/home/michal/gauss_scratch/Gau-29517.inp" -scrdir="/home/michal/gauss_scratch/"
 Entering Link 1 = /home/michal/g09/l1.exe PID=     29518.
  
 Copyright (c) 1988,1990,1992,1993,1995,1998,2003,2009,2013,
            Gaussian, Inc.  All Rights Reserved.
  
 This is part of the Gaussian(R) 09 program.  It is based on
 the Gaussian(R) 03 system (copyright 2003, Gaussian, Inc.),
 the Gaussian(R) 98 system (copyright 1998, Gaussian, Inc.),
 the Gaussian(R) 94 system (copyright 1995, Gaussian, Inc.),
 the Gaussian 92(TM) system (copyright 1992, Gaussian, Inc.),
 the Gaussian 90(TM) system (copyright 1990, Gaussian, Inc.),
 the Gaussian 88(TM) system (copyright 1988, Gaussian, Inc.),
 the Gaussian 86(TM) system (copyright 1986, Carnegie Mellon
 University), and the Gaussian 82(TM) system (copyright 1983,
 Carnegie Mellon University). Gaussian is a federally registered
 trademark of Gaussian, Inc.
  
 This software contains proprietary and confidential information,
 including trade secrets, belonging to Gaussian, Inc.
  
 This software is provided under written license and may be
 used, copied, transmitted, or stored only in accord with that
 written license.
  
 The following legend is applicable only to US Government
 contracts under FAR:
  
                    RESTRICTED RIGHTS LEGEND
  
 Use, reproduction and disclosure by the US Government is
 subject to restrictions as set forth in subparagraphs (a)
 and (c) of the Commercial Computer Software - Restricted
 Rights clause in FAR 52.227-19.
  
 Gaussian, Inc.
 340 Quinnipiac St., Bldg. 40, Wallingford CT 06492
  
  
 ---------------------------------------------------------------
 Warning -- This program may not be used in any manner that
 competes with the business of Gaussian, Inc. or will provide
 assistance to any competitor of Gaussian, Inc.  The licensee
 of this program is prohibited from giving any competitor of
 Gaussian, Inc. access to this program.  By using this program,
 the user acknowledges that Gaussian, Inc. is engaged in the
 business of creating and licensing software in the field of
 computational chemistry and represents and warrants to the
 licensee that it is not a competitor of Gaussian, Inc. and that
 it will not use this program in any manner prohibited above.
 ---------------------------------------------------------------
  

 Cite this work as:
 Gaussian 09, Revision D.01,
 M. J. Frisch, G. W. Trucks, H. B. Schlegel, G. E. Scuseria, 
 M. A. Robb, J. R. Cheeseman, G. Scalmani, V. Barone, B. Mennucci, 
 G. A. Petersson, H. Nakatsuji, M. Caricato, X. Li, H. P. Hratchian, 
 A. F. Izmaylov, J. Bloino, G. Zheng, J. L. Sonnenberg, M. Hada, 
 M. Ehara, K. Toyota, R. Fukuda, J. Hasegawa, M. Ishida, T. Nakajima, 
 Y. Honda, O. Kitao, H. Nakai, T. Vreven, J. A. Montgomery, Jr., 
 J. E. Peralta, F. Ogliaro, M. Bearpark, J. J. Heyd, E. Brothers, 
 K. N. Kudin, V. N. Staroverov, T. Keith, R. Kobayashi, J. Normand, 
 K. Raghavachari, A. Rendell, J. C. Burant, S. S. Iyengar, J. Tomasi, 
 M. Cossi, N. Rega, J. M. Millam, M. Klene, J. E. Knox, J. B. Cross, 
 V. Bakken, C. Adamo, J. Jaramillo, R. Gomperts, R. E. Stratmann, 
 O. Yazyev, A. J. Austin, R. Cammi, C. Pomelli, J. W. Ochterski, 
 R. L. Martin, K. Morokuma, V. G. Zakrzewski, G. A. Voth, 
 P. Salvador, J. J. Dannenberg, S. Dapprich, A. D. Daniels, 
 O. Farkas, J. B. Foresman, J. V. Ortiz, J. Cioslowski, 
 and D. J. Fox, Gaussian, Inc., Wallingford CT, 2013.
 
 ******************************************
 Gaussian 09:  EM64L-G09RevD.01 24-Apr-2013
                18-May-2017 
 ******************************************
 %Mem=256MB
 %NProc=12
 Will use up to   12 processors via shared memory.
 ----------------------------------------------------------------------
 #P HF/6-31G* SCF(Conver=6) NoSymm Test Pop=mk IOp(6/33=2) GFInput GFPr
 int
 ----------------------------------------------------------------------
 1/38=1/1;
 2/12=2,15=1,17=6,18=5,40=1/2;
 3/5=1,6=6,7=1,11=9,16=1,24=110,25=1,30=1/1,2,3;
 4//1;
 5/5=2,6=6,38=5/2;
 6/7=2,8=2,9=2,10=2,15=8,20=1,28=1,33=2/1,2;
 99/5=1,9=1/99;
 Leave Link    1 at Thu May 18 13:39:42 2017, MaxMem=    33554432 cpu:         0.9
 (Enter /home/michal/g09/l101.exe)
 ----------------------------------------------
 MEP - Input generated by R.E.D.-III.x MOLECULE
 ----------------------------------------------
 Symbolic Z-matrix:
 Charge =  0 Multiplicity = 1
 O                     0.        0.        0. 
 H                     0.96763   0.        0. 
 O                     1.6479   -2.73085   6.41495 
 H                     2.58619  -2.50209   6.47359 
 C                    -1.19537   4.10827   1.59154 
 C                    -1.28767   2.61304   1.1677 
 H                    -2.25968   2.26647   1.56006 
 C                    -0.23842   1.6824    1.80226 
 H                     0.76729   1.98189   1.47241 
 C                    -0.32394   1.77981   3.35095 
 H                    -1.30517   1.35599   3.6213 
 C                    -2.38139   4.70474   0.7553 
 H                    -3.30321   4.3829    1.26602 
 C                    -1.35978   4.14357   3.12421 
 H                    -2.37413   3.80218   3.3768 
 H                    -1.26705   5.15938   3.52074 
 C                     0.73578   0.88861   4.08778 
 C                    -1.43158   2.66378  -0.36114 
 H                    -1.88925   1.7591   -0.76786 
 H                    -0.44961   2.74776  -0.83877 
 C                    -0.32635   3.24814   3.83355 
 H                     0.66868   3.6849    3.69542 
 H                    -0.5225    3.2802    4.91105 
 C                    -2.2887    3.9344   -0.6055 
 H                    -1.83215   4.57049  -1.37344 
 H                    -3.28545   3.67496  -0.9751 
 C                    -0.4427    0.22203   1.35387 
 H                    -1.52075   0.01267   1.30453 
 C                    -2.49307   6.24048   0.56353 
 H                    -1.60771   6.56714   0. 
 C                     0.14192   4.75819   1.16768 
 H                     1.009     4.22666   1.56867 
 H                     0.25554   4.78567   0.07997 
 H                     0.20213   5.79056   1.5278 
 C                     0.7721   -0.50702   3.45548 
 C                     0.30755   0.73557   5.581 
 H                    -0.76184   0.48458   5.60742 
 H                     0.41286   1.69885   6.09111 
 C                     0.2134   -0.7761    2.26638 
 H                     0.23973  -1.79433   1.8783 
 C                     2.15768   1.50727   4.01707 
 H                     2.22346   2.42461   4.61014 
 H                     2.91481   0.81965   4.40284 
 H                     2.43537   1.74645   2.98594 
 C                     1.46693  -1.60496   4.23873 
 H                     1.33645  -2.56893   3.73729 
 H                     2.55113  -1.40954   4.27105 
 C                     1.074    -0.33764   6.3695 
 H                     2.13537  -0.06305   6.46154 
 H                     0.67871  -0.40624   7.38935 
 C                    -3.74627   6.56851  -0.28868 
 H                    -3.71923   5.97477  -1.20969 
 H                    -4.63357   6.22805   0.266 
 C                     0.97004  -1.70211   5.68876 
 H                    -0.07872  -2.02323   5.68499 
 C                    -2.52768   7.02208   1.88792 
 H                    -3.35424   6.68161   2.52457 
 H                    -2.6665    8.09321   1.7127 
 H                    -1.60166   6.91173   2.45623 
 C                    -3.95774   8.04238  -0.6895 
 H                    -4.90838   8.09679  -1.23495 
 H                    -4.09285   8.6619    0.20474 
 C                    -2.83456   8.62174  -1.56529 
 H                    -2.66565   7.94223  -2.41372 
 H                    -1.89634   8.63106  -0.99449 
 C                    -3.06586   10.04636  -2.12352 
 H                    -2.16243   10.29366  -2.70057 
 C                    -3.19549   11.10278  -1.01354 
 H                    -4.1107    10.96207  -0.427 
 H                    -3.23191   12.11242  -1.43842 
 H                    -2.34523   11.06224  -0.32244 
 C                    -4.25412   10.11962  -3.09692 
 H                    -5.20884   9.9488   -2.58642 
 H                    -4.30967   11.10727  -3.56888 
 H                    -4.16283   9.37313  -3.8947 
 
 NAtoms=     75 NQM=       75 NQMF=       0 NMMI=      0 NMMIF=      0
                NMic=       0 NMicF=      0.
                    Isotopes and Nuclear Properties:
 (Nuclear quadrupole moments (NQMom) in fm**2, nuclear magnetic moments (NMagM)
  in nuclear magnetons)

  Atom         1           2           3           4           5           6           7           8           9          10
 IAtWgt=          16           1          16           1          12          12           1          12           1          12
 AtmWgt=  15.9949146   1.0078250  15.9949146   1.0078250  12.0000000  12.0000000   1.0078250  12.0000000   1.0078250  12.0000000
 NucSpn=           0           1           0           1           0           0           1           0           1           0
 AtZEff=   0.0000000   0.0000000   0.0000000   0.0000000   0.0000000   0.0000000   0.0000000   0.0000000   0.0000000   0.0000000
 NQMom=    0.0000000   0.0000000   0.0000000   0.0000000   0.0000000   0.0000000   0.0000000   0.0000000   0.0000000   0.0000000
 NMagM=    0.0000000   2.7928460   0.0000000   2.7928460   0.0000000   0.0000000   2.7928460   0.0000000   2.7928460   0.0000000
 AtZNuc=   8.0000000   1.0000000   8.0000000   1.0000000   6.0000000   6.0000000   1.0000000   6.0000000   1.0000000   6.0000000

  Atom        11          12          13          14          15          16          17          18          19          20
 IAtWgt=           1          12           1          12           1           1          12          12           1           1
 AtmWgt=   1.0078250  12.0000000   1.0078250  12.0000000   1.0078250   1.0078250  12.0000000  12.0000000   1.0078250   1.0078250
 NucSpn=           1           0           1           0           1           1           0           0           1           1
 AtZEff=   0.0000000   0.0000000   0.0000000   0.0000000   0.0000000   0.0000000   0.0000000   0.0000000   0.0000000   0.0000000
 NQMom=    0.0000000   0.0000000   0.0000000   0.0000000   0.0000000   0.0000000   0.0000000   0.0000000   0.0000000   0.0000000
 NMagM=    2.7928460   0.0000000   2.7928460   0.0000000   2.7928460   2.7928460   0.0000000   0.0000000   2.7928460   2.7928460
 AtZNuc=   1.0000000   6.0000000   1.0000000   6.0000000   1.0000000   1.0000000   6.0000000   6.0000000   1.0000000   1.0000000

  Atom        21          22          23          24          25          26          27          28          29          30
 IAtWgt=          12           1           1          12           1           1          12           1          12           1
 AtmWgt=  12.0000000   1.0078250   1.0078250  12.0000000   1.0078250   1.0078250  12.0000000   1.0078250  12.0000000   1.0078250
 NucSpn=           0           1           1           0           1           1           0           1           0           1
 AtZEff=   0.0000000   0.0000000   0.0000000   0.0000000   0.0000000   0.0000000   0.0000000   0.0000000   0.0000000   0.0000000
 NQMom=    0.0000000   0.0000000   0.0000000   0.0000000   0.0000000   0.0000000   0.0000000   0.0000000   0.0000000   0.0000000
 NMagM=    0.0000000   2.7928460   2.7928460   0.0000000   2.7928460   2.7928460   0.0000000   2.7928460   0.0000000   2.7928460
 AtZNuc=   6.0000000   1.0000000   1.0000000   6.0000000   1.0000000   1.0000000   6.0000000   1.0000000   6.0000000   1.0000000

  Atom        31          32          33          34          35          36          37          38          39          40
 IAtWgt=          12           1           1           1          12          12           1           1          12           1
 AtmWgt=  12.0000000   1.0078250   1.0078250   1.0078250  12.0000000  12.0000000   1.0078250   1.0078250  12.0000000   1.0078250
 NucSpn=           0           1           1           1           0           0           1           1           0           1
 AtZEff=   0.0000000   0.0000000   0.0000000   0.0000000   0.0000000   0.0000000   0.0000000   0.0000000   0.0000000   0.0000000
 NQMom=    0.0000000   0.0000000   0.0000000   0.0000000   0.0000000   0.0000000   0.0000000   0.0000000   0.0000000   0.0000000
 NMagM=    0.0000000   2.7928460   2.7928460   2.7928460   0.0000000   0.0000000   2.7928460   2.7928460   0.0000000   2.7928460
 AtZNuc=   6.0000000   1.0000000   1.0000000   1.0000000   6.0000000   6.0000000   1.0000000   1.0000000   6.0000000   1.0000000

  Atom        41          42          43          44          45          46          47          48          49          50
 IAtWgt=          12           1           1           1          12           1           1          12           1           1
 AtmWgt=  12.0000000   1.0078250   1.0078250   1.0078250  12.0000000   1.0078250   1.0078250  12.0000000   1.0078250   1.0078250
 NucSpn=           0           1           1           1           0           1           1           0           1           1
 AtZEff=   0.0000000   0.0000000   0.0000000   0.0000000   0.0000000   0.0000000   0.0000000   0.0000000   0.0000000   0.0000000
 NQMom=    0.0000000   0.0000000   0.0000000   0.0000000   0.0000000   0.0000000   0.0000000   0.0000000   0.0000000   0.0000000
 NMagM=    0.0000000   2.7928460   2.7928460   2.7928460   0.0000000   2.7928460   2.7928460   0.0000000   2.7928460   2.7928460
 AtZNuc=   6.0000000   1.0000000   1.0000000   1.0000000   6.0000000   1.0000000   1.0000000   6.0000000   1.0000000   1.0000000

  Atom        51          52          53          54          55          56          57          58          59          60
 IAtWgt=          12           1           1          12           1          12           1           1           1          12
 AtmWgt=  12.0000000   1.0078250   1.0078250  12.0000000   1.0078250  12.0000000   1.0078250   1.0078250   1.0078250  12.0000000
 NucSpn=           0           1           1           0           1           0           1           1           1           0
 AtZEff=   0.0000000   0.0000000   0.0000000   0.0000000   0.0000000   0.0000000   0.0000000   0.0000000   0.0000000   0.0000000
 NQMom=    0.0000000   0.0000000   0.0000000   0.0000000   0.0000000   0.0000000   0.0000000   0.0000000   0.0000000   0.0000000
 NMagM=    0.0000000   2.7928460   2.7928460   0.0000000   2.7928460   0.0000000   2.7928460   2.7928460   2.7928460   0.0000000
 AtZNuc=   6.0000000   1.0000000   1.0000000   6.0000000   1.0000000   6.0000000   1.0000000   1.0000000   1.0000000   6.0000000

  Atom        61          62          63          64          65          66          67          68          69          70
 IAtWgt=           1           1          12           1           1          12           1          12           1           1
 AtmWgt=   1.0078250   1.0078250  12.0000000   1.0078250   1.0078250  12.0000000   1.0078250  12.0000000   1.0078250   1.0078250
 NucSpn=           1           1           0           1           1           0           1           0           1           1
 AtZEff=   0.0000000   0.0000000   0.0000000   0.0000000   0.0000000   0.0000000   0.0000000   0.0000000   0.0000000   0.0000000
 NQMom=    0.0000000   0.0000000   0.0000000   0.0000000   0.0000000   0.0000000   0.0000000   0.0000000   0.0000000   0.0000000
 NMagM=    2.7928460   2.7928460   0.0000000   2.7928460   2.7928460   0.0000000   2.7928460   0.0000000   2.7928460   2.7928460
 AtZNuc=   1.0000000   1.0000000   6.0000000   1.0000000   1.0000000   6.0000000   1.0000000   6.0000000   1.0000000   1.0000000

  Atom        71          72          73          74          75
 IAtWgt=           1          12           1           1           1
 AtmWgt=   1.0078250  12.0000000   1.0078250   1.0078250   1.0078250
 NucSpn=           1           0           1           1           1
 AtZEff=   0.0000000   0.0000000   0.0000000   0.0000000   0.0000000
 NQMom=    0.0000000   0.0000000   0.0000000   0.0000000   0.0000000
 NMagM=    2.7928460   0.0000000   2.7928460   2.7928460   2.7928460
 AtZNuc=   1.0000000   6.0000000   1.0000000   1.0000000   1.0000000
 Leave Link  101 at Thu May 18 13:39:42 2017, MaxMem=    33554432 cpu:         1.0
 (Enter /home/michal/g09/l202.exe)
 Symmetry turned off by external request.
 Stoichiometry    C27H46O2
 Framework group  C1[X(C27H46O2)]
 Deg. of freedom   219
 Full point group                 C1      NOp   1
                          Input orientation:                          
 ---------------------------------------------------------------------
 Center     Atomic      Atomic             Coordinates (Angstroms)
 Number     Number       Type             X           Y           Z
 ---------------------------------------------------------------------
      1          8           0        0.000000    0.000000    0.000000
      2          1           0        0.967627    0.000000    0.000000
      3          8           0        1.647900   -2.730850    6.414952
      4          1           0        2.586192   -2.502095    6.473592
      5          6           0       -1.195371    4.108271    1.591541
      6          6           0       -1.287669    2.613038    1.167703
      7          1           0       -2.259683    2.266473    1.560062
      8          6           0       -0.238419    1.682404    1.802258
      9          1           0        0.767290    1.981893    1.472414
     10          6           0       -0.323940    1.779808    3.350954
     11          1           0       -1.305168    1.355987    3.621298
     12          6           0       -2.381393    4.704738    0.755298
     13          1           0       -3.303206    4.382904    1.266021
     14          6           0       -1.359781    4.143568    3.124206
     15          1           0       -2.374131    3.802178    3.376797
     16          1           0       -1.267052    5.159375    3.520736
     17          6           0        0.735782    0.888612    4.087778
     18          6           0       -1.431584    2.663781   -0.361138
     19          1           0       -1.889251    1.759100   -0.767857
     20          1           0       -0.449608    2.747762   -0.838772
     21          6           0       -0.326347    3.248143    3.833545
     22          1           0        0.668678    3.684895    3.695424
     23          1           0       -0.522495    3.280197    4.911047
     24          6           0       -2.288695    3.934398   -0.605505
     25          1           0       -1.832147    4.570486   -1.373439
     26          1           0       -3.285448    3.674958   -0.975101
     27          6           0       -0.442698    0.222026    1.353869
     28          1           0       -1.520749    0.012674    1.304526
     29          6           0       -2.493067    6.240483    0.563531
     30          1           0       -1.607711    6.567137    0.000000
     31          6           0        0.141920    4.758193    1.167683
     32          1           0        1.009001    4.226658    1.568667
     33          1           0        0.255536    4.785675    0.079970
     34          1           0        0.202128    5.790561    1.527800
     35          6           0        0.772104   -0.507023    3.455477
     36          6           0        0.307549    0.735569    5.581002
     37          1           0       -0.761836    0.484579    5.607417
     38          1           0        0.412859    1.698851    6.091114
     39          6           0        0.213396   -0.776101    2.266379
     40          1           0        0.239728   -1.794325    1.878297
     41          6           0        2.157677    1.507275    4.017067
     42          1           0        2.223458    2.424614    4.610142
     43          1           0        2.914811    0.819648    4.402837
     44          1           0        2.435374    1.746453    2.985938
     45          6           0        1.466928   -1.604956    4.238729
     46          1           0        1.336448   -2.568933    3.737294
     47          1           0        2.551130   -1.409542    4.271051
     48          6           0        1.073997   -0.337640    6.369500
     49          1           0        2.135373   -0.063048    6.461539
     50          1           0        0.678706   -0.406244    7.389346
     51          6           0       -3.746273    6.568511   -0.288684
     52          1           0       -3.719225    5.974773   -1.209690
     53          1           0       -4.633567    6.228046    0.265996
     54          6           0        0.970039   -1.702106    5.688763
     55          1           0       -0.078725   -2.023232    5.684987
     56          6           0       -2.527683    7.022082    1.887919
     57          1           0       -3.354237    6.681610    2.524570
     58          1           0       -2.666501    8.093214    1.712705
     59          1           0       -1.601663    6.911732    2.456234
     60          6           0       -3.957741    8.042378   -0.689503
     61          1           0       -4.908377    8.096794   -1.234953
     62          1           0       -4.092848    8.661899    0.204740
     63          6           0       -2.834561    8.621739   -1.565288
     64          1           0       -2.665652    7.942233   -2.413718
     65          1           0       -1.896340    8.631055   -0.994491
     66          6           0       -3.065861   10.046360   -2.123522
     67          1           0       -2.162434   10.293657   -2.700571
     68          6           0       -3.195489   11.102776   -1.013544
     69          1           0       -4.110704   10.962071   -0.426998
     70          1           0       -3.231908   12.112422   -1.438423
     71          1           0       -2.345229   11.062243   -0.322438
     72          6           0       -4.254119   10.119620   -3.096923
     73          1           0       -5.208842    9.948795   -2.586419
     74          1           0       -4.309672   11.107274   -3.568879
     75          1           0       -4.162827    9.373130   -3.894702
 ---------------------------------------------------------------------
 Rotational constants (GHZ):      0.4927176      0.0546131      0.0514411
 Leave Link  202 at Thu May 18 13:39:42 2017, MaxMem=    33554432 cpu:         0.0
 (Enter /home/michal/g09/l301.exe)
 Standard basis: 6-31G(d) (6D, 7F)
 Ernie: Thresh=  0.10000D-02 Tol=  0.10000D-05 Strict=F.
 AO basis set in the form of general basis input (Overlap normalization):
      1 0
 S   6 1.00       0.000000000000
      0.5484671660D+04  0.1831074430D-02
      0.8252349460D+03  0.1395017220D-01
      0.1880469580D+03  0.6844507810D-01
      0.5296450000D+02  0.2327143360D+00
      0.1689757040D+02  0.4701928980D+00
      0.5799635340D+01  0.3585208530D+00
 SP   3 1.00       0.000000000000
      0.1553961625D+02 -0.1107775495D+00  0.7087426823D-01
      0.3599933586D+01 -0.1480262627D+00  0.3397528391D+00
      0.1013761750D+01  0.1130767015D+01  0.7271585773D+00
 SP   1 1.00       0.000000000000
      0.2700058226D+00  0.1000000000D+01  0.1000000000D+01
 D   1 1.00       0.000000000000
      0.8000000000D+00  0.1000000000D+01
 ****
      2 0
 S   3 1.00       0.000000000000
      0.1873113696D+02  0.3349460434D-01
      0.2825394365D+01  0.2347269535D+00
      0.6401216923D+00  0.8137573261D+00
 S   1 1.00       0.000000000000
      0.1612777588D+00  0.1000000000D+01
 ****
      3 0
 S   6 1.00       0.000000000000
      0.5484671660D+04  0.1831074430D-02
      0.8252349460D+03  0.1395017220D-01
      0.1880469580D+03  0.6844507810D-01
      0.5296450000D+02  0.2327143360D+00
      0.1689757040D+02  0.4701928980D+00
      0.5799635340D+01  0.3585208530D+00
 SP   3 1.00       0.000000000000
      0.1553961625D+02 -0.1107775495D+00  0.7087426823D-01
      0.3599933586D+01 -0.1480262627D+00  0.3397528391D+00
      0.1013761750D+01  0.1130767015D+01  0.7271585773D+00
 SP   1 1.00       0.000000000000
      0.2700058226D+00  0.1000000000D+01  0.1000000000D+01
 D   1 1.00       0.000000000000
      0.8000000000D+00  0.1000000000D+01
 ****
      4 0
 S   3 1.00       0.000000000000
      0.1873113696D+02  0.3349460434D-01
      0.2825394365D+01  0.2347269535D+00
      0.6401216923D+00  0.8137573261D+00
 S   1 1.00       0.000000000000
      0.1612777588D+00  0.1000000000D+01
 ****
      5 0
 S   6 1.00       0.000000000000
      0.3047524880D+04  0.1834737132D-02
      0.4573695180D+03  0.1403732281D-01
      0.1039486850D+03  0.6884262226D-01
      0.2921015530D+02  0.2321844432D+00
      0.9286662960D+01  0.4679413484D+00
      0.3163926960D+01  0.3623119853D+00
 SP   3 1.00       0.000000000000
      0.7868272350D+01 -0.1193324198D+00  0.6899906659D-01
      0.1881288540D+01 -0.1608541517D+00  0.3164239610D+00
      0.5442492580D+00  0.1143456438D+01  0.7443082909D+00
 SP   1 1.00       0.000000000000
      0.1687144782D+00  0.1000000000D+01  0.1000000000D+01
 D   1 1.00       0.000000000000
      0.8000000000D+00  0.1000000000D+01
 ****
      6 0
 S   6 1.00       0.000000000000
      0.3047524880D+04  0.1834737132D-02
      0.4573695180D+03  0.1403732281D-01
      0.1039486850D+03  0.6884262226D-01
      0.2921015530D+02  0.2321844432D+00
      0.9286662960D+01  0.4679413484D+00
      0.3163926960D+01  0.3623119853D+00
 SP   3 1.00       0.000000000000
      0.7868272350D+01 -0.1193324198D+00  0.6899906659D-01
      0.1881288540D+01 -0.1608541517D+00  0.3164239610D+00
      0.5442492580D+00  0.1143456438D+01  0.7443082909D+00
 SP   1 1.00       0.000000000000
      0.1687144782D+00  0.1000000000D+01  0.1000000000D+01
 D   1 1.00       0.000000000000
      0.8000000000D+00  0.1000000000D+01
 ****
      7 0
 S   3 1.00       0.000000000000
      0.1873113696D+02  0.3349460434D-01
      0.2825394365D+01  0.2347269535D+00
      0.6401216923D+00  0.8137573261D+00
 S   1 1.00       0.000000000000
      0.1612777588D+00  0.1000000000D+01
 ****
      8 0
 S   6 1.00       0.000000000000
      0.3047524880D+04  0.1834737132D-02
      0.4573695180D+03  0.1403732281D-01
      0.1039486850D+03  0.6884262226D-01
      0.2921015530D+02  0.2321844432D+00
      0.9286662960D+01  0.4679413484D+00
      0.3163926960D+01  0.3623119853D+00
 SP   3 1.00       0.000000000000
      0.7868272350D+01 -0.1193324198D+00  0.6899906659D-01
      0.1881288540D+01 -0.1608541517D+00  0.3164239610D+00
      0.5442492580D+00  0.1143456438D+01  0.7443082909D+00
 SP   1 1.00       0.000000000000
      0.1687144782D+00  0.1000000000D+01  0.1000000000D+01
 D   1 1.00       0.000000000000
      0.8000000000D+00  0.1000000000D+01
 ****
      9 0
 S   3 1.00       0.000000000000
      0.1873113696D+02  0.3349460434D-01
      0.2825394365D+01  0.2347269535D+00
      0.6401216923D+00  0.8137573261D+00
 S   1 1.00       0.000000000000
      0.1612777588D+00  0.1000000000D+01
 ****
     10 0
 S   6 1.00       0.000000000000
      0.3047524880D+04  0.1834737132D-02
      0.4573695180D+03  0.1403732281D-01
      0.1039486850D+03  0.6884262226D-01
      0.2921015530D+02  0.2321844432D+00
      0.9286662960D+01  0.4679413484D+00
      0.3163926960D+01  0.3623119853D+00
 SP   3 1.00       0.000000000000
      0.7868272350D+01 -0.1193324198D+00  0.6899906659D-01
      0.1881288540D+01 -0.1608541517D+00  0.3164239610D+00
      0.5442492580D+00  0.1143456438D+01  0.7443082909D+00
 SP   1 1.00       0.000000000000
      0.1687144782D+00  0.1000000000D+01  0.1000000000D+01
 D   1 1.00       0.000000000000
      0.8000000000D+00  0.1000000000D+01
 ****
     11 0
 S   3 1.00       0.000000000000
      0.1873113696D+02  0.3349460434D-01
      0.2825394365D+01  0.2347269535D+00
      0.6401216923D+00  0.8137573261D+00
 S   1 1.00       0.000000000000
      0.1612777588D+00  0.1000000000D+01
 ****
     12 0
 S   6 1.00       0.000000000000
      0.3047524880D+04  0.1834737132D-02
      0.4573695180D+03  0.1403732281D-01
      0.1039486850D+03  0.6884262226D-01
      0.2921015530D+02  0.2321844432D+00
      0.9286662960D+01  0.4679413484D+00
      0.3163926960D+01  0.3623119853D+00
 SP   3 1.00       0.000000000000
      0.7868272350D+01 -0.1193324198D+00  0.6899906659D-01
      0.1881288540D+01 -0.1608541517D+00  0.3164239610D+00
      0.5442492580D+00  0.1143456438D+01  0.7443082909D+00
 SP   1 1.00       0.000000000000
      0.1687144782D+00  0.1000000000D+01  0.1000000000D+01
 D   1 1.00       0.000000000000
      0.8000000000D+00  0.1000000000D+01
 ****
     13 0
 S   3 1.00       0.000000000000
      0.1873113696D+02  0.3349460434D-01
      0.2825394365D+01  0.2347269535D+00
      0.6401216923D+00  0.8137573261D+00
 S   1 1.00       0.000000000000
      0.1612777588D+00  0.1000000000D+01
 ****
     14 0
 S   6 1.00       0.000000000000
      0.3047524880D+04  0.1834737132D-02
      0.4573695180D+03  0.1403732281D-01
      0.1039486850D+03  0.6884262226D-01
      0.2921015530D+02  0.2321844432D+00
      0.9286662960D+01  0.4679413484D+00
      0.3163926960D+01  0.3623119853D+00
 SP   3 1.00       0.000000000000
      0.7868272350D+01 -0.1193324198D+00  0.6899906659D-01
      0.1881288540D+01 -0.1608541517D+00  0.3164239610D+00
      0.5442492580D+00  0.1143456438D+01  0.7443082909D+00
 SP   1 1.00       0.000000000000
      0.1687144782D+00  0.1000000000D+01  0.1000000000D+01
 D   1 1.00       0.000000000000
      0.8000000000D+00  0.1000000000D+01
 ****
     15 0
 S   3 1.00       0.000000000000
      0.1873113696D+02  0.3349460434D-01
      0.2825394365D+01  0.2347269535D+00
      0.6401216923D+00  0.8137573261D+00
 S   1 1.00       0.000000000000
      0.1612777588D+00  0.1000000000D+01
 ****
     16 0
 S   3 1.00       0.000000000000
      0.1873113696D+02  0.3349460434D-01
      0.2825394365D+01  0.2347269535D+00
      0.6401216923D+00  0.8137573261D+00
 S   1 1.00       0.000000000000
      0.1612777588D+00  0.1000000000D+01
 ****
     17 0
 S   6 1.00       0.000000000000
      0.3047524880D+04  0.1834737132D-02
      0.4573695180D+03  0.1403732281D-01
      0.1039486850D+03  0.6884262226D-01
      0.2921015530D+02  0.2321844432D+00
      0.9286662960D+01  0.4679413484D+00
      0.3163926960D+01  0.3623119853D+00
 SP   3 1.00       0.000000000000
      0.7868272350D+01 -0.1193324198D+00  0.6899906659D-01
      0.1881288540D+01 -0.1608541517D+00  0.3164239610D+00
      0.5442492580D+00  0.1143456438D+01  0.7443082909D+00
 SP   1 1.00       0.000000000000
      0.1687144782D+00  0.1000000000D+01  0.1000000000D+01
 D   1 1.00       0.000000000000
      0.8000000000D+00  0.1000000000D+01
 ****
     18 0
 S   6 1.00       0.000000000000
      0.3047524880D+04  0.1834737132D-02
      0.4573695180D+03  0.1403732281D-01
      0.1039486850D+03  0.6884262226D-01
      0.2921015530D+02  0.2321844432D+00
      0.9286662960D+01  0.4679413484D+00
      0.3163926960D+01  0.3623119853D+00
 SP   3 1.00       0.000000000000
      0.7868272350D+01 -0.1193324198D+00  0.6899906659D-01
      0.1881288540D+01 -0.1608541517D+00  0.3164239610D+00
      0.5442492580D+00  0.1143456438D+01  0.7443082909D+00
 SP   1 1.00       0.000000000000
      0.1687144782D+00  0.1000000000D+01  0.1000000000D+01
 D   1 1.00       0.000000000000
      0.8000000000D+00  0.1000000000D+01
 ****
     19 0
 S   3 1.00       0.000000000000
      0.1873113696D+02  0.3349460434D-01
      0.2825394365D+01  0.2347269535D+00
      0.6401216923D+00  0.8137573261D+00
 S   1 1.00       0.000000000000
      0.1612777588D+00  0.1000000000D+01
 ****
     20 0
 S   3 1.00       0.000000000000
      0.1873113696D+02  0.3349460434D-01
      0.2825394365D+01  0.2347269535D+00
      0.6401216923D+00  0.8137573261D+00
 S   1 1.00       0.000000000000
      0.1612777588D+00  0.1000000000D+01
 ****
     21 0
 S   6 1.00       0.000000000000
      0.3047524880D+04  0.1834737132D-02
      0.4573695180D+03  0.1403732281D-01
      0.1039486850D+03  0.6884262226D-01
      0.2921015530D+02  0.2321844432D+00
      0.9286662960D+01  0.4679413484D+00
      0.3163926960D+01  0.3623119853D+00
 SP   3 1.00       0.000000000000
      0.7868272350D+01 -0.1193324198D+00  0.6899906659D-01
      0.1881288540D+01 -0.1608541517D+00  0.3164239610D+00
      0.5442492580D+00  0.1143456438D+01  0.7443082909D+00
 SP   1 1.00       0.000000000000
      0.1687144782D+00  0.1000000000D+01  0.1000000000D+01
 D   1 1.00       0.000000000000
      0.8000000000D+00  0.1000000000D+01
 ****
     22 0
 S   3 1.00       0.000000000000
      0.1873113696D+02  0.3349460434D-01
      0.2825394365D+01  0.2347269535D+00
      0.6401216923D+00  0.8137573261D+00
 S   1 1.00       0.000000000000
      0.1612777588D+00  0.1000000000D+01
 ****
     23 0
 S   3 1.00       0.000000000000
      0.1873113696D+02  0.3349460434D-01
      0.2825394365D+01  0.2347269535D+00
      0.6401216923D+00  0.8137573261D+00
 S   1 1.00       0.000000000000
      0.1612777588D+00  0.1000000000D+01
 ****
     24 0
 S   6 1.00       0.000000000000
      0.3047524880D+04  0.1834737132D-02
      0.4573695180D+03  0.1403732281D-01
      0.1039486850D+03  0.6884262226D-01
      0.2921015530D+02  0.2321844432D+00
      0.9286662960D+01  0.4679413484D+00
      0.3163926960D+01  0.3623119853D+00
 SP   3 1.00       0.000000000000
      0.7868272350D+01 -0.1193324198D+00  0.6899906659D-01
      0.1881288540D+01 -0.1608541517D+00  0.3164239610D+00
      0.5442492580D+00  0.1143456438D+01  0.7443082909D+00
 SP   1 1.00       0.000000000000
      0.1687144782D+00  0.1000000000D+01  0.1000000000D+01
 D   1 1.00       0.000000000000
      0.8000000000D+00  0.1000000000D+01
 ****
     25 0
 S   3 1.00       0.000000000000
      0.1873113696D+02  0.3349460434D-01
      0.2825394365D+01  0.2347269535D+00
      0.6401216923D+00  0.8137573261D+00
 S   1 1.00       0.000000000000
      0.1612777588D+00  0.1000000000D+01
 ****
     26 0
 S   3 1.00       0.000000000000
      0.1873113696D+02  0.3349460434D-01
      0.2825394365D+01  0.2347269535D+00
      0.6401216923D+00  0.8137573261D+00
 S   1 1.00       0.000000000000
      0.1612777588D+00  0.1000000000D+01
 ****
     27 0
 S   6 1.00       0.000000000000
      0.3047524880D+04  0.1834737132D-02
      0.4573695180D+03  0.1403732281D-01
      0.1039486850D+03  0.6884262226D-01
      0.2921015530D+02  0.2321844432D+00
      0.9286662960D+01  0.4679413484D+00
      0.3163926960D+01  0.3623119853D+00
 SP   3 1.00       0.000000000000
      0.7868272350D+01 -0.1193324198D+00  0.6899906659D-01
      0.1881288540D+01 -0.1608541517D+00  0.3164239610D+00
      0.5442492580D+00  0.1143456438D+01  0.7443082909D+00
 SP   1 1.00       0.000000000000
      0.1687144782D+00  0.1000000000D+01  0.1000000000D+01
 D   1 1.00       0.000000000000
      0.8000000000D+00  0.1000000000D+01
 ****
     28 0
 S   3 1.00       0.000000000000
      0.1873113696D+02  0.3349460434D-01
      0.2825394365D+01  0.2347269535D+00
      0.6401216923D+00  0.8137573261D+00
 S   1 1.00       0.000000000000
      0.1612777588D+00  0.1000000000D+01
 ****
     29 0
 S   6 1.00       0.000000000000
      0.3047524880D+04  0.1834737132D-02
      0.4573695180D+03  0.1403732281D-01
      0.1039486850D+03  0.6884262226D-01
      0.2921015530D+02  0.2321844432D+00
      0.9286662960D+01  0.4679413484D+00
      0.3163926960D+01  0.3623119853D+00
 SP   3 1.00       0.000000000000
      0.7868272350D+01 -0.1193324198D+00  0.6899906659D-01
      0.1881288540D+01 -0.1608541517D+00  0.3164239610D+00
      0.5442492580D+00  0.1143456438D+01  0.7443082909D+00
 SP   1 1.00       0.000000000000
      0.1687144782D+00  0.1000000000D+01  0.1000000000D+01
 D   1 1.00       0.000000000000
      0.8000000000D+00  0.1000000000D+01
 ****
     30 0
 S   3 1.00       0.000000000000
      0.1873113696D+02  0.3349460434D-01
      0.2825394365D+01  0.2347269535D+00
      0.6401216923D+00  0.8137573261D+00
 S   1 1.00       0.000000000000
      0.1612777588D+00  0.1000000000D+01
 ****
     31 0
 S   6 1.00       0.000000000000
      0.3047524880D+04  0.1834737132D-02
      0.4573695180D+03  0.1403732281D-01
      0.1039486850D+03  0.6884262226D-01
      0.2921015530D+02  0.2321844432D+00
      0.9286662960D+01  0.4679413484D+00
      0.3163926960D+01  0.3623119853D+00
 SP   3 1.00       0.000000000000
      0.7868272350D+01 -0.1193324198D+00  0.6899906659D-01
      0.1881288540D+01 -0.1608541517D+00  0.3164239610D+00
      0.5442492580D+00  0.1143456438D+01  0.7443082909D+00
 SP   1 1.00       0.000000000000
      0.1687144782D+00  0.1000000000D+01  0.1000000000D+01
 D   1 1.00       0.000000000000
      0.8000000000D+00  0.1000000000D+01
 ****
     32 0
 S   3 1.00       0.000000000000
      0.1873113696D+02  0.3349460434D-01
      0.2825394365D+01  0.2347269535D+00
      0.6401216923D+00  0.8137573261D+00
 S   1 1.00       0.000000000000
      0.1612777588D+00  0.1000000000D+01
 ****
     33 0
 S   3 1.00       0.000000000000
      0.1873113696D+02  0.3349460434D-01
      0.2825394365D+01  0.2347269535D+00
      0.6401216923D+00  0.8137573261D+00
 S   1 1.00       0.000000000000
      0.1612777588D+00  0.1000000000D+01
 ****
     34 0
 S   3 1.00       0.000000000000
      0.1873113696D+02  0.3349460434D-01
      0.2825394365D+01  0.2347269535D+00
      0.6401216923D+00  0.8137573261D+00
 S   1 1.00       0.000000000000
      0.1612777588D+00  0.1000000000D+01
 ****
     35 0
 S   6 1.00       0.000000000000
      0.3047524880D+04  0.1834737132D-02
      0.4573695180D+03  0.1403732281D-01
      0.1039486850D+03  0.6884262226D-01
      0.2921015530D+02  0.2321844432D+00
      0.9286662960D+01  0.4679413484D+00
      0.3163926960D+01  0.3623119853D+00
 SP   3 1.00       0.000000000000
      0.7868272350D+01 -0.1193324198D+00  0.6899906659D-01
      0.1881288540D+01 -0.1608541517D+00  0.3164239610D+00
      0.5442492580D+00  0.1143456438D+01  0.7443082909D+00
 SP   1 1.00       0.000000000000
      0.1687144782D+00  0.1000000000D+01  0.1000000000D+01
 D   1 1.00       0.000000000000
      0.8000000000D+00  0.1000000000D+01
 ****
     36 0
 S   6 1.00       0.000000000000
      0.3047524880D+04  0.1834737132D-02
      0.4573695180D+03  0.1403732281D-01
      0.1039486850D+03  0.6884262226D-01
      0.2921015530D+02  0.2321844432D+00
      0.9286662960D+01  0.4679413484D+00
      0.3163926960D+01  0.3623119853D+00
 SP   3 1.00       0.000000000000
      0.7868272350D+01 -0.1193324198D+00  0.6899906659D-01
      0.1881288540D+01 -0.1608541517D+00  0.3164239610D+00
      0.5442492580D+00  0.1143456438D+01  0.7443082909D+00
 SP   1 1.00       0.000000000000
      0.1687144782D+00  0.1000000000D+01  0.1000000000D+01
 D   1 1.00       0.000000000000
      0.8000000000D+00  0.1000000000D+01
 ****
     37 0
 S   3 1.00       0.000000000000
      0.1873113696D+02  0.3349460434D-01
      0.2825394365D+01  0.2347269535D+00
      0.6401216923D+00  0.8137573261D+00
 S   1 1.00       0.000000000000
      0.1612777588D+00  0.1000000000D+01
 ****
     38 0
 S   3 1.00       0.000000000000
      0.1873113696D+02  0.3349460434D-01
      0.2825394365D+01  0.2347269535D+00
      0.6401216923D+00  0.8137573261D+00
 S   1 1.00       0.000000000000
      0.1612777588D+00  0.1000000000D+01
 ****
     39 0
 S   6 1.00       0.000000000000
      0.3047524880D+04  0.1834737132D-02
      0.4573695180D+03  0.1403732281D-01
      0.1039486850D+03  0.6884262226D-01
      0.2921015530D+02  0.2321844432D+00
      0.9286662960D+01  0.4679413484D+00
      0.3163926960D+01  0.3623119853D+00
 SP   3 1.00       0.000000000000
      0.7868272350D+01 -0.1193324198D+00  0.6899906659D-01
      0.1881288540D+01 -0.1608541517D+00  0.3164239610D+00
      0.5442492580D+00  0.1143456438D+01  0.7443082909D+00
 SP   1 1.00       0.000000000000
      0.1687144782D+00  0.1000000000D+01  0.1000000000D+01
 D   1 1.00       0.000000000000
      0.8000000000D+00  0.1000000000D+01
 ****
     40 0
 S   3 1.00       0.000000000000
      0.1873113696D+02  0.3349460434D-01
      0.2825394365D+01  0.2347269535D+00
      0.6401216923D+00  0.8137573261D+00
 S   1 1.00       0.000000000000
      0.1612777588D+00  0.1000000000D+01
 ****
     41 0
 S   6 1.00       0.000000000000
      0.3047524880D+04  0.1834737132D-02
      0.4573695180D+03  0.1403732281D-01
      0.1039486850D+03  0.6884262226D-01
      0.2921015530D+02  0.2321844432D+00
      0.9286662960D+01  0.4679413484D+00
      0.3163926960D+01  0.3623119853D+00
 SP   3 1.00       0.000000000000
      0.7868272350D+01 -0.1193324198D+00  0.6899906659D-01
      0.1881288540D+01 -0.1608541517D+00  0.3164239610D+00
      0.5442492580D+00  0.1143456438D+01  0.7443082909D+00
 SP   1 1.00       0.000000000000
      0.1687144782D+00  0.1000000000D+01  0.1000000000D+01
 D   1 1.00       0.000000000000
      0.8000000000D+00  0.1000000000D+01
 ****
     42 0
 S   3 1.00       0.000000000000
      0.1873113696D+02  0.3349460434D-01
      0.2825394365D+01  0.2347269535D+00
      0.6401216923D+00  0.8137573261D+00
 S   1 1.00       0.000000000000
      0.1612777588D+00  0.1000000000D+01
 ****
     43 0
 S   3 1.00       0.000000000000
      0.1873113696D+02  0.3349460434D-01
      0.2825394365D+01  0.2347269535D+00
      0.6401216923D+00  0.8137573261D+00
 S   1 1.00       0.000000000000
      0.1612777588D+00  0.1000000000D+01
 ****
     44 0
 S   3 1.00       0.000000000000
      0.1873113696D+02  0.3349460434D-01
      0.2825394365D+01  0.2347269535D+00
      0.6401216923D+00  0.8137573261D+00
 S   1 1.00       0.000000000000
      0.1612777588D+00  0.1000000000D+01
 ****
     45 0
 S   6 1.00       0.000000000000
      0.3047524880D+04  0.1834737132D-02
      0.4573695180D+03  0.1403732281D-01
      0.1039486850D+03  0.6884262226D-01
      0.2921015530D+02  0.2321844432D+00
      0.9286662960D+01  0.4679413484D+00
      0.3163926960D+01  0.3623119853D+00
 SP   3 1.00       0.000000000000
      0.7868272350D+01 -0.1193324198D+00  0.6899906659D-01
      0.1881288540D+01 -0.1608541517D+00  0.3164239610D+00
      0.5442492580D+00  0.1143456438D+01  0.7443082909D+00
 SP   1 1.00       0.000000000000
      0.1687144782D+00  0.1000000000D+01  0.1000000000D+01
 D   1 1.00       0.000000000000
      0.8000000000D+00  0.1000000000D+01
 ****
     46 0
 S   3 1.00       0.000000000000
      0.1873113696D+02  0.3349460434D-01
      0.2825394365D+01  0.2347269535D+00
      0.6401216923D+00  0.8137573261D+00
 S   1 1.00       0.000000000000
      0.1612777588D+00  0.1000000000D+01
 ****
     47 0
 S   3 1.00       0.000000000000
      0.1873113696D+02  0.3349460434D-01
      0.2825394365D+01  0.2347269535D+00
      0.6401216923D+00  0.8137573261D+00
 S   1 1.00       0.000000000000
      0.1612777588D+00  0.1000000000D+01
 ****
     48 0
 S   6 1.00       0.000000000000
      0.3047524880D+04  0.1834737132D-02
      0.4573695180D+03  0.1403732281D-01
      0.1039486850D+03  0.6884262226D-01
      0.2921015530D+02  0.2321844432D+00
      0.9286662960D+01  0.4679413484D+00
      0.3163926960D+01  0.3623119853D+00
 SP   3 1.00       0.000000000000
      0.7868272350D+01 -0.1193324198D+00  0.6899906659D-01
      0.1881288540D+01 -0.1608541517D+00  0.3164239610D+00
      0.5442492580D+00  0.1143456438D+01  0.7443082909D+00
 SP   1 1.00       0.000000000000
      0.1687144782D+00  0.1000000000D+01  0.1000000000D+01
 D   1 1.00       0.000000000000
      0.8000000000D+00  0.1000000000D+01
 ****
     49 0
 S   3 1.00       0.000000000000
      0.1873113696D+02  0.3349460434D-01
      0.2825394365D+01  0.2347269535D+00
      0.6401216923D+00  0.8137573261D+00
 S   1 1.00       0.000000000000
      0.1612777588D+00  0.1000000000D+01
 ****
     50 0
 S   3 1.00       0.000000000000
      0.1873113696D+02  0.3349460434D-01
      0.2825394365D+01  0.2347269535D+00
      0.6401216923D+00  0.8137573261D+00
 S   1 1.00       0.000000000000
      0.1612777588D+00  0.1000000000D+01
 ****
     51 0
 S   6 1.00       0.000000000000
      0.3047524880D+04  0.1834737132D-02
      0.4573695180D+03  0.1403732281D-01
      0.1039486850D+03  0.6884262226D-01
      0.2921015530D+02  0.2321844432D+00
      0.9286662960D+01  0.4679413484D+00
      0.3163926960D+01  0.3623119853D+00
 SP   3 1.00       0.000000000000
      0.7868272350D+01 -0.1193324198D+00  0.6899906659D-01
      0.1881288540D+01 -0.1608541517D+00  0.3164239610D+00
      0.5442492580D+00  0.1143456438D+01  0.7443082909D+00
 SP   1 1.00       0.000000000000
      0.1687144782D+00  0.1000000000D+01  0.1000000000D+01
 D   1 1.00       0.000000000000
      0.8000000000D+00  0.1000000000D+01
 ****
     52 0
 S   3 1.00       0.000000000000
      0.1873113696D+02  0.3349460434D-01
      0.2825394365D+01  0.2347269535D+00
      0.6401216923D+00  0.8137573261D+00
 S   1 1.00       0.000000000000
      0.1612777588D+00  0.1000000000D+01
 ****
     53 0
 S   3 1.00       0.000000000000
      0.1873113696D+02  0.3349460434D-01
      0.2825394365D+01  0.2347269535D+00
      0.6401216923D+00  0.8137573261D+00
 S   1 1.00       0.000000000000
      0.1612777588D+00  0.1000000000D+01
 ****
     54 0
 S   6 1.00       0.000000000000
      0.3047524880D+04  0.1834737132D-02
      0.4573695180D+03  0.1403732281D-01
      0.1039486850D+03  0.6884262226D-01
      0.2921015530D+02  0.2321844432D+00
      0.9286662960D+01  0.4679413484D+00
      0.3163926960D+01  0.3623119853D+00
 SP   3 1.00       0.000000000000
      0.7868272350D+01 -0.1193324198D+00  0.6899906659D-01
      0.1881288540D+01 -0.1608541517D+00  0.3164239610D+00
      0.5442492580D+00  0.1143456438D+01  0.7443082909D+00
 SP   1 1.00       0.000000000000
      0.1687144782D+00  0.1000000000D+01  0.1000000000D+01
 D   1 1.00       0.000000000000
      0.8000000000D+00  0.1000000000D+01
 ****
     55 0
 S   3 1.00       0.000000000000
      0.1873113696D+02  0.3349460434D-01
      0.2825394365D+01  0.2347269535D+00
      0.6401216923D+00  0.8137573261D+00
 S   1 1.00       0.000000000000
      0.1612777588D+00  0.1000000000D+01
 ****
     56 0
 S   6 1.00       0.000000000000
      0.3047524880D+04  0.1834737132D-02
      0.4573695180D+03  0.1403732281D-01
      0.1039486850D+03  0.6884262226D-01
      0.2921015530D+02  0.2321844432D+00
      0.9286662960D+01  0.4679413484D+00
      0.3163926960D+01  0.3623119853D+00
 SP   3 1.00       0.000000000000
      0.7868272350D+01 -0.1193324198D+00  0.6899906659D-01
      0.1881288540D+01 -0.1608541517D+00  0.3164239610D+00
      0.5442492580D+00  0.1143456438D+01  0.7443082909D+00
 SP   1 1.00       0.000000000000
      0.1687144782D+00  0.1000000000D+01  0.1000000000D+01
 D   1 1.00       0.000000000000
      0.8000000000D+00  0.1000000000D+01
 ****
     57 0
 S   3 1.00       0.000000000000
      0.1873113696D+02  0.3349460434D-01
      0.2825394365D+01  0.2347269535D+00
      0.6401216923D+00  0.8137573261D+00
 S   1 1.00       0.000000000000
      0.1612777588D+00  0.1000000000D+01
 ****
     58 0
 S   3 1.00       0.000000000000
      0.1873113696D+02  0.3349460434D-01
      0.2825394365D+01  0.2347269535D+00
      0.6401216923D+00  0.8137573261D+00
 S   1 1.00       0.000000000000
      0.1612777588D+00  0.1000000000D+01
 ****
     59 0
 S   3 1.00       0.000000000000
      0.1873113696D+02  0.3349460434D-01
      0.2825394365D+01  0.2347269535D+00
      0.6401216923D+00  0.8137573261D+00
 S   1 1.00       0.000000000000
      0.1612777588D+00  0.1000000000D+01
 ****
     60 0
 S   6 1.00       0.000000000000
      0.3047524880D+04  0.1834737132D-02
      0.4573695180D+03  0.1403732281D-01
      0.1039486850D+03  0.6884262226D-01
      0.2921015530D+02  0.2321844432D+00
      0.9286662960D+01  0.4679413484D+00
      0.3163926960D+01  0.3623119853D+00
 SP   3 1.00       0.000000000000
      0.7868272350D+01 -0.1193324198D+00  0.6899906659D-01
      0.1881288540D+01 -0.1608541517D+00  0.3164239610D+00
      0.5442492580D+00  0.1143456438D+01  0.7443082909D+00
 SP   1 1.00       0.000000000000
      0.1687144782D+00  0.1000000000D+01  0.1000000000D+01
 D   1 1.00       0.000000000000
      0.8000000000D+00  0.1000000000D+01
 ****
     61 0
 S   3 1.00       0.000000000000
      0.1873113696D+02  0.3349460434D-01
      0.2825394365D+01  0.2347269535D+00
      0.6401216923D+00  0.8137573261D+00
 S   1 1.00       0.000000000000
      0.1612777588D+00  0.1000000000D+01
 ****
     62 0
 S   3 1.00       0.000000000000
      0.1873113696D+02  0.3349460434D-01
      0.2825394365D+01  0.2347269535D+00
      0.6401216923D+00  0.8137573261D+00
 S   1 1.00       0.000000000000
      0.1612777588D+00  0.1000000000D+01
 ****
     63 0
 S   6 1.00       0.000000000000
      0.3047524880D+04  0.1834737132D-02
      0.4573695180D+03  0.1403732281D-01
      0.1039486850D+03  0.6884262226D-01
      0.2921015530D+02  0.2321844432D+00
      0.9286662960D+01  0.4679413484D+00
      0.3163926960D+01  0.3623119853D+00
 SP   3 1.00       0.000000000000
      0.7868272350D+01 -0.1193324198D+00  0.6899906659D-01
      0.1881288540D+01 -0.1608541517D+00  0.3164239610D+00
      0.5442492580D+00  0.1143456438D+01  0.7443082909D+00
 SP   1 1.00       0.000000000000
      0.1687144782D+00  0.1000000000D+01  0.1000000000D+01
 D   1 1.00       0.000000000000
      0.8000000000D+00  0.1000000000D+01
 ****
     64 0
 S   3 1.00       0.000000000000
      0.1873113696D+02  0.3349460434D-01
      0.2825394365D+01  0.2347269535D+00
      0.6401216923D+00  0.8137573261D+00
 S   1 1.00       0.000000000000
      0.1612777588D+00  0.1000000000D+01
 ****
     65 0
 S   3 1.00       0.000000000000
      0.1873113696D+02  0.3349460434D-01
      0.2825394365D+01  0.2347269535D+00
      0.6401216923D+00  0.8137573261D+00
 S   1 1.00       0.000000000000
      0.1612777588D+00  0.1000000000D+01
 ****
     66 0
 S   6 1.00       0.000000000000
      0.3047524880D+04  0.1834737132D-02
      0.4573695180D+03  0.1403732281D-01
      0.1039486850D+03  0.6884262226D-01
      0.2921015530D+02  0.2321844432D+00
      0.9286662960D+01  0.4679413484D+00
      0.3163926960D+01  0.3623119853D+00
 SP   3 1.00       0.000000000000
      0.7868272350D+01 -0.1193324198D+00  0.6899906659D-01
      0.1881288540D+01 -0.1608541517D+00  0.3164239610D+00
      0.5442492580D+00  0.1143456438D+01  0.7443082909D+00
 SP   1 1.00       0.000000000000
      0.1687144782D+00  0.1000000000D+01  0.1000000000D+01
 D   1 1.00       0.000000000000
      0.8000000000D+00  0.1000000000D+01
 ****
     67 0
 S   3 1.00       0.000000000000
      0.1873113696D+02  0.3349460434D-01
      0.2825394365D+01  0.2347269535D+00
      0.6401216923D+00  0.8137573261D+00
 S   1 1.00       0.000000000000
      0.1612777588D+00  0.1000000000D+01
 ****
     68 0
 S   6 1.00       0.000000000000
      0.3047524880D+04  0.1834737132D-02
      0.4573695180D+03  0.1403732281D-01
      0.1039486850D+03  0.6884262226D-01
      0.2921015530D+02  0.2321844432D+00
      0.9286662960D+01  0.4679413484D+00
      0.3163926960D+01  0.3623119853D+00
 SP   3 1.00       0.000000000000
      0.7868272350D+01 -0.1193324198D+00  0.6899906659D-01
      0.1881288540D+01 -0.1608541517D+00  0.3164239610D+00
      0.5442492580D+00  0.1143456438D+01  0.7443082909D+00
 SP   1 1.00       0.000000000000
      0.1687144782D+00  0.1000000000D+01  0.1000000000D+01
 D   1 1.00       0.000000000000
      0.8000000000D+00  0.1000000000D+01
 ****
     69 0
 S   3 1.00       0.000000000000
      0.1873113696D+02  0.3349460434D-01
      0.2825394365D+01  0.2347269535D+00
      0.6401216923D+00  0.8137573261D+00
 S   1 1.00       0.000000000000
      0.1612777588D+00  0.1000000000D+01
 ****
     70 0
 S   3 1.00       0.000000000000
      0.1873113696D+02  0.3349460434D-01
      0.2825394365D+01  0.2347269535D+00
      0.6401216923D+00  0.8137573261D+00
 S   1 1.00       0.000000000000
      0.1612777588D+00  0.1000000000D+01
 ****
     71 0
 S   3 1.00       0.000000000000
      0.1873113696D+02  0.3349460434D-01
      0.2825394365D+01  0.2347269535D+00
      0.6401216923D+00  0.8137573261D+00
 S   1 1.00       0.000000000000
      0.1612777588D+00  0.1000000000D+01
 ****
     72 0
 S   6 1.00       0.000000000000
      0.3047524880D+04  0.1834737132D-02
      0.4573695180D+03  0.1403732281D-01
      0.1039486850D+03  0.6884262226D-01
      0.2921015530D+02  0.2321844432D+00
      0.9286662960D+01  0.4679413484D+00
      0.3163926960D+01  0.3623119853D+00
 SP   3 1.00       0.000000000000
      0.7868272350D+01 -0.1193324198D+00  0.6899906659D-01
      0.1881288540D+01 -0.1608541517D+00  0.3164239610D+00
      0.5442492580D+00  0.1143456438D+01  0.7443082909D+00
 SP   1 1.00       0.000000000000
      0.1687144782D+00  0.1000000000D+01  0.1000000000D+01
 D   1 1.00       0.000000000000
      0.8000000000D+00  0.1000000000D+01
 ****
     73 0
 S   3 1.00       0.000000000000
      0.1873113696D+02  0.3349460434D-01
      0.2825394365D+01  0.2347269535D+00
      0.6401216923D+00  0.8137573261D+00
 S   1 1.00       0.000000000000
      0.1612777588D+00  0.1000000000D+01
 ****
     74 0
 S   3 1.00       0.000000000000
      0.1873113696D+02  0.3349460434D-01
      0.2825394365D+01  0.2347269535D+00
      0.6401216923D+00  0.8137573261D+00
 S   1 1.00       0.000000000000
      0.1612777588D+00  0.1000000000D+01
 ****
     75 0
 S   3 1.00       0.000000000000
      0.1873113696D+02  0.3349460434D-01
      0.2825394365D+01  0.2347269535D+00
      0.6401216923D+00  0.8137573261D+00
 S   1 1.00       0.000000000000
      0.1612777588D+00  0.1000000000D+01
 ****

 AO basis set (Overlap normalization):
 Atom O1       Shell     1 S   6     bf    1 -     1          0.000000000000          0.000000000000          0.000000000000
      0.5484671660D+04  0.1831074430D-02
      0.8252349460D+03  0.1395017220D-01
      0.1880469580D+03  0.6844507810D-01
      0.5296450000D+02  0.2327143360D+00
      0.1689757040D+02  0.4701928980D+00
      0.5799635340D+01  0.3585208530D+00
 Atom O1       Shell     2 SP   3    bf    2 -     5          0.000000000000          0.000000000000          0.000000000000
      0.1553961625D+02 -0.1107775495D+00  0.7087426823D-01
      0.3599933586D+01 -0.1480262627D+00  0.3397528391D+00
      0.1013761750D+01  0.1130767015D+01  0.7271585773D+00
 Atom O1       Shell     3 SP   1    bf    6 -     9          0.000000000000          0.000000000000          0.000000000000
      0.2700058226D+00  0.1000000000D+01  0.1000000000D+01
 Atom O1       Shell     4 D   1     bf   10 -    15          0.000000000000          0.000000000000          0.000000000000
      0.8000000000D+00  0.1000000000D+01
 Atom H2       Shell     5 S   3     bf   16 -    16          1.828549102820          0.000000000000          0.000000000000
      0.1873113696D+02  0.3349460434D-01
      0.2825394365D+01  0.2347269535D+00
      0.6401216923D+00  0.8137573261D+00
 Atom H2       Shell     6 S   1     bf   17 -    17          1.828549102820          0.000000000000          0.000000000000
      0.1612777588D+00  0.1000000000D+01
 Atom O3       Shell     7 S   6     bf   18 -    18          3.114079429821         -5.160558893450         12.122502624580
      0.5484671660D+04  0.1831074430D-02
      0.8252349460D+03  0.1395017220D-01
      0.1880469580D+03  0.6844507810D-01
      0.5296450000D+02  0.2327143360D+00
      0.1689757040D+02  0.4701928980D+00
      0.5799635340D+01  0.3585208530D+00
 Atom O3       Shell     8 SP   3    bf   19 -    22          3.114079429821         -5.160558893450         12.122502624580
      0.1553961625D+02 -0.1107775495D+00  0.7087426823D-01
      0.3599933586D+01 -0.1480262627D+00  0.3397528391D+00
      0.1013761750D+01  0.1130767015D+01  0.7271585773D+00
 Atom O3       Shell     9 SP   1    bf   23 -    26          3.114079429821         -5.160558893450         12.122502624580
      0.2700058226D+00  0.1000000000D+01  0.1000000000D+01
 Atom O3       Shell    10 D   1     bf   27 -    32          3.114079429821         -5.160558893450         12.122502624580
      0.8000000000D+00  0.1000000000D+01
 Atom H4       Shell    11 S   3     bf   33 -    33          4.887194985005         -4.728273647058         12.233315503608
      0.1873113696D+02  0.3349460434D-01
      0.2825394365D+01  0.2347269535D+00
      0.6401216923D+00  0.8137573261D+00
 Atom H4       Shell    12 S   1     bf   34 -    34          4.887194985005         -4.728273647058         12.233315503608
      0.1612777588D+00  0.1000000000D+01
 Atom C5       Shell    13 S   6     bf   35 -    35         -2.258924667570          7.763506238197          3.007577205074
      0.3047524880D+04  0.1834737132D-02
      0.4573695180D+03  0.1403732281D-01
      0.1039486850D+03  0.6884262226D-01
      0.2921015530D+02  0.2321844432D+00
      0.9286662960D+01  0.4679413484D+00
      0.3163926960D+01  0.3623119853D+00
 Atom C5       Shell    14 SP   3    bf   36 -    39         -2.258924667570          7.763506238197          3.007577205074
      0.7868272350D+01 -0.1193324198D+00  0.6899906659D-01
      0.1881288540D+01 -0.1608541517D+00  0.3164239610D+00
      0.5442492580D+00  0.1143456438D+01  0.7443082909D+00
 Atom C5       Shell    15 SP   1    bf   40 -    43         -2.258924667570          7.763506238197          3.007577205074
      0.1687144782D+00  0.1000000000D+01  0.1000000000D+01
 Atom C5       Shell    16 D   1     bf   44 -    49         -2.258924667570          7.763506238197          3.007577205074
      0.8000000000D+00  0.1000000000D+01
 Atom C6       Shell    17 S   6     bf   50 -    50         -2.433342477903          4.937925703494          2.206639403672
      0.3047524880D+04  0.1834737132D-02
      0.4573695180D+03  0.1403732281D-01
      0.1039486850D+03  0.6884262226D-01
      0.2921015530D+02  0.2321844432D+00
      0.9286662960D+01  0.4679413484D+00
      0.3163926960D+01  0.3623119853D+00
 Atom C6       Shell    18 SP   3    bf   51 -    54         -2.433342477903          4.937925703494          2.206639403672
      0.7868272350D+01 -0.1193324198D+00  0.6899906659D-01
      0.1881288540D+01 -0.1608541517D+00  0.3164239610D+00
      0.5442492580D+00  0.1143456438D+01  0.7443082909D+00
 Atom C6       Shell    19 SP   1    bf   55 -    58         -2.433342477903          4.937925703494          2.206639403672
      0.1687144782D+00  0.1000000000D+01  0.1000000000D+01
 Atom C6       Shell    20 D   1     bf   59 -    64         -2.433342477903          4.937925703494          2.206639403672
      0.8000000000D+00  0.1000000000D+01
 Atom H7       Shell    21 S   3     bf   65 -    65         -4.270182829720          4.283014089059          2.948089174431
      0.1873113696D+02  0.3349460434D-01
      0.2825394365D+01  0.2347269535D+00
      0.6401216923D+00  0.8137573261D+00
 Atom H7       Shell    22 S   1     bf   66 -    66         -4.270182829720          4.283014089059          2.948089174431
      0.1612777588D+00  0.1000000000D+01
 Atom C8       Shell    23 S   6     bf   67 -    67         -0.450547484150          3.179283069433          3.405774305364
      0.3047524880D+04  0.1834737132D-02
      0.4573695180D+03  0.1403732281D-01
      0.1039486850D+03  0.6884262226D-01
      0.2921015530D+02  0.2321844432D+00
      0.9286662960D+01  0.4679413484D+00
      0.3163926960D+01  0.3623119853D+00
 Atom C8       Shell    24 SP   3    bf   68 -    71         -0.450547484150          3.179283069433          3.405774305364
      0.7868272350D+01 -0.1193324198D+00  0.6899906659D-01
      0.1881288540D+01 -0.1608541517D+00  0.3164239610D+00
      0.5442492580D+00  0.1143456438D+01  0.7443082909D+00
 Atom C8       Shell    25 SP   1    bf   72 -    75         -0.450547484150          3.179283069433          3.405774305364
      0.1687144782D+00  0.1000000000D+01  0.1000000000D+01
 Atom C8       Shell    26 D   1     bf   76 -    81         -0.450547484150          3.179283069433          3.405774305364
      0.8000000000D+00  0.1000000000D+01
 Atom H9       Shell    27 S   3     bf   82 -    82          1.449967227509          3.745234994683          2.782459592172
      0.1873113696D+02  0.3349460434D-01
      0.2825394365D+01  0.2347269535D+00
      0.6401216923D+00  0.8137573261D+00
 Atom H9       Shell    28 S   1     bf   83 -    83          1.449967227509          3.745234994683          2.782459592172
      0.1612777588D+00  0.1000000000D+01
 Atom C10      Shell    29 S   6     bf   84 -    84         -0.612157505542          3.363350463907          6.332384947055
      0.3047524880D+04  0.1834737132D-02
      0.4573695180D+03  0.1403732281D-01
      0.1039486850D+03  0.6884262226D-01
      0.2921015530D+02  0.2321844432D+00
      0.9286662960D+01  0.4679413484D+00
      0.3163926960D+01  0.3623119853D+00
 Atom C10      Shell    30 SP   3    bf   85 -    88         -0.612157505542          3.363350463907          6.332384947055
      0.7868272350D+01 -0.1193324198D+00  0.6899906659D-01
      0.1881288540D+01 -0.1608541517D+00  0.3164239610D+00
      0.5442492580D+00  0.1143456438D+01  0.7443082909D+00
 Atom C10      Shell    31 SP   1    bf   89 -    92         -0.612157505542          3.363350463907          6.332384947055
      0.1687144782D+00  0.1000000000D+01  0.1000000000D+01
 Atom C10      Shell    32 D   1     bf   93 -    98         -0.612157505542          3.363350463907          6.332384947055
      0.8000000000D+00  0.1000000000D+01
 Atom H11      Shell    33 S   3     bf   99 -    99         -2.466410701016          2.562443861883          6.843260974238
      0.1873113696D+02  0.3349460434D-01
      0.2825394365D+01  0.2347269535D+00
      0.6401216923D+00  0.8137573261D+00
 Atom H11      Shell    34 S   1     bf  100 -   100         -2.466410701016          2.562443861883          6.843260974238
      0.1612777588D+00  0.1000000000D+01
 Atom C12      Shell    35 S   6     bf  101 -   101         -4.500180395798          8.890665647781          1.427306387614
      0.3047524880D+04  0.1834737132D-02
      0.4573695180D+03  0.1403732281D-01
      0.1039486850D+03  0.6884262226D-01
      0.2921015530D+02  0.2321844432D+00
      0.9286662960D+01  0.4679413484D+00
      0.3163926960D+01  0.3623119853D+00
 Atom C12      Shell    36 SP   3    bf  102 -   105         -4.500180395798          8.890665647781          1.427306387614
      0.7868272350D+01 -0.1193324198D+00  0.6899906659D-01
      0.1881288540D+01 -0.1608541517D+00  0.3164239610D+00
      0.5442492580D+00  0.1143456438D+01  0.7443082909D+00
 Atom C12      Shell    37 SP   1    bf  106 -   109         -4.500180395798          8.890665647781          1.427306387614
      0.1687144782D+00  0.1000000000D+01  0.1000000000D+01
 Atom C12      Shell    38 D   1     bf  110 -   115         -4.500180395798          8.890665647781          1.427306387614
      0.8000000000D+00  0.1000000000D+01
 Atom H13      Shell    39 S   3     bf  116 -   116         -6.242154039101          8.282487565325          2.392432382667
      0.1873113696D+02  0.3349460434D-01
      0.2825394365D+01  0.2347269535D+00
      0.6401216923D+00  0.8137573261D+00
 Atom H13      Shell    40 S   1     bf  117 -   117         -6.242154039101          8.282487565325          2.392432382667
      0.1612777588D+00  0.1000000000D+01
 Atom C14      Shell    41 S   6     bf  118 -   118         -2.569614389900          7.830209148728          5.903893061314
      0.3047524880D+04  0.1834737132D-02
      0.4573695180D+03  0.1403732281D-01
      0.1039486850D+03  0.6884262226D-01
      0.2921015530D+02  0.2321844432D+00
      0.9286662960D+01  0.4679413484D+00
      0.3163926960D+01  0.3623119853D+00
 Atom C14      Shell    42 SP   3    bf  119 -   122         -2.569614389900          7.830209148728          5.903893061314
      0.7868272350D+01 -0.1193324198D+00  0.6899906659D-01
      0.1881288540D+01 -0.1608541517D+00  0.3164239610D+00
      0.5442492580D+00  0.1143456438D+01  0.7443082909D+00
 Atom C14      Shell    43 SP   1    bf  123 -   126         -2.569614389900          7.830209148728          5.903893061314
      0.1687144782D+00  0.1000000000D+01  0.1000000000D+01
 Atom C14      Shell    44 D   1     bf  127 -   132         -2.569614389900          7.830209148728          5.903893061314
      0.8000000000D+00  0.1000000000D+01
 Atom H15      Shell    45 S   3     bf  133 -   133         -4.486457336902          7.185074958408          6.381222405624
      0.1873113696D+02  0.3349460434D-01
      0.2825394365D+01  0.2347269535D+00
      0.6401216923D+00  0.8137573261D+00
 Atom H15      Shell    46 S   1     bf  134 -   134         -4.486457336902          7.185074958408          6.381222405624
      0.1612777588D+00  0.1000000000D+01
 Atom H16      Shell    47 S   3     bf  135 -   135         -2.394380444646          9.749806522747          6.653226315965
      0.1873113696D+02  0.3349460434D-01
      0.2825394365D+01  0.2347269535D+00
      0.6401216923D+00  0.8137573261D+00
 Atom H16      Shell    48 S   1     bf  136 -   136         -2.394380444646          9.749806522747          6.653226315965
      0.1612777588D+00  0.1000000000D+01
 Atom C17      Shell    49 S   6     bf  137 -   137          1.390427267192          1.679233677444          7.724781138802
      0.3047524880D+04  0.1834737132D-02
      0.4573695180D+03  0.1403732281D-01
      0.1039486850D+03  0.6884262226D-01
      0.2921015530D+02  0.2321844432D+00
      0.9286662960D+01  0.4679413484D+00
      0.3163926960D+01  0.3623119853D+00
 Atom C17      Shell    50 SP   3    bf  138 -   141          1.390427267192          1.679233677444          7.724781138802
      0.7868272350D+01 -0.1193324198D+00  0.6899906659D-01
      0.1881288540D+01 -0.1608541517D+00  0.3164239610D+00
      0.5442492580D+00  0.1143456438D+01  0.7443082909D+00
 Atom C17      Shell    51 SP   1    bf  142 -   145          1.390427267192          1.679233677444          7.724781138802
      0.1687144782D+00  0.1000000000D+01  0.1000000000D+01
 Atom C17      Shell    52 D   1     bf  146 -   151          1.390427267192          1.679233677444          7.724781138802
      0.8000000000D+00  0.1000000000D+01
 Atom C18      Shell    53 S   6     bf  152 -   152         -2.705302376522          5.033816190039         -0.682451708308
      0.3047524880D+04  0.1834737132D-02
      0.4573695180D+03  0.1403732281D-01
      0.1039486850D+03  0.6884262226D-01
      0.2921015530D+02  0.2321844432D+00
      0.9286662960D+01  0.4679413484D+00
      0.3163926960D+01  0.3623119853D+00
 Atom C18      Shell    54 SP   3    bf  153 -   156         -2.705302376522          5.033816190039         -0.682451708308
      0.7868272350D+01 -0.1193324198D+00  0.6899906659D-01
      0.1881288540D+01 -0.1608541517D+00  0.3164239610D+00
      0.5442492580D+00  0.1143456438D+01  0.7443082909D+00
 Atom C18      Shell    55 SP   1    bf  157 -   160         -2.705302376522          5.033816190039         -0.682451708308
      0.1687144782D+00  0.1000000000D+01  0.1000000000D+01
 Atom C18      Shell    56 D   1     bf  161 -   166         -2.705302376522          5.033816190039         -0.682451708308
      0.8000000000D+00  0.1000000000D+01
 Atom H19      Shell    57 S   3     bf  167 -   167         -3.570166457157          3.324217542715         -1.451039099068
      0.1873113696D+02  0.3349460434D-01
      0.2825394365D+01  0.2347269535D+00
      0.6401216923D+00  0.8137573261D+00
 Atom H19      Shell    58 S   1     bf  168 -   168         -3.570166457157          3.324217542715         -1.451039099068
      0.1612777588D+00  0.1000000000D+01
 Atom H20      Shell    59 S   3     bf  169 -   169         -0.849635590312          5.192517110330         -1.585050048234
      0.1873113696D+02  0.3349460434D-01
      0.2825394365D+01  0.2347269535D+00
      0.6401216923D+00  0.8137573261D+00
 Atom H20      Shell    60 S   1     bf  170 -   170         -0.849635590312          5.192517110330         -1.585050048234
      0.1612777588D+00  0.1000000000D+01
 Atom C21      Shell    61 S   6     bf  171 -   171         -0.616706926720          6.138099784484          7.244350659422
      0.3047524880D+04  0.1834737132D-02
      0.4573695180D+03  0.1403732281D-01
      0.1039486850D+03  0.6884262226D-01
      0.2921015530D+02  0.2321844432D+00
      0.9286662960D+01  0.4679413484D+00
      0.3163926960D+01  0.3623119853D+00
 Atom C21      Shell    62 SP   3    bf  172 -   175         -0.616706926720          6.138099784484          7.244350659422
      0.7868272350D+01 -0.1193324198D+00  0.6899906659D-01
      0.1881288540D+01 -0.1608541517D+00  0.3164239610D+00
      0.5442492580D+00  0.1143456438D+01  0.7443082909D+00
 Atom C21      Shell    63 SP   1    bf  176 -   179         -0.616706926720          6.138099784484          7.244350659422
      0.1687144782D+00  0.1000000000D+01  0.1000000000D+01
 Atom C21      Shell    64 D   1     bf  180 -   185         -0.616706926720          6.138099784484          7.244350659422
      0.8000000000D+00  0.1000000000D+01
 Atom H22      Shell    65 S   3     bf  186 -   186          1.263618725723          6.963442624104          6.983339512763
      0.1873113696D+02  0.3349460434D-01
      0.2825394365D+01  0.2347269535D+00
      0.6401216923D+00  0.8137573261D+00
 Atom H22      Shell    66 S   1     bf  187 -   187          1.263618725723          6.963442624104          6.983339512763
      0.1612777588D+00  0.1000000000D+01
 Atom H23      Shell    67 S   3     bf  188 -   188         -0.987373343973          6.198673765146          9.280534082497
      0.1873113696D+02  0.3349460434D-01
      0.2825394365D+01  0.2347269535D+00
      0.6401216923D+00  0.8137573261D+00
 Atom H23      Shell    68 S   1     bf  189 -   189         -0.987373343973          6.198673765146          9.280534082497
      0.1612777588D+00  0.1000000000D+01
 Atom C24      Shell    69 S   6     bf  190 -   190         -4.325007072958          7.434933905191         -1.144238130764
      0.3047524880D+04  0.1834737132D-02
      0.4573695180D+03  0.1403732281D-01
      0.1039486850D+03  0.6884262226D-01
      0.2921015530D+02  0.2321844432D+00
      0.9286662960D+01  0.4679413484D+00
      0.3163926960D+01  0.3623119853D+00
 Atom C24      Shell    70 SP   3    bf  191 -   194         -4.325007072958          7.434933905191         -1.144238130764
      0.7868272350D+01 -0.1193324198D+00  0.6899906659D-01
      0.1881288540D+01 -0.1608541517D+00  0.3164239610D+00
      0.5442492580D+00  0.1143456438D+01  0.7443082909D+00
 Atom C24      Shell    71 SP   1    bf  195 -   198         -4.325007072958          7.434933905191         -1.144238130764
      0.1687144782D+00  0.1000000000D+01  0.1000000000D+01
 Atom C24      Shell    72 D   1     bf  199 -   204         -4.325007072958          7.434933905191         -1.144238130764
      0.8000000000D+00  0.1000000000D+01
 Atom H25      Shell    73 S   3     bf  205 -   205         -3.462256764387          8.636967325517         -2.595422663156
      0.1873113696D+02  0.3349460434D-01
      0.2825394365D+01  0.2347269535D+00
      0.6401216923D+00  0.8137573261D+00
 Atom H25      Shell    74 S   1     bf  206 -   206         -3.462256764387          8.636967325517         -2.595422663156
      0.1612777588D+00  0.1000000000D+01
 Atom H26      Shell    75 S   3     bf  207 -   207         -6.208597718625          6.944665020234         -1.842673728519
      0.1873113696D+02  0.3349460434D-01
      0.2825394365D+01  0.2347269535D+00
      0.6401216923D+00  0.8137573261D+00
 Atom H26      Shell    76 S   1     bf  208 -   208         -6.208597718625          6.944665020234         -1.842673728519
      0.1612777588D+00  0.1000000000D+01
 Atom C27      Shell    77 S   6     bf  209 -   209         -0.836577733912          0.419567729668          2.558440930605
      0.3047524880D+04  0.1834737132D-02
      0.4573695180D+03  0.1403732281D-01
      0.1039486850D+03  0.6884262226D-01
      0.2921015530D+02  0.2321844432D+00
      0.9286662960D+01  0.4679413484D+00
      0.3163926960D+01  0.3623119853D+00
 Atom C27      Shell    78 SP   3    bf  210 -   213         -0.836577733912          0.419567729668          2.558440930605
      0.7868272350D+01 -0.1193324198D+00  0.6899906659D-01
      0.1881288540D+01 -0.1608541517D+00  0.3164239610D+00
      0.5442492580D+00  0.1143456438D+01  0.7443082909D+00
 Atom C27      Shell    79 SP   1    bf  214 -   217         -0.836577733912          0.419567729668          2.558440930605
      0.1687144782D+00  0.1000000000D+01  0.1000000000D+01
 Atom C27      Shell    80 D   1     bf  218 -   223         -0.836577733912          0.419567729668          2.558440930605
      0.8000000000D+00  0.1000000000D+01
 Atom H28      Shell    81 S   3     bf  224 -   224         -2.873799731572          0.023950313419          2.465196003955
      0.1873113696D+02  0.3349460434D-01
      0.2825394365D+01  0.2347269535D+00
      0.6401216923D+00  0.8137573261D+00
 Atom H28      Shell    82 S   1     bf  225 -   225         -2.873799731572          0.023950313419          2.465196003955
      0.1612777588D+00  0.1000000000D+01
 Atom C29      Shell    83 S   6     bf  226 -   226         -4.711213067250         11.792803391189          1.064920069973
      0.3047524880D+04  0.1834737132D-02
      0.4573695180D+03  0.1403732281D-01
      0.1039486850D+03  0.6884262226D-01
      0.2921015530D+02  0.2321844432D+00
      0.9286662960D+01  0.4679413484D+00
      0.3163926960D+01  0.3623119853D+00
 Atom C29      Shell    84 SP   3    bf  227 -   230         -4.711213067250         11.792803391189          1.064920069973
      0.7868272350D+01 -0.1193324198D+00  0.6899906659D-01
      0.1881288540D+01 -0.1608541517D+00  0.3164239610D+00
      0.5442492580D+00  0.1143456438D+01  0.7443082909D+00
 Atom C29      Shell    85 SP   1    bf  231 -   234         -4.711213067250         11.792803391189          1.064920069973
      0.1687144782D+00  0.1000000000D+01  0.1000000000D+01
 Atom C29      Shell    86 D   1     bf  235 -   240         -4.711213067250         11.792803391189          1.064920069973
      0.8000000000D+00  0.1000000000D+01
 Atom H30      Shell    87 S   3     bf  241 -   241         -3.038134152232         12.410090501627          0.000000000000
      0.1873113696D+02  0.3349460434D-01
      0.2825394365D+01  0.2347269535D+00
      0.6401216923D+00  0.8137573261D+00
 Atom H30      Shell    88 S   1     bf  242 -   242         -3.038134152232         12.410090501627          0.000000000000
      0.1612777588D+00  0.1000000000D+01
 Atom C31      Shell    89 S   6     bf  243 -   243          0.268189422553          8.991681336160          2.206600739876
      0.3047524880D+04  0.1834737132D-02
      0.4573695180D+03  0.1403732281D-01
      0.1039486850D+03  0.6884262226D-01
      0.2921015530D+02  0.2321844432D+00
      0.9286662960D+01  0.4679413484D+00
      0.3163926960D+01  0.3623119853D+00
 Atom C31      Shell    90 SP   3    bf  244 -   247          0.268189422553          8.991681336160          2.206600739876
      0.7868272350D+01 -0.1193324198D+00  0.6899906659D-01
      0.1881288540D+01 -0.1608541517D+00  0.3164239610D+00
      0.5442492580D+00  0.1143456438D+01  0.7443082909D+00
 Atom C31      Shell    91 SP   1    bf  248 -   251          0.268189422553          8.991681336160          2.206600739876
      0.1687144782D+00  0.1000000000D+01  0.1000000000D+01
 Atom C31      Shell    92 D   1     bf  252 -   257          0.268189422553          8.991681336160          2.206600739876
      0.8000000000D+00  0.1000000000D+01
 Atom H32      Shell    93 S   3     bf  258 -   258          1.906734990890          7.987226115165          2.964351533921
      0.1873113696D+02  0.3349460434D-01
      0.2825394365D+01  0.2347269535D+00
      0.6401216923D+00  0.8137573261D+00
 Atom H32      Shell    94 S   1     bf  259 -   259          1.906734990890          7.987226115165          2.964351533921
      0.1612777588D+00  0.1000000000D+01
 Atom H33      Shell    95 S   3     bf  260 -   260          0.482893624011          9.043614392902          0.151121153182
      0.1873113696D+02  0.3349460434D-01
      0.2825394365D+01  0.2347269535D+00
      0.6401216923D+00  0.8137573261D+00
 Atom H33      Shell    96 S   1     bf  261 -   261          0.482893624011          9.043614392902          0.151121153182
      0.1612777588D+00  0.1000000000D+01
 Atom H34      Shell    97 S   3     bf  262 -   262          0.381966299226         10.942575239453          2.887124341713
      0.1873113696D+02  0.3349460434D-01
      0.2825394365D+01  0.2347269535D+00
      0.6401216923D+00  0.8137573261D+00
 Atom H34      Shell    98 S   1     bf  263 -   263          0.381966299226         10.942575239453          2.887124341713
      0.1612777588D+00  0.1000000000D+01
 Atom C35      Shell    99 S   6     bf  264 -   264          1.459066032071         -0.958133743800          6.529904678259
      0.3047524880D+04  0.1834737132D-02
      0.4573695180D+03  0.1403732281D-01
      0.1039486850D+03  0.6884262226D-01
      0.2921015530D+02  0.2321844432D+00
      0.9286662960D+01  0.4679413484D+00
      0.3163926960D+01  0.3623119853D+00
 Atom C35      Shell   100 SP   3    bf  265 -   268          1.459066032071         -0.958133743800          6.529904678259
      0.7868272350D+01 -0.1193324198D+00  0.6899906659D-01
      0.1881288540D+01 -0.1608541517D+00  0.3164239610D+00
      0.5442492580D+00  0.1143456438D+01  0.7443082909D+00
 Atom C35      Shell   101 SP   1    bf  269 -   272          1.459066032071         -0.958133743800          6.529904678259
      0.1687144782D+00  0.1000000000D+01  0.1000000000D+01
 Atom C35      Shell   102 D   1     bf  273 -   278          1.459066032071         -0.958133743800          6.529904678259
      0.8000000000D+00  0.1000000000D+01
 Atom C36      Shell   103 S   6     bf  279 -   279          0.581183325751          1.390024547656         10.546564930245
      0.3047524880D+04  0.1834737132D-02
      0.4573695180D+03  0.1403732281D-01
      0.1039486850D+03  0.6884262226D-01
      0.2921015530D+02  0.2321844432D+00
      0.9286662960D+01  0.4679413484D+00
      0.3163926960D+01  0.3623119853D+00
 Atom C36      Shell   104 SP   3    bf  280 -   283          0.581183325751          1.390024547656         10.546564930245
      0.7868272350D+01 -0.1193324198D+00  0.6899906659D-01
      0.1881288540D+01 -0.1608541517D+00  0.3164239610D+00
      0.5442492580D+00  0.1143456438D+01  0.7443082909D+00
 Atom C36      Shell   105 SP   1    bf  284 -   287          0.581183325751          1.390024547656         10.546564930245
      0.1687144782D+00  0.1000000000D+01  0.1000000000D+01
 Atom C36      Shell   106 D   1     bf  288 -   293          0.581183325751          1.390024547656         10.546564930245
      0.8000000000D+00  0.1000000000D+01
 Atom H37      Shell   107 S   3     bf  294 -   294         -1.439660906844          0.915722261152         10.596482348401
      0.1873113696D+02  0.3349460434D-01
      0.2825394365D+01  0.2347269535D+00
      0.6401216923D+00  0.8137573261D+00
 Atom H37      Shell   108 S   1     bf  295 -   295         -1.439660906844          0.915722261152         10.596482348401
      0.1612777588D+00  0.1000000000D+01
 Atom H38      Shell   109 S   3     bf  296 -   296          0.780190913929          3.210363432935         11.510537606542
      0.1873113696D+02  0.3349460434D-01
      0.2825394365D+01  0.2347269535D+00
      0.6401216923D+00  0.8137573261D+00
 Atom H38      Shell   110 S   1     bf  297 -   297          0.780190913929          3.210363432935         11.510537606542
      0.1612777588D+00  0.1000000000D+01
 Atom C39      Shell   111 S   6     bf  298 -   298          0.403259355346         -1.466617585568          4.282835925679
      0.3047524880D+04  0.1834737132D-02
      0.4573695180D+03  0.1403732281D-01
[...]
 1539 Fit      -0.001626
 1540 Fit      -0.000694
 1541 Fit       0.000500
 1542 Fit      -0.000170
 1543 Fit       0.001809
 1544 Fit      -0.000332
 1545 Fit       0.001492
 1546 Fit       0.002117
 1547 Fit      -0.001069
 1548 Fit       0.000730
 1549 Fit       0.001784
 1550 Fit      -0.000962
 1551 Fit      -0.000640
 1552 Fit      -0.001673
 1553 Fit      -0.000971
 1554 Fit       0.000601
 1555 Fit       0.001465
 1556 Fit       0.001145
 1557 Fit      -0.000356
 1558 Fit       0.000771
 1559 Fit       0.002128
 1560 Fit       0.002526
 1561 Fit       0.001581
 1562 Fit       0.002324
 1563 Fit       0.001073
 1564 Fit       0.002746
 1565 Fit       0.000857
 1566 Fit      -0.001411
 1567 Fit       0.003119
 1568 Fit       0.003252
 1569 Fit       0.001798
 1570 Fit      -0.000390
 1571 Fit       0.003730
 1572 Fit       0.002354
 1573 Fit       0.000885
 1574 Fit      -0.001105
 1575 Fit       0.000694
 1576 Fit      -0.002687
 1577 Fit      -0.003013
 1578 Fit      -0.002907
 1579 Fit      -0.002643
 1580 Fit      -0.000978
 1581 Fit      -0.001124
 1582 Fit      -0.003293
 1583 Fit      -0.003073
 1584 Fit      -0.002856
 1585 Fit       0.001721
 1586 Fit      -0.000286
 1587 Fit       0.001481
 1588 Fit       0.002326
 1589 Fit      -0.001260
 1590 Fit       0.000327
 1591 Fit       0.001119
 1592 Fit       0.001338
 1593 Fit      -0.001964
 1594 Fit      -0.001332
 1595 Fit      -0.001728
 1596 Fit      -0.001714
 1597 Fit       0.002688
 1598 Fit       0.002656
 1599 Fit       0.001339
 1600 Fit      -0.000632
 1601 Fit       0.000813
 1602 Fit       0.002044
 1603 Fit       0.001958
 1604 Fit       0.000495
 1605 Fit      -0.001840
 1606 Fit      -0.001637
 1607 Fit       0.000410
 1608 Fit       0.000122
 1609 Fit      -0.002289
 1610 Fit      -0.001859
 1611 Fit      -0.001490
 1612 Fit      -0.000045
 1613 Fit       0.000012
 1614 Fit      -0.001899
 1615 Fit       0.000009
 1616 Fit       0.001453
 1617 Fit       0.002145
 1618 Fit       0.001544
 1619 Fit       0.000069
 1620 Fit      -0.002010
 1621 Fit      -0.002613
 1622 Fit      -0.001264
 1623 Fit       0.000778
 1624 Fit       0.001459
 1625 Fit      -0.000228
 1626 Fit      -0.015022
 1627 Fit      -0.017788
 1628 Fit      -0.021110
 1629 Fit      -0.021668
 1630 Fit      -0.018484
 1631 Fit      -0.011256
 1632 Fit      -0.024640
 1633 Fit      -0.024155
 1634 Fit      -0.019710
 1635 Fit      -0.011234
 1636 Fit      -0.010211
 1637 Fit      -0.015228
 1638 Fit      -0.024586
 1639 Fit      -0.023307
 1640 Fit      -0.016111
 1641 Fit      -0.020182
 1642 Fit       0.016881
 1643 Fit       0.018501
 1644 Fit       0.007919
 1645 Fit       0.013276
 1646 Fit       0.015954
 1647 Fit       0.015786
 1648 Fit       0.012200
 1649 Fit       0.007350
 1650 Fit       0.013151
 1651 Fit       0.011112
 1652 Fit       0.009503
 1653 Fit       0.002427
 1654 Fit      -0.001035
 1655 Fit       0.007726
 1656 Fit       0.002165
 1657 Fit      -0.014750
 1658 Fit      -0.005776
 1659 Fit      -0.005674
 1660 Fit      -0.017951
 1661 Fit      -0.021142
 1662 Fit      -0.015003
 1663 Fit      -0.016048
 1664 Fit      -0.022210
 1665 Fit      -0.024576
 1666 Fit      -0.021758
 1667 Fit      -0.013695
 1668 Fit      -0.002180
 1669 Fit      -0.021871
 1670 Fit      -0.025398
 1671 Fit      -0.024116
 1672 Fit      -0.017651
 1673 Fit      -0.006317
 1674 Fit      -0.022795
 1675 Fit      -0.024470
 1676 Fit      -0.021503
 1677 Fit      -0.013811
 1678 Fit      -0.019682
 1679 Fit      -0.020604
 1680 Fit      -0.015854
 1681 Fit      -0.005633
 1682 Fit       0.006318
 1683 Fit       0.005574
 1684 Fit       0.014365
 1685 Fit       0.016466
 1686 Fit       0.007734
 1687 Fit       0.018722
 1688 Fit       0.021732
 1689 Fit       0.003449
 1690 Fit       0.012920
 1691 Fit       0.020056
 1692 Fit       0.024117
 1693 Fit       0.003753
 1694 Fit       0.013663
 1695 Fit       0.010121
 1696 Fit       0.004702
 1697 Fit       0.003033
 1698 Fit       0.003045
 1699 Fit       0.001071
 1700 Fit       0.000933
 1701 Fit       0.013424
 1702 Fit       0.007259
 1703 Fit       0.005720
 1704 Fit       0.006355
 1705 Fit       0.005438
 1706 Fit       0.005018
 1707 Fit       0.003585
 1708 Fit       0.005016
 1709 Fit       0.002783
 1710 Fit       0.003001
 1711 Fit       0.001994
 1712 Fit       0.001988
 1713 Fit       0.002463
 1714 Fit       0.000509
 1715 Fit       0.000476
 1716 Fit       0.003370
 1717 Fit       0.003164
 1718 Fit       0.004640
 1719 Fit       0.001030
 1720 Fit       0.002564
 1721 Fit       0.003761
 1722 Fit       0.004899
 1723 Fit       0.002516
 1724 Fit       0.003382
 1725 Fit       0.004186
 1726 Fit       0.005248
 1727 Fit       0.004097
 1728 Fit       0.004264
 1729 Fit       0.002878
 1730 Fit       0.005073
 1731 Fit       0.004736
 1732 Fit       0.002954
 1733 Fit       0.001087
 1734 Fit       0.005431
 1735 Fit       0.006122
 1736 Fit      -0.021670
 1737 Fit      -0.010407
 1738 Fit      -0.012159
 1739 Fit      -0.008132
 1740 Fit      -0.002796
 1741 Fit      -0.004780
 1742 Fit      -0.008785
 1743 Fit      -0.005891
 1744 Fit      -0.009478
 1745 Fit      -0.018044
 1746 Fit      -0.007784
 1747 Fit      -0.011116
 1748 Fit      -0.016474
 1749 Fit       0.002796
 1750 Fit      -0.000890
 1751 Fit       0.000692
 1752 Fit      -0.006074
 1753 Fit      -0.004272
 1754 Fit      -0.002517
 1755 Fit      -0.010631
 1756 Fit      -0.007089
 1757 Fit       0.008165
 1758 Fit       0.004869
 1759 Fit       0.005893
 1760 Fit       0.006350
 1761 Fit       0.005348
 1762 Fit       0.007412
 1763 Fit       0.007791
 1764 Fit       0.006511
 1765 Fit       0.006541
 1766 Fit       0.008054
 1767 Fit       0.005947
 1768 Fit       0.005079
 1769 Fit       0.004516
 1770 Fit       0.004736
 1771 Fit       0.005430
 1772 Fit      -0.003720
 1773 Fit      -0.005917
 1774 Fit      -0.006841
 1775 Fit       0.000189
 1776 Fit       0.001327
 1777 Fit      -0.001185
 1778 Fit       0.000264
 1779 Fit      -0.000064
 1780 Fit      -0.002518
 1781 Fit      -0.004440
 1782 Fit      -0.002006
 1783 Fit       0.000001
 1784 Fit      -0.000577
 1785 Fit      -0.000408
 1786 Fit      -0.001379
 1787 Fit      -0.000694
 1788 Fit      -0.000848
 1789 Fit      -0.002263
 1790 Fit      -0.000962
 1791 Fit      -0.001318
 1792 Fit      -0.002881
 1793 Fit      -0.002253
 1794 Fit      -0.004197
 1795 Fit       0.002979
 1796 Fit      -0.000478
 1797 Fit       0.002771
 1798 Fit       0.000938
 1799 Fit      -0.001268
 1800 Fit      -0.000091
 1801 Fit      -0.001833
 1802 Fit      -0.004335
 1803 Fit      -0.006966
 1804 Fit      -0.006290
 1805 Fit      -0.010777
 1806 Fit       0.002101
 1807 Fit       0.001008
 1808 Fit       0.003759
 1809 Fit       0.002542
 1810 Fit       0.001479
 1811 Fit       0.001061
 1812 Fit       0.002105
 1813 Fit       0.001002
 1814 Fit       0.000705
 1815 Fit       0.001265
 1816 Fit       0.004006
 1817 Fit       0.005825
 1818 Fit       0.007162
 1819 Fit       0.004475
 1820 Fit       0.005780
 1821 Fit       0.002894
 1822 Fit       0.009784
 1823 Fit       0.003643
 1824 Fit       0.006884
 1825 Fit       0.002279
 1826 Fit       0.001877
 1827 Fit       0.001774
 1828 Fit       0.002566
 1829 Fit       0.002317
 1830 Fit       0.002414
 1831 Fit       0.005830
 1832 Fit       0.004139
 1833 Fit       0.005047
 1834 Fit       0.002716
 1835 Fit       0.003599
 1836 Fit       0.004030
 1837 Fit       0.002414
 1838 Fit       0.003047
 1839 Fit       0.001693
 1840 Fit       0.006829
 1841 Fit       0.004744
 1842 Fit       0.005459
 1843 Fit       0.004640
 1844 Fit       0.004834
 1845 Fit       0.004640
 1846 Fit       0.004210
 1847 Fit       0.005502
 1848 Fit       0.005409
 1849 Fit       0.004941
 1850 Fit       0.006183
 1851 Fit       0.004869
 1852 Fit       0.007537
 1853 Fit       0.006892
 1854 Fit       0.008755
 1855 Fit       0.008752
 1856 Fit       0.008356
 1857 Fit       0.007316
 1858 Fit       0.005595
 1859 Fit      -0.001451
 1860 Fit      -0.003193
 1861 Fit      -0.003130
 1862 Fit      -0.002697
 1863 Fit      -0.003041
 1864 Fit       0.006985
 1865 Fit      -0.001211
 1866 Fit       0.001202
 1867 Fit      -0.003808
 1868 Fit      -0.001895
 1869 Fit       0.000364
 1870 Fit       0.002299
 1871 Fit       0.003470
 1872 Fit       0.003654
 1873 Fit      -0.006320
 1874 Fit      -0.002599
 1875 Fit      -0.000146
 1876 Fit       0.002010
 1877 Fit      -0.007647
 1878 Fit       0.007353
 1879 Fit       0.006443
 1880 Fit       0.007304
 1881 Fit       0.006103
 1882 Fit       0.005987
 1883 Fit       0.006920
 1884 Fit       0.008290
 1885 Fit       0.008254
 1886 Fit       0.009035
 1887 Fit       0.009090
 1888 Fit       0.007954
 1889 Fit       0.008510
 1890 Fit       0.008832
 1891 Fit       0.006892
 1892 Fit       0.007555
 1893 Fit       0.008194
 1894 Fit       0.006906
 1895 Fit       0.012875
 1896 Fit       0.009194
 1897 Fit       0.019644
 1898 Fit       0.010984
 1899 Fit       0.008103
 1900 Fit       0.015202
 1901 Fit       0.009202
 1902 Fit       0.012012
 1903 Fit       0.009527
 1904 Fit       0.007455
 1905 Fit       0.007122
 1906 Fit       0.007285
 1907 Fit       0.009511
 1908 Fit       0.009109
 1909 Fit       0.011195
 1910 Fit       0.010392
 1911 Fit       0.013121
 1912 Fit      -0.002137
 1913 Fit       0.003506
 1914 Fit       0.005155
 1915 Fit       0.003800
 1916 Fit      -0.006875
 1917 Fit      -0.009882
 1918 Fit      -0.010008
 1919 Fit      -0.005629
 1920 Fit      -0.000921
 1921 Fit      -0.001080
 1922 Fit      -0.001727
 1923 Fit      -0.001491
 1924 Fit       0.000154
 1925 Fit       0.002258
 1926 Fit       0.002339
 1927 Fit       0.003116
 1928 Fit       0.017250
 1929 Fit       0.016322
 1930 Fit       0.012144
 1931 Fit       0.006167
 1932 Fit       0.010061
 1933 Fit       0.008807
 1934 Fit       0.006529
 1935 Fit       0.006012
 1936 Fit       0.005820
 1937 Fit       0.005683
 1938 Fit       0.002237
 1939 Fit       0.006988
 1940 Fit       0.011913
 1941 Fit       0.009366
 1942 Fit       0.007874
 1943 Fit       0.016000
 1944 Fit       0.012130
 1945 Fit       0.009860
 1946 Fit       0.009531
 1947 Fit       0.001518
 1948 Fit       0.001571
 1949 Fit       0.003691
 1950 Fit       0.003897
 1951 Fit       0.002004
 1952 Fit      -0.002263
 1953 Fit      -0.003107
 1954 Fit       0.005312
 1955 Fit       0.005641
 1956 Fit       0.005003
 1957 Fit       0.003711
 1958 Fit       0.000914
 1959 Fit      -0.005058
 1960 Fit      -0.014504
 1961 Fit       0.003745
 1962 Fit       0.000321
 1963 Fit      -0.001452
 1964 Fit      -0.001988
 1965 Fit      -0.001026
 1966 Fit      -0.000933
 1967 Fit      -0.000132
 1968 Fit      -0.000586
 1969 Fit      -0.001023
 1970 Fit       0.000596
 1971 Fit      -0.000299
 1972 Fit       0.000804
 1973 Fit       0.001505
 1974 Fit       0.001909
 1975 Fit      -0.000165
 1976 Fit       0.000521
 1977 Fit       0.000709
 1978 Fit       0.000626
 1979 Fit      -0.000401
 1980 Fit      -0.000590
 1981 Fit      -0.000934
 1982 Fit      -0.007485
 1983 Fit      -0.004036
 1984 Fit       0.002284
 1985 Fit      -0.002473
 1986 Fit      -0.010086
 1987 Fit       0.002158
 1988 Fit      -0.001647
 1989 Fit      -0.007296
 1990 Fit       0.002113
 1991 Fit      -0.000612
 1992 Fit      -0.004391
 1993 Fit      -0.010757
 1994 Fit      -0.001294
 1995 Fit      -0.002297
 1996 Fit       0.000541
 1997 Fit       0.000504
 1998 Fit      -0.000505
 1999 Fit       0.000096
 2000 Fit      -0.000753
 2001 Fit      -0.000892
 2002 Fit      -0.000669
 2003 Fit       0.001470
 2004 Fit      -0.000193
 2005 Fit       0.001938
 2006 Fit       0.000577
 2007 Fit       0.000120
 2008 Fit       0.001348
 2009 Fit       0.001251
 2010 Fit      -0.000126
 2011 Fit       0.001201
 2012 Fit       0.002153
 2013 Fit       0.002361
 2014 Fit       0.000371
 2015 Fit       0.001562
 2016 Fit       0.002433
 2017 Fit      -0.000514
 2018 Fit       0.000638
 2019 Fit       0.000695
 2020 Fit       0.000176
 2021 Fit       0.001672
 2022 Fit       0.001851
 2023 Fit       0.001525
 2024 Fit       0.001913
 2025 Fit       0.002682
 2026 Fit       0.004225
 2027 Fit       0.001708
 2028 Fit       0.004684
 2029 Fit       0.002297
 2030 Fit      -0.000771
 2031 Fit       0.000383
 2032 Fit       0.000862
 2033 Fit       0.000377
 2034 Fit      -0.000209
 2035 Fit       0.001118
 2036 Fit       0.000249
 2037 Fit      -0.001111
 2038 Fit       0.000401
 2039 Fit      -0.000364
 2040 Fit      -0.000548
 2041 Fit       0.001358
 2042 Fit       0.000029
 2043 Fit       0.001731
 2044 Fit       0.000518
 2045 Fit      -0.000397
 2046 Fit       0.000511
 2047 Fit      -0.000170
 2048 Fit       0.000215
 2049 Fit       0.000207
 2050 Fit       0.000820
 2051 Fit       0.000832
 2052 Fit       0.000880
 2053 Fit       0.000666
 2054 Fit       0.000865
 2055 Fit       0.001532
 2056 Fit       0.001213
 2057 Fit       0.002984
 2058 Fit       0.003244
 2059 Fit       0.002639
 2060 Fit       0.002660
 2061 Fit       0.001437
 2062 Fit       0.001533
 2063 Fit       0.001279
 2064 Fit       0.001333
 2065 Fit       0.001193
 2066 Fit       0.000859
 2067 Fit       0.001274
 2068 Fit       0.001262
 2069 Fit       0.000881
 2070 Fit       0.000864
 2071 Fit       0.000640
 2072 Fit       0.001192
 2073 Fit       0.001210
 2074 Fit       0.000906
 2075 Fit       0.000674
 2076 Fit       0.000644
 2077 Fit       0.000364
 2078 Fit       0.000271
 2079 Fit       0.000018
 2080 Fit      -0.001052
 2081 Fit      -0.001174
 2082 Fit      -0.001808
 2083 Fit      -0.001559
 2084 Fit      -0.001730
 2085 Fit      -0.001801
 2086 Fit      -0.000877
 2087 Fit      -0.000227
 2088 Fit      -0.000624
 2089 Fit      -0.001797
 2090 Fit       0.000567
 2091 Fit      -0.000072
 2092 Fit       0.001323
 2093 Fit      -0.000154
 2094 Fit       0.001140
 2095 Fit       0.001670
 2096 Fit      -0.000966
 2097 Fit       0.000345
 2098 Fit       0.001273
 2099 Fit       0.000917
 2100 Fit      -0.000702
 2101 Fit      -0.001268
 2102 Fit      -0.001140
 2103 Fit      -0.000253
 2104 Fit       0.000394
 2105 Fit       0.000353
 2106 Fit      -0.000440
 2107 Fit      -0.000176
 2108 Fit       0.000808
 2109 Fit       0.001483
 2110 Fit       0.001465
 2111 Fit       0.000654
 2112 Fit      -0.000880
 2113 Fit       0.000948
 2114 Fit       0.001805
 2115 Fit       0.002120
 2116 Fit       0.001645
 2117 Fit       0.002009
 2118 Fit       0.001028
 2119 Fit       0.002152
 2120 Fit       0.000774
 2121 Fit       0.002725
 2122 Fit       0.001613
 2123 Fit      -0.000003
 2124 Fit       0.003045
 2125 Fit       0.002478
 2126 Fit       0.001393
 2127 Fit      -0.000047
 2128 Fit       0.003267
 2129 Fit       0.001515
 2130 Fit       0.000391
 2131 Fit      -0.001627
 2132 Fit      -0.002001
 2133 Fit      -0.001040
 2134 Fit      -0.002498
 2135 Fit      -0.002364
 2136 Fit      -0.001865
 2137 Fit      -0.000696
 2138 Fit      -0.000849
 2139 Fit      -0.002479
 2140 Fit      -0.002273
 2141 Fit      -0.001511
 2142 Fit      -0.002081
 2143 Fit       0.000117
 2144 Fit       0.001210
 2145 Fit       0.001623
 2146 Fit      -0.001122
 2147 Fit       0.000173
 2148 Fit       0.001023
 2149 Fit       0.001468
 2150 Fit      -0.001015
 2151 Fit      -0.000243
 2152 Fit       0.000011
 2153 Fit      -0.000113
 2154 Fit      -0.001845
 2155 Fit       0.001137
 2156 Fit      -0.000459
 2157 Fit       0.001766
 2158 Fit       0.002067
 2159 Fit       0.001471
 2160 Fit       0.000248
 2161 Fit      -0.001318
 2162 Fit       0.000446
 2163 Fit       0.001291
 2164 Fit       0.001211
 2165 Fit       0.000151
 2166 Fit      -0.001522
 2167 Fit       0.000001
 2168 Fit      -0.000253
 2169 Fit      -0.001879
 2170 Fit      -0.001524
 2171 Fit      -0.000532
 2172 Fit       0.000504
 2173 Fit       0.000032
 2174 Fit      -0.001397
 2175 Fit      -0.000051
 2176 Fit       0.000971
 2177 Fit       0.001448
 2178 Fit       0.001071
 2179 Fit      -0.000058
 2180 Fit      -0.001405
 2181 Fit      -0.001058
 2182 Fit       0.000317
 2183 Fit       0.000821
 2184 Fit      -0.000360
 -----------------------------------------------------------------
 Leave Link  602 at Thu May 18 13:40:38 2017, MaxMem=    33554432 cpu:         3.3
 (Enter /home/michal/g09/l9999.exe)

 Test job not archived.
 1\1\GINC-LINUX\SP\RHF\6-31G(d)\C27H46O2\MICHAL\18-May-2017\0\\#P HF/6-
 31G* SCF(Conver=6) NoSymm Test Pop=mk IOp(6/33=2) GFInput GFPrint\\MEP
  - Input generated by R.E.D.-III.x MOLECULE\\0,1\O,0,0.,0.,0.\H,0,0.96
 762651,0.,0.\O,0,1.64789986,-2.73085015,6.4149521\H,0,2.5861922,-2.502
 09465,6.47359175\C,0,-1.19537145,4.10827056,1.59154131\C,0,-1.28766938
 ,2.61303774,1.16770328\H,0,-2.25968343,2.26647344,1.5600616\C,0,-0.238
 41946,1.68240414,1.80225814\H,0,0.76728961,1.981893,1.4724142\C,0,-0.3
 239398,1.77980841,3.35095379\H,0,-1.30516833,1.35598689,3.62129774\C,0
 ,-2.3813929,4.70473763,0.75529801\H,0,-3.30320565,4.38290365,1.2660206
 9\C,0,-1.35978137,4.14356822,3.12420565\H,0,-2.37413097,3.80217791,3.3
 7679746\H,0,-1.26705156,5.1593754,3.52073573\C,0,0.73578242,0.88861219
 ,4.08777812\C,0,-1.43158436,2.6637808,-0.36113789\H,0,-1.88925072,1.75
 910016,-0.76785682\H,0,-0.44960779,2.74776171,-0.83877236\C,0,-0.32634
 725,3.24814251,3.83354526\H,0,0.66867823,3.68489513,3.69542411\H,0,-0.
 52249547,3.28019688,4.91104712\C,0,-2.28869517,3.93439757,-0.60550474\
 H,0,-1.83214737,4.57048626,-1.37343852\H,0,-3.28544841,3.67495845,-0.9
 7510094\C,0,-0.44269787,0.22202568,1.35386863\H,0,-1.52074932,0.012673
 96,1.30452554\C,0,-2.49306658,6.24048278,0.56353143\H,0,-1.60771135,6.
 56713705,0.\C,0,0.14191973,4.75819283,1.16768282\H,0,1.0090007,4.22665
 802,1.56866727\H,0,0.2555363,4.78567462,0.07996987\H,0,0.20212786,5.79
 056142,1.5278004\C,0,0.77210449,-0.50702254,3.45547673\C,0,0.30754897,
 0.73556931,5.58100179\H,0,-0.76183574,0.48457935,5.60741695\H,0,0.4128
 5925,1.69885116,6.09111416\C,0,0.21339566,-0.7761006,2.26637916\H,0,0.
 23972828,-1.79432517,1.87829689\C,0,2.1576773,1.50727465,4.01706701\H,
 0,2.22345791,2.42461354,4.61014155\H,0,2.91481082,0.81964793,4.4028369
 1\H,0,2.43537385,1.74645294,2.98593767\C,0,1.4669277,-1.60495632,4.238
 72887\H,0,1.33644777,-2.5689334,3.73729415\H,0,2.55113035,-1.40954183,
 4.2710508\C,0,1.07399702,-0.33764018,6.36950049\H,0,2.13537255,-0.0630
 4836,6.4615387\H,0,0.67870613,-0.40624409,7.38934575\C,0,-3.74627309,6
 .56851051,-0.28868373\H,0,-3.71922532,5.9747728,-1.20969026\H,0,-4.633
 56714,6.22804563,0.26599627\C,0,0.97003882,-1.70210555,5.68876293\H,0,
 -0.07872465,-2.02323169,5.68498679\C,0,-2.5276825,7.02208229,1.8879188
 4\H,0,-3.35423719,6.68161009,2.52457\H,0,-2.66650067,8.09321426,1.7127
 0486\H,0,-1.60166308,6.91173194,2.45623398\C,0,-3.95774091,8.04237772,
 -0.68950312\H,0,-4.90837701,8.09679437,-1.23495283\H,0,-4.09284807,8.6
 6189884,0.20474003\C,0,-2.83456119,8.62173935,-1.56528818\H,0,-2.66565
 162,7.9422326,-2.41371821\H,0,-1.89633954,8.63105513,-0.99449142\C,0,-
 3.06586051,10.04636036,-2.12352216\H,0,-2.16243351,10.29365685,-2.7005
 7082\C,0,-3.19548913,11.10277573,-1.0135437\H,0,-4.1107044,10.96207104
 ,-0.42699767\H,0,-3.23190783,12.11242232,-1.43842323\H,0,-2.34522874,1
 1.06224312,-0.32243777\C,0,-4.25411932,10.11962001,-3.09692298\H,0,-5.
 20884169,9.94879503,-2.58641926\H,0,-4.30967176,11.10727449,-3.5688790
 9\H,0,-4.16282693,9.37313028,-3.89470175\\Version=EM64L-G09RevD.01\HF=
 -1198.925782\RMSD=4.856e-07\Dipole=0.6848474,0.7559654,0.3423694\Quadr
 upole=6.7224856,-4.4728121,-2.2496735,0.8397499,2.901759,8.71593\PG=C0
 1 [X(C27H46O2)]\\@


 DEFINE YOUR TERMS, YOU WILL PERMIT ME AGAIN TO SAY, 
 OR WE SHALL NEVER UNDERSTAND ONE ANOTHER.

                                    -- VOLTAIRE
 Job cpu time:       0 days  0 hours 11 minutes  2.5 seconds.
 File lengths (MBytes):  RWF=    150 Int=      0 D2E=      0 Chk=     11 Scr=      1
 Normal termination of Gaussian 09 at Thu May 18 13:40:38 2017.
