 Entering Gaussian System, Link 0=/home/michal/g09/g09
 Input=JOB2-gau_m1-6-3.com
 Output=JOB2-gau_m1-6-3.log
 Initial command:
 /home/michal/g09/l1.exe "/home/michal/gauss_scratch/Gau-21701.inp" -scrdir="/home/michal/gauss_scratch/"
 Entering Link 1 = /home/michal/g09/l1.exe PID=     21702.
  
 Copyright (c) 1988,1990,1992,1993,1995,1998,2003,2009,2013,
            Gaussian, Inc.  All Rights Reserved.
  
 This is part of the Gaussian(R) 09 program.  It is based on
 the Gaussian(R) 03 system (copyright 2003, Gaussian, Inc.),
 the Gaussian(R) 98 system (copyright 1998, Gaussian, Inc.),
 the Gaussian(R) 94 system (copyright 1995, Gaussian, Inc.),
 the Gaussian 92(TM) system (copyright 1992, Gaussian, Inc.),
 the Gaussian 90(TM) system (copyright 1990, Gaussian, Inc.),
 the Gaussian 88(TM) system (copyright 1988, Gaussian, Inc.),
 the Gaussian 86(TM) system (copyright 1986, Carnegie Mellon
 University), and the Gaussian 82(TM) system (copyright 1983,
 Carnegie Mellon University). Gaussian is a federally registered
 trademark of Gaussian, Inc.
  
 This software contains proprietary and confidential information,
 including trade secrets, belonging to Gaussian, Inc.
  
 This software is provided under written license and may be
 used, copied, transmitted, or stored only in accord with that
 written license.
  
 The following legend is applicable only to US Government
 contracts under FAR:
  
                    RESTRICTED RIGHTS LEGEND
  
 Use, reproduction and disclosure by the US Government is
 subject to restrictions as set forth in subparagraphs (a)
 and (c) of the Commercial Computer Software - Restricted
 Rights clause in FAR 52.227-19.
  
 Gaussian, Inc.
 340 Quinnipiac St., Bldg. 40, Wallingford CT 06492
  
  
 ---------------------------------------------------------------
 Warning -- This program may not be used in any manner that
 competes with the business of Gaussian, Inc. or will provide
 assistance to any competitor of Gaussian, Inc.  The licensee
 of this program is prohibited from giving any competitor of
 Gaussian, Inc. access to this program.  By using this program,
 the user acknowledges that Gaussian, Inc. is engaged in the
 business of creating and licensing software in the field of
 computational chemistry and represents and warrants to the
 licensee that it is not a competitor of Gaussian, Inc. and that
 it will not use this program in any manner prohibited above.
 ---------------------------------------------------------------
  

 Cite this work as:
 Gaussian 09, Revision D.01,
 M. J. Frisch, G. W. Trucks, H. B. Schlegel, G. E. Scuseria, 
 M. A. Robb, J. R. Cheeseman, G. Scalmani, V. Barone, B. Mennucci, 
 G. A. Petersson, H. Nakatsuji, M. Caricato, X. Li, H. P. Hratchian, 
 A. F. Izmaylov, J. Bloino, G. Zheng, J. L. Sonnenberg, M. Hada, 
 M. Ehara, K. Toyota, R. Fukuda, J. Hasegawa, M. Ishida, T. Nakajima, 
 Y. Honda, O. Kitao, H. Nakai, T. Vreven, J. A. Montgomery, Jr., 
 J. E. Peralta, F. Ogliaro, M. Bearpark, J. J. Heyd, E. Brothers, 
 K. N. Kudin, V. N. Staroverov, T. Keith, R. Kobayashi, J. Normand, 
 K. Raghavachari, A. Rendell, J. C. Burant, S. S. Iyengar, J. Tomasi, 
 M. Cossi, N. Rega, J. M. Millam, M. Klene, J. E. Knox, J. B. Cross, 
 V. Bakken, C. Adamo, J. Jaramillo, R. Gomperts, R. E. Stratmann, 
 O. Yazyev, A. J. Austin, R. Cammi, C. Pomelli, J. W. Ochterski, 
 R. L. Martin, K. Morokuma, V. G. Zakrzewski, G. A. Voth, 
 P. Salvador, J. J. Dannenberg, S. Dapprich, A. D. Daniels, 
 O. Farkas, J. B. Foresman, J. V. Ortiz, J. Cioslowski, 
 and D. J. Fox, Gaussian, Inc., Wallingford CT, 2013.
 
 ******************************************
 Gaussian 09:  EM64L-G09RevD.01 24-Apr-2013
                18-May-2017 
 ******************************************
 %Mem=256MB
 %NProc=12
 Will use up to   12 processors via shared memory.
 ----------------------------------------------------------------------
 #P HF/6-31G* SCF(Conver=6) NoSymm Test Pop=mk IOp(6/33=2) GFInput GFPr
 int
 ----------------------------------------------------------------------
 1/38=1/1;
 2/12=2,15=1,17=6,18=5,40=1/2;
 3/5=1,6=6,7=1,11=9,16=1,24=110,25=1,30=1/1,2,3;
 4//1;
 5/5=2,6=6,38=5/2;
 6/7=2,8=2,9=2,10=2,15=8,20=1,28=1,33=2/1,2;
 99/5=1,9=1/99;
 Leave Link    1 at Thu May 18 12:41:35 2017, MaxMem=    33554432 cpu:         0.6
 (Enter /home/michal/g09/l101.exe)
 ----------------------------------------------
 MEP - Input generated by R.E.D.-III.x MOLECULE
 ----------------------------------------------
 Symbolic Z-matrix:
 Charge =  0 Multiplicity = 1
 O                     6.0974    3.7625    0. 
 H                     5.83006   3.77396  -0.9299 
 O                     0.        0.        0. 
 H                    -0.1102   -0.16743  -0.94657 
 C                     8.82566   0.12725   0.41483 
 C                     7.89551   1.31632   0.79322 
 H                     7.67567   1.17377   1.86559 
 C                     6.52326   1.3244    0.09636 
 H                     6.66119   1.44047  -0.98875 
 C                     5.78596  -0.01368   0.38327 
 H                     5.57499  -0.00969   1.4654 
 C                     10.07744   0.47474   1.29334 
 H                     9.78293   0.24548   2.32859 
 C                     8.07219  -1.16407   0.78851 
 H                     7.94621  -1.19484   1.88053 
 H                     8.64089  -2.05863   0.51558 
 C                     4.38572  -0.11268  -0.31693 
 C                     8.80429   2.55325   0.69814 
 H                     8.44181   3.38306   1.30934 
 H                     8.8409    2.92835  -0.33001 
 C                     6.69007  -1.23806   0.11188 
 H                     6.83442  -1.3598   -0.96708 
 H                     6.18601  -2.14913   0.45295 
 C                     10.19246   2.02793   1.15582 
 H                     10.96455   2.28798   0.42192 
 H                     10.50467   2.48293   2.10117 
 C                     5.66271   2.51199   0.57034 
 H                     5.82092   2.65764   1.64842 
 C                     11.42129  -0.24808   1.02838 
 H                     11.72381   0.        0. 
 C                     9.20135   0.12649  -1.08458 
 H                     8.32244   0.09515  -1.73378 
 H                     9.77534   1.01517  -1.36289 
 H                     9.81364  -0.74795  -1.32911 
 C                     3.61004   1.19388  -0.11722 
 C                     3.57468  -1.26726   0.35065 
 H                     3.65724  -1.15882   1.44094 
 H                     4.03436  -2.22871   0.09871 
 C                     4.19482   2.32348   0.30764 
 H                     3.58923   3.2161    0.46435 
 C                     4.52142  -0.38673  -1.83879 
 H                     4.90954  -1.39193  -2.02994 
 H                     3.55737  -0.31154  -2.34852 
 H                     5.19355   0.33493  -2.31316 
 C                     2.12187   1.16825  -0.41132 
 H                     1.66415   2.12266  -0.13326 
 H                     1.95884   1.04301  -1.4941 
 C                     2.08357  -1.31054  -0.0176 
 H                     1.95775  -1.52997  -1.08831 
 H                     1.5867   -2.12037   0.52859 
 C                     12.57052   0.31289   1.91528 
 H                     13.48695  -0.23982   1.66311 
 H                     12.75651   1.34643   1.59998 
 C                     1.3976    0.01725   0.30254 
 H                     1.43544   0.18978   1.38506 
 C                     11.32749  -1.78497   1.09859 
 H                     10.81658  -2.1296    2.00295 
 H                     12.32771  -2.23262   1.09229 
 H                     10.78515  -2.19419   0.24163 
 C                     12.41454   0.32688   3.45255 
 H                     13.18876   1.00247   3.83829 
 H                     11.45842   0.79035   3.72395 
 C                     12.55617  -1.03189   4.1613 
 H                     13.44981  -1.54131   3.77238 
 H                     11.70606  -1.67444   3.90461 
 C                     12.66201  -0.98231   5.70507 
 H                     12.71855  -2.03027   6.03504 
 C                     11.41538  -0.36813   6.36365 
 H                     11.32112   0.6991    6.13211 
 H                     11.46335  -0.46276   7.45452 
 H                     10.49885  -0.86607   6.02552 
 C                     13.9441  -0.28958   6.19665 
 H                     13.94385   0.78168   5.96505 
 H                     14.04518  -0.38649   7.28371 
 H                     14.83663  -0.73106   5.73782 
 
 NAtoms=     75 NQM=       75 NQMF=       0 NMMI=      0 NMMIF=      0
                NMic=       0 NMicF=      0.
                    Isotopes and Nuclear Properties:
 (Nuclear quadrupole moments (NQMom) in fm**2, nuclear magnetic moments (NMagM)
  in nuclear magnetons)

  Atom         1           2           3           4           5           6           7           8           9          10
 IAtWgt=          16           1          16           1          12          12           1          12           1          12
 AtmWgt=  15.9949146   1.0078250  15.9949146   1.0078250  12.0000000  12.0000000   1.0078250  12.0000000   1.0078250  12.0000000
 NucSpn=           0           1           0           1           0           0           1           0           1           0
 AtZEff=   0.0000000   0.0000000   0.0000000   0.0000000   0.0000000   0.0000000   0.0000000   0.0000000   0.0000000   0.0000000
 NQMom=    0.0000000   0.0000000   0.0000000   0.0000000   0.0000000   0.0000000   0.0000000   0.0000000   0.0000000   0.0000000
 NMagM=    0.0000000   2.7928460   0.0000000   2.7928460   0.0000000   0.0000000   2.7928460   0.0000000   2.7928460   0.0000000
 AtZNuc=   8.0000000   1.0000000   8.0000000   1.0000000   6.0000000   6.0000000   1.0000000   6.0000000   1.0000000   6.0000000

  Atom        11          12          13          14          15          16          17          18          19          20
 IAtWgt=           1          12           1          12           1           1          12          12           1           1
 AtmWgt=   1.0078250  12.0000000   1.0078250  12.0000000   1.0078250   1.0078250  12.0000000  12.0000000   1.0078250   1.0078250
 NucSpn=           1           0           1           0           1           1           0           0           1           1
 AtZEff=   0.0000000   0.0000000   0.0000000   0.0000000   0.0000000   0.0000000   0.0000000   0.0000000   0.0000000   0.0000000
 NQMom=    0.0000000   0.0000000   0.0000000   0.0000000   0.0000000   0.0000000   0.0000000   0.0000000   0.0000000   0.0000000
 NMagM=    2.7928460   0.0000000   2.7928460   0.0000000   2.7928460   2.7928460   0.0000000   0.0000000   2.7928460   2.7928460
 AtZNuc=   1.0000000   6.0000000   1.0000000   6.0000000   1.0000000   1.0000000   6.0000000   6.0000000   1.0000000   1.0000000

  Atom        21          22          23          24          25          26          27          28          29          30
 IAtWgt=          12           1           1          12           1           1          12           1          12           1
 AtmWgt=  12.0000000   1.0078250   1.0078250  12.0000000   1.0078250   1.0078250  12.0000000   1.0078250  12.0000000   1.0078250
 NucSpn=           0           1           1           0           1           1           0           1           0           1
 AtZEff=   0.0000000   0.0000000   0.0000000   0.0000000   0.0000000   0.0000000   0.0000000   0.0000000   0.0000000   0.0000000
 NQMom=    0.0000000   0.0000000   0.0000000   0.0000000   0.0000000   0.0000000   0.0000000   0.0000000   0.0000000   0.0000000
 NMagM=    0.0000000   2.7928460   2.7928460   0.0000000   2.7928460   2.7928460   0.0000000   2.7928460   0.0000000   2.7928460
 AtZNuc=   6.0000000   1.0000000   1.0000000   6.0000000   1.0000000   1.0000000   6.0000000   1.0000000   6.0000000   1.0000000

  Atom        31          32          33          34          35          36          37          38          39          40
 IAtWgt=          12           1           1           1          12          12           1           1          12           1
 AtmWgt=  12.0000000   1.0078250   1.0078250   1.0078250  12.0000000  12.0000000   1.0078250   1.0078250  12.0000000   1.0078250
 NucSpn=           0           1           1           1           0           0           1           1           0           1
 AtZEff=   0.0000000   0.0000000   0.0000000   0.0000000   0.0000000   0.0000000   0.0000000   0.0000000   0.0000000   0.0000000
 NQMom=    0.0000000   0.0000000   0.0000000   0.0000000   0.0000000   0.0000000   0.0000000   0.0000000   0.0000000   0.0000000
 NMagM=    0.0000000   2.7928460   2.7928460   2.7928460   0.0000000   0.0000000   2.7928460   2.7928460   0.0000000   2.7928460
 AtZNuc=   6.0000000   1.0000000   1.0000000   1.0000000   6.0000000   6.0000000   1.0000000   1.0000000   6.0000000   1.0000000

  Atom        41          42          43          44          45          46          47          48          49          50
 IAtWgt=          12           1           1           1          12           1           1          12           1           1
 AtmWgt=  12.0000000   1.0078250   1.0078250   1.0078250  12.0000000   1.0078250   1.0078250  12.0000000   1.0078250   1.0078250
 NucSpn=           0           1           1           1           0           1           1           0           1           1
 AtZEff=   0.0000000   0.0000000   0.0000000   0.0000000   0.0000000   0.0000000   0.0000000   0.0000000   0.0000000   0.0000000
 NQMom=    0.0000000   0.0000000   0.0000000   0.0000000   0.0000000   0.0000000   0.0000000   0.0000000   0.0000000   0.0000000
 NMagM=    0.0000000   2.7928460   2.7928460   2.7928460   0.0000000   2.7928460   2.7928460   0.0000000   2.7928460   2.7928460
 AtZNuc=   6.0000000   1.0000000   1.0000000   1.0000000   6.0000000   1.0000000   1.0000000   6.0000000   1.0000000   1.0000000

  Atom        51          52          53          54          55          56          57          58          59          60
 IAtWgt=          12           1           1          12           1          12           1           1           1          12
 AtmWgt=  12.0000000   1.0078250   1.0078250  12.0000000   1.0078250  12.0000000   1.0078250   1.0078250   1.0078250  12.0000000
 NucSpn=           0           1           1           0           1           0           1           1           1           0
 AtZEff=   0.0000000   0.0000000   0.0000000   0.0000000   0.0000000   0.0000000   0.0000000   0.0000000   0.0000000   0.0000000
 NQMom=    0.0000000   0.0000000   0.0000000   0.0000000   0.0000000   0.0000000   0.0000000   0.0000000   0.0000000   0.0000000
 NMagM=    0.0000000   2.7928460   2.7928460   0.0000000   2.7928460   0.0000000   2.7928460   2.7928460   2.7928460   0.0000000
 AtZNuc=   6.0000000   1.0000000   1.0000000   6.0000000   1.0000000   6.0000000   1.0000000   1.0000000   1.0000000   6.0000000

  Atom        61          62          63          64          65          66          67          68          69          70
 IAtWgt=           1           1          12           1           1          12           1          12           1           1
 AtmWgt=   1.0078250   1.0078250  12.0000000   1.0078250   1.0078250  12.0000000   1.0078250  12.0000000   1.0078250   1.0078250
 NucSpn=           1           1           0           1           1           0           1           0           1           1
 AtZEff=   0.0000000   0.0000000   0.0000000   0.0000000   0.0000000   0.0000000   0.0000000   0.0000000   0.0000000   0.0000000
 NQMom=    0.0000000   0.0000000   0.0000000   0.0000000   0.0000000   0.0000000   0.0000000   0.0000000   0.0000000   0.0000000
 NMagM=    2.7928460   2.7928460   0.0000000   2.7928460   2.7928460   0.0000000   2.7928460   0.0000000   2.7928460   2.7928460
 AtZNuc=   1.0000000   1.0000000   6.0000000   1.0000000   1.0000000   6.0000000   1.0000000   6.0000000   1.0000000   1.0000000

  Atom        71          72          73          74          75
 IAtWgt=           1          12           1           1           1
 AtmWgt=   1.0078250  12.0000000   1.0078250   1.0078250   1.0078250
 NucSpn=           1           0           1           1           1
 AtZEff=   0.0000000   0.0000000   0.0000000   0.0000000   0.0000000
 NQMom=    0.0000000   0.0000000   0.0000000   0.0000000   0.0000000
 NMagM=    2.7928460   0.0000000   2.7928460   2.7928460   2.7928460
 AtZNuc=   1.0000000   6.0000000   1.0000000   1.0000000   1.0000000
 Leave Link  101 at Thu May 18 12:41:35 2017, MaxMem=    33554432 cpu:         1.0
 (Enter /home/michal/g09/l202.exe)
 Symmetry turned off by external request.
 Stoichiometry    C27H46O2
 Framework group  C1[X(C27H46O2)]
 Deg. of freedom   219
 Full point group                 C1      NOp   1
                          Input orientation:                          
 ---------------------------------------------------------------------
 Center     Atomic      Atomic             Coordinates (Angstroms)
 Number     Number       Type             X           Y           Z
 ---------------------------------------------------------------------
      1          8           0        6.097398    3.762500    0.000000
      2          1           0        5.830059    3.773958   -0.929897
      3          8           0        0.000000    0.000000    0.000000
      4          1           0       -0.110199   -0.167427   -0.946565
      5          6           0        8.825657    0.127255    0.414828
      6          6           0        7.895509    1.316316    0.793221
      7          1           0        7.675666    1.173769    1.865586
      8          6           0        6.523263    1.324398    0.096362
      9          1           0        6.661187    1.440467   -0.988746
     10          6           0        5.785957   -0.013679    0.383267
     11          1           0        5.574988   -0.009690    1.465404
     12          6           0       10.077442    0.474739    1.293343
     13          1           0        9.782925    0.245483    2.328594
     14          6           0        8.072187   -1.164075    0.788511
     15          1           0        7.946211   -1.194836    1.880531
     16          1           0        8.640886   -2.058630    0.515575
     17          6           0        4.385717   -0.112684   -0.316929
     18          6           0        8.804289    2.553247    0.698140
     19          1           0        8.441808    3.383061    1.309342
     20          1           0        8.840902    2.928345   -0.330009
     21          6           0        6.690070   -1.238060    0.111879
     22          1           0        6.834420   -1.359797   -0.967084
     23          1           0        6.186014   -2.149132    0.452950
     24          6           0       10.192460    2.027927    1.155823
     25          1           0       10.964553    2.287979    0.421915
     26          1           0       10.504669    2.482930    2.101173
     27          6           0        5.662714    2.511991    0.570342
     28          1           0        5.820924    2.657641    1.648425
     29          6           0       11.421285   -0.248082    1.028383
     30          1           0       11.723811    0.000000    0.000000
     31          6           0        9.201348    0.126492   -1.084578
     32          1           0        8.322435    0.095154   -1.733782
     33          1           0        9.775340    1.015172   -1.362894
     34          1           0        9.813637   -0.747951   -1.329113
     35          6           0        3.610041    1.193877   -0.117224
     36          6           0        3.574683   -1.267260    0.350648
     37          1           0        3.657236   -1.158823    1.440939
     38          1           0        4.034364   -2.228711    0.098713
     39          6           0        4.194821    2.323480    0.307638
     40          1           0        3.589229    3.216104    0.464349
     41          6           0        4.521421   -0.386725   -1.838791
     42          1           0        4.909539   -1.391927   -2.029940
     43          1           0        3.557372   -0.311539   -2.348523
     44          1           0        5.193554    0.334931   -2.313155
     45          6           0        2.121870    1.168253   -0.411325
     46          1           0        1.664150    2.122662   -0.133263
     47          1           0        1.958838    1.043013   -1.494095
     48          6           0        2.083575   -1.310536   -0.017600
     49          1           0        1.957750   -1.529965   -1.088307
     50          1           0        1.586705   -2.120373    0.528590
     51          6           0       12.570524    0.312886    1.915281
     52          1           0       13.486953   -0.239817    1.663112
     53          1           0       12.756505    1.346430    1.599976
     54          6           0        1.397604    0.017254    0.302542
     55          1           0        1.435442    0.189777    1.385059
     56          6           0       11.327490   -1.784968    1.098591
     57          1           0       10.816584   -2.129599    2.002954
     58          1           0       12.327708   -2.232621    1.092287
     59          1           0       10.785147   -2.194193    0.241629
     60          6           0       12.414537    0.326882    3.452547
     61          1           0       13.188758    1.002467    3.838291
     62          1           0       11.458418    0.790351    3.723948
     63          6           0       12.556169   -1.031893    4.161297
     64          1           0       13.449808   -1.541308    3.772380
     65          1           0       11.706062   -1.674441    3.904606
     66          6           0       12.662008   -0.982306    5.705066
     67          1           0       12.718547   -2.030272    6.035042
     68          6           0       11.415383   -0.368134    6.363649
     69          1           0       11.321120    0.699099    6.132107
     70          1           0       11.463349   -0.462761    7.454520
     71          1           0       10.498851   -0.866069    6.025525
     72          6           0       13.944099   -0.289585    6.196652
     73          1           0       13.943855    0.781680    5.965050
     74          1           0       14.045178   -0.386490    7.283711
     75          1           0       14.836629   -0.731062    5.737820
 ---------------------------------------------------------------------
 Rotational constants (GHZ):      0.3201969      0.0643313      0.0624523
 Leave Link  202 at Thu May 18 12:41:35 2017, MaxMem=    33554432 cpu:         0.0
 (Enter /home/michal/g09/l301.exe)
 Standard basis: 6-31G(d) (6D, 7F)
 Ernie: Thresh=  0.10000D-02 Tol=  0.10000D-05 Strict=F.
 AO basis set in the form of general basis input (Overlap normalization):
      1 0
 S   6 1.00       0.000000000000
      0.5484671660D+04  0.1831074430D-02
      0.8252349460D+03  0.1395017220D-01
      0.1880469580D+03  0.6844507810D-01
      0.5296450000D+02  0.2327143360D+00
      0.1689757040D+02  0.4701928980D+00
      0.5799635340D+01  0.3585208530D+00
 SP   3 1.00       0.000000000000
      0.1553961625D+02 -0.1107775495D+00  0.7087426823D-01
      0.3599933586D+01 -0.1480262627D+00  0.3397528391D+00
      0.1013761750D+01  0.1130767015D+01  0.7271585773D+00
 SP   1 1.00       0.000000000000
      0.2700058226D+00  0.1000000000D+01  0.1000000000D+01
 D   1 1.00       0.000000000000
      0.8000000000D+00  0.1000000000D+01
 ****
      2 0
 S   3 1.00       0.000000000000
      0.1873113696D+02  0.3349460434D-01
      0.2825394365D+01  0.2347269535D+00
      0.6401216923D+00  0.8137573261D+00
 S   1 1.00       0.000000000000
      0.1612777588D+00  0.1000000000D+01
 ****
      3 0
 S   6 1.00       0.000000000000
      0.5484671660D+04  0.1831074430D-02
      0.8252349460D+03  0.1395017220D-01
      0.1880469580D+03  0.6844507810D-01
      0.5296450000D+02  0.2327143360D+00
      0.1689757040D+02  0.4701928980D+00
      0.5799635340D+01  0.3585208530D+00
 SP   3 1.00       0.000000000000
      0.1553961625D+02 -0.1107775495D+00  0.7087426823D-01
      0.3599933586D+01 -0.1480262627D+00  0.3397528391D+00
      0.1013761750D+01  0.1130767015D+01  0.7271585773D+00
 SP   1 1.00       0.000000000000
      0.2700058226D+00  0.1000000000D+01  0.1000000000D+01
 D   1 1.00       0.000000000000
      0.8000000000D+00  0.1000000000D+01
 ****
      4 0
 S   3 1.00       0.000000000000
      0.1873113696D+02  0.3349460434D-01
      0.2825394365D+01  0.2347269535D+00
      0.6401216923D+00  0.8137573261D+00
 S   1 1.00       0.000000000000
      0.1612777588D+00  0.1000000000D+01
 ****
      5 0
 S   6 1.00       0.000000000000
      0.3047524880D+04  0.1834737132D-02
      0.4573695180D+03  0.1403732281D-01
      0.1039486850D+03  0.6884262226D-01
      0.2921015530D+02  0.2321844432D+00
      0.9286662960D+01  0.4679413484D+00
      0.3163926960D+01  0.3623119853D+00
 SP   3 1.00       0.000000000000
      0.7868272350D+01 -0.1193324198D+00  0.6899906659D-01
      0.1881288540D+01 -0.1608541517D+00  0.3164239610D+00
      0.5442492580D+00  0.1143456438D+01  0.7443082909D+00
 SP   1 1.00       0.000000000000
      0.1687144782D+00  0.1000000000D+01  0.1000000000D+01
 D   1 1.00       0.000000000000
      0.8000000000D+00  0.1000000000D+01
 ****
      6 0
 S   6 1.00       0.000000000000
      0.3047524880D+04  0.1834737132D-02
      0.4573695180D+03  0.1403732281D-01
      0.1039486850D+03  0.6884262226D-01
      0.2921015530D+02  0.2321844432D+00
      0.9286662960D+01  0.4679413484D+00
      0.3163926960D+01  0.3623119853D+00
 SP   3 1.00       0.000000000000
      0.7868272350D+01 -0.1193324198D+00  0.6899906659D-01
      0.1881288540D+01 -0.1608541517D+00  0.3164239610D+00
      0.5442492580D+00  0.1143456438D+01  0.7443082909D+00
 SP   1 1.00       0.000000000000
      0.1687144782D+00  0.1000000000D+01  0.1000000000D+01
 D   1 1.00       0.000000000000
      0.8000000000D+00  0.1000000000D+01
 ****
      7 0
 S   3 1.00       0.000000000000
      0.1873113696D+02  0.3349460434D-01
      0.2825394365D+01  0.2347269535D+00
      0.6401216923D+00  0.8137573261D+00
 S   1 1.00       0.000000000000
      0.1612777588D+00  0.1000000000D+01
 ****
      8 0
 S   6 1.00       0.000000000000
      0.3047524880D+04  0.1834737132D-02
      0.4573695180D+03  0.1403732281D-01
      0.1039486850D+03  0.6884262226D-01
      0.2921015530D+02  0.2321844432D+00
      0.9286662960D+01  0.4679413484D+00
      0.3163926960D+01  0.3623119853D+00
 SP   3 1.00       0.000000000000
      0.7868272350D+01 -0.1193324198D+00  0.6899906659D-01
      0.1881288540D+01 -0.1608541517D+00  0.3164239610D+00
      0.5442492580D+00  0.1143456438D+01  0.7443082909D+00
 SP   1 1.00       0.000000000000
      0.1687144782D+00  0.1000000000D+01  0.1000000000D+01
 D   1 1.00       0.000000000000
      0.8000000000D+00  0.1000000000D+01
 ****
      9 0
 S   3 1.00       0.000000000000
      0.1873113696D+02  0.3349460434D-01
      0.2825394365D+01  0.2347269535D+00
      0.6401216923D+00  0.8137573261D+00
 S   1 1.00       0.000000000000
      0.1612777588D+00  0.1000000000D+01
 ****
     10 0
 S   6 1.00       0.000000000000
      0.3047524880D+04  0.1834737132D-02
      0.4573695180D+03  0.1403732281D-01
      0.1039486850D+03  0.6884262226D-01
      0.2921015530D+02  0.2321844432D+00
      0.9286662960D+01  0.4679413484D+00
      0.3163926960D+01  0.3623119853D+00
 SP   3 1.00       0.000000000000
      0.7868272350D+01 -0.1193324198D+00  0.6899906659D-01
      0.1881288540D+01 -0.1608541517D+00  0.3164239610D+00
      0.5442492580D+00  0.1143456438D+01  0.7443082909D+00
 SP   1 1.00       0.000000000000
      0.1687144782D+00  0.1000000000D+01  0.1000000000D+01
 D   1 1.00       0.000000000000
      0.8000000000D+00  0.1000000000D+01
 ****
     11 0
 S   3 1.00       0.000000000000
      0.1873113696D+02  0.3349460434D-01
      0.2825394365D+01  0.2347269535D+00
      0.6401216923D+00  0.8137573261D+00
 S   1 1.00       0.000000000000
      0.1612777588D+00  0.1000000000D+01
 ****
     12 0
 S   6 1.00       0.000000000000
      0.3047524880D+04  0.1834737132D-02
      0.4573695180D+03  0.1403732281D-01
      0.1039486850D+03  0.6884262226D-01
      0.2921015530D+02  0.2321844432D+00
      0.9286662960D+01  0.4679413484D+00
      0.3163926960D+01  0.3623119853D+00
 SP   3 1.00       0.000000000000
      0.7868272350D+01 -0.1193324198D+00  0.6899906659D-01
      0.1881288540D+01 -0.1608541517D+00  0.3164239610D+00
      0.5442492580D+00  0.1143456438D+01  0.7443082909D+00
 SP   1 1.00       0.000000000000
      0.1687144782D+00  0.1000000000D+01  0.1000000000D+01
 D   1 1.00       0.000000000000
      0.8000000000D+00  0.1000000000D+01
 ****
     13 0
 S   3 1.00       0.000000000000
      0.1873113696D+02  0.3349460434D-01
      0.2825394365D+01  0.2347269535D+00
      0.6401216923D+00  0.8137573261D+00
 S   1 1.00       0.000000000000
      0.1612777588D+00  0.1000000000D+01
 ****
     14 0
 S   6 1.00       0.000000000000
      0.3047524880D+04  0.1834737132D-02
      0.4573695180D+03  0.1403732281D-01
      0.1039486850D+03  0.6884262226D-01
      0.2921015530D+02  0.2321844432D+00
      0.9286662960D+01  0.4679413484D+00
      0.3163926960D+01  0.3623119853D+00
 SP   3 1.00       0.000000000000
      0.7868272350D+01 -0.1193324198D+00  0.6899906659D-01
      0.1881288540D+01 -0.1608541517D+00  0.3164239610D+00
      0.5442492580D+00  0.1143456438D+01  0.7443082909D+00
 SP   1 1.00       0.000000000000
      0.1687144782D+00  0.1000000000D+01  0.1000000000D+01
 D   1 1.00       0.000000000000
      0.8000000000D+00  0.1000000000D+01
 ****
     15 0
 S   3 1.00       0.000000000000
      0.1873113696D+02  0.3349460434D-01
      0.2825394365D+01  0.2347269535D+00
      0.6401216923D+00  0.8137573261D+00
 S   1 1.00       0.000000000000
      0.1612777588D+00  0.1000000000D+01
 ****
     16 0
 S   3 1.00       0.000000000000
      0.1873113696D+02  0.3349460434D-01
      0.2825394365D+01  0.2347269535D+00
      0.6401216923D+00  0.8137573261D+00
 S   1 1.00       0.000000000000
      0.1612777588D+00  0.1000000000D+01
 ****
     17 0
 S   6 1.00       0.000000000000
      0.3047524880D+04  0.1834737132D-02
      0.4573695180D+03  0.1403732281D-01
      0.1039486850D+03  0.6884262226D-01
      0.2921015530D+02  0.2321844432D+00
      0.9286662960D+01  0.4679413484D+00
      0.3163926960D+01  0.3623119853D+00
 SP   3 1.00       0.000000000000
      0.7868272350D+01 -0.1193324198D+00  0.6899906659D-01
      0.1881288540D+01 -0.1608541517D+00  0.3164239610D+00
      0.5442492580D+00  0.1143456438D+01  0.7443082909D+00
 SP   1 1.00       0.000000000000
      0.1687144782D+00  0.1000000000D+01  0.1000000000D+01
 D   1 1.00       0.000000000000
      0.8000000000D+00  0.1000000000D+01
 ****
     18 0
 S   6 1.00       0.000000000000
      0.3047524880D+04  0.1834737132D-02
      0.4573695180D+03  0.1403732281D-01
      0.1039486850D+03  0.6884262226D-01
      0.2921015530D+02  0.2321844432D+00
      0.9286662960D+01  0.4679413484D+00
      0.3163926960D+01  0.3623119853D+00
 SP   3 1.00       0.000000000000
      0.7868272350D+01 -0.1193324198D+00  0.6899906659D-01
      0.1881288540D+01 -0.1608541517D+00  0.3164239610D+00
      0.5442492580D+00  0.1143456438D+01  0.7443082909D+00
 SP   1 1.00       0.000000000000
      0.1687144782D+00  0.1000000000D+01  0.1000000000D+01
 D   1 1.00       0.000000000000
      0.8000000000D+00  0.1000000000D+01
 ****
     19 0
 S   3 1.00       0.000000000000
      0.1873113696D+02  0.3349460434D-01
      0.2825394365D+01  0.2347269535D+00
      0.6401216923D+00  0.8137573261D+00
 S   1 1.00       0.000000000000
      0.1612777588D+00  0.1000000000D+01
 ****
     20 0
 S   3 1.00       0.000000000000
      0.1873113696D+02  0.3349460434D-01
      0.2825394365D+01  0.2347269535D+00
      0.6401216923D+00  0.8137573261D+00
 S   1 1.00       0.000000000000
      0.1612777588D+00  0.1000000000D+01
 ****
     21 0
 S   6 1.00       0.000000000000
      0.3047524880D+04  0.1834737132D-02
      0.4573695180D+03  0.1403732281D-01
      0.1039486850D+03  0.6884262226D-01
      0.2921015530D+02  0.2321844432D+00
      0.9286662960D+01  0.4679413484D+00
      0.3163926960D+01  0.3623119853D+00
 SP   3 1.00       0.000000000000
      0.7868272350D+01 -0.1193324198D+00  0.6899906659D-01
      0.1881288540D+01 -0.1608541517D+00  0.3164239610D+00
      0.5442492580D+00  0.1143456438D+01  0.7443082909D+00
 SP   1 1.00       0.000000000000
      0.1687144782D+00  0.1000000000D+01  0.1000000000D+01
 D   1 1.00       0.000000000000
      0.8000000000D+00  0.1000000000D+01
 ****
     22 0
 S   3 1.00       0.000000000000
      0.1873113696D+02  0.3349460434D-01
      0.2825394365D+01  0.2347269535D+00
      0.6401216923D+00  0.8137573261D+00
 S   1 1.00       0.000000000000
      0.1612777588D+00  0.1000000000D+01
 ****
     23 0
 S   3 1.00       0.000000000000
      0.1873113696D+02  0.3349460434D-01
      0.2825394365D+01  0.2347269535D+00
      0.6401216923D+00  0.8137573261D+00
 S   1 1.00       0.000000000000
      0.1612777588D+00  0.1000000000D+01
 ****
     24 0
 S   6 1.00       0.000000000000
      0.3047524880D+04  0.1834737132D-02
      0.4573695180D+03  0.1403732281D-01
      0.1039486850D+03  0.6884262226D-01
      0.2921015530D+02  0.2321844432D+00
      0.9286662960D+01  0.4679413484D+00
      0.3163926960D+01  0.3623119853D+00
 SP   3 1.00       0.000000000000
      0.7868272350D+01 -0.1193324198D+00  0.6899906659D-01
      0.1881288540D+01 -0.1608541517D+00  0.3164239610D+00
      0.5442492580D+00  0.1143456438D+01  0.7443082909D+00
 SP   1 1.00       0.000000000000
      0.1687144782D+00  0.1000000000D+01  0.1000000000D+01
 D   1 1.00       0.000000000000
      0.8000000000D+00  0.1000000000D+01
 ****
     25 0
 S   3 1.00       0.000000000000
      0.1873113696D+02  0.3349460434D-01
      0.2825394365D+01  0.2347269535D+00
      0.6401216923D+00  0.8137573261D+00
 S   1 1.00       0.000000000000
      0.1612777588D+00  0.1000000000D+01
 ****
     26 0
 S   3 1.00       0.000000000000
      0.1873113696D+02  0.3349460434D-01
      0.2825394365D+01  0.2347269535D+00
      0.6401216923D+00  0.8137573261D+00
 S   1 1.00       0.000000000000
      0.1612777588D+00  0.1000000000D+01
 ****
     27 0
 S   6 1.00       0.000000000000
      0.3047524880D+04  0.1834737132D-02
      0.4573695180D+03  0.1403732281D-01
      0.1039486850D+03  0.6884262226D-01
      0.2921015530D+02  0.2321844432D+00
      0.9286662960D+01  0.4679413484D+00
      0.3163926960D+01  0.3623119853D+00
 SP   3 1.00       0.000000000000
      0.7868272350D+01 -0.1193324198D+00  0.6899906659D-01
      0.1881288540D+01 -0.1608541517D+00  0.3164239610D+00
      0.5442492580D+00  0.1143456438D+01  0.7443082909D+00
 SP   1 1.00       0.000000000000
      0.1687144782D+00  0.1000000000D+01  0.1000000000D+01
 D   1 1.00       0.000000000000
      0.8000000000D+00  0.1000000000D+01
 ****
     28 0
 S   3 1.00       0.000000000000
      0.1873113696D+02  0.3349460434D-01
      0.2825394365D+01  0.2347269535D+00
      0.6401216923D+00  0.8137573261D+00
 S   1 1.00       0.000000000000
      0.1612777588D+00  0.1000000000D+01
 ****
     29 0
 S   6 1.00       0.000000000000
      0.3047524880D+04  0.1834737132D-02
      0.4573695180D+03  0.1403732281D-01
      0.1039486850D+03  0.6884262226D-01
      0.2921015530D+02  0.2321844432D+00
      0.9286662960D+01  0.4679413484D+00
      0.3163926960D+01  0.3623119853D+00
 SP   3 1.00       0.000000000000
      0.7868272350D+01 -0.1193324198D+00  0.6899906659D-01
      0.1881288540D+01 -0.1608541517D+00  0.3164239610D+00
      0.5442492580D+00  0.1143456438D+01  0.7443082909D+00
 SP   1 1.00       0.000000000000
      0.1687144782D+00  0.1000000000D+01  0.1000000000D+01
 D   1 1.00       0.000000000000
      0.8000000000D+00  0.1000000000D+01
 ****
     30 0
 S   3 1.00       0.000000000000
      0.1873113696D+02  0.3349460434D-01
      0.2825394365D+01  0.2347269535D+00
      0.6401216923D+00  0.8137573261D+00
 S   1 1.00       0.000000000000
      0.1612777588D+00  0.1000000000D+01
 ****
     31 0
 S   6 1.00       0.000000000000
      0.3047524880D+04  0.1834737132D-02
      0.4573695180D+03  0.1403732281D-01
      0.1039486850D+03  0.6884262226D-01
      0.2921015530D+02  0.2321844432D+00
      0.9286662960D+01  0.4679413484D+00
      0.3163926960D+01  0.3623119853D+00
 SP   3 1.00       0.000000000000
      0.7868272350D+01 -0.1193324198D+00  0.6899906659D-01
      0.1881288540D+01 -0.1608541517D+00  0.3164239610D+00
      0.5442492580D+00  0.1143456438D+01  0.7443082909D+00
 SP   1 1.00       0.000000000000
      0.1687144782D+00  0.1000000000D+01  0.1000000000D+01
 D   1 1.00       0.000000000000
      0.8000000000D+00  0.1000000000D+01
 ****
     32 0
 S   3 1.00       0.000000000000
      0.1873113696D+02  0.3349460434D-01
      0.2825394365D+01  0.2347269535D+00
      0.6401216923D+00  0.8137573261D+00
 S   1 1.00       0.000000000000
      0.1612777588D+00  0.1000000000D+01
 ****
     33 0
 S   3 1.00       0.000000000000
      0.1873113696D+02  0.3349460434D-01
      0.2825394365D+01  0.2347269535D+00
      0.6401216923D+00  0.8137573261D+00
 S   1 1.00       0.000000000000
      0.1612777588D+00  0.1000000000D+01
 ****
     34 0
 S   3 1.00       0.000000000000
      0.1873113696D+02  0.3349460434D-01
      0.2825394365D+01  0.2347269535D+00
      0.6401216923D+00  0.8137573261D+00
 S   1 1.00       0.000000000000
      0.1612777588D+00  0.1000000000D+01
 ****
     35 0
 S   6 1.00       0.000000000000
      0.3047524880D+04  0.1834737132D-02
      0.4573695180D+03  0.1403732281D-01
      0.1039486850D+03  0.6884262226D-01
      0.2921015530D+02  0.2321844432D+00
      0.9286662960D+01  0.4679413484D+00
      0.3163926960D+01  0.3623119853D+00
 SP   3 1.00       0.000000000000
      0.7868272350D+01 -0.1193324198D+00  0.6899906659D-01
      0.1881288540D+01 -0.1608541517D+00  0.3164239610D+00
      0.5442492580D+00  0.1143456438D+01  0.7443082909D+00
 SP   1 1.00       0.000000000000
      0.1687144782D+00  0.1000000000D+01  0.1000000000D+01
 D   1 1.00       0.000000000000
      0.8000000000D+00  0.1000000000D+01
 ****
     36 0
 S   6 1.00       0.000000000000
      0.3047524880D+04  0.1834737132D-02
      0.4573695180D+03  0.1403732281D-01
      0.1039486850D+03  0.6884262226D-01
      0.2921015530D+02  0.2321844432D+00
      0.9286662960D+01  0.4679413484D+00
      0.3163926960D+01  0.3623119853D+00
 SP   3 1.00       0.000000000000
      0.7868272350D+01 -0.1193324198D+00  0.6899906659D-01
      0.1881288540D+01 -0.1608541517D+00  0.3164239610D+00
      0.5442492580D+00  0.1143456438D+01  0.7443082909D+00
 SP   1 1.00       0.000000000000
      0.1687144782D+00  0.1000000000D+01  0.1000000000D+01
 D   1 1.00       0.000000000000
      0.8000000000D+00  0.1000000000D+01
 ****
     37 0
 S   3 1.00       0.000000000000
      0.1873113696D+02  0.3349460434D-01
      0.2825394365D+01  0.2347269535D+00
      0.6401216923D+00  0.8137573261D+00
 S   1 1.00       0.000000000000
      0.1612777588D+00  0.1000000000D+01
 ****
     38 0
 S   3 1.00       0.000000000000
      0.1873113696D+02  0.3349460434D-01
      0.2825394365D+01  0.2347269535D+00
      0.6401216923D+00  0.8137573261D+00
 S   1 1.00       0.000000000000
      0.1612777588D+00  0.1000000000D+01
 ****
     39 0
 S   6 1.00       0.000000000000
      0.3047524880D+04  0.1834737132D-02
      0.4573695180D+03  0.1403732281D-01
      0.1039486850D+03  0.6884262226D-01
      0.2921015530D+02  0.2321844432D+00
      0.9286662960D+01  0.4679413484D+00
      0.3163926960D+01  0.3623119853D+00
 SP   3 1.00       0.000000000000
      0.7868272350D+01 -0.1193324198D+00  0.6899906659D-01
      0.1881288540D+01 -0.1608541517D+00  0.3164239610D+00
      0.5442492580D+00  0.1143456438D+01  0.7443082909D+00
 SP   1 1.00       0.000000000000
      0.1687144782D+00  0.1000000000D+01  0.1000000000D+01
 D   1 1.00       0.000000000000
      0.8000000000D+00  0.1000000000D+01
 ****
     40 0
 S   3 1.00       0.000000000000
      0.1873113696D+02  0.3349460434D-01
      0.2825394365D+01  0.2347269535D+00
      0.6401216923D+00  0.8137573261D+00
 S   1 1.00       0.000000000000
      0.1612777588D+00  0.1000000000D+01
 ****
     41 0
 S   6 1.00       0.000000000000
      0.3047524880D+04  0.1834737132D-02
      0.4573695180D+03  0.1403732281D-01
      0.1039486850D+03  0.6884262226D-01
      0.2921015530D+02  0.2321844432D+00
      0.9286662960D+01  0.4679413484D+00
      0.3163926960D+01  0.3623119853D+00
 SP   3 1.00       0.000000000000
      0.7868272350D+01 -0.1193324198D+00  0.6899906659D-01
      0.1881288540D+01 -0.1608541517D+00  0.3164239610D+00
      0.5442492580D+00  0.1143456438D+01  0.7443082909D+00
 SP   1 1.00       0.000000000000
      0.1687144782D+00  0.1000000000D+01  0.1000000000D+01
 D   1 1.00       0.000000000000
      0.8000000000D+00  0.1000000000D+01
 ****
     42 0
 S   3 1.00       0.000000000000
      0.1873113696D+02  0.3349460434D-01
      0.2825394365D+01  0.2347269535D+00
      0.6401216923D+00  0.8137573261D+00
 S   1 1.00       0.000000000000
      0.1612777588D+00  0.1000000000D+01
 ****
     43 0
 S   3 1.00       0.000000000000
      0.1873113696D+02  0.3349460434D-01
      0.2825394365D+01  0.2347269535D+00
      0.6401216923D+00  0.8137573261D+00
 S   1 1.00       0.000000000000
      0.1612777588D+00  0.1000000000D+01
 ****
     44 0
 S   3 1.00       0.000000000000
      0.1873113696D+02  0.3349460434D-01
      0.2825394365D+01  0.2347269535D+00
      0.6401216923D+00  0.8137573261D+00
 S   1 1.00       0.000000000000
      0.1612777588D+00  0.1000000000D+01
 ****
     45 0
 S   6 1.00       0.000000000000
      0.3047524880D+04  0.1834737132D-02
      0.4573695180D+03  0.1403732281D-01
      0.1039486850D+03  0.6884262226D-01
      0.2921015530D+02  0.2321844432D+00
      0.9286662960D+01  0.4679413484D+00
      0.3163926960D+01  0.3623119853D+00
 SP   3 1.00       0.000000000000
      0.7868272350D+01 -0.1193324198D+00  0.6899906659D-01
      0.1881288540D+01 -0.1608541517D+00  0.3164239610D+00
      0.5442492580D+00  0.1143456438D+01  0.7443082909D+00
 SP   1 1.00       0.000000000000
      0.1687144782D+00  0.1000000000D+01  0.1000000000D+01
 D   1 1.00       0.000000000000
      0.8000000000D+00  0.1000000000D+01
 ****
     46 0
 S   3 1.00       0.000000000000
      0.1873113696D+02  0.3349460434D-01
      0.2825394365D+01  0.2347269535D+00
      0.6401216923D+00  0.8137573261D+00
 S   1 1.00       0.000000000000
      0.1612777588D+00  0.1000000000D+01
 ****
     47 0
 S   3 1.00       0.000000000000
      0.1873113696D+02  0.3349460434D-01
      0.2825394365D+01  0.2347269535D+00
      0.6401216923D+00  0.8137573261D+00
 S   1 1.00       0.000000000000
      0.1612777588D+00  0.1000000000D+01
 ****
     48 0
 S   6 1.00       0.000000000000
      0.3047524880D+04  0.1834737132D-02
      0.4573695180D+03  0.1403732281D-01
      0.1039486850D+03  0.6884262226D-01
      0.2921015530D+02  0.2321844432D+00
      0.9286662960D+01  0.4679413484D+00
      0.3163926960D+01  0.3623119853D+00
 SP   3 1.00       0.000000000000
      0.7868272350D+01 -0.1193324198D+00  0.6899906659D-01
      0.1881288540D+01 -0.1608541517D+00  0.3164239610D+00
      0.5442492580D+00  0.1143456438D+01  0.7443082909D+00
 SP   1 1.00       0.000000000000
      0.1687144782D+00  0.1000000000D+01  0.1000000000D+01
 D   1 1.00       0.000000000000
      0.8000000000D+00  0.1000000000D+01
 ****
     49 0
 S   3 1.00       0.000000000000
      0.1873113696D+02  0.3349460434D-01
      0.2825394365D+01  0.2347269535D+00
      0.6401216923D+00  0.8137573261D+00
 S   1 1.00       0.000000000000
      0.1612777588D+00  0.1000000000D+01
 ****
     50 0
 S   3 1.00       0.000000000000
      0.1873113696D+02  0.3349460434D-01
      0.2825394365D+01  0.2347269535D+00
      0.6401216923D+00  0.8137573261D+00
 S   1 1.00       0.000000000000
      0.1612777588D+00  0.1000000000D+01
 ****
     51 0
 S   6 1.00       0.000000000000
      0.3047524880D+04  0.1834737132D-02
      0.4573695180D+03  0.1403732281D-01
      0.1039486850D+03  0.6884262226D-01
      0.2921015530D+02  0.2321844432D+00
      0.9286662960D+01  0.4679413484D+00
      0.3163926960D+01  0.3623119853D+00
 SP   3 1.00       0.000000000000
      0.7868272350D+01 -0.1193324198D+00  0.6899906659D-01
      0.1881288540D+01 -0.1608541517D+00  0.3164239610D+00
      0.5442492580D+00  0.1143456438D+01  0.7443082909D+00
 SP   1 1.00       0.000000000000
      0.1687144782D+00  0.1000000000D+01  0.1000000000D+01
 D   1 1.00       0.000000000000
      0.8000000000D+00  0.1000000000D+01
 ****
     52 0
 S   3 1.00       0.000000000000
      0.1873113696D+02  0.3349460434D-01
      0.2825394365D+01  0.2347269535D+00
      0.6401216923D+00  0.8137573261D+00
 S   1 1.00       0.000000000000
      0.1612777588D+00  0.1000000000D+01
 ****
     53 0
 S   3 1.00       0.000000000000
      0.1873113696D+02  0.3349460434D-01
      0.2825394365D+01  0.2347269535D+00
      0.6401216923D+00  0.8137573261D+00
 S   1 1.00       0.000000000000
      0.1612777588D+00  0.1000000000D+01
 ****
     54 0
 S   6 1.00       0.000000000000
      0.3047524880D+04  0.1834737132D-02
      0.4573695180D+03  0.1403732281D-01
      0.1039486850D+03  0.6884262226D-01
      0.2921015530D+02  0.2321844432D+00
      0.9286662960D+01  0.4679413484D+00
      0.3163926960D+01  0.3623119853D+00
 SP   3 1.00       0.000000000000
      0.7868272350D+01 -0.1193324198D+00  0.6899906659D-01
      0.1881288540D+01 -0.1608541517D+00  0.3164239610D+00
      0.5442492580D+00  0.1143456438D+01  0.7443082909D+00
 SP   1 1.00       0.000000000000
      0.1687144782D+00  0.1000000000D+01  0.1000000000D+01
 D   1 1.00       0.000000000000
      0.8000000000D+00  0.1000000000D+01
 ****
     55 0
 S   3 1.00       0.000000000000
      0.1873113696D+02  0.3349460434D-01
      0.2825394365D+01  0.2347269535D+00
      0.6401216923D+00  0.8137573261D+00
 S   1 1.00       0.000000000000
      0.1612777588D+00  0.1000000000D+01
 ****
     56 0
 S   6 1.00       0.000000000000
      0.3047524880D+04  0.1834737132D-02
      0.4573695180D+03  0.1403732281D-01
      0.1039486850D+03  0.6884262226D-01
      0.2921015530D+02  0.2321844432D+00
      0.9286662960D+01  0.4679413484D+00
      0.3163926960D+01  0.3623119853D+00
 SP   3 1.00       0.000000000000
      0.7868272350D+01 -0.1193324198D+00  0.6899906659D-01
      0.1881288540D+01 -0.1608541517D+00  0.3164239610D+00
      0.5442492580D+00  0.1143456438D+01  0.7443082909D+00
 SP   1 1.00       0.000000000000
      0.1687144782D+00  0.1000000000D+01  0.1000000000D+01
 D   1 1.00       0.000000000000
      0.8000000000D+00  0.1000000000D+01
 ****
     57 0
 S   3 1.00       0.000000000000
      0.1873113696D+02  0.3349460434D-01
      0.2825394365D+01  0.2347269535D+00
      0.6401216923D+00  0.8137573261D+00
 S   1 1.00       0.000000000000
      0.1612777588D+00  0.1000000000D+01
 ****
     58 0
 S   3 1.00       0.000000000000
      0.1873113696D+02  0.3349460434D-01
      0.2825394365D+01  0.2347269535D+00
      0.6401216923D+00  0.8137573261D+00
 S   1 1.00       0.000000000000
      0.1612777588D+00  0.1000000000D+01
 ****
     59 0
 S   3 1.00       0.000000000000
      0.1873113696D+02  0.3349460434D-01
      0.2825394365D+01  0.2347269535D+00
      0.6401216923D+00  0.8137573261D+00
 S   1 1.00       0.000000000000
      0.1612777588D+00  0.1000000000D+01
 ****
     60 0
 S   6 1.00       0.000000000000
      0.3047524880D+04  0.1834737132D-02
      0.4573695180D+03  0.1403732281D-01
      0.1039486850D+03  0.6884262226D-01
      0.2921015530D+02  0.2321844432D+00
      0.9286662960D+01  0.4679413484D+00
      0.3163926960D+01  0.3623119853D+00
 SP   3 1.00       0.000000000000
      0.7868272350D+01 -0.1193324198D+00  0.6899906659D-01
      0.1881288540D+01 -0.1608541517D+00  0.3164239610D+00
      0.5442492580D+00  0.1143456438D+01  0.7443082909D+00
 SP   1 1.00       0.000000000000
      0.1687144782D+00  0.1000000000D+01  0.1000000000D+01
 D   1 1.00       0.000000000000
      0.8000000000D+00  0.1000000000D+01
 ****
     61 0
 S   3 1.00       0.000000000000
      0.1873113696D+02  0.3349460434D-01
      0.2825394365D+01  0.2347269535D+00
      0.6401216923D+00  0.8137573261D+00
 S   1 1.00       0.000000000000
      0.1612777588D+00  0.1000000000D+01
 ****
     62 0
 S   3 1.00       0.000000000000
      0.1873113696D+02  0.3349460434D-01
      0.2825394365D+01  0.2347269535D+00
      0.6401216923D+00  0.8137573261D+00
 S   1 1.00       0.000000000000
      0.1612777588D+00  0.1000000000D+01
 ****
     63 0
 S   6 1.00       0.000000000000
      0.3047524880D+04  0.1834737132D-02
      0.4573695180D+03  0.1403732281D-01
      0.1039486850D+03  0.6884262226D-01
      0.2921015530D+02  0.2321844432D+00
      0.9286662960D+01  0.4679413484D+00
      0.3163926960D+01  0.3623119853D+00
 SP   3 1.00       0.000000000000
      0.7868272350D+01 -0.1193324198D+00  0.6899906659D-01
      0.1881288540D+01 -0.1608541517D+00  0.3164239610D+00
      0.5442492580D+00  0.1143456438D+01  0.7443082909D+00
 SP   1 1.00       0.000000000000
      0.1687144782D+00  0.1000000000D+01  0.1000000000D+01
 D   1 1.00       0.000000000000
      0.8000000000D+00  0.1000000000D+01
 ****
     64 0
 S   3 1.00       0.000000000000
      0.1873113696D+02  0.3349460434D-01
      0.2825394365D+01  0.2347269535D+00
      0.6401216923D+00  0.8137573261D+00
 S   1 1.00       0.000000000000
      0.1612777588D+00  0.1000000000D+01
 ****
     65 0
 S   3 1.00       0.000000000000
      0.1873113696D+02  0.3349460434D-01
      0.2825394365D+01  0.2347269535D+00
      0.6401216923D+00  0.8137573261D+00
 S   1 1.00       0.000000000000
      0.1612777588D+00  0.1000000000D+01
 ****
     66 0
 S   6 1.00       0.000000000000
      0.3047524880D+04  0.1834737132D-02
      0.4573695180D+03  0.1403732281D-01
      0.1039486850D+03  0.6884262226D-01
      0.2921015530D+02  0.2321844432D+00
      0.9286662960D+01  0.4679413484D+00
      0.3163926960D+01  0.3623119853D+00
 SP   3 1.00       0.000000000000
      0.7868272350D+01 -0.1193324198D+00  0.6899906659D-01
      0.1881288540D+01 -0.1608541517D+00  0.3164239610D+00
      0.5442492580D+00  0.1143456438D+01  0.7443082909D+00
 SP   1 1.00       0.000000000000
      0.1687144782D+00  0.1000000000D+01  0.1000000000D+01
 D   1 1.00       0.000000000000
      0.8000000000D+00  0.1000000000D+01
 ****
     67 0
 S   3 1.00       0.000000000000
      0.1873113696D+02  0.3349460434D-01
      0.2825394365D+01  0.2347269535D+00
      0.6401216923D+00  0.8137573261D+00
 S   1 1.00       0.000000000000
      0.1612777588D+00  0.1000000000D+01
 ****
     68 0
 S   6 1.00       0.000000000000
      0.3047524880D+04  0.1834737132D-02
      0.4573695180D+03  0.1403732281D-01
      0.1039486850D+03  0.6884262226D-01
      0.2921015530D+02  0.2321844432D+00
      0.9286662960D+01  0.4679413484D+00
      0.3163926960D+01  0.3623119853D+00
 SP   3 1.00       0.000000000000
      0.7868272350D+01 -0.1193324198D+00  0.6899906659D-01
      0.1881288540D+01 -0.1608541517D+00  0.3164239610D+00
      0.5442492580D+00  0.1143456438D+01  0.7443082909D+00
 SP   1 1.00       0.000000000000
      0.1687144782D+00  0.1000000000D+01  0.1000000000D+01
 D   1 1.00       0.000000000000
      0.8000000000D+00  0.1000000000D+01
 ****
     69 0
 S   3 1.00       0.000000000000
      0.1873113696D+02  0.3349460434D-01
      0.2825394365D+01  0.2347269535D+00
      0.6401216923D+00  0.8137573261D+00
 S   1 1.00       0.000000000000
      0.1612777588D+00  0.1000000000D+01
 ****
     70 0
 S   3 1.00       0.000000000000
      0.1873113696D+02  0.3349460434D-01
      0.2825394365D+01  0.2347269535D+00
      0.6401216923D+00  0.8137573261D+00
 S   1 1.00       0.000000000000
      0.1612777588D+00  0.1000000000D+01
 ****
     71 0
 S   3 1.00       0.000000000000
      0.1873113696D+02  0.3349460434D-01
      0.2825394365D+01  0.2347269535D+00
      0.6401216923D+00  0.8137573261D+00
 S   1 1.00       0.000000000000
      0.1612777588D+00  0.1000000000D+01
 ****
     72 0
 S   6 1.00       0.000000000000
      0.3047524880D+04  0.1834737132D-02
      0.4573695180D+03  0.1403732281D-01
      0.1039486850D+03  0.6884262226D-01
      0.2921015530D+02  0.2321844432D+00
      0.9286662960D+01  0.4679413484D+00
      0.3163926960D+01  0.3623119853D+00
 SP   3 1.00       0.000000000000
      0.7868272350D+01 -0.1193324198D+00  0.6899906659D-01
      0.1881288540D+01 -0.1608541517D+00  0.3164239610D+00
      0.5442492580D+00  0.1143456438D+01  0.7443082909D+00
 SP   1 1.00       0.000000000000
      0.1687144782D+00  0.1000000000D+01  0.1000000000D+01
 D   1 1.00       0.000000000000
      0.8000000000D+00  0.1000000000D+01
 ****
     73 0
 S   3 1.00       0.000000000000
      0.1873113696D+02  0.3349460434D-01
      0.2825394365D+01  0.2347269535D+00
      0.6401216923D+00  0.8137573261D+00
 S   1 1.00       0.000000000000
      0.1612777588D+00  0.1000000000D+01
 ****
     74 0
 S   3 1.00       0.000000000000
      0.1873113696D+02  0.3349460434D-01
      0.2825394365D+01  0.2347269535D+00
      0.6401216923D+00  0.8137573261D+00
 S   1 1.00       0.000000000000
      0.1612777588D+00  0.1000000000D+01
 ****
     75 0
 S   3 1.00       0.000000000000
      0.1873113696D+02  0.3349460434D-01
      0.2825394365D+01  0.2347269535D+00
      0.6401216923D+00  0.8137573261D+00
 S   1 1.00       0.000000000000
      0.1612777588D+00  0.1000000000D+01
 ****

 AO basis set (Overlap normalization):
 Atom O1       Shell     1 S   6     bf    1 -     1         11.522412324307          7.110095104106          0.000000000000
      0.5484671660D+04  0.1831074430D-02
      0.8252349460D+03  0.1395017220D-01
      0.1880469580D+03  0.6844507810D-01
      0.5296450000D+02  0.2327143360D+00
      0.1689757040D+02  0.4701928980D+00
      0.5799635340D+01  0.3585208530D+00
 Atom O1       Shell     2 SP   3    bf    2 -     5         11.522412324307          7.110095104106          0.000000000000
      0.1553961625D+02 -0.1107775495D+00  0.7087426823D-01
      0.3599933586D+01 -0.1480262627D+00  0.3397528391D+00
      0.1013761750D+01  0.1130767015D+01  0.7271585773D+00
 Atom O1       Shell     3 SP   1    bf    6 -     9         11.522412324307          7.110095104106          0.000000000000
      0.2700058226D+00  0.1000000000D+01  0.1000000000D+01
 Atom O1       Shell     4 D   1     bf   10 -    15         11.522412324307          7.110095104106          0.000000000000
      0.8000000000D+00  0.1000000000D+01
 Atom H2       Shell     5 S   3     bf   16 -    16         11.017214829668          7.131746962527         -1.757249735826
      0.1873113696D+02  0.3349460434D-01
      0.2825394365D+01  0.2347269535D+00
      0.6401216923D+00  0.8137573261D+00
 Atom H2       Shell     6 S   1     bf   17 -    17         11.017214829668          7.131746962527         -1.757249735826
      0.1612777588D+00  0.1000000000D+01
 Atom O3       Shell     7 S   6     bf   18 -    18          0.000000000000          0.000000000000          0.000000000000
      0.5484671660D+04  0.1831074430D-02
      0.8252349460D+03  0.1395017220D-01
      0.1880469580D+03  0.6844507810D-01
      0.5296450000D+02  0.2327143360D+00
      0.1689757040D+02  0.4701928980D+00
      0.5799635340D+01  0.3585208530D+00
 Atom O3       Shell     8 SP   3    bf   19 -    22          0.000000000000          0.000000000000          0.000000000000
      0.1553961625D+02 -0.1107775495D+00  0.7087426823D-01
      0.3599933586D+01 -0.1480262627D+00  0.3397528391D+00
      0.1013761750D+01  0.1130767015D+01  0.7271585773D+00
 Atom O3       Shell     9 SP   1    bf   23 -    26          0.000000000000          0.000000000000          0.000000000000
      0.2700058226D+00  0.1000000000D+01  0.1000000000D+01
 Atom O3       Shell    10 D   1     bf   27 -    32          0.000000000000          0.000000000000          0.000000000000
      0.8000000000D+00  0.1000000000D+01
 Atom H4       Shell    11 S   3     bf   33 -    33         -0.208245023049         -0.316390345771         -1.788748692564
      0.1873113696D+02  0.3349460434D-01
      0.2825394365D+01  0.2347269535D+00
      0.6401216923D+00  0.8137573261D+00
 Atom H4       Shell    12 S   1     bf   34 -    34         -0.208245023049         -0.316390345771         -1.788748692564
      0.1612777588D+00  0.1000000000D+01
 Atom C5       Shell    13 S   6     bf   35 -    35         16.678074313737          0.240476267561          0.783911387842
      0.3047524880D+04  0.1834737132D-02
      0.4573695180D+03  0.1403732281D-01
      0.1039486850D+03  0.6884262226D-01
      0.2921015530D+02  0.2321844432D+00
      0.9286662960D+01  0.4679413484D+00
      0.3163926960D+01  0.3623119853D+00
 Atom C5       Shell    14 SP   3    bf   36 -    39         16.678074313737          0.240476267561          0.783911387842
      0.7868272350D+01 -0.1193324198D+00  0.6899906659D-01
      0.1881288540D+01 -0.1608541517D+00  0.3164239610D+00
      0.5442492580D+00  0.1143456438D+01  0.7443082909D+00
 Atom C5       Shell    15 SP   1    bf   40 -    43         16.678074313737          0.240476267561          0.783911387842
      0.1687144782D+00  0.1000000000D+01  0.1000000000D+01
 Atom C5       Shell    16 D   1     bf   44 -    49         16.678074313737          0.240476267561          0.783911387842
      0.8000000000D+00  0.1000000000D+01
 Atom C6       Shell    17 S   6     bf   50 -    50         14.920348990535          2.487477613610          1.498970056011
      0.3047524880D+04  0.1834737132D-02
      0.4573695180D+03  0.1403732281D-01
      0.1039486850D+03  0.6884262226D-01
      0.2921015530D+02  0.2321844432D+00
      0.9286662960D+01  0.4679413484D+00
      0.3163926960D+01  0.3623119853D+00
 Atom C6       Shell    18 SP   3    bf   51 -    54         14.920348990535          2.487477613610          1.498970056011
      0.7868272350D+01 -0.1193324198D+00  0.6899906659D-01
      0.1881288540D+01 -0.1608541517D+00  0.3164239610D+00
      0.5442492580D+00  0.1143456438D+01  0.7443082909D+00
 Atom C6       Shell    19 SP   1    bf   55 -    58         14.920348990535          2.487477613610          1.498970056011
      0.1687144782D+00  0.1000000000D+01  0.1000000000D+01
 Atom C6       Shell    20 D   1     bf   59 -    64         14.920348990535          2.487477613610          1.498970056011
      0.8000000000D+00  0.1000000000D+01
 Atom H7       Shell    21 S   3     bf   65 -    65         14.504905777125          2.218101575326          3.525446352784
      0.1873113696D+02  0.3349460434D-01
      0.2825394365D+01  0.2347269535D+00
      0.6401216923D+00  0.8137573261D+00
 Atom H7       Shell    22 S   1     bf   66 -    66         14.504905777125          2.218101575326          3.525446352784
      0.1612777588D+00  0.1000000000D+01
 Atom C8       Shell    23 S   6     bf   67 -    67         12.327180808450          2.502749454250          0.182098583302
      0.3047524880D+04  0.1834737132D-02
      0.4573695180D+03  0.1403732281D-01
      0.1039486850D+03  0.6884262226D-01
      0.2921015530D+02  0.2321844432D+00
      0.9286662960D+01  0.4679413484D+00
      0.3163926960D+01  0.3623119853D+00
 Atom C8       Shell    24 SP   3    bf   68 -    71         12.327180808450          2.502749454250          0.182098583302
      0.7868272350D+01 -0.1193324198D+00  0.6899906659D-01
      0.1881288540D+01 -0.1608541517D+00  0.3164239610D+00
      0.5442492580D+00  0.1143456438D+01  0.7443082909D+00
 Atom C8       Shell    25 SP   1    bf   72 -    75         12.327180808450          2.502749454250          0.182098583302
      0.1687144782D+00  0.1000000000D+01  0.1000000000D+01
 Atom C8       Shell    26 D   1     bf   76 -    81         12.327180808450          2.502749454250          0.182098583302
      0.8000000000D+00  0.1000000000D+01
 Atom H9       Shell    27 S   3     bf   82 -    82         12.587819641267          2.722087717720         -1.868459986466
      0.1873113696D+02  0.3349460434D-01
      0.2825394365D+01  0.2347269535D+00
      0.6401216923D+00  0.8137573261D+00
 Atom H9       Shell    28 S   1     bf   83 -    83         12.587819641267          2.722087717720         -1.868459986466
      0.1612777588D+00  0.1000000000D+01
 Atom C10      Shell    29 S   6     bf   84 -    84         10.933873504146         -0.025849223621          0.724270591738
      0.3047524880D+04  0.1834737132D-02
      0.4573695180D+03  0.1403732281D-01
      0.1039486850D+03  0.6884262226D-01
      0.2921015530D+02  0.2321844432D+00
      0.9286662960D+01  0.4679413484D+00
      0.3163926960D+01  0.3623119853D+00
 Atom C10      Shell    30 SP   3    bf   85 -    88         10.933873504146         -0.025849223621          0.724270591738
      0.7868272350D+01 -0.1193324198D+00  0.6899906659D-01
      0.1881288540D+01 -0.1608541517D+00  0.3164239610D+00
      0.5442492580D+00  0.1143456438D+01  0.7443082909D+00
 Atom C10      Shell    31 SP   1    bf   89 -    92         10.933873504146         -0.025849223621          0.724270591738
      0.1687144782D+00  0.1000000000D+01  0.1000000000D+01
 Atom C10      Shell    32 D   1     bf   93 -    98         10.933873504146         -0.025849223621          0.724270591738
      0.8000000000D+00  0.1000000000D+01
 Atom H11      Shell    33 S   3     bf   99 -    99         10.535199890514         -0.018311427330          2.769211969473
      0.1873113696D+02  0.3349460434D-01
      0.2825394365D+01  0.2347269535D+00
      0.6401216923D+00  0.8137573261D+00
 Atom H11      Shell    34 S   1     bf  100 -   100         10.535199890514         -0.018311427330          2.769211969473
      0.1612777588D+00  0.1000000000D+01
 Atom C12      Shell    35 S   6     bf  101 -   101         19.043605991368          0.897126732395          2.444064141474
      0.3047524880D+04  0.1834737132D-02
      0.4573695180D+03  0.1403732281D-01
      0.1039486850D+03  0.6884262226D-01
      0.2921015530D+02  0.2321844432D+00
      0.9286662960D+01  0.4679413484D+00
      0.3163926960D+01  0.3623119853D+00
 Atom C12      Shell    36 SP   3    bf  102 -   105         19.043605991368          0.897126732395          2.444064141474
      0.7868272350D+01 -0.1193324198D+00  0.6899906659D-01
      0.1881288540D+01 -0.1608541517D+00  0.3164239610D+00
      0.5442492580D+00  0.1143456438D+01  0.7443082909D+00
 Atom C12      Shell    37 SP   1    bf  106 -   109         19.043605991368          0.897126732395          2.444064141474
      0.1687144782D+00  0.1000000000D+01  0.1000000000D+01
 Atom C12      Shell    38 D   1     bf  110 -   115         19.043605991368          0.897126732395          2.444064141474
      0.8000000000D+00  0.1000000000D+01
 Atom H13      Shell    39 S   3     bf  116 -   116         18.487049897834          0.463894959978          4.400405463804
      0.1873113696D+02  0.3349460434D-01
      0.2825394365D+01  0.2347269535D+00
      0.6401216923D+00  0.8137573261D+00
 Atom H13      Shell    40 S   1     bf  117 -   117         18.487049897834          0.463894959978          4.400405463804
      0.1612777588D+00  0.1000000000D+01
 Atom C14      Shell    41 S   6     bf  118 -   118         15.254221986447         -2.199782645783          1.490070485275
      0.3047524880D+04  0.1834737132D-02
      0.4573695180D+03  0.1403732281D-01
      0.1039486850D+03  0.6884262226D-01
      0.2921015530D+02  0.2321844432D+00
      0.9286662960D+01  0.4679413484D+00
      0.3163926960D+01  0.3623119853D+00
 Atom C14      Shell    42 SP   3    bf  119 -   122         15.254221986447         -2.199782645783          1.490070485275
      0.7868272350D+01 -0.1193324198D+00  0.6899906659D-01
      0.1881288540D+01 -0.1608541517D+00  0.3164239610D+00
      0.5442492580D+00  0.1143456438D+01  0.7443082909D+00
 Atom C14      Shell    43 SP   1    bf  123 -   126         15.254221986447         -2.199782645783          1.490070485275
      0.1687144782D+00  0.1000000000D+01  0.1000000000D+01
 Atom C14      Shell    44 D   1     bf  127 -   132         15.254221986447         -2.199782645783          1.490070485275
      0.8000000000D+00  0.1000000000D+01
 Atom H15      Shell    45 S   3     bf  133 -   133         15.016162149486         -2.257912549151          3.553688555504
      0.1873113696D+02  0.3349460434D-01
      0.2825394365D+01  0.2347269535D+00
      0.6401216923D+00  0.8137573261D+00
 Atom H15      Shell    46 S   1     bf  134 -   134         15.016162149486         -2.257912549151          3.553688555504
      0.1612777588D+00  0.1000000000D+01
 Atom H16      Shell    47 S   3     bf  135 -   135         16.328908198869         -3.890247608141          0.974296231264
      0.1873113696D+02  0.3349460434D-01
      0.2825394365D+01  0.2347269535D+00
      0.6401216923D+00  0.8137573261D+00
 Atom H16      Shell    48 S   1     bf  136 -   136         16.328908198869         -3.890247608141          0.974296231264
      0.1612777588D+00  0.1000000000D+01
 Atom C17      Shell    49 S   6     bf  137 -   137          8.287804385389         -0.212941597202         -0.598908541138
      0.3047524880D+04  0.1834737132D-02
      0.4573695180D+03  0.1403732281D-01
      0.1039486850D+03  0.6884262226D-01
      0.2921015530D+02  0.2321844432D+00
      0.9286662960D+01  0.4679413484D+00
      0.3163926960D+01  0.3623119853D+00
 Atom C17      Shell    50 SP   3    bf  138 -   141          8.287804385389         -0.212941597202         -0.598908541138
      0.7868272350D+01 -0.1193324198D+00  0.6899906659D-01
      0.1881288540D+01 -0.1608541517D+00  0.3164239610D+00
      0.5442492580D+00  0.1143456438D+01  0.7443082909D+00
 Atom C17      Shell    51 SP   1    bf  142 -   145          8.287804385389         -0.212941597202         -0.598908541138
      0.1687144782D+00  0.1000000000D+01  0.1000000000D+01
 Atom C17      Shell    52 D   1     bf  146 -   151          8.287804385389         -0.212941597202         -0.598908541138
      0.8000000000D+00  0.1000000000D+01
 Atom C18      Shell    53 S   6     bf  152 -   152         16.637695458312          4.824937069386          1.319293685872
      0.3047524880D+04  0.1834737132D-02
      0.4573695180D+03  0.1403732281D-01
      0.1039486850D+03  0.6884262226D-01
      0.2921015530D+02  0.2321844432D+00
      0.9286662960D+01  0.4679413484D+00
      0.3163926960D+01  0.3623119853D+00
 Atom C18      Shell    54 SP   3    bf  153 -   156         16.637695458312          4.824937069386          1.319293685872
      0.7868272350D+01 -0.1193324198D+00  0.6899906659D-01
      0.1881288540D+01 -0.1608541517D+00  0.3164239610D+00
      0.5442492580D+00  0.1143456438D+01  0.7443082909D+00
 Atom C18      Shell    55 SP   1    bf  157 -   160         16.637695458312          4.824937069386          1.319293685872
      0.1687144782D+00  0.1000000000D+01  0.1000000000D+01
 Atom C18      Shell    56 D   1     bf  161 -   166         16.637695458312          4.824937069386          1.319293685872
      0.8000000000D+00  0.1000000000D+01
 Atom H19      Shell    57 S   3     bf  167 -   167         15.952705205300          6.393059650120          2.474298569072
      0.1873113696D+02  0.3349460434D-01
      0.2825394365D+01  0.2347269535D+00
      0.6401216923D+00  0.8137573261D+00
 Atom H19      Shell    58 S   1     bf  168 -   168         15.952705205300          6.393059650120          2.474298569072
      0.1612777588D+00  0.1000000000D+01
 Atom H20      Shell    59 S   3     bf  169 -   169         16.706884057907          5.533770412756         -0.623627443970
      0.1873113696D+02  0.3349460434D-01
      0.2825394365D+01  0.2347269535D+00
      0.6401216923D+00  0.8137573261D+00
 Atom H20      Shell    60 S   1     bf  170 -   170         16.706884057907          5.533770412756         -0.623627443970
      0.1612777588D+00  0.1000000000D+01
 Atom C21      Shell    61 S   6     bf  171 -   171         12.642400827930         -2.339595224252          0.211419933028
      0.3047524880D+04  0.1834737132D-02
      0.4573695180D+03  0.1403732281D-01
      0.1039486850D+03  0.6884262226D-01
      0.2921015530D+02  0.2321844432D+00
      0.9286662960D+01  0.4679413484D+00
      0.3163926960D+01  0.3623119853D+00
 Atom C21      Shell    62 SP   3    bf  172 -   175         12.642400827930         -2.339595224252          0.211419933028
      0.7868272350D+01 -0.1193324198D+00  0.6899906659D-01
      0.1881288540D+01 -0.1608541517D+00  0.3164239610D+00
      0.5442492580D+00  0.1143456438D+01  0.7443082909D+00
 Atom C21      Shell    63 SP   1    bf  176 -   179         12.642400827930         -2.339595224252          0.211419933028
      0.1687144782D+00  0.1000000000D+01  0.1000000000D+01
 Atom C21      Shell    64 D   1     bf  180 -   185         12.642400827930         -2.339595224252          0.211419933028
      0.8000000000D+00  0.1000000000D+01
 Atom H22      Shell    65 S   3     bf  186 -   186         12.915181491301         -2.569643794039         -1.827524701181
      0.1873113696D+02  0.3349460434D-01
      0.2825394365D+01  0.2347269535D+00
      0.6401216923D+00  0.8137573261D+00
 Atom H22      Shell    66 S   1     bf  187 -   187         12.915181491301         -2.569643794039         -1.827524701181
      0.1612777588D+00  0.1000000000D+01
 Atom H23      Shell    67 S   3     bf  188 -   188         11.689872295299         -4.061270128633          0.855952264473
      0.1873113696D+02  0.3349460434D-01
      0.2825394365D+01  0.2347269535D+00
      0.6401216923D+00  0.8137573261D+00
 Atom H23      Shell    68 S   1     bf  189 -   189         11.689872295299         -4.061270128633          0.855952264473
      0.1612777588D+00  0.1000000000D+01
 Atom C24      Shell    69 S   6     bf  190 -   190         19.260958171570          3.832226118361          2.184188096611
      0.3047524880D+04  0.1834737132D-02
      0.4573695180D+03  0.1403732281D-01
      0.1039486850D+03  0.6884262226D-01
      0.2921015530D+02  0.2321844432D+00
      0.9286662960D+01  0.4679413484D+00
      0.3163926960D+01  0.3623119853D+00
 Atom C24      Shell    70 SP   3    bf  191 -   194         19.260958171570          3.832226118361          2.184188096611
      0.7868272350D+01 -0.1193324198D+00  0.6899906659D-01
      0.1881288540D+01 -0.1608541517D+00  0.3164239610D+00
      0.5442492580D+00  0.1143456438D+01  0.7443082909D+00
 Atom C24      Shell    71 SP   1    bf  195 -   198         19.260958171570          3.832226118361          2.184188096611
      0.1687144782D+00  0.1000000000D+01  0.1000000000D+01
 Atom C24      Shell    72 D   1     bf  199 -   204         19.260958171570          3.832226118361          2.184188096611
      0.8000000000D+00  0.1000000000D+01
 Atom H25      Shell    73 S   3     bf  205 -   205         20.720002849736          4.323654293609          0.797304349377
      0.1873113696D+02  0.3349460434D-01
      0.2825394365D+01  0.2347269535D+00
      0.6401216923D+00  0.8137573261D+00
 Atom H25      Shell    74 S   1     bf  206 -   206         20.720002849736          4.323654293609          0.797304349377
      0.1612777588D+00  0.1000000000D+01
 Atom H26      Shell    75 S   3     bf  207 -   207         19.850948452580          4.692056932338          3.970641565608
      0.1873113696D+02  0.3349460434D-01
      0.2825394365D+01  0.2347269535D+00
      0.6401216923D+00  0.8137573261D+00
 Atom H26      Shell    76 S   1     bf  208 -   208         19.850948452580          4.692056932338          3.970641565608
      0.1612777588D+00  0.1000000000D+01
 Atom C27      Shell    77 S   6     bf  209 -   209         10.700978685549          4.746975548500          1.077790749000
      0.3047524880D+04  0.1834737132D-02
      0.4573695180D+03  0.1403732281D-01
      0.1039486850D+03  0.6884262226D-01
      0.2921015530D+02  0.2321844432D+00
      0.9286662960D+01  0.4679413484D+00
      0.3163926960D+01  0.3623119853D+00
 Atom C27      Shell    78 SP   3    bf  210 -   213         10.700978685549          4.746975548500          1.077790749000
      0.7868272350D+01 -0.1193324198D+00  0.6899906659D-01
      0.1881288540D+01 -0.1608541517D+00  0.3164239610D+00
      0.5442492580D+00  0.1143456438D+01  0.7443082909D+00
 Atom C27      Shell    79 SP   1    bf  214 -   217         10.700978685549          4.746975548500          1.077790749000
      0.1687144782D+00  0.1000000000D+01  0.1000000000D+01
 Atom C27      Shell    80 D   1     bf  218 -   223         10.700978685549          4.746975548500          1.077790749000
      0.8000000000D+00  0.1000000000D+01
 Atom H28      Shell    81 S   3     bf  224 -   224         10.999952994026          5.022214310932          3.115071101403
      0.1873113696D+02  0.3349460434D-01
      0.2825394365D+01  0.2347269535D+00
      0.6401216923D+00  0.8137573261D+00
 Atom H28      Shell    82 S   1     bf  225 -   225         10.999952994026          5.022214310932          3.115071101403
      0.1612777588D+00  0.1000000000D+01
 Atom C29      Shell    83 S   6     bf  226 -   226         21.583101226964         -0.468806490478          1.943362324202
      0.3047524880D+04  0.1834737132D-02
      0.4573695180D+03  0.1403732281D-01
      0.1039486850D+03  0.6884262226D-01
      0.2921015530D+02  0.2321844432D+00
      0.9286662960D+01  0.4679413484D+00
      0.3163926960D+01  0.3623119853D+00
 Atom C29      Shell    84 SP   3    bf  227 -   230         21.583101226964         -0.468806490478          1.943362324202
      0.7868272350D+01 -0.1193324198D+00  0.6899906659D-01
      0.1881288540D+01 -0.1608541517D+00  0.3164239610D+00
      0.5442492580D+00  0.1143456438D+01  0.7443082909D+00
 Atom C29      Shell    85 SP   1    bf  231 -   234         21.583101226964         -0.468806490478          1.943362324202
      0.1687144782D+00  0.1000000000D+01  0.1000000000D+01
 Atom C29      Shell    86 D   1     bf  235 -   240         21.583101226964         -0.468806490478          1.943362324202
      0.8000000000D+00  0.1000000000D+01
 Atom H30      Shell    87 S   3     bf  241 -   241         22.154792533938          0.000000000000          0.000000000000
      0.1873113696D+02  0.3349460434D-01
      0.2825394365D+01  0.2347269535D+00
      0.6401216923D+00  0.8137573261D+00
 Atom H30      Shell    88 S   1     bf  242 -   242         22.154792533938          0.000000000000          0.000000000000
      0.1612777588D+00  0.1000000000D+01
 Atom C31      Shell    89 S   6     bf  243 -   243         17.388028075731          0.239036031686         -2.049555654315
      0.3047524880D+04  0.1834737132D-02
      0.4573695180D+03  0.1403732281D-01
      0.1039486850D+03  0.6884262226D-01
      0.2921015530D+02  0.2321844432D+00
      0.9286662960D+01  0.4679413484D+00
      0.3163926960D+01  0.3623119853D+00
 Atom C31      Shell    90 SP   3    bf  244 -   247         17.388028075731          0.239036031686         -2.049555654315
      0.7868272350D+01 -0.1193324198D+00  0.6899906659D-01
      0.1881288540D+01 -0.1608541517D+00  0.3164239610D+00
      0.5442492580D+00  0.1143456438D+01  0.7443082909D+00
 Atom C31      Shell    91 SP   1    bf  248 -   251         17.388028075731          0.239036031686         -2.049555654315
      0.1687144782D+00  0.1000000000D+01  0.1000000000D+01
 Atom C31      Shell    92 D   1     bf  252 -   257         17.388028075731          0.239036031686         -2.049555654315
      0.8000000000D+00  0.1000000000D+01
 Atom H32      Shell    93 S   3     bf  258 -   258         15.727123475660          0.179815586264         -3.276372606106
      0.1873113696D+02  0.3349460434D-01
      0.2825394365D+01  0.2347269535D+00
      0.6401216923D+00  0.8137573261D+00
 Atom H32      Shell    94 S   1     bf  259 -   259         15.727123475660          0.179815586264         -3.276372606106
      0.1612777588D+00  0.1000000000D+01
 Atom H33      Shell    95 S   3     bf  260 -   260         18.472716098349          1.918396301883         -2.575496124694
      0.1873113696D+02  0.3349460434D-01
      0.2825394365D+01  0.2347269535D+00
      0.6401216923D+00  0.8137573261D+00
 Atom H33      Shell    96 S   1     bf  261 -   261         18.472716098349          1.918396301883         -2.575496124694
      0.1612777588D+00  0.1000000000D+01
 Atom H34      Shell    97 S   3     bf  262 -   262         18.545086826677         -1.413422834277         -2.511658738179
      0.1873113696D+02  0.3349460434D-01
      0.2825394365D+01  0.2347269535D+00
      0.6401216923D+00  0.8137573261D+00
 Atom H34      Shell    98 S   1     bf  263 -   263         18.545086826677         -1.413422834277         -2.511658738179
      0.1612777588D+00  0.1000000000D+01
 Atom C35      Shell    99 S   6     bf  264 -   264          6.821989517687          2.256100226200         -0.221520916051
      0.3047524880D+04  0.1834737132D-02
      0.4573695180D+03  0.1403732281D-01
      0.1039486850D+03  0.6884262226D-01
      0.2921015530D+02  0.2321844432D+00
      0.9286662960D+01  0.4679413484D+00
      0.3163926960D+01  0.3623119853D+00
 Atom C35      Shell   100 SP   3    bf  265 -   268          6.821989517687          2.256100226200         -0.221520916051
      0.7868272350D+01 -0.1193324198D+00  0.6899906659D-01
      0.1881288540D+01 -0.1608541517D+00  0.3164239610D+00
      0.5442492580D+00  0.1143456438D+01  0.7443082909D+00
 Atom C35      Shell   101 SP   1    bf  269 -   272          6.821989517687          2.256100226200         -0.221520916051
      0.1687144782D+00  0.1000000000D+01  0.1000000000D+01
 Atom C35      Shell   102 D   1     bf  273 -   278          6.821989517687          2.256100226200         -0.221520916051
      0.8000000000D+00  0.1000000000D+01
 Atom C36      Shell   103 S   6     bf  279 -   279          6.755171050403         -2.394774792695          0.662628972503
      0.3047524880D+04  0.1834737132D-02
      0.4573695180D+03  0.1403732281D-01
      0.1039486850D+03  0.6884262226D-01
      0.2921015530D+02  0.2321844432D+00
      0.9286662960D+01  0.4679413484D+00
      0.3163926960D+01  0.3623119853D+00
 Atom C36      Shell   104 SP   3    bf  280 -   283          6.755171050403         -2.394774792695          0.662628972503
      0.7868272350D+01 -0.1193324198D+00  0.6899906659D-01
      0.1881288540D+01 -0.1608541517D+00  0.3164239610D+00
      0.5442492580D+00  0.1143456438D+01  0.7443082909D+00
 Atom C36      Shell   105 SP   1    bf  284 -   287          6.755171050403         -2.394774792695          0.662628972503
      0.1687144782D+00  0.1000000000D+01  0.1000000000D+01
 Atom C36      Shell   106 D   1     bf  288 -   293          6.755171050403         -2.394774792695          0.662628972503
      0.8000000000D+00  0.1000000000D+01
 Atom H37      Shell   107 S   3     bf  294 -   294          6.911175312604         -2.189858257667          2.722979876324
      0.1873113696D+02  0.3349460434D-01
      0.2825394365D+01  0.2347269535D+00
      0.6401216923D+00  0.8137573261D+00
 Atom H37      Shell   108 S   1     bf  295 -   295          6.911175312604         -2.189858257667          2.722979876324
      0.1612777588D+00  0.1000000000D+01
 Atom H38      Shell   109 S   3     bf  296 -   296          7.623843911853         -4.211652946918          0.186540346783
      0.1873113696D+02  0.3349460434D-01
      0.2825394365D+01  0.2347269535D+00
      0.6401216923D+00  0.8137573261D+00
 Atom H38      Shell   110 S   1     bf  297 -   297          7.623843911853         -4.211652946918          0.186540346783
      0.1612777588D+00  0.1000000000D+01
 Atom C39      Shell   111 S   6     bf  298 -   298          7.927062016101          4.390740194936          0.581352399548
      0.3047524880D+04  0.1834737132D-02
[...]
 1537 Fit      -0.000647
 1538 Fit      -0.001484
 1539 Fit       0.001195
 1540 Fit       0.001010
 1541 Fit       0.000811
 1542 Fit      -0.000161
 1543 Fit      -0.001691
 1544 Fit       0.001507
 1545 Fit       0.001752
 1546 Fit       0.000693
 1547 Fit       0.001842
 1548 Fit       0.002295
 1549 Fit       0.000787
 1550 Fit       0.000203
 1551 Fit       0.000520
 1552 Fit       0.001287
 1553 Fit       0.002155
 1554 Fit      -0.001930
 1555 Fit      -0.002286
 1556 Fit      -0.002290
 1557 Fit      -0.001949
 1558 Fit      -0.001420
 1559 Fit      -0.000764
 1560 Fit       0.000154
 1561 Fit       0.001133
 1562 Fit      -0.001287
 1563 Fit       0.000255
 1564 Fit       0.000311
 1565 Fit      -0.000723
 1566 Fit      -0.001161
 1567 Fit       0.001318
 1568 Fit       0.002858
 1569 Fit       0.003049
 1570 Fit       0.002158
 1571 Fit       0.000870
 1572 Fit       0.000903
 1573 Fit       0.003218
 1574 Fit       0.004634
 1575 Fit       0.004600
 1576 Fit       0.004847
 1577 Fit      -0.002898
 1578 Fit      -0.003088
 1579 Fit      -0.003561
 1580 Fit      -0.003180
 1581 Fit      -0.001129
 1582 Fit      -0.002140
 1583 Fit      -0.003075
 1584 Fit      -0.001644
 1585 Fit      -0.002811
 1586 Fit      -0.001042
 1587 Fit      -0.000456
 1588 Fit      -0.001087
 1589 Fit      -0.001980
 1590 Fit       0.000108
 1591 Fit       0.001268
 1592 Fit       0.001352
 1593 Fit      -0.000560
 1594 Fit       0.001741
 1595 Fit       0.001909
 1596 Fit       0.000809
 1597 Fit       0.000351
 1598 Fit       0.000627
 1599 Fit       0.002394
 1600 Fit       0.002216
 1601 Fit       0.001464
 1602 Fit      -0.001378
 1603 Fit      -0.001820
 1604 Fit      -0.002165
 1605 Fit      -0.002297
 1606 Fit      -0.002083
 1607 Fit       0.000694
 1608 Fit      -0.000210
 1609 Fit      -0.000888
 1610 Fit      -0.001764
 1611 Fit      -0.001353
 1612 Fit      -0.001029
 1613 Fit       0.000292
 1614 Fit      -0.001493
 1615 Fit       0.000283
 1616 Fit       0.001046
 1617 Fit       0.001175
 1618 Fit       0.001315
 1619 Fit      -0.000631
 1620 Fit       0.002202
 1621 Fit       0.002296
 1622 Fit       0.001263
 1623 Fit      -0.000992
 1624 Fit      -0.022303
 1625 Fit      -0.022762
 1626 Fit      -0.019216
 1627 Fit      -0.025074
 1628 Fit      -0.023592
 1629 Fit      -0.019683
 1630 Fit      -0.022882
 1631 Fit      -0.022163
 1632 Fit      -0.020491
 1633 Fit      -0.017706
 1634 Fit      -0.013197
 1635 Fit      -0.015166
 1636 Fit      -0.012999
 1637 Fit      -0.009614
 1638 Fit      -0.005110
 1639 Fit      -0.003450
 1640 Fit      -0.002357
 1641 Fit       0.001897
 1642 Fit       0.005435
 1643 Fit       0.005097
 1644 Fit       0.003203
 1645 Fit       0.004538
 1646 Fit       0.007303
 1647 Fit       0.010249
 1648 Fit       0.011907
 1649 Fit       0.013126
 1650 Fit       0.012339
 1651 Fit       0.014477
 1652 Fit       0.016379
 1653 Fit       0.018036
 1654 Fit       0.017417
 1655 Fit       0.016863
 1656 Fit      -0.017133
 1657 Fit      -0.020961
 1658 Fit      -0.016662
 1659 Fit      -0.020902
 1660 Fit      -0.024587
 1661 Fit      -0.025203
 1662 Fit      -0.023550
 1663 Fit      -0.019099
 1664 Fit      -0.021259
 1665 Fit      -0.024036
 1666 Fit      -0.024265
 1667 Fit      -0.023258
 1668 Fit      -0.021305
 1669 Fit      -0.017526
 1670 Fit      -0.014291
 1671 Fit      -0.018307
 1672 Fit      -0.018939
 1673 Fit      -0.017901
 1674 Fit      -0.016317
 1675 Fit      -0.014553
 1676 Fit      -0.012169
 1677 Fit      -0.008194
 1678 Fit      -0.008965
 1679 Fit      -0.008977
 1680 Fit      -0.006861
 1681 Fit      -0.004206
 1682 Fit      -0.001750
 1683 Fit       0.000459
 1684 Fit       0.002656
 1685 Fit       0.004796
 1686 Fit       0.007347
 1687 Fit       0.010535
 1688 Fit       0.009243
 1689 Fit       0.010206
 1690 Fit       0.012006
 1691 Fit       0.014086
 1692 Fit       0.016726
 1693 Fit       0.017701
 1694 Fit       0.017926
 1695 Fit       0.020227
 1696 Fit       0.023795
 1697 Fit       0.022367
 1698 Fit       0.003035
 1699 Fit       0.001166
 1700 Fit       0.002200
 1701 Fit       0.004152
 1702 Fit       0.004783
 1703 Fit       0.011243
 1704 Fit       0.005388
 1705 Fit       0.004370
 1706 Fit       0.005321
 1707 Fit       0.006188
 1708 Fit       0.005887
 1709 Fit       0.003213
 1710 Fit       0.002303
 1711 Fit       0.004823
 1712 Fit       0.005059
 1713 Fit       0.005063
 1714 Fit       0.004419
 1715 Fit       0.004451
 1716 Fit       0.005503
 1717 Fit       0.004305
 1718 Fit       0.003237
 1719 Fit       0.003193
 1720 Fit       0.001884
 1721 Fit       0.003283
 1722 Fit       0.002393
 1723 Fit       0.004361
 1724 Fit       0.004026
 1725 Fit       0.005011
 1726 Fit       0.005572
 1727 Fit      -0.008831
 1728 Fit      -0.009177
 1729 Fit      -0.014973
 1730 Fit      -0.002088
 1731 Fit      -0.003850
 1732 Fit      -0.004953
 1733 Fit      -0.002040
 1734 Fit      -0.006355
 1735 Fit      -0.009075
 1736 Fit      -0.011604
 1737 Fit      -0.007977
 1738 Fit      -0.010744
 1739 Fit      -0.016749
 1740 Fit      -0.014660
 1741 Fit      -0.005784
 1742 Fit      -0.009875
 1743 Fit      -0.000837
 1744 Fit      -0.003522
 1745 Fit      -0.005844
 1746 Fit       0.000493
 1747 Fit       0.001728
 1748 Fit       0.006613
 1749 Fit       0.003032
 1750 Fit       0.006478
 1751 Fit       0.005077
 1752 Fit       0.007890
 1753 Fit       0.006080
 1754 Fit       0.007075
 1755 Fit       0.005445
 1756 Fit       0.006563
 1757 Fit       0.005823
 1758 Fit       0.004083
 1759 Fit       0.007064
 1760 Fit       0.005315
 1761 Fit       0.007757
 1762 Fit       0.005644
 1763 Fit       0.007536
 1764 Fit      -0.003025
 1765 Fit      -0.004920
 1766 Fit      -0.007179
 1767 Fit      -0.005089
 1768 Fit      -0.002833
 1769 Fit       0.000192
 1770 Fit      -0.001514
 1771 Fit      -0.003973
 1772 Fit       0.001540
 1773 Fit       0.000780
 1774 Fit      -0.000851
 1775 Fit       0.002518
 1776 Fit       0.001451
 1777 Fit       0.000044
 1778 Fit      -0.000270
 1779 Fit       0.000759
 1780 Fit      -0.001001
 1781 Fit      -0.001375
 1782 Fit      -0.002309
 1783 Fit      -0.002630
 1784 Fit      -0.002512
 1785 Fit      -0.003837
 1786 Fit      -0.005377
 1787 Fit       0.001594
 1788 Fit       0.001423
 1789 Fit      -0.001566
 1790 Fit      -0.001434
 1791 Fit       0.000592
 1792 Fit       0.003298
 1793 Fit       0.004169
 1794 Fit      -0.008010
 1795 Fit      -0.007916
 1796 Fit      -0.004371
 1797 Fit       0.000775
 1798 Fit       0.001021
 1799 Fit       0.002084
 1800 Fit       0.000784
 1801 Fit       0.001454
 1802 Fit       0.001779
 1803 Fit       0.001682
 1804 Fit       0.000947
 1805 Fit       0.000562
 1806 Fit       0.003029
 1807 Fit       0.003155
 1808 Fit       0.000787
 1809 Fit       0.001432
 1810 Fit       0.001482
 1811 Fit       0.002034
 1812 Fit       0.006046
 1813 Fit       0.005287
 1814 Fit       0.006684
 1815 Fit       0.007905
 1816 Fit       0.005796
 1817 Fit       0.004450
 1818 Fit       0.002740
 1819 Fit       0.001417
 1820 Fit       0.002295
 1821 Fit       0.002436
 1822 Fit       0.002566
 1823 Fit       0.001087
 1824 Fit       0.002038
 1825 Fit       0.002498
 1826 Fit       0.005485
 1827 Fit       0.002210
 1828 Fit       0.001517
 1829 Fit       0.004124
 1830 Fit       0.003876
 1831 Fit       0.002817
 1832 Fit       0.001201
 1833 Fit       0.002483
 1834 Fit       0.005336
 1835 Fit       0.005360
 1836 Fit       0.006283
 1837 Fit       0.005598
 1838 Fit       0.004759
 1839 Fit       0.004754
 1840 Fit       0.004870
 1841 Fit       0.005459
 1842 Fit       0.001655
 1843 Fit       0.004560
 1844 Fit       0.004746
 1845 Fit       0.005202
 1846 Fit       0.005930
 1847 Fit       0.005937
 1848 Fit       0.007040
 1849 Fit       0.006884
 1850 Fit       0.007829
 1851 Fit       0.007789
 1852 Fit       0.008657
 1853 Fit       0.008909
 1854 Fit       0.009784
 1855 Fit      -0.002777
 1856 Fit      -0.003286
 1857 Fit      -0.001463
 1858 Fit      -0.002862
 1859 Fit       0.004151
 1860 Fit       0.007384
 1861 Fit      -0.002475
 1862 Fit      -0.012020
 1863 Fit      -0.004084
 1864 Fit      -0.000472
 1865 Fit       0.000063
 1866 Fit      -0.013365
 1867 Fit      -0.003003
 1868 Fit       0.001051
 1869 Fit       0.002769
 1870 Fit      -0.001351
 1871 Fit       0.002387
 1872 Fit       0.001814
 1873 Fit       0.003420
 1874 Fit       0.009079
 1875 Fit       0.006405
 1876 Fit       0.006276
 1877 Fit       0.007506
 1878 Fit       0.006929
 1879 Fit       0.005962
 1880 Fit       0.006419
 1881 Fit       0.009494
 1882 Fit       0.009185
 1883 Fit       0.008992
 1884 Fit       0.008771
 1885 Fit       0.008317
 1886 Fit       0.008238
 1887 Fit       0.008033
 1888 Fit       0.007921
 1889 Fit       0.007635
 1890 Fit       0.007009
 1891 Fit       0.006844
 1892 Fit       0.009132
 1893 Fit       0.016585
 1894 Fit       0.016230
 1895 Fit       0.012413
 1896 Fit       0.009803
 1897 Fit       0.011520
 1898 Fit       0.009454
 1899 Fit       0.008170
 1900 Fit       0.013725
 1901 Fit       0.008958
 1902 Fit       0.010568
 1903 Fit       0.012202
 1904 Fit       0.010909
 1905 Fit       0.007434
 1906 Fit       0.007742
 1907 Fit       0.008903
 1908 Fit       0.008057
 1909 Fit       0.006991
 1910 Fit       0.003690
 1911 Fit       0.002231
 1912 Fit       0.005637
 1913 Fit      -0.001983
 1914 Fit       0.001584
 1915 Fit      -0.002598
 1916 Fit      -0.011289
 1917 Fit       0.002449
 1918 Fit      -0.001178
 1919 Fit      -0.008582
 1920 Fit       0.002864
 1921 Fit       0.000212
 1922 Fit      -0.005111
 1923 Fit       0.003319
 1924 Fit       0.001872
 1925 Fit       0.006692
 1926 Fit       0.006483
 1927 Fit       0.007822
 1928 Fit       0.013410
 1929 Fit       0.009823
 1930 Fit       0.010589
 1931 Fit       0.015298
 1932 Fit       0.018582
 1933 Fit       0.013534
 1934 Fit       0.006164
 1935 Fit       0.007063
 1936 Fit       0.006451
 1937 Fit       0.008148
 1938 Fit       0.009440
 1939 Fit       0.006350
 1940 Fit       0.006360
 1941 Fit       0.017635
 1942 Fit       0.010805
 1943 Fit       0.009171
 1944 Fit       0.009380
 1945 Fit       0.018837
 1946 Fit       0.013074
 1947 Fit       0.011472
 1948 Fit       0.002737
 1949 Fit      -0.002679
 1950 Fit       0.001567
 1951 Fit       0.004171
 1952 Fit      -0.006310
 1953 Fit       0.000239
 1954 Fit       0.003434
 1955 Fit       0.004918
 1956 Fit      -0.005520
 1957 Fit       0.000703
 1958 Fit       0.003599
 1959 Fit       0.005188
 1960 Fit      -0.003572
 1961 Fit       0.001512
 1962 Fit       0.003921
 1963 Fit       0.005555
 1964 Fit      -0.001411
 1965 Fit      -0.001946
 1966 Fit      -0.001921
 1967 Fit      -0.001095
 1968 Fit       0.000406
 1969 Fit      -0.001079
 1970 Fit       0.001734
 1971 Fit       0.000450
 1972 Fit      -0.001132
 1973 Fit       0.002459
 1974 Fit       0.001646
 1975 Fit       0.000260
 1976 Fit      -0.001321
 1977 Fit       0.001415
 1978 Fit      -0.000021
 1979 Fit       0.000671
 1980 Fit      -0.001116
 1981 Fit      -0.000519
 1982 Fit      -0.000964
 1983 Fit      -0.001236
 1984 Fit      -0.000425
 1985 Fit      -0.000751
 1986 Fit      -0.000646
 1987 Fit       0.000161
 1988 Fit       0.000771
 1989 Fit      -0.008730
 1990 Fit      -0.011224
 1991 Fit       0.000502
 1992 Fit       0.003376
 1993 Fit       0.000495
 1994 Fit      -0.002424
 1995 Fit      -0.004540
 1996 Fit      -0.001196
 1997 Fit       0.003346
 1998 Fit      -0.001119
 1999 Fit      -0.001741
 2000 Fit      -0.002818
 2001 Fit      -0.007732
 2002 Fit      -0.013224
 2003 Fit      -0.013616
 2004 Fit      -0.007170
 2005 Fit       0.000728
 2006 Fit      -0.001515
 2007 Fit       0.001051
 2008 Fit      -0.000208
 2009 Fit      -0.001093
 2010 Fit       0.000481
 2011 Fit      -0.000675
 2012 Fit      -0.000257
 2013 Fit       0.000307
 2014 Fit       0.000092
 2015 Fit       0.001179
 2016 Fit       0.003917
 2017 Fit       0.003231
 2018 Fit       0.002015
 2019 Fit       0.001785
 2020 Fit       0.000821
 2021 Fit      -0.001007
 2022 Fit      -0.000361
 2023 Fit       0.000950
 2024 Fit       0.001997
 2025 Fit       0.002371
 2026 Fit       0.000007
 2027 Fit       0.001216
 2028 Fit       0.002020
 2029 Fit       0.001363
 2030 Fit       0.000337
 2031 Fit       0.001192
 2032 Fit       0.000302
 2033 Fit       0.002476
 2034 Fit       0.000479
 2035 Fit       0.005644
 2036 Fit       0.003545
 2037 Fit       0.001552
 2038 Fit       0.002377
 2039 Fit       0.005336
 2040 Fit       0.003192
 2041 Fit      -0.000214
 2042 Fit       0.000931
 2043 Fit       0.000334
 2044 Fit       0.000997
 2045 Fit       0.000416
 2046 Fit      -0.000623
 2047 Fit      -0.000708
 2048 Fit      -0.000179
 2049 Fit       0.000108
 2050 Fit      -0.000336
 2051 Fit       0.001806
 2052 Fit      -0.001427
 2053 Fit      -0.000053
 2054 Fit       0.001011
 2055 Fit       0.002006
 2056 Fit       0.001832
 2057 Fit       0.000606
 2058 Fit       0.000053
 2059 Fit       0.001356
 2060 Fit       0.001984
 2061 Fit       0.001413
 2062 Fit       0.002170
 2063 Fit       0.004390
 2064 Fit       0.002968
 2065 Fit       0.001222
 2066 Fit      -0.001473
 2067 Fit       0.000556
 2068 Fit       0.000626
 2069 Fit       0.000415
 2070 Fit       0.001004
 2071 Fit       0.000789
 2072 Fit      -0.000243
 2073 Fit       0.000896
 2074 Fit       0.001188
 2075 Fit       0.001086
 2076 Fit       0.000545
 2077 Fit       0.001120
 2078 Fit       0.000863
 2079 Fit       0.000685
 2080 Fit       0.000439
 2081 Fit      -0.002161
 2082 Fit      -0.002270
 2083 Fit      -0.002454
 2084 Fit      -0.002089
 2085 Fit      -0.001444
 2086 Fit      -0.001048
 2087 Fit      -0.000882
 2088 Fit      -0.000326
 2089 Fit      -0.001895
 2090 Fit      -0.001134
 2091 Fit       0.000080
 2092 Fit      -0.000700
 2093 Fit       0.001200
 2094 Fit      -0.001547
 2095 Fit      -0.001300
 2096 Fit      -0.001855
 2097 Fit       0.000051
 2098 Fit      -0.000070
 2099 Fit      -0.000607
 2100 Fit      -0.001491
 2101 Fit       0.000602
 2102 Fit       0.000696
 2103 Fit       0.000442
 2104 Fit      -0.000118
 2105 Fit       0.001300
 2106 Fit       0.001729
 2107 Fit       0.000648
 2108 Fit       0.000182
 2109 Fit       0.000430
 2110 Fit       0.001032
 2111 Fit       0.001671
 2112 Fit      -0.001065
 2113 Fit      -0.001412
 2114 Fit      -0.001433
 2115 Fit      -0.001156
 2116 Fit      -0.000694
 2117 Fit      -0.000151
 2118 Fit       0.000508
 2119 Fit       0.001200
 2120 Fit      -0.000442
 2121 Fit      -0.000316
 2122 Fit      -0.000467
 2123 Fit       0.001075
 2124 Fit       0.001779
 2125 Fit       0.001605
 2126 Fit       0.000856
 2127 Fit       0.001418
 2128 Fit       0.002959
 2129 Fit       0.003533
 2130 Fit       0.003247
 2131 Fit       0.002433
 2132 Fit       0.003902
 2133 Fit       0.004725
 2134 Fit       0.004632
 2135 Fit      -0.002319
 2136 Fit      -0.002640
 2137 Fit      -0.002601
 2138 Fit      -0.000813
 2139 Fit      -0.001504
 2140 Fit      -0.001900
 2141 Fit      -0.002571
 2142 Fit      -0.002451
 2143 Fit      -0.000746
 2144 Fit      -0.001539
 2145 Fit      -0.001170
 2146 Fit      -0.001815
 2147 Fit      -0.000840
 2148 Fit       0.000073
 2149 Fit       0.000312
 2150 Fit      -0.001486
 2151 Fit       0.000020
 2152 Fit       0.001002
 2153 Fit       0.001136
 2154 Fit      -0.000297
 2155 Fit       0.001369
 2156 Fit       0.000622
 2157 Fit       0.000292
 2158 Fit       0.000574
 2159 Fit       0.001837
 2160 Fit       0.001755
 2161 Fit       0.001157
 2162 Fit      -0.000725
 2163 Fit      -0.001088
 2164 Fit      -0.001330
 2165 Fit      -0.001385
 2166 Fit      -0.001026
 2167 Fit       0.000897
 2168 Fit       0.000239
 2169 Fit      -0.000298
 2170 Fit      -0.001444
 2171 Fit      -0.000570
 2172 Fit      -0.001811
 2173 Fit      -0.000214
 2174 Fit       0.000145
 2175 Fit       0.000109
 2176 Fit       0.000534
 2177 Fit      -0.000752
 2178 Fit       0.000948
 2179 Fit       0.001369
 2180 Fit       0.001278
 2181 Fit       0.001016
 2182 Fit      -0.000397
 2183 Fit       0.001878
 2184 Fit       0.001013
 -----------------------------------------------------------------
 Leave Link  602 at Thu May 18 12:42:31 2017, MaxMem=    33554432 cpu:         3.4
 (Enter /home/michal/g09/l9999.exe)

 Test job not archived.
 1\1\GINC-LINUX\SP\RHF\6-31G(d)\C27H46O2\MICHAL\18-May-2017\0\\#P HF/6-
 31G* SCF(Conver=6) NoSymm Test Pop=mk IOp(6/33=2) GFInput GFPrint\\MEP
  - Input generated by R.E.D.-III.x MOLECULE\\0,1\O,0,6.09739799,3.7625
 0028,0.\H,0,5.83005899,3.77395795,-0.92989651\O,0,0.,0.,0.\H,0,-0.1101
 9852,-0.16742656,-0.94656504\C,0,8.82565681,0.12725456,0.41482804\C,0,
 7.89550863,1.31631646,0.79322079\H,0,7.67566555,1.1737688,1.86558586\C
 ,0,6.52326313,1.32439797,0.09636242\H,0,6.66118726,1.44046678,-0.98874
 644\C,0,5.78595666,-0.01367882,0.38326749\H,0,5.57498767,-0.00968999,1
 .46540386\C,0,10.07744226,0.47473902,1.29334304\H,0,9.78292546,0.24548
 264,2.32859428\C,0,8.07218661,-1.16407484,0.78851134\H,0,7.94621077,-1
 .19483586,1.88053099\H,0,8.64088606,-2.05863037,0.51557536\C,0,4.38571
 719,-0.11268384,-0.31692875\C,0,8.80428924,2.55324673,0.69814015\H,0,8
 .44180801,3.38306146,1.30934241\H,0,8.84090227,2.92834518,-0.33000943\
 C,0,6.69007038,-1.23806047,0.11187861\H,0,6.83441969,-1.35979693,-0.96
 708442\H,0,6.18601399,-2.14913159,0.45295043\C,0,10.19246008,2.0279267
 2,1.15582256\H,0,10.96455327,2.28797931,0.42191529\H,0,10.50466949,2.4
 8292959,2.10117302\C,0,5.66271403,2.51199127,0.5703423\H,0,5.82092442,
 2.65764135,1.64842463\C,0,11.42128526,-0.24808171,1.02838305\H,0,11.72
 381127,0.,0.\C,0,9.20134816,0.12649242,-1.08457814\H,0,8.3224353,0.095
 15431,-1.73378171\H,0,9.77534034,1.0151716,-1.36289385\H,0,9.81363728,
 -0.74795115,-1.32911256\C,0,3.61004137,1.19387682,-0.11722382\C,0,3.57
 468256,-1.26726024,0.35064815\H,0,3.65723646,-1.15882308,1.44093889\H,
 0,4.03436444,-2.22871075,0.0987129\C,0,4.19482055,2.32347964,0.3076384
 4\H,0,3.58922884,3.21610421,0.46434938\C,0,4.52142079,-0.38672505,-1.8
 3879121\H,0,4.90953904,-1.39192689,-2.02993959\H,0,3.55737211,-0.31153
 876,-2.34852299\H,0,5.19355448,0.33493061,-2.31315536\C,0,2.12186966,1
 .16825311,-0.41132496\H,0,1.6641497,2.12266242,-0.13326317\H,0,1.95883
 774,1.04301272,-1.49409538\C,0,2.08357467,-1.3105357,-0.01759968\H,0,1
 .95775016,-1.52996519,-1.08830738\H,0,1.58670467,-2.12037297,0.5285903
 4\C,0,12.57052438,0.31288642,1.9152812\H,0,13.48695258,-0.23981661,1.6
 6311239\H,0,12.7565052,1.3464297,1.59997632\C,0,1.39760425,0.01725399,
 0.3025415\H,0,1.43544228,0.18977744,1.38505943\C,0,11.32749049,-1.7849
 6775,1.09859051\H,0,10.81658444,-2.12959931,2.00295445\H,0,12.32770794
 ,-2.23262088,1.09228677\H,0,10.78514724,-2.19419285,0.24162874\C,0,12.
 41453744,0.32688191,3.45254666\H,0,13.18875772,1.00246725,3.83829066\H
 ,0,11.45841832,0.79035148,3.72394821\C,0,12.55616892,-1.03189303,4.161
 2971\H,0,13.44980758,-1.54130785,3.77237998\H,0,11.70606193,-1.6744408
 6,3.9046061\C,0,12.66200807,-0.98230575,5.70506649\H,0,12.71854715,-2.
 03027194,6.03504207\C,0,11.41538328,-0.36813423,6.36364859\H,0,11.3211
 2042,0.69909921,6.13210715\H,0,11.46334916,-0.46276129,7.45451968\H,0,
 10.49885142,-0.86606871,6.02552478\C,0,13.94409918,-0.28958453,6.19665
 243\H,0,13.94385492,0.7816804,5.96505006\H,0,14.04517835,-0.38649034,7
 .28371081\H,0,14.83662898,-0.73106221,5.73782004\\Version=EM64L-G09Rev
 D.01\HF=-1198.9214687\RMSD=4.899e-07\Dipole=0.2215054,-0.727838,-0.783
 6941\Quadrupole=-3.0320114,-2.9652014,5.9972128,-8.6381544,-3.0715444,
 -2.4752638\PG=C01 [X(C27H46O2)]\\@


 PATIENCE IS THE ABILITY TO IDLE YOUR MOTOR WHEN
 YOU FEEL LIKE STRIPPING YOUR GEARS.
 Job cpu time:       0 days  0 hours 11 minutes  5.4 seconds.
 File lengths (MBytes):  RWF=    150 Int=      0 D2E=      0 Chk=     11 Scr=      1
 Normal termination of Gaussian 09 at Thu May 18 12:42:31 2017.
