 Entering Gaussian System, Link 0=/home/michal/g09/g09
 Input=JOB2-gau_m1-17-2.com
 Output=JOB2-gau_m1-17-2.log
 Initial command:
 /home/michal/g09/l1.exe "/home/michal/gauss_scratch/Gau-27118.inp" -scrdir="/home/michal/gauss_scratch/"
 Entering Link 1 = /home/michal/g09/l1.exe PID=     27119.
  
 Copyright (c) 1988,1990,1992,1993,1995,1998,2003,2009,2013,
            Gaussian, Inc.  All Rights Reserved.
  
 This is part of the Gaussian(R) 09 program.  It is based on
 the Gaussian(R) 03 system (copyright 2003, Gaussian, Inc.),
 the Gaussian(R) 98 system (copyright 1998, Gaussian, Inc.),
 the Gaussian(R) 94 system (copyright 1995, Gaussian, Inc.),
 the Gaussian 92(TM) system (copyright 1992, Gaussian, Inc.),
 the Gaussian 90(TM) system (copyright 1990, Gaussian, Inc.),
 the Gaussian 88(TM) system (copyright 1988, Gaussian, Inc.),
 the Gaussian 86(TM) system (copyright 1986, Carnegie Mellon
 University), and the Gaussian 82(TM) system (copyright 1983,
 Carnegie Mellon University). Gaussian is a federally registered
 trademark of Gaussian, Inc.
  
 This software contains proprietary and confidential information,
 including trade secrets, belonging to Gaussian, Inc.
  
 This software is provided under written license and may be
 used, copied, transmitted, or stored only in accord with that
 written license.
  
 The following legend is applicable only to US Government
 contracts under FAR:
  
                    RESTRICTED RIGHTS LEGEND
  
 Use, reproduction and disclosure by the US Government is
 subject to restrictions as set forth in subparagraphs (a)
 and (c) of the Commercial Computer Software - Restricted
 Rights clause in FAR 52.227-19.
  
 Gaussian, Inc.
 340 Quinnipiac St., Bldg. 40, Wallingford CT 06492
  
  
 ---------------------------------------------------------------
 Warning -- This program may not be used in any manner that
 competes with the business of Gaussian, Inc. or will provide
 assistance to any competitor of Gaussian, Inc.  The licensee
 of this program is prohibited from giving any competitor of
 Gaussian, Inc. access to this program.  By using this program,
 the user acknowledges that Gaussian, Inc. is engaged in the
 business of creating and licensing software in the field of
 computational chemistry and represents and warrants to the
 licensee that it is not a competitor of Gaussian, Inc. and that
 it will not use this program in any manner prohibited above.
 ---------------------------------------------------------------
  

 Cite this work as:
 Gaussian 09, Revision D.01,
 M. J. Frisch, G. W. Trucks, H. B. Schlegel, G. E. Scuseria, 
 M. A. Robb, J. R. Cheeseman, G. Scalmani, V. Barone, B. Mennucci, 
 G. A. Petersson, H. Nakatsuji, M. Caricato, X. Li, H. P. Hratchian, 
 A. F. Izmaylov, J. Bloino, G. Zheng, J. L. Sonnenberg, M. Hada, 
 M. Ehara, K. Toyota, R. Fukuda, J. Hasegawa, M. Ishida, T. Nakajima, 
 Y. Honda, O. Kitao, H. Nakai, T. Vreven, J. A. Montgomery, Jr., 
 J. E. Peralta, F. Ogliaro, M. Bearpark, J. J. Heyd, E. Brothers, 
 K. N. Kudin, V. N. Staroverov, T. Keith, R. Kobayashi, J. Normand, 
 K. Raghavachari, A. Rendell, J. C. Burant, S. S. Iyengar, J. Tomasi, 
 M. Cossi, N. Rega, J. M. Millam, M. Klene, J. E. Knox, J. B. Cross, 
 V. Bakken, C. Adamo, J. Jaramillo, R. Gomperts, R. E. Stratmann, 
 O. Yazyev, A. J. Austin, R. Cammi, C. Pomelli, J. W. Ochterski, 
 R. L. Martin, K. Morokuma, V. G. Zakrzewski, G. A. Voth, 
 P. Salvador, J. J. Dannenberg, S. Dapprich, A. D. Daniels, 
 O. Farkas, J. B. Foresman, J. V. Ortiz, J. Cioslowski, 
 and D. J. Fox, Gaussian, Inc., Wallingford CT, 2013.
 
 ******************************************
 Gaussian 09:  EM64L-G09RevD.01 24-Apr-2013
                18-May-2017 
 ******************************************
 %Mem=256MB
 %NProc=12
 Will use up to   12 processors via shared memory.
 ----------------------------------------------------------------------
 #P HF/6-31G* SCF(Conver=6) NoSymm Test Pop=mk IOp(6/33=2) GFInput GFPr
 int
 ----------------------------------------------------------------------
 1/38=1/1;
 2/12=2,15=1,17=6,18=5,40=1/2;
 3/5=1,6=6,7=1,11=9,16=1,24=110,25=1,30=1/1,2,3;
 4//1;
 5/5=2,6=6,38=5/2;
 6/7=2,8=2,9=2,10=2,15=8,20=1,28=1,33=2/1,2;
 99/5=1,9=1/99;
 Leave Link    1 at Thu May 18 13:22:04 2017, MaxMem=    33554432 cpu:         0.6
 (Enter /home/michal/g09/l101.exe)
 ----------------------------------------------
 MEP - Input generated by R.E.D.-III.x MOLECULE
 ----------------------------------------------
 Symbolic Z-matrix:
 Charge =  0 Multiplicity = 1
 O                     7.12078   0.78112   0. 
 H                     7.69189   0.        0. 
 O                     10.34837   1.13442  -6.38645 
 H                     10.71711   0.24256  -6.45569 
 C                     3.11392  -0.66568  -1.64806 
 C                     4.26658   0.27812  -1.19049 
 H                     3.9826    1.27761  -1.56213 
 C                     5.64078  -0.00808  -1.82191 
 H                     5.99726  -0.99838  -1.50315 
 C                     5.51987   0.02261  -3.37242 
 H                     5.28411   1.06833  -3.63039 
 C                     1.93967  -0.04348  -0.81494 
 H                     1.77701   0.94157  -1.27434 
 C                     2.99892  -0.53091  -3.1775 
 H                     2.68586   0.49339  -3.42378 
 H                     2.22923  -1.1998   -3.58037 
 C                     6.87046  -0.29591  -4.10426 
 C                     4.12449   0.32652   0.34274 
 H                     4.5678    1.2279    0.77204 
 H                     4.64679  -0.51799   0.80467 
 C                     4.33643  -0.83527  -3.87854 
 H                     4.56656  -1.89842  -3.7511 
 H                     4.20705  -0.68136  -4.95552 
 C                     2.59022   0.23615   0.57663 
 H                     2.35341  -0.55796   1.29228 
 H                     2.18667   1.16117   1.00343 
 C                     6.69273   1.01723  -1.35598 
 H                     6.22331   2.00988  -1.30323 
 C                     0.51853  -0.66737  -0.70507 
 H                     0.        0.        0. 
 C                     3.39291  -2.13745  -1.26315 
 H                     4.38306  -2.466    -1.58979 
 H                     3.34134  -2.29916  -0.1837 
 H                     2.6641   -2.805    -1.73185 
 C                     8.01437   0.48932  -3.45292 
 C                     6.75235   0.16161  -5.59206 
 H                     6.32451   1.17355  -5.60704 
 H                     6.04051  -0.48415  -6.11692 
 C                     7.89335   1.08529  -2.25765 
 H                     8.72835   1.65959  -1.85639 
 C                     7.20922  -1.80983  -4.05276 
 H                     6.5103   -2.39556  -4.6577 
 H                     8.21309  -2.01045  -4.43592 
 H                     7.1743   -2.18937  -3.02697 
 C                     9.31667   0.58511  -4.22528 
 H                     10.01521   1.25096  -3.70916 
 H                     9.79748  -0.40563  -4.26851 
 C                     8.07665   0.18691  -6.37092 
 H                     8.48133  -0.83079  -6.47539 
 H                     7.90601   0.56177  -7.38651 
 C                    -0.30082  -0.64764  -2.01915 
 H                     0.18277  -1.30635  -2.7518 
 H                    -1.27478  -1.11166  -1.80572 
 C                     9.11271   1.06502  -5.66993 
 H                     8.75387   2.10136  -5.65334 
 C                     0.4219   -2.07561  -0.08371 
 H                     0.71339  -2.85892  -0.78966 
 H                    -0.61465  -2.27622   0.2104 
 H                     1.04017  -2.18547   0.81192 
 C                    -0.5659    0.71906  -2.67977 
 H                     0.38071   1.20026  -2.9575 
 H                    -1.0909    0.52895  -3.62412 
 C                    -1.39226   1.69138  -1.82392 
 H                    -0.86361   1.8826   -0.88095 
 H                    -2.34411   1.21209  -1.54635 
 C                    -1.69527   3.05264  -2.48501 
 H                    -0.7358    3.48553  -2.80845 
 C                    -2.32367   4.01757  -1.46686 
 H                    -3.28482   3.63081  -1.1044 
 H                    -2.5094    5.00153  -1.91239 
 H                    -1.67306   4.16039  -0.59648 
 C                    -2.59534   2.92292  -3.72475 
 H                    -3.56083   2.47375  -3.45753 
 H                    -2.79808   3.90595  -4.16488 
 H                    -2.14206   2.30184  -4.50368 
 
 NAtoms=     75 NQM=       75 NQMF=       0 NMMI=      0 NMMIF=      0
                NMic=       0 NMicF=      0.
                    Isotopes and Nuclear Properties:
 (Nuclear quadrupole moments (NQMom) in fm**2, nuclear magnetic moments (NMagM)
  in nuclear magnetons)

  Atom         1           2           3           4           5           6           7           8           9          10
 IAtWgt=          16           1          16           1          12          12           1          12           1          12
 AtmWgt=  15.9949146   1.0078250  15.9949146   1.0078250  12.0000000  12.0000000   1.0078250  12.0000000   1.0078250  12.0000000
 NucSpn=           0           1           0           1           0           0           1           0           1           0
 AtZEff=   0.0000000   0.0000000   0.0000000   0.0000000   0.0000000   0.0000000   0.0000000   0.0000000   0.0000000   0.0000000
 NQMom=    0.0000000   0.0000000   0.0000000   0.0000000   0.0000000   0.0000000   0.0000000   0.0000000   0.0000000   0.0000000
 NMagM=    0.0000000   2.7928460   0.0000000   2.7928460   0.0000000   0.0000000   2.7928460   0.0000000   2.7928460   0.0000000
 AtZNuc=   8.0000000   1.0000000   8.0000000   1.0000000   6.0000000   6.0000000   1.0000000   6.0000000   1.0000000   6.0000000

  Atom        11          12          13          14          15          16          17          18          19          20
 IAtWgt=           1          12           1          12           1           1          12          12           1           1
 AtmWgt=   1.0078250  12.0000000   1.0078250  12.0000000   1.0078250   1.0078250  12.0000000  12.0000000   1.0078250   1.0078250
 NucSpn=           1           0           1           0           1           1           0           0           1           1
 AtZEff=   0.0000000   0.0000000   0.0000000   0.0000000   0.0000000   0.0000000   0.0000000   0.0000000   0.0000000   0.0000000
 NQMom=    0.0000000   0.0000000   0.0000000   0.0000000   0.0000000   0.0000000   0.0000000   0.0000000   0.0000000   0.0000000
 NMagM=    2.7928460   0.0000000   2.7928460   0.0000000   2.7928460   2.7928460   0.0000000   0.0000000   2.7928460   2.7928460
 AtZNuc=   1.0000000   6.0000000   1.0000000   6.0000000   1.0000000   1.0000000   6.0000000   6.0000000   1.0000000   1.0000000

  Atom        21          22          23          24          25          26          27          28          29          30
 IAtWgt=          12           1           1          12           1           1          12           1          12           1
 AtmWgt=  12.0000000   1.0078250   1.0078250  12.0000000   1.0078250   1.0078250  12.0000000   1.0078250  12.0000000   1.0078250
 NucSpn=           0           1           1           0           1           1           0           1           0           1
 AtZEff=   0.0000000   0.0000000   0.0000000   0.0000000   0.0000000   0.0000000   0.0000000   0.0000000   0.0000000   0.0000000
 NQMom=    0.0000000   0.0000000   0.0000000   0.0000000   0.0000000   0.0000000   0.0000000   0.0000000   0.0000000   0.0000000
 NMagM=    0.0000000   2.7928460   2.7928460   0.0000000   2.7928460   2.7928460   0.0000000   2.7928460   0.0000000   2.7928460
 AtZNuc=   6.0000000   1.0000000   1.0000000   6.0000000   1.0000000   1.0000000   6.0000000   1.0000000   6.0000000   1.0000000

  Atom        31          32          33          34          35          36          37          38          39          40
 IAtWgt=          12           1           1           1          12          12           1           1          12           1
 AtmWgt=  12.0000000   1.0078250   1.0078250   1.0078250  12.0000000  12.0000000   1.0078250   1.0078250  12.0000000   1.0078250
 NucSpn=           0           1           1           1           0           0           1           1           0           1
 AtZEff=   0.0000000   0.0000000   0.0000000   0.0000000   0.0000000   0.0000000   0.0000000   0.0000000   0.0000000   0.0000000
 NQMom=    0.0000000   0.0000000   0.0000000   0.0000000   0.0000000   0.0000000   0.0000000   0.0000000   0.0000000   0.0000000
 NMagM=    0.0000000   2.7928460   2.7928460   2.7928460   0.0000000   0.0000000   2.7928460   2.7928460   0.0000000   2.7928460
 AtZNuc=   6.0000000   1.0000000   1.0000000   1.0000000   6.0000000   6.0000000   1.0000000   1.0000000   6.0000000   1.0000000

  Atom        41          42          43          44          45          46          47          48          49          50
 IAtWgt=          12           1           1           1          12           1           1          12           1           1
 AtmWgt=  12.0000000   1.0078250   1.0078250   1.0078250  12.0000000   1.0078250   1.0078250  12.0000000   1.0078250   1.0078250
 NucSpn=           0           1           1           1           0           1           1           0           1           1
 AtZEff=   0.0000000   0.0000000   0.0000000   0.0000000   0.0000000   0.0000000   0.0000000   0.0000000   0.0000000   0.0000000
 NQMom=    0.0000000   0.0000000   0.0000000   0.0000000   0.0000000   0.0000000   0.0000000   0.0000000   0.0000000   0.0000000
 NMagM=    0.0000000   2.7928460   2.7928460   2.7928460   0.0000000   2.7928460   2.7928460   0.0000000   2.7928460   2.7928460
 AtZNuc=   6.0000000   1.0000000   1.0000000   1.0000000   6.0000000   1.0000000   1.0000000   6.0000000   1.0000000   1.0000000

  Atom        51          52          53          54          55          56          57          58          59          60
 IAtWgt=          12           1           1          12           1          12           1           1           1          12
 AtmWgt=  12.0000000   1.0078250   1.0078250  12.0000000   1.0078250  12.0000000   1.0078250   1.0078250   1.0078250  12.0000000
 NucSpn=           0           1           1           0           1           0           1           1           1           0
 AtZEff=   0.0000000   0.0000000   0.0000000   0.0000000   0.0000000   0.0000000   0.0000000   0.0000000   0.0000000   0.0000000
 NQMom=    0.0000000   0.0000000   0.0000000   0.0000000   0.0000000   0.0000000   0.0000000   0.0000000   0.0000000   0.0000000
 NMagM=    0.0000000   2.7928460   2.7928460   0.0000000   2.7928460   0.0000000   2.7928460   2.7928460   2.7928460   0.0000000
 AtZNuc=   6.0000000   1.0000000   1.0000000   6.0000000   1.0000000   6.0000000   1.0000000   1.0000000   1.0000000   6.0000000

  Atom        61          62          63          64          65          66          67          68          69          70
 IAtWgt=           1           1          12           1           1          12           1          12           1           1
 AtmWgt=   1.0078250   1.0078250  12.0000000   1.0078250   1.0078250  12.0000000   1.0078250  12.0000000   1.0078250   1.0078250
 NucSpn=           1           1           0           1           1           0           1           0           1           1
 AtZEff=   0.0000000   0.0000000   0.0000000   0.0000000   0.0000000   0.0000000   0.0000000   0.0000000   0.0000000   0.0000000
 NQMom=    0.0000000   0.0000000   0.0000000   0.0000000   0.0000000   0.0000000   0.0000000   0.0000000   0.0000000   0.0000000
 NMagM=    2.7928460   2.7928460   0.0000000   2.7928460   2.7928460   0.0000000   2.7928460   0.0000000   2.7928460   2.7928460
 AtZNuc=   1.0000000   1.0000000   6.0000000   1.0000000   1.0000000   6.0000000   1.0000000   6.0000000   1.0000000   1.0000000

  Atom        71          72          73          74          75
 IAtWgt=           1          12           1           1           1
 AtmWgt=   1.0078250  12.0000000   1.0078250   1.0078250   1.0078250
 NucSpn=           1           0           1           1           1
 AtZEff=   0.0000000   0.0000000   0.0000000   0.0000000   0.0000000
 NQMom=    0.0000000   0.0000000   0.0000000   0.0000000   0.0000000
 NMagM=    2.7928460   0.0000000   2.7928460   2.7928460   2.7928460
 AtZNuc=   1.0000000   6.0000000   1.0000000   1.0000000   1.0000000
 Leave Link  101 at Thu May 18 13:22:04 2017, MaxMem=    33554432 cpu:         1.0
 (Enter /home/michal/g09/l202.exe)
 Symmetry turned off by external request.
 Stoichiometry    C27H46O2
 Framework group  C1[X(C27H46O2)]
 Deg. of freedom   219
 Full point group                 C1      NOp   1
                          Input orientation:                          
 ---------------------------------------------------------------------
 Center     Atomic      Atomic             Coordinates (Angstroms)
 Number     Number       Type             X           Y           Z
 ---------------------------------------------------------------------
      1          8           0        7.120779    0.781118    0.000000
      2          1           0        7.691892    0.000000    0.000000
      3          8           0       10.348373    1.134415   -6.386453
      4          1           0       10.717107    0.242561   -6.455691
      5          6           0        3.113915   -0.665678   -1.648056
      6          6           0        4.266579    0.278124   -1.190488
      7          1           0        3.982595    1.277609   -1.562131
      8          6           0        5.640777   -0.008082   -1.821915
      9          1           0        5.997263   -0.998381   -1.503146
     10          6           0        5.519869    0.022605   -3.372417
     11          1           0        5.284113    1.068325   -3.630390
     12          6           0        1.939671   -0.043483   -0.814938
     13          1           0        1.777010    0.941570   -1.274340
     14          6           0        2.998917   -0.530910   -3.177500
     15          1           0        2.685860    0.493393   -3.423778
     16          1           0        2.229235   -1.199805   -3.580369
     17          6           0        6.870460   -0.295906   -4.104257
     18          6           0        4.124489    0.326523    0.342744
     19          1           0        4.567799    1.227904    0.772041
     20          1           0        4.646789   -0.517988    0.804667
     21          6           0        4.336431   -0.835274   -3.878537
     22          1           0        4.566562   -1.898422   -3.751100
     23          1           0        4.207050   -0.681357   -4.955519
     24          6           0        2.590216    0.236146    0.576632
     25          1           0        2.353413   -0.557965    1.292281
     26          1           0        2.186674    1.161173    1.003429
     27          6           0        6.692729    1.017232   -1.355982
     28          1           0        6.223306    2.009876   -1.303226
     29          6           0        0.518525   -0.667368   -0.705065
     30          1           0        0.000000    0.000000    0.000000
     31          6           0        3.392913   -2.137449   -1.263153
     32          1           0        4.383055   -2.466003   -1.589787
     33          1           0        3.341344   -2.299158   -0.183698
     34          1           0        2.664098   -2.804998   -1.731854
     35          6           0        8.014371    0.489317   -3.452916
     36          6           0        6.752346    0.161610   -5.592056
     37          1           0        6.324506    1.173547   -5.607043
     38          1           0        6.040508   -0.484147   -6.116920
     39          6           0        7.893346    1.085294   -2.257652
     40          1           0        8.728353    1.659593   -1.856394
     41          6           0        7.209215   -1.809829   -4.052755
     42          1           0        6.510297   -2.395562   -4.657704
     43          1           0        8.213090   -2.010447   -4.435924
     44          1           0        7.174298   -2.189372   -3.026968
     45          6           0        9.316665    0.585109   -4.225277
     46          1           0       10.015212    1.250956   -3.709159
     47          1           0        9.797482   -0.405633   -4.268510
     48          6           0        8.076645    0.186911   -6.370923
     49          1           0        8.481331   -0.830787   -6.475391
     50          1           0        7.906008    0.561765   -7.386508
     51          6           0       -0.300824   -0.647640   -2.019147
     52          1           0        0.182770   -1.306349   -2.751804
     53          1           0       -1.274781   -1.111657   -1.805725
     54          6           0        9.112713    1.065018   -5.669929
     55          1           0        8.753868    2.101362   -5.653337
     56          6           0        0.421901   -2.075614   -0.083713
     57          1           0        0.713387   -2.858916   -0.789660
     58          1           0       -0.614655   -2.276215    0.210397
     59          1           0        1.040168   -2.185472    0.811915
     60          6           0       -0.565900    0.719055   -2.679771
     61          1           0        0.380714    1.200257   -2.957500
     62          1           0       -1.090901    0.528955   -3.624123
     63          6           0       -1.392255    1.691384   -1.823921
     64          1           0       -0.863611    1.882602   -0.880952
     65          1           0       -2.344106    1.212092   -1.546354
     66          6           0       -1.695272    3.052635   -2.485011
     67          1           0       -0.735802    3.485533   -2.808448
     68          6           0       -2.323667    4.017571   -1.466857
     69          1           0       -3.284819    3.630812   -1.104397
     70          1           0       -2.509399    5.001529   -1.912392
     71          1           0       -1.673059    4.160391   -0.596476
     72          6           0       -2.595336    2.922922   -3.724754
     73          1           0       -3.560829    2.473755   -3.457527
     74          1           0       -2.798076    3.905947   -4.164879
     75          1           0       -2.142059    2.301837   -4.503684
 ---------------------------------------------------------------------
 Rotational constants (GHZ):      0.2617338      0.0719267      0.0659178
 Leave Link  202 at Thu May 18 13:22:04 2017, MaxMem=    33554432 cpu:         0.0
 (Enter /home/michal/g09/l301.exe)
 Standard basis: 6-31G(d) (6D, 7F)
 Ernie: Thresh=  0.10000D-02 Tol=  0.10000D-05 Strict=F.
 AO basis set in the form of general basis input (Overlap normalization):
      1 0
 S   6 1.00       0.000000000000
      0.5484671660D+04  0.1831074430D-02
      0.8252349460D+03  0.1395017220D-01
      0.1880469580D+03  0.6844507810D-01
      0.5296450000D+02  0.2327143360D+00
      0.1689757040D+02  0.4701928980D+00
      0.5799635340D+01  0.3585208530D+00
 SP   3 1.00       0.000000000000
      0.1553961625D+02 -0.1107775495D+00  0.7087426823D-01
      0.3599933586D+01 -0.1480262627D+00  0.3397528391D+00
      0.1013761750D+01  0.1130767015D+01  0.7271585773D+00
 SP   1 1.00       0.000000000000
      0.2700058226D+00  0.1000000000D+01  0.1000000000D+01
 D   1 1.00       0.000000000000
      0.8000000000D+00  0.1000000000D+01
 ****
      2 0
 S   3 1.00       0.000000000000
      0.1873113696D+02  0.3349460434D-01
      0.2825394365D+01  0.2347269535D+00
      0.6401216923D+00  0.8137573261D+00
 S   1 1.00       0.000000000000
      0.1612777588D+00  0.1000000000D+01
 ****
      3 0
 S   6 1.00       0.000000000000
      0.5484671660D+04  0.1831074430D-02
      0.8252349460D+03  0.1395017220D-01
      0.1880469580D+03  0.6844507810D-01
      0.5296450000D+02  0.2327143360D+00
      0.1689757040D+02  0.4701928980D+00
      0.5799635340D+01  0.3585208530D+00
 SP   3 1.00       0.000000000000
      0.1553961625D+02 -0.1107775495D+00  0.7087426823D-01
      0.3599933586D+01 -0.1480262627D+00  0.3397528391D+00
      0.1013761750D+01  0.1130767015D+01  0.7271585773D+00
 SP   1 1.00       0.000000000000
      0.2700058226D+00  0.1000000000D+01  0.1000000000D+01
 D   1 1.00       0.000000000000
      0.8000000000D+00  0.1000000000D+01
 ****
      4 0
 S   3 1.00       0.000000000000
      0.1873113696D+02  0.3349460434D-01
      0.2825394365D+01  0.2347269535D+00
      0.6401216923D+00  0.8137573261D+00
 S   1 1.00       0.000000000000
      0.1612777588D+00  0.1000000000D+01
 ****
      5 0
 S   6 1.00       0.000000000000
      0.3047524880D+04  0.1834737132D-02
      0.4573695180D+03  0.1403732281D-01
      0.1039486850D+03  0.6884262226D-01
      0.2921015530D+02  0.2321844432D+00
      0.9286662960D+01  0.4679413484D+00
      0.3163926960D+01  0.3623119853D+00
 SP   3 1.00       0.000000000000
      0.7868272350D+01 -0.1193324198D+00  0.6899906659D-01
      0.1881288540D+01 -0.1608541517D+00  0.3164239610D+00
      0.5442492580D+00  0.1143456438D+01  0.7443082909D+00
 SP   1 1.00       0.000000000000
      0.1687144782D+00  0.1000000000D+01  0.1000000000D+01
 D   1 1.00       0.000000000000
      0.8000000000D+00  0.1000000000D+01
 ****
      6 0
 S   6 1.00       0.000000000000
      0.3047524880D+04  0.1834737132D-02
      0.4573695180D+03  0.1403732281D-01
      0.1039486850D+03  0.6884262226D-01
      0.2921015530D+02  0.2321844432D+00
      0.9286662960D+01  0.4679413484D+00
      0.3163926960D+01  0.3623119853D+00
 SP   3 1.00       0.000000000000
      0.7868272350D+01 -0.1193324198D+00  0.6899906659D-01
      0.1881288540D+01 -0.1608541517D+00  0.3164239610D+00
      0.5442492580D+00  0.1143456438D+01  0.7443082909D+00
 SP   1 1.00       0.000000000000
      0.1687144782D+00  0.1000000000D+01  0.1000000000D+01
 D   1 1.00       0.000000000000
      0.8000000000D+00  0.1000000000D+01
 ****
      7 0
 S   3 1.00       0.000000000000
      0.1873113696D+02  0.3349460434D-01
      0.2825394365D+01  0.2347269535D+00
      0.6401216923D+00  0.8137573261D+00
 S   1 1.00       0.000000000000
      0.1612777588D+00  0.1000000000D+01
 ****
      8 0
 S   6 1.00       0.000000000000
      0.3047524880D+04  0.1834737132D-02
      0.4573695180D+03  0.1403732281D-01
      0.1039486850D+03  0.6884262226D-01
      0.2921015530D+02  0.2321844432D+00
      0.9286662960D+01  0.4679413484D+00
      0.3163926960D+01  0.3623119853D+00
 SP   3 1.00       0.000000000000
      0.7868272350D+01 -0.1193324198D+00  0.6899906659D-01
      0.1881288540D+01 -0.1608541517D+00  0.3164239610D+00
      0.5442492580D+00  0.1143456438D+01  0.7443082909D+00
 SP   1 1.00       0.000000000000
      0.1687144782D+00  0.1000000000D+01  0.1000000000D+01
 D   1 1.00       0.000000000000
      0.8000000000D+00  0.1000000000D+01
 ****
      9 0
 S   3 1.00       0.000000000000
      0.1873113696D+02  0.3349460434D-01
      0.2825394365D+01  0.2347269535D+00
      0.6401216923D+00  0.8137573261D+00
 S   1 1.00       0.000000000000
      0.1612777588D+00  0.1000000000D+01
 ****
     10 0
 S   6 1.00       0.000000000000
      0.3047524880D+04  0.1834737132D-02
      0.4573695180D+03  0.1403732281D-01
      0.1039486850D+03  0.6884262226D-01
      0.2921015530D+02  0.2321844432D+00
      0.9286662960D+01  0.4679413484D+00
      0.3163926960D+01  0.3623119853D+00
 SP   3 1.00       0.000000000000
      0.7868272350D+01 -0.1193324198D+00  0.6899906659D-01
      0.1881288540D+01 -0.1608541517D+00  0.3164239610D+00
      0.5442492580D+00  0.1143456438D+01  0.7443082909D+00
 SP   1 1.00       0.000000000000
      0.1687144782D+00  0.1000000000D+01  0.1000000000D+01
 D   1 1.00       0.000000000000
      0.8000000000D+00  0.1000000000D+01
 ****
     11 0
 S   3 1.00       0.000000000000
      0.1873113696D+02  0.3349460434D-01
      0.2825394365D+01  0.2347269535D+00
      0.6401216923D+00  0.8137573261D+00
 S   1 1.00       0.000000000000
      0.1612777588D+00  0.1000000000D+01
 ****
     12 0
 S   6 1.00       0.000000000000
      0.3047524880D+04  0.1834737132D-02
      0.4573695180D+03  0.1403732281D-01
      0.1039486850D+03  0.6884262226D-01
      0.2921015530D+02  0.2321844432D+00
      0.9286662960D+01  0.4679413484D+00
      0.3163926960D+01  0.3623119853D+00
 SP   3 1.00       0.000000000000
      0.7868272350D+01 -0.1193324198D+00  0.6899906659D-01
      0.1881288540D+01 -0.1608541517D+00  0.3164239610D+00
      0.5442492580D+00  0.1143456438D+01  0.7443082909D+00
 SP   1 1.00       0.000000000000
      0.1687144782D+00  0.1000000000D+01  0.1000000000D+01
 D   1 1.00       0.000000000000
      0.8000000000D+00  0.1000000000D+01
 ****
     13 0
 S   3 1.00       0.000000000000
      0.1873113696D+02  0.3349460434D-01
      0.2825394365D+01  0.2347269535D+00
      0.6401216923D+00  0.8137573261D+00
 S   1 1.00       0.000000000000
      0.1612777588D+00  0.1000000000D+01
 ****
     14 0
 S   6 1.00       0.000000000000
      0.3047524880D+04  0.1834737132D-02
      0.4573695180D+03  0.1403732281D-01
      0.1039486850D+03  0.6884262226D-01
      0.2921015530D+02  0.2321844432D+00
      0.9286662960D+01  0.4679413484D+00
      0.3163926960D+01  0.3623119853D+00
 SP   3 1.00       0.000000000000
      0.7868272350D+01 -0.1193324198D+00  0.6899906659D-01
      0.1881288540D+01 -0.1608541517D+00  0.3164239610D+00
      0.5442492580D+00  0.1143456438D+01  0.7443082909D+00
 SP   1 1.00       0.000000000000
      0.1687144782D+00  0.1000000000D+01  0.1000000000D+01
 D   1 1.00       0.000000000000
      0.8000000000D+00  0.1000000000D+01
 ****
     15 0
 S   3 1.00       0.000000000000
      0.1873113696D+02  0.3349460434D-01
      0.2825394365D+01  0.2347269535D+00
      0.6401216923D+00  0.8137573261D+00
 S   1 1.00       0.000000000000
      0.1612777588D+00  0.1000000000D+01
 ****
     16 0
 S   3 1.00       0.000000000000
      0.1873113696D+02  0.3349460434D-01
      0.2825394365D+01  0.2347269535D+00
      0.6401216923D+00  0.8137573261D+00
 S   1 1.00       0.000000000000
      0.1612777588D+00  0.1000000000D+01
 ****
     17 0
 S   6 1.00       0.000000000000
      0.3047524880D+04  0.1834737132D-02
      0.4573695180D+03  0.1403732281D-01
      0.1039486850D+03  0.6884262226D-01
      0.2921015530D+02  0.2321844432D+00
      0.9286662960D+01  0.4679413484D+00
      0.3163926960D+01  0.3623119853D+00
 SP   3 1.00       0.000000000000
      0.7868272350D+01 -0.1193324198D+00  0.6899906659D-01
      0.1881288540D+01 -0.1608541517D+00  0.3164239610D+00
      0.5442492580D+00  0.1143456438D+01  0.7443082909D+00
 SP   1 1.00       0.000000000000
      0.1687144782D+00  0.1000000000D+01  0.1000000000D+01
 D   1 1.00       0.000000000000
      0.8000000000D+00  0.1000000000D+01
 ****
     18 0
 S   6 1.00       0.000000000000
      0.3047524880D+04  0.1834737132D-02
      0.4573695180D+03  0.1403732281D-01
      0.1039486850D+03  0.6884262226D-01
      0.2921015530D+02  0.2321844432D+00
      0.9286662960D+01  0.4679413484D+00
      0.3163926960D+01  0.3623119853D+00
 SP   3 1.00       0.000000000000
      0.7868272350D+01 -0.1193324198D+00  0.6899906659D-01
      0.1881288540D+01 -0.1608541517D+00  0.3164239610D+00
      0.5442492580D+00  0.1143456438D+01  0.7443082909D+00
 SP   1 1.00       0.000000000000
      0.1687144782D+00  0.1000000000D+01  0.1000000000D+01
 D   1 1.00       0.000000000000
      0.8000000000D+00  0.1000000000D+01
 ****
     19 0
 S   3 1.00       0.000000000000
      0.1873113696D+02  0.3349460434D-01
      0.2825394365D+01  0.2347269535D+00
      0.6401216923D+00  0.8137573261D+00
 S   1 1.00       0.000000000000
      0.1612777588D+00  0.1000000000D+01
 ****
     20 0
 S   3 1.00       0.000000000000
      0.1873113696D+02  0.3349460434D-01
      0.2825394365D+01  0.2347269535D+00
      0.6401216923D+00  0.8137573261D+00
 S   1 1.00       0.000000000000
      0.1612777588D+00  0.1000000000D+01
 ****
     21 0
 S   6 1.00       0.000000000000
      0.3047524880D+04  0.1834737132D-02
      0.4573695180D+03  0.1403732281D-01
      0.1039486850D+03  0.6884262226D-01
      0.2921015530D+02  0.2321844432D+00
      0.9286662960D+01  0.4679413484D+00
      0.3163926960D+01  0.3623119853D+00
 SP   3 1.00       0.000000000000
      0.7868272350D+01 -0.1193324198D+00  0.6899906659D-01
      0.1881288540D+01 -0.1608541517D+00  0.3164239610D+00
      0.5442492580D+00  0.1143456438D+01  0.7443082909D+00
 SP   1 1.00       0.000000000000
      0.1687144782D+00  0.1000000000D+01  0.1000000000D+01
 D   1 1.00       0.000000000000
      0.8000000000D+00  0.1000000000D+01
 ****
     22 0
 S   3 1.00       0.000000000000
      0.1873113696D+02  0.3349460434D-01
      0.2825394365D+01  0.2347269535D+00
      0.6401216923D+00  0.8137573261D+00
 S   1 1.00       0.000000000000
      0.1612777588D+00  0.1000000000D+01
 ****
     23 0
 S   3 1.00       0.000000000000
      0.1873113696D+02  0.3349460434D-01
      0.2825394365D+01  0.2347269535D+00
      0.6401216923D+00  0.8137573261D+00
 S   1 1.00       0.000000000000
      0.1612777588D+00  0.1000000000D+01
 ****
     24 0
 S   6 1.00       0.000000000000
      0.3047524880D+04  0.1834737132D-02
      0.4573695180D+03  0.1403732281D-01
      0.1039486850D+03  0.6884262226D-01
      0.2921015530D+02  0.2321844432D+00
      0.9286662960D+01  0.4679413484D+00
      0.3163926960D+01  0.3623119853D+00
 SP   3 1.00       0.000000000000
      0.7868272350D+01 -0.1193324198D+00  0.6899906659D-01
      0.1881288540D+01 -0.1608541517D+00  0.3164239610D+00
      0.5442492580D+00  0.1143456438D+01  0.7443082909D+00
 SP   1 1.00       0.000000000000
      0.1687144782D+00  0.1000000000D+01  0.1000000000D+01
 D   1 1.00       0.000000000000
      0.8000000000D+00  0.1000000000D+01
 ****
     25 0
 S   3 1.00       0.000000000000
      0.1873113696D+02  0.3349460434D-01
      0.2825394365D+01  0.2347269535D+00
      0.6401216923D+00  0.8137573261D+00
 S   1 1.00       0.000000000000
      0.1612777588D+00  0.1000000000D+01
 ****
     26 0
 S   3 1.00       0.000000000000
      0.1873113696D+02  0.3349460434D-01
      0.2825394365D+01  0.2347269535D+00
      0.6401216923D+00  0.8137573261D+00
 S   1 1.00       0.000000000000
      0.1612777588D+00  0.1000000000D+01
 ****
     27 0
 S   6 1.00       0.000000000000
      0.3047524880D+04  0.1834737132D-02
      0.4573695180D+03  0.1403732281D-01
      0.1039486850D+03  0.6884262226D-01
      0.2921015530D+02  0.2321844432D+00
      0.9286662960D+01  0.4679413484D+00
      0.3163926960D+01  0.3623119853D+00
 SP   3 1.00       0.000000000000
      0.7868272350D+01 -0.1193324198D+00  0.6899906659D-01
      0.1881288540D+01 -0.1608541517D+00  0.3164239610D+00
      0.5442492580D+00  0.1143456438D+01  0.7443082909D+00
 SP   1 1.00       0.000000000000
      0.1687144782D+00  0.1000000000D+01  0.1000000000D+01
 D   1 1.00       0.000000000000
      0.8000000000D+00  0.1000000000D+01
 ****
     28 0
 S   3 1.00       0.000000000000
      0.1873113696D+02  0.3349460434D-01
      0.2825394365D+01  0.2347269535D+00
      0.6401216923D+00  0.8137573261D+00
 S   1 1.00       0.000000000000
      0.1612777588D+00  0.1000000000D+01
 ****
     29 0
 S   6 1.00       0.000000000000
      0.3047524880D+04  0.1834737132D-02
      0.4573695180D+03  0.1403732281D-01
      0.1039486850D+03  0.6884262226D-01
      0.2921015530D+02  0.2321844432D+00
      0.9286662960D+01  0.4679413484D+00
      0.3163926960D+01  0.3623119853D+00
 SP   3 1.00       0.000000000000
      0.7868272350D+01 -0.1193324198D+00  0.6899906659D-01
      0.1881288540D+01 -0.1608541517D+00  0.3164239610D+00
      0.5442492580D+00  0.1143456438D+01  0.7443082909D+00
 SP   1 1.00       0.000000000000
      0.1687144782D+00  0.1000000000D+01  0.1000000000D+01
 D   1 1.00       0.000000000000
      0.8000000000D+00  0.1000000000D+01
 ****
     30 0
 S   3 1.00       0.000000000000
      0.1873113696D+02  0.3349460434D-01
      0.2825394365D+01  0.2347269535D+00
      0.6401216923D+00  0.8137573261D+00
 S   1 1.00       0.000000000000
      0.1612777588D+00  0.1000000000D+01
 ****
     31 0
 S   6 1.00       0.000000000000
      0.3047524880D+04  0.1834737132D-02
      0.4573695180D+03  0.1403732281D-01
      0.1039486850D+03  0.6884262226D-01
      0.2921015530D+02  0.2321844432D+00
      0.9286662960D+01  0.4679413484D+00
      0.3163926960D+01  0.3623119853D+00
 SP   3 1.00       0.000000000000
      0.7868272350D+01 -0.1193324198D+00  0.6899906659D-01
      0.1881288540D+01 -0.1608541517D+00  0.3164239610D+00
      0.5442492580D+00  0.1143456438D+01  0.7443082909D+00
 SP   1 1.00       0.000000000000
      0.1687144782D+00  0.1000000000D+01  0.1000000000D+01
 D   1 1.00       0.000000000000
      0.8000000000D+00  0.1000000000D+01
 ****
     32 0
 S   3 1.00       0.000000000000
      0.1873113696D+02  0.3349460434D-01
      0.2825394365D+01  0.2347269535D+00
      0.6401216923D+00  0.8137573261D+00
 S   1 1.00       0.000000000000
      0.1612777588D+00  0.1000000000D+01
 ****
     33 0
 S   3 1.00       0.000000000000
      0.1873113696D+02  0.3349460434D-01
      0.2825394365D+01  0.2347269535D+00
      0.6401216923D+00  0.8137573261D+00
 S   1 1.00       0.000000000000
      0.1612777588D+00  0.1000000000D+01
 ****
     34 0
 S   3 1.00       0.000000000000
      0.1873113696D+02  0.3349460434D-01
      0.2825394365D+01  0.2347269535D+00
      0.6401216923D+00  0.8137573261D+00
 S   1 1.00       0.000000000000
      0.1612777588D+00  0.1000000000D+01
 ****
     35 0
 S   6 1.00       0.000000000000
      0.3047524880D+04  0.1834737132D-02
      0.4573695180D+03  0.1403732281D-01
      0.1039486850D+03  0.6884262226D-01
      0.2921015530D+02  0.2321844432D+00
      0.9286662960D+01  0.4679413484D+00
      0.3163926960D+01  0.3623119853D+00
 SP   3 1.00       0.000000000000
      0.7868272350D+01 -0.1193324198D+00  0.6899906659D-01
      0.1881288540D+01 -0.1608541517D+00  0.3164239610D+00
      0.5442492580D+00  0.1143456438D+01  0.7443082909D+00
 SP   1 1.00       0.000000000000
      0.1687144782D+00  0.1000000000D+01  0.1000000000D+01
 D   1 1.00       0.000000000000
      0.8000000000D+00  0.1000000000D+01
 ****
     36 0
 S   6 1.00       0.000000000000
      0.3047524880D+04  0.1834737132D-02
      0.4573695180D+03  0.1403732281D-01
      0.1039486850D+03  0.6884262226D-01
      0.2921015530D+02  0.2321844432D+00
      0.9286662960D+01  0.4679413484D+00
      0.3163926960D+01  0.3623119853D+00
 SP   3 1.00       0.000000000000
      0.7868272350D+01 -0.1193324198D+00  0.6899906659D-01
      0.1881288540D+01 -0.1608541517D+00  0.3164239610D+00
      0.5442492580D+00  0.1143456438D+01  0.7443082909D+00
 SP   1 1.00       0.000000000000
      0.1687144782D+00  0.1000000000D+01  0.1000000000D+01
 D   1 1.00       0.000000000000
      0.8000000000D+00  0.1000000000D+01
 ****
     37 0
 S   3 1.00       0.000000000000
      0.1873113696D+02  0.3349460434D-01
      0.2825394365D+01  0.2347269535D+00
      0.6401216923D+00  0.8137573261D+00
 S   1 1.00       0.000000000000
      0.1612777588D+00  0.1000000000D+01
 ****
     38 0
 S   3 1.00       0.000000000000
      0.1873113696D+02  0.3349460434D-01
      0.2825394365D+01  0.2347269535D+00
      0.6401216923D+00  0.8137573261D+00
 S   1 1.00       0.000000000000
      0.1612777588D+00  0.1000000000D+01
 ****
     39 0
 S   6 1.00       0.000000000000
      0.3047524880D+04  0.1834737132D-02
      0.4573695180D+03  0.1403732281D-01
      0.1039486850D+03  0.6884262226D-01
      0.2921015530D+02  0.2321844432D+00
      0.9286662960D+01  0.4679413484D+00
      0.3163926960D+01  0.3623119853D+00
 SP   3 1.00       0.000000000000
      0.7868272350D+01 -0.1193324198D+00  0.6899906659D-01
      0.1881288540D+01 -0.1608541517D+00  0.3164239610D+00
      0.5442492580D+00  0.1143456438D+01  0.7443082909D+00
 SP   1 1.00       0.000000000000
      0.1687144782D+00  0.1000000000D+01  0.1000000000D+01
 D   1 1.00       0.000000000000
      0.8000000000D+00  0.1000000000D+01
 ****
     40 0
 S   3 1.00       0.000000000000
      0.1873113696D+02  0.3349460434D-01
      0.2825394365D+01  0.2347269535D+00
      0.6401216923D+00  0.8137573261D+00
 S   1 1.00       0.000000000000
      0.1612777588D+00  0.1000000000D+01
 ****
     41 0
 S   6 1.00       0.000000000000
      0.3047524880D+04  0.1834737132D-02
      0.4573695180D+03  0.1403732281D-01
      0.1039486850D+03  0.6884262226D-01
      0.2921015530D+02  0.2321844432D+00
      0.9286662960D+01  0.4679413484D+00
      0.3163926960D+01  0.3623119853D+00
 SP   3 1.00       0.000000000000
      0.7868272350D+01 -0.1193324198D+00  0.6899906659D-01
      0.1881288540D+01 -0.1608541517D+00  0.3164239610D+00
      0.5442492580D+00  0.1143456438D+01  0.7443082909D+00
 SP   1 1.00       0.000000000000
      0.1687144782D+00  0.1000000000D+01  0.1000000000D+01
 D   1 1.00       0.000000000000
      0.8000000000D+00  0.1000000000D+01
 ****
     42 0
 S   3 1.00       0.000000000000
      0.1873113696D+02  0.3349460434D-01
      0.2825394365D+01  0.2347269535D+00
      0.6401216923D+00  0.8137573261D+00
 S   1 1.00       0.000000000000
      0.1612777588D+00  0.1000000000D+01
 ****
     43 0
 S   3 1.00       0.000000000000
      0.1873113696D+02  0.3349460434D-01
      0.2825394365D+01  0.2347269535D+00
      0.6401216923D+00  0.8137573261D+00
 S   1 1.00       0.000000000000
      0.1612777588D+00  0.1000000000D+01
 ****
     44 0
 S   3 1.00       0.000000000000
      0.1873113696D+02  0.3349460434D-01
      0.2825394365D+01  0.2347269535D+00
      0.6401216923D+00  0.8137573261D+00
 S   1 1.00       0.000000000000
      0.1612777588D+00  0.1000000000D+01
 ****
     45 0
 S   6 1.00       0.000000000000
      0.3047524880D+04  0.1834737132D-02
      0.4573695180D+03  0.1403732281D-01
      0.1039486850D+03  0.6884262226D-01
      0.2921015530D+02  0.2321844432D+00
      0.9286662960D+01  0.4679413484D+00
      0.3163926960D+01  0.3623119853D+00
 SP   3 1.00       0.000000000000
      0.7868272350D+01 -0.1193324198D+00  0.6899906659D-01
      0.1881288540D+01 -0.1608541517D+00  0.3164239610D+00
      0.5442492580D+00  0.1143456438D+01  0.7443082909D+00
 SP   1 1.00       0.000000000000
      0.1687144782D+00  0.1000000000D+01  0.1000000000D+01
 D   1 1.00       0.000000000000
      0.8000000000D+00  0.1000000000D+01
 ****
     46 0
 S   3 1.00       0.000000000000
      0.1873113696D+02  0.3349460434D-01
      0.2825394365D+01  0.2347269535D+00
      0.6401216923D+00  0.8137573261D+00
 S   1 1.00       0.000000000000
      0.1612777588D+00  0.1000000000D+01
 ****
     47 0
 S   3 1.00       0.000000000000
      0.1873113696D+02  0.3349460434D-01
      0.2825394365D+01  0.2347269535D+00
      0.6401216923D+00  0.8137573261D+00
 S   1 1.00       0.000000000000
      0.1612777588D+00  0.1000000000D+01
 ****
     48 0
 S   6 1.00       0.000000000000
      0.3047524880D+04  0.1834737132D-02
      0.4573695180D+03  0.1403732281D-01
      0.1039486850D+03  0.6884262226D-01
      0.2921015530D+02  0.2321844432D+00
      0.9286662960D+01  0.4679413484D+00
      0.3163926960D+01  0.3623119853D+00
 SP   3 1.00       0.000000000000
      0.7868272350D+01 -0.1193324198D+00  0.6899906659D-01
      0.1881288540D+01 -0.1608541517D+00  0.3164239610D+00
      0.5442492580D+00  0.1143456438D+01  0.7443082909D+00
 SP   1 1.00       0.000000000000
      0.1687144782D+00  0.1000000000D+01  0.1000000000D+01
 D   1 1.00       0.000000000000
      0.8000000000D+00  0.1000000000D+01
 ****
     49 0
 S   3 1.00       0.000000000000
      0.1873113696D+02  0.3349460434D-01
      0.2825394365D+01  0.2347269535D+00
      0.6401216923D+00  0.8137573261D+00
 S   1 1.00       0.000000000000
      0.1612777588D+00  0.1000000000D+01
 ****
     50 0
 S   3 1.00       0.000000000000
      0.1873113696D+02  0.3349460434D-01
      0.2825394365D+01  0.2347269535D+00
      0.6401216923D+00  0.8137573261D+00
 S   1 1.00       0.000000000000
      0.1612777588D+00  0.1000000000D+01
 ****
     51 0
 S   6 1.00       0.000000000000
      0.3047524880D+04  0.1834737132D-02
      0.4573695180D+03  0.1403732281D-01
      0.1039486850D+03  0.6884262226D-01
      0.2921015530D+02  0.2321844432D+00
      0.9286662960D+01  0.4679413484D+00
      0.3163926960D+01  0.3623119853D+00
 SP   3 1.00       0.000000000000
      0.7868272350D+01 -0.1193324198D+00  0.6899906659D-01
      0.1881288540D+01 -0.1608541517D+00  0.3164239610D+00
      0.5442492580D+00  0.1143456438D+01  0.7443082909D+00
 SP   1 1.00       0.000000000000
      0.1687144782D+00  0.1000000000D+01  0.1000000000D+01
 D   1 1.00       0.000000000000
      0.8000000000D+00  0.1000000000D+01
 ****
     52 0
 S   3 1.00       0.000000000000
      0.1873113696D+02  0.3349460434D-01
      0.2825394365D+01  0.2347269535D+00
      0.6401216923D+00  0.8137573261D+00
 S   1 1.00       0.000000000000
      0.1612777588D+00  0.1000000000D+01
 ****
     53 0
 S   3 1.00       0.000000000000
      0.1873113696D+02  0.3349460434D-01
      0.2825394365D+01  0.2347269535D+00
      0.6401216923D+00  0.8137573261D+00
 S   1 1.00       0.000000000000
      0.1612777588D+00  0.1000000000D+01
 ****
     54 0
 S   6 1.00       0.000000000000
      0.3047524880D+04  0.1834737132D-02
      0.4573695180D+03  0.1403732281D-01
      0.1039486850D+03  0.6884262226D-01
      0.2921015530D+02  0.2321844432D+00
      0.9286662960D+01  0.4679413484D+00
      0.3163926960D+01  0.3623119853D+00
 SP   3 1.00       0.000000000000
      0.7868272350D+01 -0.1193324198D+00  0.6899906659D-01
      0.1881288540D+01 -0.1608541517D+00  0.3164239610D+00
      0.5442492580D+00  0.1143456438D+01  0.7443082909D+00
 SP   1 1.00       0.000000000000
      0.1687144782D+00  0.1000000000D+01  0.1000000000D+01
 D   1 1.00       0.000000000000
      0.8000000000D+00  0.1000000000D+01
 ****
     55 0
 S   3 1.00       0.000000000000
      0.1873113696D+02  0.3349460434D-01
      0.2825394365D+01  0.2347269535D+00
      0.6401216923D+00  0.8137573261D+00
 S   1 1.00       0.000000000000
      0.1612777588D+00  0.1000000000D+01
 ****
     56 0
 S   6 1.00       0.000000000000
      0.3047524880D+04  0.1834737132D-02
      0.4573695180D+03  0.1403732281D-01
      0.1039486850D+03  0.6884262226D-01
      0.2921015530D+02  0.2321844432D+00
      0.9286662960D+01  0.4679413484D+00
      0.3163926960D+01  0.3623119853D+00
 SP   3 1.00       0.000000000000
      0.7868272350D+01 -0.1193324198D+00  0.6899906659D-01
      0.1881288540D+01 -0.1608541517D+00  0.3164239610D+00
      0.5442492580D+00  0.1143456438D+01  0.7443082909D+00
 SP   1 1.00       0.000000000000
      0.1687144782D+00  0.1000000000D+01  0.1000000000D+01
 D   1 1.00       0.000000000000
      0.8000000000D+00  0.1000000000D+01
 ****
     57 0
 S   3 1.00       0.000000000000
      0.1873113696D+02  0.3349460434D-01
      0.2825394365D+01  0.2347269535D+00
      0.6401216923D+00  0.8137573261D+00
 S   1 1.00       0.000000000000
      0.1612777588D+00  0.1000000000D+01
 ****
     58 0
 S   3 1.00       0.000000000000
      0.1873113696D+02  0.3349460434D-01
      0.2825394365D+01  0.2347269535D+00
      0.6401216923D+00  0.8137573261D+00
 S   1 1.00       0.000000000000
      0.1612777588D+00  0.1000000000D+01
 ****
     59 0
 S   3 1.00       0.000000000000
      0.1873113696D+02  0.3349460434D-01
      0.2825394365D+01  0.2347269535D+00
      0.6401216923D+00  0.8137573261D+00
 S   1 1.00       0.000000000000
      0.1612777588D+00  0.1000000000D+01
 ****
     60 0
 S   6 1.00       0.000000000000
      0.3047524880D+04  0.1834737132D-02
      0.4573695180D+03  0.1403732281D-01
      0.1039486850D+03  0.6884262226D-01
      0.2921015530D+02  0.2321844432D+00
      0.9286662960D+01  0.4679413484D+00
      0.3163926960D+01  0.3623119853D+00
 SP   3 1.00       0.000000000000
      0.7868272350D+01 -0.1193324198D+00  0.6899906659D-01
      0.1881288540D+01 -0.1608541517D+00  0.3164239610D+00
      0.5442492580D+00  0.1143456438D+01  0.7443082909D+00
 SP   1 1.00       0.000000000000
      0.1687144782D+00  0.1000000000D+01  0.1000000000D+01
 D   1 1.00       0.000000000000
      0.8000000000D+00  0.1000000000D+01
 ****
     61 0
 S   3 1.00       0.000000000000
      0.1873113696D+02  0.3349460434D-01
      0.2825394365D+01  0.2347269535D+00
      0.6401216923D+00  0.8137573261D+00
 S   1 1.00       0.000000000000
      0.1612777588D+00  0.1000000000D+01
 ****
     62 0
 S   3 1.00       0.000000000000
      0.1873113696D+02  0.3349460434D-01
      0.2825394365D+01  0.2347269535D+00
      0.6401216923D+00  0.8137573261D+00
 S   1 1.00       0.000000000000
      0.1612777588D+00  0.1000000000D+01
 ****
     63 0
 S   6 1.00       0.000000000000
      0.3047524880D+04  0.1834737132D-02
      0.4573695180D+03  0.1403732281D-01
      0.1039486850D+03  0.6884262226D-01
      0.2921015530D+02  0.2321844432D+00
      0.9286662960D+01  0.4679413484D+00
      0.3163926960D+01  0.3623119853D+00
 SP   3 1.00       0.000000000000
      0.7868272350D+01 -0.1193324198D+00  0.6899906659D-01
      0.1881288540D+01 -0.1608541517D+00  0.3164239610D+00
      0.5442492580D+00  0.1143456438D+01  0.7443082909D+00
 SP   1 1.00       0.000000000000
      0.1687144782D+00  0.1000000000D+01  0.1000000000D+01
 D   1 1.00       0.000000000000
      0.8000000000D+00  0.1000000000D+01
 ****
     64 0
 S   3 1.00       0.000000000000
      0.1873113696D+02  0.3349460434D-01
      0.2825394365D+01  0.2347269535D+00
      0.6401216923D+00  0.8137573261D+00
 S   1 1.00       0.000000000000
      0.1612777588D+00  0.1000000000D+01
 ****
     65 0
 S   3 1.00       0.000000000000
      0.1873113696D+02  0.3349460434D-01
      0.2825394365D+01  0.2347269535D+00
      0.6401216923D+00  0.8137573261D+00
 S   1 1.00       0.000000000000
      0.1612777588D+00  0.1000000000D+01
 ****
     66 0
 S   6 1.00       0.000000000000
      0.3047524880D+04  0.1834737132D-02
      0.4573695180D+03  0.1403732281D-01
      0.1039486850D+03  0.6884262226D-01
      0.2921015530D+02  0.2321844432D+00
      0.9286662960D+01  0.4679413484D+00
      0.3163926960D+01  0.3623119853D+00
 SP   3 1.00       0.000000000000
      0.7868272350D+01 -0.1193324198D+00  0.6899906659D-01
      0.1881288540D+01 -0.1608541517D+00  0.3164239610D+00
      0.5442492580D+00  0.1143456438D+01  0.7443082909D+00
 SP   1 1.00       0.000000000000
      0.1687144782D+00  0.1000000000D+01  0.1000000000D+01
 D   1 1.00       0.000000000000
      0.8000000000D+00  0.1000000000D+01
 ****
     67 0
 S   3 1.00       0.000000000000
      0.1873113696D+02  0.3349460434D-01
      0.2825394365D+01  0.2347269535D+00
      0.6401216923D+00  0.8137573261D+00
 S   1 1.00       0.000000000000
      0.1612777588D+00  0.1000000000D+01
 ****
     68 0
 S   6 1.00       0.000000000000
      0.3047524880D+04  0.1834737132D-02
      0.4573695180D+03  0.1403732281D-01
      0.1039486850D+03  0.6884262226D-01
      0.2921015530D+02  0.2321844432D+00
      0.9286662960D+01  0.4679413484D+00
      0.3163926960D+01  0.3623119853D+00
 SP   3 1.00       0.000000000000
      0.7868272350D+01 -0.1193324198D+00  0.6899906659D-01
      0.1881288540D+01 -0.1608541517D+00  0.3164239610D+00
      0.5442492580D+00  0.1143456438D+01  0.7443082909D+00
 SP   1 1.00       0.000000000000
      0.1687144782D+00  0.1000000000D+01  0.1000000000D+01
 D   1 1.00       0.000000000000
      0.8000000000D+00  0.1000000000D+01
 ****
     69 0
 S   3 1.00       0.000000000000
      0.1873113696D+02  0.3349460434D-01
      0.2825394365D+01  0.2347269535D+00
      0.6401216923D+00  0.8137573261D+00
 S   1 1.00       0.000000000000
      0.1612777588D+00  0.1000000000D+01
 ****
     70 0
 S   3 1.00       0.000000000000
      0.1873113696D+02  0.3349460434D-01
      0.2825394365D+01  0.2347269535D+00
      0.6401216923D+00  0.8137573261D+00
 S   1 1.00       0.000000000000
      0.1612777588D+00  0.1000000000D+01
 ****
     71 0
 S   3 1.00       0.000000000000
      0.1873113696D+02  0.3349460434D-01
      0.2825394365D+01  0.2347269535D+00
      0.6401216923D+00  0.8137573261D+00
 S   1 1.00       0.000000000000
      0.1612777588D+00  0.1000000000D+01
 ****
     72 0
 S   6 1.00       0.000000000000
      0.3047524880D+04  0.1834737132D-02
      0.4573695180D+03  0.1403732281D-01
      0.1039486850D+03  0.6884262226D-01
      0.2921015530D+02  0.2321844432D+00
      0.9286662960D+01  0.4679413484D+00
      0.3163926960D+01  0.3623119853D+00
 SP   3 1.00       0.000000000000
      0.7868272350D+01 -0.1193324198D+00  0.6899906659D-01
      0.1881288540D+01 -0.1608541517D+00  0.3164239610D+00
      0.5442492580D+00  0.1143456438D+01  0.7443082909D+00
 SP   1 1.00       0.000000000000
      0.1687144782D+00  0.1000000000D+01  0.1000000000D+01
 D   1 1.00       0.000000000000
      0.8000000000D+00  0.1000000000D+01
 ****
     73 0
 S   3 1.00       0.000000000000
      0.1873113696D+02  0.3349460434D-01
      0.2825394365D+01  0.2347269535D+00
      0.6401216923D+00  0.8137573261D+00
 S   1 1.00       0.000000000000
      0.1612777588D+00  0.1000000000D+01
 ****
     74 0
 S   3 1.00       0.000000000000
      0.1873113696D+02  0.3349460434D-01
      0.2825394365D+01  0.2347269535D+00
      0.6401216923D+00  0.8137573261D+00
 S   1 1.00       0.000000000000
      0.1612777588D+00  0.1000000000D+01
 ****
     75 0
 S   3 1.00       0.000000000000
      0.1873113696D+02  0.3349460434D-01
      0.2825394365D+01  0.2347269535D+00
      0.6401216923D+00  0.8137573261D+00
 S   1 1.00       0.000000000000
      0.1612777588D+00  0.1000000000D+01
 ****

 AO basis set (Overlap normalization):
 Atom O1       Shell     1 S   6     bf    1 -     1         13.456322673029          1.476098984084          0.000000000000
      0.5484671660D+04  0.1831074430D-02
      0.8252349460D+03  0.1395017220D-01
      0.1880469580D+03  0.6844507810D-01
      0.5296450000D+02  0.2327143360D+00
      0.1689757040D+02  0.4701928980D+00
      0.5799635340D+01  0.3585208530D+00
 Atom O1       Shell     2 SP   3    bf    2 -     5         13.456322673029          1.476098984084          0.000000000000
      0.1553961625D+02 -0.1107775495D+00  0.7087426823D-01
      0.3599933586D+01 -0.1480262627D+00  0.3397528391D+00
      0.1013761750D+01  0.1130767015D+01  0.7271585773D+00
 Atom O1       Shell     3 SP   1    bf    6 -     9         13.456322673029          1.476098984084          0.000000000000
      0.2700058226D+00  0.1000000000D+01  0.1000000000D+01
 Atom O1       Shell     4 D   1     bf   10 -    15         13.456322673029          1.476098984084          0.000000000000
      0.8000000000D+00  0.1000000000D+01
 Atom H2       Shell     5 S   3     bf   16 -    16         14.535569569398          0.000000000000          0.000000000000
      0.1873113696D+02  0.3349460434D-01
      0.2825394365D+01  0.2347269535D+00
      0.6401216923D+00  0.8137573261D+00
 Atom H2       Shell     6 S   1     bf   17 -    17         14.535569569398          0.000000000000          0.000000000000
      0.1612777588D+00  0.1000000000D+01
 Atom O3       Shell     7 S   6     bf   18 -    18         19.555590475208          2.143734237955        -12.068646488039
      0.5484671660D+04  0.1831074430D-02
      0.8252349460D+03  0.1395017220D-01
      0.1880469580D+03  0.6844507810D-01
      0.5296450000D+02  0.2327143360D+00
      0.1689757040D+02  0.4701928980D+00
      0.5799635340D+01  0.3585208530D+00
 Atom O3       Shell     8 SP   3    bf   19 -    22         19.555590475208          2.143734237955        -12.068646488039
      0.1553961625D+02 -0.1107775495D+00  0.7087426823D-01
      0.3599933586D+01 -0.1480262627D+00  0.3397528391D+00
      0.1013761750D+01  0.1130767015D+01  0.7271585773D+00
 Atom O3       Shell     9 SP   1    bf   23 -    26         19.555590475208          2.143734237955        -12.068646488039
      0.2700058226D+00  0.1000000000D+01  0.1000000000D+01
 Atom O3       Shell    10 D   1     bf   27 -    32         19.555590475208          2.143734237955        -12.068646488039
      0.8000000000D+00  0.1000000000D+01
 Atom H4       Shell    11 S   3     bf   33 -    33         20.252396599914          0.458374125081        -12.199487043672
      0.1873113696D+02  0.3349460434D-01
      0.2825394365D+01  0.2347269535D+00
      0.6401216923D+00  0.8137573261D+00
 Atom H4       Shell    12 S   1     bf   34 -    34         20.252396599914          0.458374125081        -12.199487043672
      0.1612777588D+00  0.1000000000D+01
 Atom C5       Shell    13 S   6     bf   35 -    35          5.884447136900         -1.257949585119         -3.114373660179
      0.3047524880D+04  0.1834737132D-02
      0.4573695180D+03  0.1403732281D-01
      0.1039486850D+03  0.6884262226D-01
      0.2921015530D+02  0.2321844432D+00
      0.9286662960D+01  0.4679413484D+00
      0.3163926960D+01  0.3623119853D+00
 Atom C5       Shell    14 SP   3    bf   36 -    39          5.884447136900         -1.257949585119         -3.114373660179
      0.7868272350D+01 -0.1193324198D+00  0.6899906659D-01
      0.1881288540D+01 -0.1608541517D+00  0.3164239610D+00
      0.5442492580D+00  0.1143456438D+01  0.7443082909D+00
 Atom C5       Shell    15 SP   1    bf   40 -    43          5.884447136900         -1.257949585119         -3.114373660179
      0.1687144782D+00  0.1000000000D+01  0.1000000000D+01
 Atom C5       Shell    16 D   1     bf   44 -    49          5.884447136900         -1.257949585119         -3.114373660179
      0.8000000000D+00  0.1000000000D+01
 Atom C6       Shell    17 S   6     bf   50 -    50          8.062666363444          0.525577813037         -2.249696227795
      0.3047524880D+04  0.1834737132D-02
      0.4573695180D+03  0.1403732281D-01
      0.1039486850D+03  0.6884262226D-01
      0.2921015530D+02  0.2321844432D+00
      0.9286662960D+01  0.4679413484D+00
      0.3163926960D+01  0.3623119853D+00
 Atom C6       Shell    18 SP   3    bf   51 -    54          8.062666363444          0.525577813037         -2.249696227795
      0.7868272350D+01 -0.1193324198D+00  0.6899906659D-01
      0.1881288540D+01 -0.1608541517D+00  0.3164239610D+00
      0.5442492580D+00  0.1143456438D+01  0.7443082909D+00
 Atom C6       Shell    19 SP   1    bf   55 -    58          8.062666363444          0.525577813037         -2.249696227795
      0.1687144782D+00  0.1000000000D+01  0.1000000000D+01
 Atom C6       Shell    20 D   1     bf   59 -    64          8.062666363444          0.525577813037         -2.249696227795
      0.8000000000D+00  0.1000000000D+01
 Atom H7       Shell    21 S   3     bf   65 -    65          7.526014018275          2.414330510198         -2.951998885520
      0.1873113696D+02  0.3349460434D-01
      0.2825394365D+01  0.2347269535D+00
      0.6401216923D+00  0.8137573261D+00
 Atom H7       Shell    22 S   1     bf   66 -    66          7.526014018275          2.414330510198         -2.951998885520
      0.1612777588D+00  0.1000000000D+01
 Atom C8       Shell    23 S   6     bf   67 -    67         10.659523347632         -0.015272766606         -3.442919593711
      0.3047524880D+04  0.1834737132D-02
      0.4573695180D+03  0.1403732281D-01
      0.1039486850D+03  0.6884262226D-01
      0.2921015530D+02  0.2321844432D+00
      0.9286662960D+01  0.4679413484D+00
      0.3163926960D+01  0.3623119853D+00
 Atom C8       Shell    24 SP   3    bf   68 -    71         10.659523347632         -0.015272766606         -3.442919593711
      0.7868272350D+01 -0.1193324198D+00  0.6899906659D-01
      0.1881288540D+01 -0.1608541517D+00  0.3164239610D+00
      0.5442492580D+00  0.1143456438D+01  0.7443082909D+00
 Atom C8       Shell    25 SP   1    bf   72 -    75         10.659523347632         -0.015272766606         -3.442919593711
      0.1687144782D+00  0.1000000000D+01  0.1000000000D+01
 Atom C8       Shell    26 D   1     bf   76 -    81         10.659523347632         -0.015272766606         -3.442919593711
      0.8000000000D+00  0.1000000000D+01
 Atom H9       Shell    27 S   3     bf   82 -    82         11.333184938142         -1.886667006427         -2.840533786414
      0.1873113696D+02  0.3349460434D-01
      0.2825394365D+01  0.2347269535D+00
      0.6401216923D+00  0.8137573261D+00
 Atom H9       Shell    28 S   1     bf   83 -    83         11.333184938142         -1.886667006427         -2.840533786414
      0.1612777588D+00  0.1000000000D+01
 Atom C10      Shell    29 S   6     bf   84 -    84         10.431039962412          0.042717693871         -6.372945424059
      0.3047524880D+04  0.1834737132D-02
      0.4573695180D+03  0.1403732281D-01
      0.1039486850D+03  0.6884262226D-01
      0.2921015530D+02  0.2321844432D+00
      0.9286662960D+01  0.4679413484D+00
      0.3163926960D+01  0.3623119853D+00
 Atom C10      Shell    30 SP   3    bf   85 -    88         10.431039962412          0.042717693871         -6.372945424059
      0.7868272350D+01 -0.1193324198D+00  0.6899906659D-01
      0.1881288540D+01 -0.1608541517D+00  0.3164239610D+00
      0.5442492580D+00  0.1143456438D+01  0.7443082909D+00
 Atom C10      Shell    31 SP   1    bf   89 -    92         10.431039962412          0.042717693871         -6.372945424059
      0.1687144782D+00  0.1000000000D+01  0.1000000000D+01
 Atom C10      Shell    32 D   1     bf   93 -    98         10.431039962412          0.042717693871         -6.372945424059
      0.8000000000D+00  0.1000000000D+01
 Atom H11      Shell    33 S   3     bf   99 -    99          9.985526689782          2.018842294525         -6.860442439827
      0.1873113696D+02  0.3349460434D-01
      0.2825394365D+01  0.2347269535D+00
      0.6401216923D+00  0.8137573261D+00
 Atom H11      Shell    34 S   1     bf  100 -   100          9.985526689782          2.018842294525         -6.860442439827
      0.1612777588D+00  0.1000000000D+01
 Atom C12      Shell    35 S   6     bf  101 -   101          3.665447431435         -0.082171849608         -1.540010239994
      0.3047524880D+04  0.1834737132D-02
      0.4573695180D+03  0.1403732281D-01
      0.1039486850D+03  0.6884262226D-01
      0.2921015530D+02  0.2321844432D+00
      0.9286662960D+01  0.4679413484D+00
      0.3163926960D+01  0.3623119853D+00
 Atom C12      Shell    36 SP   3    bf  102 -   105          3.665447431435         -0.082171849608         -1.540010239994
      0.7868272350D+01 -0.1193324198D+00  0.6899906659D-01
      0.1881288540D+01 -0.1608541517D+00  0.3164239610D+00
      0.5442492580D+00  0.1143456438D+01  0.7443082909D+00
 Atom C12      Shell    37 SP   1    bf  106 -   109          3.665447431435         -0.082171849608         -1.540010239994
      0.1687144782D+00  0.1000000000D+01  0.1000000000D+01
 Atom C12      Shell    38 D   1     bf  110 -   115          3.665447431435         -0.082171849608         -1.540010239994
      0.8000000000D+00  0.1000000000D+01
 Atom H13      Shell    39 S   3     bf  116 -   116          3.358062424372          1.779310058551         -2.408153278928
      0.1873113696D+02  0.3349460434D-01
      0.2825394365D+01  0.2347269535D+00
      0.6401216923D+00  0.8137573261D+00
 Atom H13      Shell    40 S   1     bf  117 -   117          3.358062424372          1.779310058551         -2.408153278928
      0.1612777588D+00  0.1000000000D+01
 Atom C14      Shell    41 S   6     bf  118 -   118          5.667132732324         -1.003275087025         -6.004604125840
      0.3047524880D+04  0.1834737132D-02
      0.4573695180D+03  0.1403732281D-01
      0.1039486850D+03  0.6884262226D-01
      0.2921015530D+02  0.2321844432D+00
      0.9286662960D+01  0.4679413484D+00
      0.3163926960D+01  0.3623119853D+00
 Atom C14      Shell    42 SP   3    bf  119 -   122          5.667132732324         -1.003275087025         -6.004604125840
      0.7868272350D+01 -0.1193324198D+00  0.6899906659D-01
      0.1881288540D+01 -0.1608541517D+00  0.3164239610D+00
      0.5442492580D+00  0.1143456438D+01  0.7443082909D+00
 Atom C14      Shell    43 SP   1    bf  123 -   126          5.667132732324         -1.003275087025         -6.004604125840
      0.1687144782D+00  0.1000000000D+01  0.1000000000D+01
 Atom C14      Shell    44 D   1     bf  127 -   132          5.667132732324         -1.003275087025         -6.004604125840
      0.8000000000D+00  0.1000000000D+01
 Atom H15      Shell    45 S   3     bf  133 -   133          5.075540738341          0.932378515157         -6.470002022806
      0.1873113696D+02  0.3349460434D-01
      0.2825394365D+01  0.2347269535D+00
      0.6401216923D+00  0.8137573261D+00
 Atom H15      Shell    46 S   1     bf  134 -   134          5.075540738341          0.932378515157         -6.470002022806
      0.1612777588D+00  0.1000000000D+01
 Atom H16      Shell    47 S   3     bf  135 -   135          4.212643031131         -2.267302277052         -6.765916694598
      0.1873113696D+02  0.3349460434D-01
      0.2825394365D+01  0.2347269535D+00
      0.6401216923D+00  0.8137573261D+00
 Atom H16      Shell    48 S   1     bf  136 -   136          4.212643031131         -2.267302277052         -6.765916694598
      0.1612777588D+00  0.1000000000D+01
 Atom C17      Shell    49 S   6     bf  137 -   137         12.983287523487         -0.559182132557         -7.755920934191
      0.3047524880D+04  0.1834737132D-02
      0.4573695180D+03  0.1403732281D-01
      0.1039486850D+03  0.6884262226D-01
      0.2921015530D+02  0.2321844432D+00
      0.9286662960D+01  0.4679413484D+00
      0.3163926960D+01  0.3623119853D+00
 Atom C17      Shell    50 SP   3    bf  138 -   141         12.983287523487         -0.559182132557         -7.755920934191
      0.7868272350D+01 -0.1193324198D+00  0.6899906659D-01
      0.1881288540D+01 -0.1608541517D+00  0.3164239610D+00
      0.5442492580D+00  0.1143456438D+01  0.7443082909D+00
 Atom C17      Shell    51 SP   1    bf  142 -   145         12.983287523487         -0.559182132557         -7.755920934191
      0.1687144782D+00  0.1000000000D+01  0.1000000000D+01
 Atom C17      Shell    52 D   1     bf  146 -   151         12.983287523487         -0.559182132557         -7.755920934191
      0.8000000000D+00  0.1000000000D+01
 Atom C18      Shell    53 S   6     bf  152 -   152          7.794154251257          0.617039027191          0.647691537799
      0.3047524880D+04  0.1834737132D-02
      0.4573695180D+03  0.1403732281D-01
      0.1039486850D+03  0.6884262226D-01
      0.2921015530D+02  0.2321844432D+00
      0.9286662960D+01  0.4679413484D+00
      0.3163926960D+01  0.3623119853D+00
 Atom C18      Shell    54 SP   3    bf  153 -   156          7.794154251257          0.617039027191          0.647691537799
      0.7868272350D+01 -0.1193324198D+00  0.6899906659D-01
      0.1881288540D+01 -0.1608541517D+00  0.3164239610D+00
      0.5442492580D+00  0.1143456438D+01  0.7443082909D+00
 Atom C18      Shell    55 SP   1    bf  157 -   160          7.794154251257          0.617039027191          0.647691537799
      0.1687144782D+00  0.1000000000D+01  0.1000000000D+01
 Atom C18      Shell    56 D   1     bf  161 -   166          7.794154251257          0.617039027191          0.647691537799
      0.8000000000D+00  0.1000000000D+01
 Atom H19      Shell    57 S   3     bf  167 -   167          8.631889291247          2.320402636523          1.458946072256
      0.1873113696D+02  0.3349460434D-01
      0.2825394365D+01  0.2347269535D+00
      0.6401216923D+00  0.8137573261D+00
 Atom H19      Shell    58 S   1     bf  168 -   168          8.631889291247          2.320402636523          1.458946072256
      0.1612777588D+00  0.1000000000D+01
 Atom H20      Shell    59 S   3     bf  169 -   169          8.781158758484         -0.978854798717          1.520599785739
      0.1873113696D+02  0.3349460434D-01
      0.2825394365D+01  0.2347269535D+00
      0.6401216923D+00  0.8137573261D+00
 Atom H20      Shell    60 S   1     bf  170 -   170          8.781158758484         -0.978854798717          1.520599785739
      0.1612777588D+00  0.1000000000D+01
 Atom C21      Shell    61 S   6     bf  171 -   171          8.194666303854         -1.578439219303         -7.329372461702
      0.3047524880D+04  0.1834737132D-02
      0.4573695180D+03  0.1403732281D-01
      0.1039486850D+03  0.6884262226D-01
      0.2921015530D+02  0.2321844432D+00
      0.9286662960D+01  0.4679413484D+00
      0.3163926960D+01  0.3623119853D+00
 Atom C21      Shell    62 SP   3    bf  172 -   175          8.194666303854         -1.578439219303         -7.329372461702
      0.7868272350D+01 -0.1193324198D+00  0.6899906659D-01
      0.1881288540D+01 -0.1608541517D+00  0.3164239610D+00
      0.5442492580D+00  0.1143456438D+01  0.7443082909D+00
 Atom C21      Shell    63 SP   1    bf  176 -   179          8.194666303854         -1.578439219303         -7.329372461702
      0.1687144782D+00  0.1000000000D+01  0.1000000000D+01
 Atom C21      Shell    64 D   1     bf  180 -   185          8.194666303854         -1.578439219303         -7.329372461702
      0.8000000000D+00  0.1000000000D+01
 Atom H22      Shell    65 S   3     bf  186 -   186          8.629552455911         -3.587497192213         -7.088551413608
      0.1873113696D+02  0.3349460434D-01
      0.2825394365D+01  0.2347269535D+00
      0.6401216923D+00  0.8137573261D+00
 Atom H22      Shell    66 S   1     bf  187 -   187          8.629552455911         -3.587497192213         -7.088551413608
      0.1612777588D+00  0.1000000000D+01
 Atom H23      Shell    67 S   3     bf  188 -   188          7.950172705302         -1.287578922410         -9.364574682277
      0.1873113696D+02  0.3349460434D-01
      0.2825394365D+01  0.2347269535D+00
      0.6401216923D+00  0.8137573261D+00
 Atom H23      Shell    68 S   1     bf  189 -   189          7.950172705302         -1.287578922410         -9.364574682277
      0.1612777588D+00  0.1000000000D+01
 Atom C24      Shell    69 S   6     bf  190 -   190          4.894798770532          0.446251002815          1.089675746876
      0.3047524880D+04  0.1834737132D-02
      0.4573695180D+03  0.1403732281D-01
      0.1039486850D+03  0.6884262226D-01
      0.2921015530D+02  0.2321844432D+00
      0.9286662960D+01  0.4679413484D+00
      0.3163926960D+01  0.3623119853D+00
 Atom C24      Shell    70 SP   3    bf  191 -   194          4.894798770532          0.446251002815          1.089675746876
      0.7868272350D+01 -0.1193324198D+00  0.6899906659D-01
      0.1881288540D+01 -0.1608541517D+00  0.3164239610D+00
      0.5442492580D+00  0.1143456438D+01  0.7443082909D+00
 Atom C24      Shell    71 SP   1    bf  195 -   198          4.894798770532          0.446251002815          1.089675746876
      0.1687144782D+00  0.1000000000D+01  0.1000000000D+01
 Atom C24      Shell    72 D   1     bf  199 -   204          4.894798770532          0.446251002815          1.089675746876
      0.8000000000D+00  0.1000000000D+01
 Atom H25      Shell    73 S   3     bf  205 -   205          4.447306066470         -1.054400833866          2.442057686958
      0.1873113696D+02  0.3349460434D-01
      0.2825394365D+01  0.2347269535D+00
      0.6401216923D+00  0.8137573261D+00
 Atom H25      Shell    74 S   1     bf  206 -   206          4.447306066470         -1.054400833866          2.442057686958
      0.1612777588D+00  0.1000000000D+01
 Atom H26      Shell    75 S   3     bf  207 -   207          4.132215209771          2.194299095182          1.896205947104
      0.1873113696D+02  0.3349460434D-01
      0.2825394365D+01  0.2347269535D+00
      0.6401216923D+00  0.8137573261D+00
 Atom H26      Shell    76 S   1     bf  208 -   208          4.132215209771          2.194299095182          1.896205947104
      0.1612777588D+00  0.1000000000D+01
 Atom C27      Shell    77 S   6     bf  209 -   209         12.647424664854          1.922290063683         -2.562435414808
      0.3047524880D+04  0.1834737132D-02
      0.4573695180D+03  0.1403732281D-01
      0.1039486850D+03  0.6884262226D-01
      0.2921015530D+02  0.2321844432D+00
      0.9286662960D+01  0.4679413484D+00
      0.3163926960D+01  0.3623119853D+00
 Atom C27      Shell    78 SP   3    bf  210 -   213         12.647424664854          1.922290063683         -2.562435414808
      0.7868272350D+01 -0.1193324198D+00  0.6899906659D-01
      0.1881288540D+01 -0.1608541517D+00  0.3164239610D+00
      0.5442492580D+00  0.1143456438D+01  0.7443082909D+00
 Atom C27      Shell    79 SP   1    bf  214 -   217         12.647424664854          1.922290063683         -2.562435414808
      0.1687144782D+00  0.1000000000D+01  0.1000000000D+01
 Atom C27      Shell    80 D   1     bf  218 -   223         12.647424664854          1.922290063683         -2.562435414808
      0.8000000000D+00  0.1000000000D+01
 Atom H28      Shell    81 S   3     bf  224 -   224         11.760343659891          3.798115427827         -2.462740796174
      0.1873113696D+02  0.3349460434D-01
      0.2825394365D+01  0.2347269535D+00
      0.6401216923D+00  0.8137573261D+00
 Atom H28      Shell    82 S   1     bf  225 -   225         11.760343659891          3.798115427827         -2.462740796174
      0.1612777588D+00  0.1000000000D+01
 Atom C29      Shell    83 S   6     bf  226 -   226          0.979870734383         -1.261142938824         -1.332380568465
      0.3047524880D+04  0.1834737132D-02
      0.4573695180D+03  0.1403732281D-01
      0.1039486850D+03  0.6884262226D-01
      0.2921015530D+02  0.2321844432D+00
      0.9286662960D+01  0.4679413484D+00
      0.3163926960D+01  0.3623119853D+00
 Atom C29      Shell    84 SP   3    bf  227 -   230          0.979870734383         -1.261142938824         -1.332380568465
      0.7868272350D+01 -0.1193324198D+00  0.6899906659D-01
      0.1881288540D+01 -0.1608541517D+00  0.3164239610D+00
      0.5442492580D+00  0.1143456438D+01  0.7443082909D+00
 Atom C29      Shell    85 SP   1    bf  231 -   234          0.979870734383         -1.261142938824         -1.332380568465
      0.1687144782D+00  0.1000000000D+01  0.1000000000D+01
 Atom C29      Shell    86 D   1     bf  235 -   240          0.979870734383         -1.261142938824         -1.332380568465
      0.8000000000D+00  0.1000000000D+01
 Atom H30      Shell    87 S   3     bf  241 -   241          0.000000000000          0.000000000000          0.000000000000
      0.1873113696D+02  0.3349460434D-01
      0.2825394365D+01  0.2347269535D+00
      0.6401216923D+00  0.8137573261D+00
 Atom H30      Shell    88 S   1     bf  242 -   242          0.000000000000          0.000000000000          0.000000000000
      0.1612777588D+00  0.1000000000D+01
 Atom C31      Shell    89 S   6     bf  243 -   243          6.411675625714         -4.039193025140         -2.387012610323
      0.3047524880D+04  0.1834737132D-02
      0.4573695180D+03  0.1403732281D-01
      0.1039486850D+03  0.6884262226D-01
      0.2921015530D+02  0.2321844432D+00
      0.9286662960D+01  0.4679413484D+00
      0.3163926960D+01  0.3623119853D+00
 Atom C31      Shell    90 SP   3    bf  244 -   247          6.411675625714         -4.039193025140         -2.387012610323
      0.7868272350D+01 -0.1193324198D+00  0.6899906659D-01
      0.1881288540D+01 -0.1608541517D+00  0.3164239610D+00
      0.5442492580D+00  0.1143456438D+01  0.7443082909D+00
 Atom C31      Shell    91 SP   1    bf  248 -   251          6.411675625714         -4.039193025140         -2.387012610323
      0.1687144782D+00  0.1000000000D+01  0.1000000000D+01
 Atom C31      Shell    92 D   1     bf  252 -   257          6.411675625714         -4.039193025140         -2.387012610323
      0.8000000000D+00  0.1000000000D+01
 Atom H32      Shell    93 S   3     bf  258 -   258          8.282773688759         -4.660069443600         -3.004262285286
      0.1873113696D+02  0.3349460434D-01
      0.2825394365D+01  0.2347269535D+00
      0.6401216923D+00  0.8137573261D+00
 Atom H32      Shell    94 S   1     bf  259 -   259          8.282773688759         -4.660069443600         -3.004262285286
      0.1612777588D+00  0.1000000000D+01
 Atom H33      Shell    95 S   3     bf  260 -   260          6.314224263178         -4.344778899541         -0.347138060782
      0.1873113696D+02  0.3349460434D-01
      0.2825394365D+01  0.2347269535D+00
      0.6401216923D+00  0.8137573261D+00
 Atom H33      Shell    96 S   1     bf  261 -   261          6.314224263178         -4.344778899541         -0.347138060782
      0.1612777588D+00  0.1000000000D+01
 Atom H34      Shell    97 S   3     bf  262 -   262          5.034415138737         -5.300677437477         -3.272729724348
      0.1873113696D+02  0.3349460434D-01
      0.2825394365D+01  0.2347269535D+00
      0.6401216923D+00  0.8137573261D+00
 Atom H34      Shell    98 S   1     bf  263 -   263          5.034415138737         -5.300677437477         -3.272729724348
      0.1612777588D+00  0.1000000000D+01
 Atom C35      Shell    99 S   6     bf  264 -   264         15.144966374033          0.924675915850         -6.525064938455
      0.3047524880D+04  0.1834737132D-02
      0.4573695180D+03  0.1403732281D-01
      0.1039486850D+03  0.6884262226D-01
      0.2921015530D+02  0.2321844432D+00
      0.9286662960D+01  0.4679413484D+00
      0.3163926960D+01  0.3623119853D+00
 Atom C35      Shell   100 SP   3    bf  265 -   268         15.144966374033          0.924675915850         -6.525064938455
      0.7868272350D+01 -0.1193324198D+00  0.6899906659D-01
      0.1881288540D+01 -0.1608541517D+00  0.3164239610D+00
      0.5442492580D+00  0.1143456438D+01  0.7443082909D+00
 Atom C35      Shell   101 SP   1    bf  269 -   272         15.144966374033          0.924675915850         -6.525064938455
      0.1687144782D+00  0.1000000000D+01  0.1000000000D+01
 Atom C35      Shell   102 D   1     bf  273 -   278         15.144966374033          0.924675915850         -6.525064938455
      0.8000000000D+00  0.1000000000D+01
 Atom C36      Shell   103 S   6     bf  279 -   279         12.760085393685          0.305399188356        -10.567454794397
      0.3047524880D+04  0.1834737132D-02
      0.4573695180D+03  0.1403732281D-01
      0.1039486850D+03  0.6884262226D-01
      0.2921015530D+02  0.2321844432D+00
      0.9286662960D+01  0.4679413484D+00
      0.3163926960D+01  0.3623119853D+00
 Atom C36      Shell   104 SP   3    bf  280 -   283         12.760085393685          0.305399188356        -10.567454794397
      0.7868272350D+01 -0.1193324198D+00  0.6899906659D-01
      0.1881288540D+01 -0.1608541517D+00  0.3164239610D+00
      0.5442492580D+00  0.1143456438D+01  0.7443082909D+00
 Atom C36      Shell   105 SP   1    bf  284 -   287         12.760085393685          0.305399188356        -10.567454794397
      0.1687144782D+00  0.1000000000D+01  0.1000000000D+01
 Atom C36      Shell   106 D   1     bf  288 -   293         12.760085393685          0.305399188356        -10.567454794397
      0.8000000000D+00  0.1000000000D+01
 Atom H37      Shell   107 S   3     bf  294 -   294         11.951583642182          2.217681923843        -10.595776592382
      0.1873113696D+02  0.3349460434D-01
      0.2825394365D+01  0.2347269535D+00
      0.6401216923D+00  0.8137573261D+00
 Atom H37      Shell   108 S   1     bf  295 -   295         11.951583642182          2.217681923843        -10.595776592382
      0.1612777588D+00  0.1000000000D+01
 Atom H38      Shell   109 S   3     bf  296 -   296         11.414905218792         -0.914905597106        -11.559304162586
      0.1873113696D+02  0.3349460434D-01
      0.2825394365D+01  0.2347269535D+00
      0.6401216923D+00  0.8137573261D+00
 Atom H38      Shell   110 S   1     bf  297 -   297         11.414905218792         -0.914905597106        -11.559304162586
      0.1612777588D+00  0.1000000000D+01
 Atom C39      Shell   111 S   6     bf  298 -   298         14.916262514465          2.050909057274         -4.266344115642
      0.3047524880D+04  0.1834737132D-02
[...]
 1533 Fit       0.001052
 1534 Fit      -0.000114
 1535 Fit      -0.002102
 1536 Fit       0.000752
 1537 Fit       0.001932
 1538 Fit       0.002474
 1539 Fit       0.001690
 1540 Fit      -0.000451
 1541 Fit       0.002814
 1542 Fit       0.000235
 1543 Fit       0.001999
 1544 Fit       0.000736
 1545 Fit      -0.001237
 1546 Fit      -0.002312
 1547 Fit      -0.001403
 1548 Fit       0.001296
 1549 Fit       0.002555
 1550 Fit       0.001323
 1551 Fit      -0.000284
 1552 Fit      -0.002064
 1553 Fit       0.001977
 1554 Fit       0.000487
 1555 Fit      -0.001223
 1556 Fit      -0.000909
 1557 Fit      -0.002476
 1558 Fit      -0.002504
 1559 Fit      -0.001584
 1560 Fit      -0.001413
 1561 Fit      -0.002259
 1562 Fit       0.001189
 1563 Fit       0.002657
 1564 Fit       0.002916
 1565 Fit      -0.001955
 1566 Fit       0.000284
 1567 Fit       0.001727
 1568 Fit       0.001996
 1569 Fit       0.001233
 1570 Fit       0.000071
 1571 Fit      -0.001320
 1572 Fit       0.000044
 1573 Fit       0.000099
 1574 Fit      -0.000694
 1575 Fit       0.001994
 1576 Fit       0.003039
 1577 Fit       0.002383
 1578 Fit       0.000444
 1579 Fit      -0.001866
 1580 Fit       0.000355
 1581 Fit       0.001942
 1582 Fit       0.002406
 1583 Fit       0.001347
 1584 Fit      -0.000814
 1585 Fit       0.000563
 1586 Fit       0.000739
 1587 Fit      -0.001367
 1588 Fit      -0.001220
 1589 Fit       0.001910
 1590 Fit       0.000184
 1591 Fit       0.000173
 1592 Fit       0.003205
 1593 Fit       0.003048
 1594 Fit       0.002201
 1595 Fit      -0.000261
 1596 Fit      -0.000984
 1597 Fit       0.001629
 1598 Fit       0.003315
 1599 Fit       0.001102
 1600 Fit      -0.020159
 1601 Fit      -0.015152
 1602 Fit      -0.022762
 1603 Fit      -0.024596
 1604 Fit      -0.016175
 1605 Fit      -0.010224
 1606 Fit      -0.009061
 1607 Fit      -0.018139
 1608 Fit      -0.023451
 1609 Fit      -0.024687
 1610 Fit      -0.003001
 1611 Fit      -0.013157
 1612 Fit      -0.019377
 1613 Fit      -0.021600
 1614 Fit      -0.020322
 1615 Fit      -0.014387
 1616 Fit      -0.003405
 1617 Fit       0.002180
 1618 Fit       0.002859
 1619 Fit       0.007609
 1620 Fit       0.011130
 1621 Fit       0.009550
 1622 Fit       0.006775
 1623 Fit       0.012654
 1624 Fit       0.015943
 1625 Fit       0.015870
 1626 Fit       0.012827
 1627 Fit       0.018511
 1628 Fit       0.016748
 1629 Fit       0.012954
 1630 Fit      -0.006963
 1631 Fit      -0.008684
 1632 Fit      -0.017616
 1633 Fit      -0.020991
 1634 Fit      -0.018759
 1635 Fit      -0.008707
 1636 Fit      -0.018503
 1637 Fit      -0.023665
 1638 Fit      -0.024109
 1639 Fit      -0.020092
 1640 Fit      -0.009252
 1641 Fit      -0.019521
 1642 Fit      -0.024776
 1643 Fit      -0.024861
 1644 Fit      -0.020312
 1645 Fit      -0.011166
 1646 Fit      -0.020245
 1647 Fit      -0.024243
 1648 Fit      -0.022875
 1649 Fit      -0.017285
 1650 Fit      -0.013562
 1651 Fit      -0.020630
 1652 Fit      -0.018270
 1653 Fit      -0.005575
 1654 Fit      -0.004706
 1655 Fit      -0.014308
 1656 Fit       0.002185
 1657 Fit       0.013430
 1658 Fit       0.002566
 1659 Fit       0.023905
 1660 Fit       0.019609
 1661 Fit       0.012908
 1662 Fit       0.002473
 1663 Fit       0.021756
 1664 Fit       0.018462
 1665 Fit       0.012341
 1666 Fit       0.000980
 1667 Fit       0.016506
 1668 Fit       0.015899
 1669 Fit       0.010911
 1670 Fit       0.005326
 1671 Fit       0.007189
 1672 Fit       0.001881
 1673 Fit       0.004653
 1674 Fit       0.004097
 1675 Fit       0.004923
 1676 Fit       0.005928
 1677 Fit       0.011069
 1678 Fit       0.005698
 1679 Fit       0.004297
 1680 Fit       0.005666
 1681 Fit       0.006305
 1682 Fit       0.006510
 1683 Fit       0.002068
 1684 Fit       0.002645
 1685 Fit       0.004207
 1686 Fit       0.001543
 1687 Fit       0.003775
 1688 Fit       0.006250
 1689 Fit       0.005731
 1690 Fit       0.006201
 1691 Fit       0.005015
 1692 Fit       0.003816
 1693 Fit       0.005945
 1694 Fit       0.005442
 1695 Fit       0.005194
 1696 Fit       0.005361
 1697 Fit       0.003593
 1698 Fit       0.004762
 1699 Fit      -0.008365
 1700 Fit      -0.012007
 1701 Fit      -0.019887
 1702 Fit      -0.000314
 1703 Fit      -0.010595
 1704 Fit      -0.016532
 1705 Fit      -0.011635
 1706 Fit      -0.007813
 1707 Fit      -0.022617
 1708 Fit      -0.011785
 1709 Fit      -0.006611
 1710 Fit      -0.018327
 1711 Fit      -0.008105
 1712 Fit      -0.004281
 1713 Fit      -0.004796
 1714 Fit      -0.002205
 1715 Fit      -0.007330
 1716 Fit      -0.009985
 1717 Fit      -0.002726
 1718 Fit      -0.004003
 1719 Fit       0.000862
 1720 Fit      -0.000240
 1721 Fit      -0.003307
 1722 Fit       0.002303
 1723 Fit       0.002892
 1724 Fit       0.005185
 1725 Fit       0.007141
 1726 Fit       0.007117
 1727 Fit       0.005423
 1728 Fit       0.006412
 1729 Fit       0.005491
 1730 Fit       0.007380
 1731 Fit       0.006042
 1732 Fit       0.005412
 1733 Fit       0.004913
 1734 Fit       0.005246
 1735 Fit       0.005865
 1736 Fit       0.007245
 1737 Fit       0.006961
 1738 Fit       0.006799
 1739 Fit       0.007816
 1740 Fit      -0.004913
 1741 Fit      -0.006992
 1742 Fit      -0.006475
 1743 Fit      -0.002718
 1744 Fit      -0.004419
 1745 Fit      -0.001907
 1746 Fit      -0.000081
 1747 Fit      -0.000939
 1748 Fit      -0.002615
 1749 Fit       0.001458
 1750 Fit      -0.004769
 1751 Fit      -0.004560
 1752 Fit      -0.002552
 1753 Fit      -0.003061
 1754 Fit      -0.003640
 1755 Fit      -0.001317
 1756 Fit      -0.000420
 1757 Fit      -0.000924
 1758 Fit      -0.001617
 1759 Fit       0.000250
 1760 Fit       0.001308
 1761 Fit       0.001421
 1762 Fit      -0.000475
 1763 Fit       0.001193
 1764 Fit      -0.012823
 1765 Fit      -0.007328
 1766 Fit      -0.006417
 1767 Fit      -0.003773
 1768 Fit      -0.001280
 1769 Fit       0.000506
 1770 Fit      -0.000754
 1771 Fit       0.001541
 1772 Fit       0.003523
 1773 Fit       0.002329
 1774 Fit       0.005429
 1775 Fit      -0.001950
 1776 Fit      -0.000426
 1777 Fit      -0.000717
 1778 Fit       0.001400
 1779 Fit       0.000442
 1780 Fit      -0.000177
 1781 Fit      -0.000134
 1782 Fit      -0.000279
 1783 Fit      -0.000178
 1784 Fit       0.000751
 1785 Fit       0.002265
 1786 Fit       0.004638
 1787 Fit       0.000576
 1788 Fit       0.001925
 1789 Fit       0.001746
 1790 Fit       0.003853
 1791 Fit       0.005889
 1792 Fit       0.002760
 1793 Fit       0.006016
 1794 Fit       0.010603
 1795 Fit       0.004279
 1796 Fit       0.007271
 1797 Fit       0.007097
 1798 Fit       0.002416
 1799 Fit       0.001253
 1800 Fit       0.001788
 1801 Fit       0.002244
 1802 Fit       0.001796
 1803 Fit       0.003568
 1804 Fit       0.002650
 1805 Fit       0.005436
 1806 Fit       0.004572
 1807 Fit       0.004123
 1808 Fit       0.005741
 1809 Fit       0.006207
 1810 Fit       0.004947
 1811 Fit       0.005656
 1812 Fit       0.006324
 1813 Fit       0.004424
 1814 Fit       0.005346
 1815 Fit       0.006722
 1816 Fit       0.005272
 1817 Fit       0.005791
 1818 Fit       0.005924
 1819 Fit       0.004726
 1820 Fit       0.005089
 1821 Fit       0.005209
 1822 Fit       0.004879
 1823 Fit       0.007049
 1824 Fit       0.008424
 1825 Fit       0.008904
 1826 Fit       0.009039
 1827 Fit       0.007039
 1828 Fit       0.007774
 1829 Fit       0.006736
 1830 Fit       0.005642
 1831 Fit      -0.003012
 1832 Fit      -0.003158
 1833 Fit      -0.001758
 1834 Fit      -0.002742
 1835 Fit      -0.000116
 1836 Fit      -0.006837
 1837 Fit       0.000742
 1838 Fit      -0.001359
 1839 Fit      -0.004538
 1840 Fit      -0.009179
 1841 Fit       0.003405
 1842 Fit       0.003572
 1843 Fit       0.002311
 1844 Fit       0.000329
 1845 Fit      -0.001925
 1846 Fit      -0.003718
 1847 Fit       0.003797
 1848 Fit       0.001078
 1849 Fit      -0.001291
 1850 Fit       0.007730
 1851 Fit       0.008487
 1852 Fit       0.006171
 1853 Fit       0.005917
 1854 Fit       0.006624
 1855 Fit       0.006186
 1856 Fit       0.007294
 1857 Fit       0.007661
 1858 Fit       0.009461
 1859 Fit       0.007864
 1860 Fit       0.006716
 1861 Fit       0.008173
 1862 Fit       0.007474
 1863 Fit       0.006859
 1864 Fit       0.009001
 1865 Fit       0.008764
 1866 Fit       0.008184
 1867 Fit       0.007972
 1868 Fit       0.009285
 1869 Fit       0.009027
 1870 Fit       0.009110
 1871 Fit       0.009490
 1872 Fit       0.012420
 1873 Fit       0.008336
 1874 Fit       0.011331
 1875 Fit       0.015761
 1876 Fit       0.011291
 1877 Fit       0.016647
 1878 Fit       0.018476
 1879 Fit       0.013018
 1880 Fit       0.010926
 1881 Fit       0.009121
 1882 Fit       0.009355
 1883 Fit       0.010074
 1884 Fit       0.007152
 1885 Fit       0.007144
 1886 Fit       0.007543
 1887 Fit       0.005477
 1888 Fit       0.004276
 1889 Fit       0.004773
 1890 Fit       0.002623
 1891 Fit       0.002219
 1892 Fit       0.002704
 1893 Fit       0.003547
 1894 Fit      -0.000035
 1895 Fit      -0.001619
 1896 Fit      -0.001758
 1897 Fit      -0.001020
 1898 Fit      -0.000932
 1899 Fit       0.002761
 1900 Fit      -0.006254
 1901 Fit      -0.010439
 1902 Fit      -0.010001
 1903 Fit      -0.006636
 1904 Fit       0.006128
 1905 Fit       0.009232
 1906 Fit       0.007502
 1907 Fit       0.005786
 1908 Fit       0.012008
 1909 Fit       0.009840
 1910 Fit       0.017192
 1911 Fit       0.016235
 1912 Fit       0.025344
 1913 Fit       0.008141
 1914 Fit       0.006082
 1915 Fit       0.005900
 1916 Fit       0.005100
 1917 Fit       0.009658
 1918 Fit       0.010153
 1919 Fit       0.012569
 1920 Fit       0.016639
 1921 Fit       0.007836
 1922 Fit       0.008902
 1923 Fit       0.011019
 1924 Fit       0.014438
 1925 Fit       0.007148
 1926 Fit       0.000938
 1927 Fit       0.004133
 1928 Fit      -0.007807
 1929 Fit      -0.000497
 1930 Fit       0.003189
 1931 Fit       0.004856
 1932 Fit       0.005739
 1933 Fit       0.005754
 1934 Fit      -0.002347
 1935 Fit      -0.002370
 1936 Fit       0.001901
 1937 Fit       0.004023
 1938 Fit       0.003995
 1939 Fit       0.002152
 1940 Fit       0.001760
 1941 Fit      -0.000720
 1942 Fit      -0.000334
 1943 Fit       0.000532
 1944 Fit       0.001973
 1945 Fit       0.005245
 1946 Fit       0.001170
 1947 Fit       0.003362
 1948 Fit       0.002927
 1949 Fit       0.003079
 1950 Fit       0.002121
 1951 Fit       0.002148
 1952 Fit       0.001896
 1953 Fit       0.001124
 1954 Fit       0.001741
 1955 Fit       0.001430
 1956 Fit       0.000649
 1957 Fit      -0.000576
 1958 Fit       0.000844
 1959 Fit       0.000187
 1960 Fit      -0.011653
 1961 Fit      -0.002844
 1962 Fit      -0.001295
 1963 Fit      -0.001001
 1964 Fit      -0.010055
 1965 Fit      -0.003884
 1966 Fit      -0.000165
 1967 Fit       0.002594
 1968 Fit      -0.016566
 1969 Fit      -0.006567
 1970 Fit      -0.001091
 1971 Fit       0.002707
 1972 Fit      -0.014303
 1973 Fit      -0.004516
 1974 Fit       0.000988
 1975 Fit      -0.004610
 1976 Fit      -0.001794
 1977 Fit      -0.001892
 1978 Fit      -0.001464
 1979 Fit      -0.001761
 1980 Fit      -0.002072
 1981 Fit      -0.001330
 1982 Fit      -0.001904
 1983 Fit      -0.001541
 1984 Fit      -0.001198
 1985 Fit      -0.001313
 1986 Fit      -0.001047
 1987 Fit      -0.000825
 1988 Fit      -0.000065
 1989 Fit      -0.000509
 1990 Fit      -0.000356
 1991 Fit       0.001116
 1992 Fit       0.002246
 1993 Fit       0.001028
 1994 Fit       0.003110
 1995 Fit       0.003446
 1996 Fit      -0.000644
 1997 Fit      -0.001353
 1998 Fit      -0.000194
 1999 Fit       0.000660
 2000 Fit       0.000716
 2001 Fit      -0.000211
 2002 Fit      -0.001743
 2003 Fit       0.001366
 2004 Fit       0.001708
 2005 Fit       0.001210
 2006 Fit       0.000048
 2007 Fit      -0.001504
 2008 Fit       0.002116
 2009 Fit       0.001152
 2010 Fit      -0.000181
 2011 Fit      -0.000770
 2012 Fit       0.000443
 2013 Fit      -0.000947
 2014 Fit      -0.001292
 2015 Fit      -0.000455
 2016 Fit       0.001178
 2017 Fit      -0.000857
 2018 Fit       0.000833
 2019 Fit       0.002635
 2020 Fit      -0.000971
 2021 Fit       0.000885
 2022 Fit       0.001142
 2023 Fit       0.005412
 2024 Fit       0.003424
 2025 Fit       0.002208
 2026 Fit       0.001050
 2027 Fit       0.000960
 2028 Fit       0.001846
 2029 Fit       0.002144
 2030 Fit       0.002084
 2031 Fit       0.002455
 2032 Fit       0.001975
 2033 Fit       0.002950
 2034 Fit       0.002572
 2035 Fit       0.003331
 2036 Fit      -0.001612
 2037 Fit       0.000946
 2038 Fit       0.001949
 2039 Fit      -0.000759
 2040 Fit      -0.000497
 2041 Fit      -0.000264
 2042 Fit       0.001242
 2043 Fit       0.001238
 2044 Fit       0.002316
 2045 Fit       0.002115
 2046 Fit       0.002087
 2047 Fit       0.002208
 2048 Fit       0.001993
 2049 Fit       0.001079
 2050 Fit       0.002786
 2051 Fit       0.001396
 2052 Fit       0.004105
 2053 Fit       0.002432
 2054 Fit       0.001057
 2055 Fit       0.004469
 2056 Fit       0.002921
 2057 Fit       0.001707
 2058 Fit       0.000871
 2059 Fit       0.003258
 2060 Fit       0.002308
 2061 Fit       0.001318
 2062 Fit       0.001478
 2063 Fit       0.000661
 2064 Fit      -0.002159
 2065 Fit      -0.001902
 2066 Fit      -0.002277
 2067 Fit      -0.002642
 2068 Fit      -0.001838
 2069 Fit      -0.002241
 2070 Fit      -0.002485
 2071 Fit      -0.002386
 2072 Fit      -0.000968
 2073 Fit      -0.001475
 2074 Fit      -0.002068
 2075 Fit      -0.000530
 2076 Fit      -0.000819
 2077 Fit      -0.000859
 2078 Fit      -0.001954
 2079 Fit      -0.000320
 2080 Fit       0.000737
 2081 Fit       0.000795
 2082 Fit      -0.000656
 2083 Fit       0.000765
 2084 Fit       0.001698
 2085 Fit       0.002040
 2086 Fit      -0.001094
 2087 Fit       0.000453
 2088 Fit       0.001931
 2089 Fit      -0.001661
 2090 Fit      -0.000895
 2091 Fit      -0.000172
 2092 Fit       0.000031
 2093 Fit      -0.000509
 2094 Fit      -0.001629
 2095 Fit       0.000444
 2096 Fit       0.001139
 2097 Fit       0.001311
 2098 Fit       0.000725
 2099 Fit      -0.000553
 2100 Fit       0.001049
 2101 Fit       0.001768
 2102 Fit       0.002109
 2103 Fit       0.001575
 2104 Fit      -0.000066
 2105 Fit       0.001205
 2106 Fit       0.000295
 2107 Fit      -0.001047
 2108 Fit      -0.001705
 2109 Fit      -0.001028
 2110 Fit       0.000756
 2111 Fit       0.001884
 2112 Fit       0.000935
 2113 Fit      -0.000210
 2114 Fit      -0.001485
 2115 Fit       0.001929
 2116 Fit       0.000786
 2117 Fit      -0.000388
 2118 Fit      -0.001551
 2119 Fit       0.000238
 2120 Fit      -0.001851
 2121 Fit       0.000430
 2122 Fit       0.000460
 2123 Fit       0.000296
 2124 Fit      -0.001799
 2125 Fit      -0.000385
 2126 Fit      -0.000272
 2127 Fit      -0.001698
 2128 Fit      -0.001708
 2129 Fit      -0.000818
 2130 Fit      -0.000718
 2131 Fit      -0.001018
 2132 Fit      -0.001413
 2133 Fit       0.002336
 2134 Fit       0.002710
 2135 Fit      -0.000217
 2136 Fit       0.001224
 2137 Fit       0.001944
 2138 Fit       0.001966
 2139 Fit       0.001500
 2140 Fit      -0.000938
 2141 Fit       0.000343
 2142 Fit       0.001017
 2143 Fit       0.000969
 2144 Fit       0.000454
 2145 Fit      -0.001452
 2146 Fit      -0.000511
 2147 Fit      -0.000335
 2148 Fit       0.000585
 2149 Fit      -0.001242
 2150 Fit       0.001410
 2151 Fit       0.002154
 2152 Fit       0.002065
 2153 Fit       0.001064
 2154 Fit      -0.000450
 2155 Fit       0.000323
 2156 Fit       0.001339
 2157 Fit       0.001615
 2158 Fit       0.000862
 2159 Fit      -0.000634
 2160 Fit       0.000309
 2161 Fit       0.000340
 2162 Fit      -0.001059
 2163 Fit      -0.000856
 2164 Fit       0.001969
 2165 Fit       0.000584
 2166 Fit       0.000529
 2167 Fit       0.002606
 2168 Fit       0.002857
 2169 Fit       0.001848
 2170 Fit       0.000130
 2171 Fit      -0.000474
 2172 Fit       0.001367
 2173 Fit       0.002583
 2174 Fit       0.000960
 -----------------------------------------------------------------
 Leave Link  602 at Thu May 18 13:23:01 2017, MaxMem=    33554432 cpu:         3.3
 (Enter /home/michal/g09/l9999.exe)

 Test job not archived.
 1\1\GINC-LINUX\SP\RHF\6-31G(d)\C27H46O2\MICHAL\18-May-2017\0\\#P HF/6-
 31G* SCF(Conver=6) NoSymm Test Pop=mk IOp(6/33=2) GFInput GFPrint\\MEP
  - Input generated by R.E.D.-III.x MOLECULE\\0,1\O,0,7.12077927,0.7811
 1794,0.\H,0,7.69189213,0.,0.\O,0,10.34837278,1.1344153,-6.38645266\H,0
 ,10.7171067,0.24256114,-6.4556905\C,0,3.11391531,-0.66567825,-1.648055
 56\C,0,4.26657928,0.2781238,-1.19048797\H,0,3.98259509,1.27760868,-1.5
 6213053\C,0,5.64077681,-0.008082,-1.82191458\H,0,5.99726317,-0.9983811
 8,-1.50314574\C,0,5.51986861,0.02260523,-3.37241747\H,0,5.28411314,1.0
 6832533,-3.63038978\C,0,1.93967124,-0.04348347,-0.81493832\H,0,1.77701
 01,0.94157033,-1.27433983\C,0,2.99891748,-0.53091031,-3.17749965\H,0,2
 .68586048,0.49339346,-3.42377761\H,0,2.22923468,-1.19980469,-3.5803689
 1\C,0,6.87045985,-0.29590644,-4.10425659\C,0,4.12448879,0.32652299,0.3
 427436\H,0,4.56779908,1.22790419,0.77204101\H,0,4.64678908,-0.51798765
 ,0.80466675\C,0,4.33643064,-0.83527406,-3.87853686\H,0,4.56656248,-1.8
 9842175,-3.75109985\H,0,4.2070502,-0.68135742,-4.95551949\C,0,2.590215
 95,0.23614586,0.57663157\H,0,2.35341301,-0.55796489,1.29228127\H,0,2.1
 8667411,1.16117307,1.00342897\C,0,6.69272888,1.01723209,-1.35598242\H,
 0,6.22330583,2.00987612,-1.3032263\C,0,0.51852526,-0.6673681,-0.705065
 43\H,0,0.,0.,0.\C,0,3.39291261,-2.13744889,-1.26315267\H,0,4.38305506,
 -2.46600254,-1.58978713\H,0,3.34134357,-2.29915797,-0.18369755\H,0,2.6
 6409775,-2.80499769,-1.73185398\C,0,8.01437103,0.48931742,-3.45291565\
 C,0,6.75234637,0.16161029,-5.59205623\H,0,6.32450567,1.17354673,-5.607
 04348\H,0,6.04050768,-0.48414719,-6.11692031\C,0,7.89334616,1.08529433
 ,-2.25765207\H,0,8.72835308,1.65959347,-1.85639368\C,0,7.20921542,-1.8
 098291,-4.05275531\H,0,6.51029725,-2.39556246,-4.65770362\H,0,8.213089
 82,-2.0104472,-4.43592353\H,0,7.17429842,-2.18937201,-3.0269675\C,0,9.
 31666521,0.58510933,-4.2252768\H,0,10.01521151,1.25095595,-3.70915855\
 H,0,9.7974817,-0.40563293,-4.26850977\C,0,8.07664533,0.18691114,-6.370
 9235\H,0,8.48133117,-0.83078724,-6.47539101\H,0,7.90600841,0.56176541,
 -7.38650799\C,0,-0.30082382,-0.64763966,-2.01914699\H,0,0.18276986,-1.
 30634892,-2.75180384\H,0,-1.27478085,-1.11165708,-1.80572469\C,0,9.112
 71325,1.06501771,-5.66992882\H,0,8.75386795,2.1013615,-5.65333655\C,0,
 0.42190114,-2.07561418,-0.08371295\H,0,0.71338689,-2.85891573,-0.78966
 017\H,0,-0.61465483,-2.27621523,0.21039674\H,0,1.04016796,-2.18547185,
 0.81191533\C,0,-0.56590023,0.71905542,-2.6797708\H,0,0.38071357,1.2002
 5721,-2.9575004\H,0,-1.09090063,0.5289545,-3.6241227\C,0,-1.3922554,1.
 6913842,-1.82392132\H,0,-0.86361101,1.8826015,-0.88095169\H,0,-2.34410
 588,1.21209196,-1.54635414\C,0,-1.69527236,3.05263532,-2.48501085\H,0,
 -0.73580216,3.48553317,-2.8084484\C,0,-2.32366692,4.01757061,-1.466856
 89\H,0,-3.2848192,3.63081243,-1.10439689\H,0,-2.50939899,5.00152929,-1
 .91239228\H,0,-1.67305868,4.16039091,-0.59647592\C,0,-2.59533635,2.922
 92155,-3.724754\H,0,-3.56082876,2.47375454,-3.45752734\H,0,-2.79807623
 ,3.90594704,-4.16487886\H,0,-2.14205941,2.30183667,-4.50368382\\Versio
 n=EM64L-G09RevD.01\HF=-1198.9208813\RMSD=5.135e-07\Dipole=-0.1953509,-
 0.9564248,-0.4089239\Quadrupole=-3.5710108,2.6540459,0.9169649,-18.368
 2773,0.148238,7.3326399\PG=C01 [X(C27H46O2)]\\@


 IF YOU WANT TO LEARN FROM THE THEORETICAL PHYSICISTS ABOUT THE
 METHODS WHICH THEY USE, I ADVISE YOU TO FOLLOW THIS PRINCIPLE VERY STRICTLY:
 DON'T LISTEN TO THEIR WORDS; PAY ATTENTION, INSTEAD, TO THEIR ACTIONS.
 -- A.EINSTEIN, 1934
 Job cpu time:       0 days  0 hours 11 minutes 12.7 seconds.
 File lengths (MBytes):  RWF=    150 Int=      0 D2E=      0 Chk=     11 Scr=      1
 Normal termination of Gaussian 09 at Thu May 18 13:23:01 2017.
