 Entering Gaussian System, Link 0=/home/michal/g09/g09
 Input=JOB2-gau_m1-6-1.com
 Output=JOB2-gau_m1-6-1.log
 Initial command:
 /home/michal/g09/l1.exe "/home/michal/gauss_scratch/Gau-21441.inp" -scrdir="/home/michal/gauss_scratch/"
 Entering Link 1 = /home/michal/g09/l1.exe PID=     21442.
  
 Copyright (c) 1988,1990,1992,1993,1995,1998,2003,2009,2013,
            Gaussian, Inc.  All Rights Reserved.
  
 This is part of the Gaussian(R) 09 program.  It is based on
 the Gaussian(R) 03 system (copyright 2003, Gaussian, Inc.),
 the Gaussian(R) 98 system (copyright 1998, Gaussian, Inc.),
 the Gaussian(R) 94 system (copyright 1995, Gaussian, Inc.),
 the Gaussian 92(TM) system (copyright 1992, Gaussian, Inc.),
 the Gaussian 90(TM) system (copyright 1990, Gaussian, Inc.),
 the Gaussian 88(TM) system (copyright 1988, Gaussian, Inc.),
 the Gaussian 86(TM) system (copyright 1986, Carnegie Mellon
 University), and the Gaussian 82(TM) system (copyright 1983,
 Carnegie Mellon University). Gaussian is a federally registered
 trademark of Gaussian, Inc.
  
 This software contains proprietary and confidential information,
 including trade secrets, belonging to Gaussian, Inc.
  
 This software is provided under written license and may be
 used, copied, transmitted, or stored only in accord with that
 written license.
  
 The following legend is applicable only to US Government
 contracts under FAR:
  
                    RESTRICTED RIGHTS LEGEND
  
 Use, reproduction and disclosure by the US Government is
 subject to restrictions as set forth in subparagraphs (a)
 and (c) of the Commercial Computer Software - Restricted
 Rights clause in FAR 52.227-19.
  
 Gaussian, Inc.
 340 Quinnipiac St., Bldg. 40, Wallingford CT 06492
  
  
 ---------------------------------------------------------------
 Warning -- This program may not be used in any manner that
 competes with the business of Gaussian, Inc. or will provide
 assistance to any competitor of Gaussian, Inc.  The licensee
 of this program is prohibited from giving any competitor of
 Gaussian, Inc. access to this program.  By using this program,
 the user acknowledges that Gaussian, Inc. is engaged in the
 business of creating and licensing software in the field of
 computational chemistry and represents and warrants to the
 licensee that it is not a competitor of Gaussian, Inc. and that
 it will not use this program in any manner prohibited above.
 ---------------------------------------------------------------
  

 Cite this work as:
 Gaussian 09, Revision D.01,
 M. J. Frisch, G. W. Trucks, H. B. Schlegel, G. E. Scuseria, 
 M. A. Robb, J. R. Cheeseman, G. Scalmani, V. Barone, B. Mennucci, 
 G. A. Petersson, H. Nakatsuji, M. Caricato, X. Li, H. P. Hratchian, 
 A. F. Izmaylov, J. Bloino, G. Zheng, J. L. Sonnenberg, M. Hada, 
 M. Ehara, K. Toyota, R. Fukuda, J. Hasegawa, M. Ishida, T. Nakajima, 
 Y. Honda, O. Kitao, H. Nakai, T. Vreven, J. A. Montgomery, Jr., 
 J. E. Peralta, F. Ogliaro, M. Bearpark, J. J. Heyd, E. Brothers, 
 K. N. Kudin, V. N. Staroverov, T. Keith, R. Kobayashi, J. Normand, 
 K. Raghavachari, A. Rendell, J. C. Burant, S. S. Iyengar, J. Tomasi, 
 M. Cossi, N. Rega, J. M. Millam, M. Klene, J. E. Knox, J. B. Cross, 
 V. Bakken, C. Adamo, J. Jaramillo, R. Gomperts, R. E. Stratmann, 
 O. Yazyev, A. J. Austin, R. Cammi, C. Pomelli, J. W. Ochterski, 
 R. L. Martin, K. Morokuma, V. G. Zakrzewski, G. A. Voth, 
 P. Salvador, J. J. Dannenberg, S. Dapprich, A. D. Daniels, 
 O. Farkas, J. B. Foresman, J. V. Ortiz, J. Cioslowski, 
 and D. J. Fox, Gaussian, Inc., Wallingford CT, 2013.
 
 ******************************************
 Gaussian 09:  EM64L-G09RevD.01 24-Apr-2013
                18-May-2017 
 ******************************************
 %Mem=256MB
 %NProc=12
 Will use up to   12 processors via shared memory.
 ----------------------------------------------------------------------
 #P HF/6-31G* SCF(Conver=6) NoSymm Test Pop=mk IOp(6/33=2) GFInput GFPr
 int
 ----------------------------------------------------------------------
 1/38=1/1;
 2/12=2,15=1,17=6,18=5,40=1/2;
 3/5=1,6=6,7=1,11=9,16=1,24=110,25=1,30=1/1,2,3;
 4//1;
 5/5=2,6=6,38=5/2;
 6/7=2,8=2,9=2,10=2,15=8,20=1,28=1,33=2/1,2;
 99/5=1,9=1/99;
 Leave Link    1 at Thu May 18 12:39:41 2017, MaxMem=    33554432 cpu:         0.6
 (Enter /home/michal/g09/l101.exe)
 ----------------------------------------------
 MEP - Input generated by R.E.D.-III.x MOLECULE
 ----------------------------------------------
 Symbolic Z-matrix:
 Charge =  0 Multiplicity = 1
 O                     0.        0.        0. 
 H                     0.96763   0.        0. 
 O                     1.64005  -2.66501   6.44536 
 H                     2.57817  -2.43542   6.50356 
 C                    -1.19547   4.12295   1.55005 
 C                    -1.28804   2.62449   1.13984 
 H                    -2.25953   2.28177   1.53653 
 C                    -0.23913   1.70096   1.78453 
 H                     0.76693   1.99715   1.45277 
 C                    -0.32699   1.81433   3.33237 
 H                    -1.30859   1.39291   3.60515 
 C                    -2.38145   4.70669   0.70614 
 H                    -3.29768   4.36313   1.20967 
 C                    -1.3617    4.17669   3.08119 
 H                    -2.37669   3.83975   3.33727 
 H                    -1.26712   5.19795   3.46359 
 C                     0.73159   0.93046   4.08 
 C                    -1.4331    2.65904  -0.39074 
 H                    -1.91049   1.75816  -0.78325 
 H                    -0.45072   2.71462  -0.87133 
 C                    -0.33047   3.28737   3.80176 
 H                     0.66509   3.72255   3.66288 
 H                    -0.52977   3.32891   4.87833 
 C                    -2.26268   3.94542  -0.65433 
 H                    -1.76763   4.57752  -1.40116 
 H                    -3.25204   3.71167  -1.0602 
 C                    -0.44281   0.23586   1.35141 
 H                    -1.52084   0.02579   1.30416 
 C                    -2.50666   6.23938   0.52239 
 H                    -1.59903   6.57693   0. 
 C                     0.14166   4.76987   1.12234 
 H                     1.00801   4.24654   1.53527 
 H                     0.26107   4.78155   0.03501 
 H                     0.19714   5.80741   1.46844 
 C                     0.76945  -0.47136   3.46183 
 C                     0.30045   0.79232   5.57382 
 H                    -0.76885   0.54094   5.60057 
 H                     0.40417   1.76081   6.07426 
 C                     0.21297  -0.7526    2.27452 
 H                     0.24025  -1.77469   1.8968 
 C                     2.15337   1.549     4.00556 
 H                     2.21793   2.47177   4.59031 
 H                     2.91046   0.86534   4.39835 
 H                     2.43208   1.77891   2.97259 
 C                     1.46293  -1.56119   4.25754 
 H                     1.33348  -2.53023   3.76568 
 H                     2.54704  -1.36544   4.28996 
 C                     1.06579  -0.27245   6.37469 
 H                     2.12691   0.00342   6.46587 
 H                     0.66859  -0.3308    7.39443 
 C                    -3.66985   6.61881  -0.43941 
 H                    -3.68725   7.71475  -0.52614 
 H                    -3.40598   6.2508   -1.43799 
 C                     0.96338  -1.64378   5.70757 
 H                    -0.08534  -1.96508   5.70506 
 C                    -2.56642   7.02383   1.84784 
 H                    -3.29844   6.60594   2.54583 
 H                    -2.842     8.06858   1.66505 
 H                    -1.59788   7.02945   2.35567 
 C                    -5.1039    6.1287   -0.13776 
 H                    -5.68051   6.26436  -1.06175 
 H                    -5.09507   5.04777   0.04701 
 C                    -5.84023   6.84816   1.00629 
 H                    -5.71941   7.93345   0.87627 
 H                    -5.36629   6.60373   1.96393 
 C                    -7.35246   6.54268   1.1357 
 H                    -7.69759   7.10665   2.01498 
 C                    -7.63366   5.0565    1.41355 
 H                    -7.37247   4.42882   0.55373 
 H                    -8.69637   4.89329   1.62634 
 H                    -7.0614    4.69642   2.27677 
 C                    -8.17089   7.04421  -0.06593 
 H                    -7.93557   6.48837  -0.98076 
 H                    -9.24463   6.92506   0.11897 
 H                    -7.98177   8.10628  -0.26154 
 
 NAtoms=     75 NQM=       75 NQMF=       0 NMMI=      0 NMMIF=      0
                NMic=       0 NMicF=      0.
                    Isotopes and Nuclear Properties:
 (Nuclear quadrupole moments (NQMom) in fm**2, nuclear magnetic moments (NMagM)
  in nuclear magnetons)

  Atom         1           2           3           4           5           6           7           8           9          10
 IAtWgt=          16           1          16           1          12          12           1          12           1          12
 AtmWgt=  15.9949146   1.0078250  15.9949146   1.0078250  12.0000000  12.0000000   1.0078250  12.0000000   1.0078250  12.0000000
 NucSpn=           0           1           0           1           0           0           1           0           1           0
 AtZEff=   0.0000000   0.0000000   0.0000000   0.0000000   0.0000000   0.0000000   0.0000000   0.0000000   0.0000000   0.0000000
 NQMom=    0.0000000   0.0000000   0.0000000   0.0000000   0.0000000   0.0000000   0.0000000   0.0000000   0.0000000   0.0000000
 NMagM=    0.0000000   2.7928460   0.0000000   2.7928460   0.0000000   0.0000000   2.7928460   0.0000000   2.7928460   0.0000000
 AtZNuc=   8.0000000   1.0000000   8.0000000   1.0000000   6.0000000   6.0000000   1.0000000   6.0000000   1.0000000   6.0000000

  Atom        11          12          13          14          15          16          17          18          19          20
 IAtWgt=           1          12           1          12           1           1          12          12           1           1
 AtmWgt=   1.0078250  12.0000000   1.0078250  12.0000000   1.0078250   1.0078250  12.0000000  12.0000000   1.0078250   1.0078250
 NucSpn=           1           0           1           0           1           1           0           0           1           1
 AtZEff=   0.0000000   0.0000000   0.0000000   0.0000000   0.0000000   0.0000000   0.0000000   0.0000000   0.0000000   0.0000000
 NQMom=    0.0000000   0.0000000   0.0000000   0.0000000   0.0000000   0.0000000   0.0000000   0.0000000   0.0000000   0.0000000
 NMagM=    2.7928460   0.0000000   2.7928460   0.0000000   2.7928460   2.7928460   0.0000000   0.0000000   2.7928460   2.7928460
 AtZNuc=   1.0000000   6.0000000   1.0000000   6.0000000   1.0000000   1.0000000   6.0000000   6.0000000   1.0000000   1.0000000

  Atom        21          22          23          24          25          26          27          28          29          30
 IAtWgt=          12           1           1          12           1           1          12           1          12           1
 AtmWgt=  12.0000000   1.0078250   1.0078250  12.0000000   1.0078250   1.0078250  12.0000000   1.0078250  12.0000000   1.0078250
 NucSpn=           0           1           1           0           1           1           0           1           0           1
 AtZEff=   0.0000000   0.0000000   0.0000000   0.0000000   0.0000000   0.0000000   0.0000000   0.0000000   0.0000000   0.0000000
 NQMom=    0.0000000   0.0000000   0.0000000   0.0000000   0.0000000   0.0000000   0.0000000   0.0000000   0.0000000   0.0000000
 NMagM=    0.0000000   2.7928460   2.7928460   0.0000000   2.7928460   2.7928460   0.0000000   2.7928460   0.0000000   2.7928460
 AtZNuc=   6.0000000   1.0000000   1.0000000   6.0000000   1.0000000   1.0000000   6.0000000   1.0000000   6.0000000   1.0000000

  Atom        31          32          33          34          35          36          37          38          39          40
 IAtWgt=          12           1           1           1          12          12           1           1          12           1
 AtmWgt=  12.0000000   1.0078250   1.0078250   1.0078250  12.0000000  12.0000000   1.0078250   1.0078250  12.0000000   1.0078250
 NucSpn=           0           1           1           1           0           0           1           1           0           1
 AtZEff=   0.0000000   0.0000000   0.0000000   0.0000000   0.0000000   0.0000000   0.0000000   0.0000000   0.0000000   0.0000000
 NQMom=    0.0000000   0.0000000   0.0000000   0.0000000   0.0000000   0.0000000   0.0000000   0.0000000   0.0000000   0.0000000
 NMagM=    0.0000000   2.7928460   2.7928460   2.7928460   0.0000000   0.0000000   2.7928460   2.7928460   0.0000000   2.7928460
 AtZNuc=   6.0000000   1.0000000   1.0000000   1.0000000   6.0000000   6.0000000   1.0000000   1.0000000   6.0000000   1.0000000

  Atom        41          42          43          44          45          46          47          48          49          50
 IAtWgt=          12           1           1           1          12           1           1          12           1           1
 AtmWgt=  12.0000000   1.0078250   1.0078250   1.0078250  12.0000000   1.0078250   1.0078250  12.0000000   1.0078250   1.0078250
 NucSpn=           0           1           1           1           0           1           1           0           1           1
 AtZEff=   0.0000000   0.0000000   0.0000000   0.0000000   0.0000000   0.0000000   0.0000000   0.0000000   0.0000000   0.0000000
 NQMom=    0.0000000   0.0000000   0.0000000   0.0000000   0.0000000   0.0000000   0.0000000   0.0000000   0.0000000   0.0000000
 NMagM=    0.0000000   2.7928460   2.7928460   2.7928460   0.0000000   2.7928460   2.7928460   0.0000000   2.7928460   2.7928460
 AtZNuc=   6.0000000   1.0000000   1.0000000   1.0000000   6.0000000   1.0000000   1.0000000   6.0000000   1.0000000   1.0000000

  Atom        51          52          53          54          55          56          57          58          59          60
 IAtWgt=          12           1           1          12           1          12           1           1           1          12
 AtmWgt=  12.0000000   1.0078250   1.0078250  12.0000000   1.0078250  12.0000000   1.0078250   1.0078250   1.0078250  12.0000000
 NucSpn=           0           1           1           0           1           0           1           1           1           0
 AtZEff=   0.0000000   0.0000000   0.0000000   0.0000000   0.0000000   0.0000000   0.0000000   0.0000000   0.0000000   0.0000000
 NQMom=    0.0000000   0.0000000   0.0000000   0.0000000   0.0000000   0.0000000   0.0000000   0.0000000   0.0000000   0.0000000
 NMagM=    0.0000000   2.7928460   2.7928460   0.0000000   2.7928460   0.0000000   2.7928460   2.7928460   2.7928460   0.0000000
 AtZNuc=   6.0000000   1.0000000   1.0000000   6.0000000   1.0000000   6.0000000   1.0000000   1.0000000   1.0000000   6.0000000

  Atom        61          62          63          64          65          66          67          68          69          70
 IAtWgt=           1           1          12           1           1          12           1          12           1           1
 AtmWgt=   1.0078250   1.0078250  12.0000000   1.0078250   1.0078250  12.0000000   1.0078250  12.0000000   1.0078250   1.0078250
 NucSpn=           1           1           0           1           1           0           1           0           1           1
 AtZEff=   0.0000000   0.0000000   0.0000000   0.0000000   0.0000000   0.0000000   0.0000000   0.0000000   0.0000000   0.0000000
 NQMom=    0.0000000   0.0000000   0.0000000   0.0000000   0.0000000   0.0000000   0.0000000   0.0000000   0.0000000   0.0000000
 NMagM=    2.7928460   2.7928460   0.0000000   2.7928460   2.7928460   0.0000000   2.7928460   0.0000000   2.7928460   2.7928460
 AtZNuc=   1.0000000   1.0000000   6.0000000   1.0000000   1.0000000   6.0000000   1.0000000   6.0000000   1.0000000   1.0000000

  Atom        71          72          73          74          75
 IAtWgt=           1          12           1           1           1
 AtmWgt=   1.0078250  12.0000000   1.0078250   1.0078250   1.0078250
 NucSpn=           1           0           1           1           1
 AtZEff=   0.0000000   0.0000000   0.0000000   0.0000000   0.0000000
 NQMom=    0.0000000   0.0000000   0.0000000   0.0000000   0.0000000
 NMagM=    2.7928460   0.0000000   2.7928460   2.7928460   2.7928460
 AtZNuc=   1.0000000   6.0000000   1.0000000   1.0000000   1.0000000
 Leave Link  101 at Thu May 18 12:39:41 2017, MaxMem=    33554432 cpu:         1.0
 (Enter /home/michal/g09/l202.exe)
 Symmetry turned off by external request.
 Stoichiometry    C27H46O2
 Framework group  C1[X(C27H46O2)]
 Deg. of freedom   219
 Full point group                 C1      NOp   1
                          Input orientation:                          
 ---------------------------------------------------------------------
 Center     Atomic      Atomic             Coordinates (Angstroms)
 Number     Number       Type             X           Y           Z
 ---------------------------------------------------------------------
      1          8           0        0.000000    0.000000    0.000000
      2          1           0        0.967631    0.000000    0.000000
      3          8           0        1.640050   -2.665009    6.445357
      4          1           0        2.578166   -2.435420    6.503565
      5          6           0       -1.195465    4.122947    1.550053
      6          6           0       -1.288039    2.624486    1.139844
      7          1           0       -2.259535    2.281767    1.536526
      8          6           0       -0.239133    1.700956    1.784532
      9          1           0        0.766929    1.997148    1.452769
     10          6           0       -0.326989    1.814328    3.332373
     11          1           0       -1.308592    1.392913    3.605152
     12          6           0       -2.381453    4.706687    0.706145
     13          1           0       -3.297678    4.363128    1.209675
     14          6           0       -1.361696    4.176693    3.081186
     15          1           0       -2.376691    3.839748    3.337268
     16          1           0       -1.267118    5.197949    3.463589
     17          6           0        0.731591    0.930463    4.079995
     18          6           0       -1.433100    2.659042   -0.390739
     19          1           0       -1.910494    1.758164   -0.783251
     20          1           0       -0.450718    2.714622   -0.871330
     21          6           0       -0.330472    3.287368    3.801761
     22          1           0        0.665093    3.722546    3.662879
     23          1           0       -0.529769    3.328906    4.878333
     24          6           0       -2.262681    3.945419   -0.654332
     25          1           0       -1.767630    4.577517   -1.401159
     26          1           0       -3.252036    3.711672   -1.060199
     27          6           0       -0.442813    0.235864    1.351406
     28          1           0       -1.520840    0.025789    1.304161
     29          6           0       -2.506664    6.239380    0.522394
     30          1           0       -1.599029    6.576933    0.000000
     31          6           0        0.141664    4.769870    1.122338
     32          1           0        1.008008    4.246539    1.535266
     33          1           0        0.261065    4.781545    0.035009
     34          1           0        0.197144    5.807405    1.468444
     35          6           0        0.769450   -0.471356    3.461832
     36          6           0        0.300450    0.792324    5.573822
     37          1           0       -0.768848    0.540938    5.600569
     38          1           0        0.404174    1.760812    6.074261
     39          6           0        0.212967   -0.752605    2.274523
     40          1           0        0.240251   -1.774689    1.896797
     41          6           0        2.153369    1.548999    4.005563
     42          1           0        2.217930    2.471773    4.590306
     43          1           0        2.910462    0.865335    4.398351
     44          1           0        2.432081    1.778915    2.972591
     45          6           0        1.462934   -1.561189    4.257540
     46          1           0        1.333476   -2.530227    3.765676
     47          1           0        2.547040   -1.365437    4.289963
     48          6           0        1.065791   -0.272452    6.374687
     49          1           0        2.126910    0.003425    6.465874
     50          1           0        0.668588   -0.330796    7.394425
     51          6           0       -3.669848    6.618810   -0.439406
     52          1           0       -3.687250    7.714750   -0.526144
     53          1           0       -3.405984    6.250800   -1.437987
     54          6           0        0.963378   -1.643779    5.707570
     55          1           0       -0.085337   -1.965076    5.705065
     56          6           0       -2.566418    7.023827    1.847843
     57          1           0       -3.298441    6.605939    2.545827
     58          1           0       -2.842003    8.068579    1.665048
     59          1           0       -1.597880    7.029450    2.355671
     60          6           0       -5.103903    6.128703   -0.137757
     61          1           0       -5.680508    6.264356   -1.061746
     62          1           0       -5.095075    5.047772    0.047006
     63          6           0       -5.840235    6.848165    1.006292
     64          1           0       -5.719412    7.933451    0.876267
     65          1           0       -5.366293    6.603732    1.963930
     66          6           0       -7.352457    6.542678    1.135700
     67          1           0       -7.697594    7.106649    2.014978
     68          6           0       -7.633664    5.056498    1.413552
     69          1           0       -7.372472    4.428824    0.553734
     70          1           0       -8.696368    4.893294    1.626343
     71          1           0       -7.061401    4.696415    2.276774
     72          6           0       -8.170889    7.044206   -0.065931
     73          1           0       -7.935566    6.488366   -0.980761
     74          1           0       -9.244630    6.925059    0.118970
     75          1           0       -7.981767    8.106284   -0.261540
 ---------------------------------------------------------------------
 Rotational constants (GHZ):      0.3201969      0.0643313      0.0624523
 Leave Link  202 at Thu May 18 12:39:41 2017, MaxMem=    33554432 cpu:         0.0
 (Enter /home/michal/g09/l301.exe)
 Standard basis: 6-31G(d) (6D, 7F)
 Ernie: Thresh=  0.10000D-02 Tol=  0.10000D-05 Strict=F.
 AO basis set in the form of general basis input (Overlap normalization):
      1 0
 S   6 1.00       0.000000000000
      0.5484671660D+04  0.1831074430D-02
      0.8252349460D+03  0.1395017220D-01
      0.1880469580D+03  0.6844507810D-01
      0.5296450000D+02  0.2327143360D+00
      0.1689757040D+02  0.4701928980D+00
      0.5799635340D+01  0.3585208530D+00
 SP   3 1.00       0.000000000000
      0.1553961625D+02 -0.1107775495D+00  0.7087426823D-01
      0.3599933586D+01 -0.1480262627D+00  0.3397528391D+00
      0.1013761750D+01  0.1130767015D+01  0.7271585773D+00
 SP   1 1.00       0.000000000000
      0.2700058226D+00  0.1000000000D+01  0.1000000000D+01
 D   1 1.00       0.000000000000
      0.8000000000D+00  0.1000000000D+01
 ****
      2 0
 S   3 1.00       0.000000000000
      0.1873113696D+02  0.3349460434D-01
      0.2825394365D+01  0.2347269535D+00
      0.6401216923D+00  0.8137573261D+00
 S   1 1.00       0.000000000000
      0.1612777588D+00  0.1000000000D+01
 ****
      3 0
 S   6 1.00       0.000000000000
      0.5484671660D+04  0.1831074430D-02
      0.8252349460D+03  0.1395017220D-01
      0.1880469580D+03  0.6844507810D-01
      0.5296450000D+02  0.2327143360D+00
      0.1689757040D+02  0.4701928980D+00
      0.5799635340D+01  0.3585208530D+00
 SP   3 1.00       0.000000000000
      0.1553961625D+02 -0.1107775495D+00  0.7087426823D-01
      0.3599933586D+01 -0.1480262627D+00  0.3397528391D+00
      0.1013761750D+01  0.1130767015D+01  0.7271585773D+00
 SP   1 1.00       0.000000000000
      0.2700058226D+00  0.1000000000D+01  0.1000000000D+01
 D   1 1.00       0.000000000000
      0.8000000000D+00  0.1000000000D+01
 ****
      4 0
 S   3 1.00       0.000000000000
      0.1873113696D+02  0.3349460434D-01
      0.2825394365D+01  0.2347269535D+00
      0.6401216923D+00  0.8137573261D+00
 S   1 1.00       0.000000000000
      0.1612777588D+00  0.1000000000D+01
 ****
      5 0
 S   6 1.00       0.000000000000
      0.3047524880D+04  0.1834737132D-02
      0.4573695180D+03  0.1403732281D-01
      0.1039486850D+03  0.6884262226D-01
      0.2921015530D+02  0.2321844432D+00
      0.9286662960D+01  0.4679413484D+00
      0.3163926960D+01  0.3623119853D+00
 SP   3 1.00       0.000000000000
      0.7868272350D+01 -0.1193324198D+00  0.6899906659D-01
      0.1881288540D+01 -0.1608541517D+00  0.3164239610D+00
      0.5442492580D+00  0.1143456438D+01  0.7443082909D+00
 SP   1 1.00       0.000000000000
      0.1687144782D+00  0.1000000000D+01  0.1000000000D+01
 D   1 1.00       0.000000000000
      0.8000000000D+00  0.1000000000D+01
 ****
      6 0
 S   6 1.00       0.000000000000
      0.3047524880D+04  0.1834737132D-02
      0.4573695180D+03  0.1403732281D-01
      0.1039486850D+03  0.6884262226D-01
      0.2921015530D+02  0.2321844432D+00
      0.9286662960D+01  0.4679413484D+00
      0.3163926960D+01  0.3623119853D+00
 SP   3 1.00       0.000000000000
      0.7868272350D+01 -0.1193324198D+00  0.6899906659D-01
      0.1881288540D+01 -0.1608541517D+00  0.3164239610D+00
      0.5442492580D+00  0.1143456438D+01  0.7443082909D+00
 SP   1 1.00       0.000000000000
      0.1687144782D+00  0.1000000000D+01  0.1000000000D+01
 D   1 1.00       0.000000000000
      0.8000000000D+00  0.1000000000D+01
 ****
      7 0
 S   3 1.00       0.000000000000
      0.1873113696D+02  0.3349460434D-01
      0.2825394365D+01  0.2347269535D+00
      0.6401216923D+00  0.8137573261D+00
 S   1 1.00       0.000000000000
      0.1612777588D+00  0.1000000000D+01
 ****
      8 0
 S   6 1.00       0.000000000000
      0.3047524880D+04  0.1834737132D-02
      0.4573695180D+03  0.1403732281D-01
      0.1039486850D+03  0.6884262226D-01
      0.2921015530D+02  0.2321844432D+00
      0.9286662960D+01  0.4679413484D+00
      0.3163926960D+01  0.3623119853D+00
 SP   3 1.00       0.000000000000
      0.7868272350D+01 -0.1193324198D+00  0.6899906659D-01
      0.1881288540D+01 -0.1608541517D+00  0.3164239610D+00
      0.5442492580D+00  0.1143456438D+01  0.7443082909D+00
 SP   1 1.00       0.000000000000
      0.1687144782D+00  0.1000000000D+01  0.1000000000D+01
 D   1 1.00       0.000000000000
      0.8000000000D+00  0.1000000000D+01
 ****
      9 0
 S   3 1.00       0.000000000000
      0.1873113696D+02  0.3349460434D-01
      0.2825394365D+01  0.2347269535D+00
      0.6401216923D+00  0.8137573261D+00
 S   1 1.00       0.000000000000
      0.1612777588D+00  0.1000000000D+01
 ****
     10 0
 S   6 1.00       0.000000000000
      0.3047524880D+04  0.1834737132D-02
      0.4573695180D+03  0.1403732281D-01
      0.1039486850D+03  0.6884262226D-01
      0.2921015530D+02  0.2321844432D+00
      0.9286662960D+01  0.4679413484D+00
      0.3163926960D+01  0.3623119853D+00
 SP   3 1.00       0.000000000000
      0.7868272350D+01 -0.1193324198D+00  0.6899906659D-01
      0.1881288540D+01 -0.1608541517D+00  0.3164239610D+00
      0.5442492580D+00  0.1143456438D+01  0.7443082909D+00
 SP   1 1.00       0.000000000000
      0.1687144782D+00  0.1000000000D+01  0.1000000000D+01
 D   1 1.00       0.000000000000
      0.8000000000D+00  0.1000000000D+01
 ****
     11 0
 S   3 1.00       0.000000000000
      0.1873113696D+02  0.3349460434D-01
      0.2825394365D+01  0.2347269535D+00
      0.6401216923D+00  0.8137573261D+00
 S   1 1.00       0.000000000000
      0.1612777588D+00  0.1000000000D+01
 ****
     12 0
 S   6 1.00       0.000000000000
      0.3047524880D+04  0.1834737132D-02
      0.4573695180D+03  0.1403732281D-01
      0.1039486850D+03  0.6884262226D-01
      0.2921015530D+02  0.2321844432D+00
      0.9286662960D+01  0.4679413484D+00
      0.3163926960D+01  0.3623119853D+00
 SP   3 1.00       0.000000000000
      0.7868272350D+01 -0.1193324198D+00  0.6899906659D-01
      0.1881288540D+01 -0.1608541517D+00  0.3164239610D+00
      0.5442492580D+00  0.1143456438D+01  0.7443082909D+00
 SP   1 1.00       0.000000000000
      0.1687144782D+00  0.1000000000D+01  0.1000000000D+01
 D   1 1.00       0.000000000000
      0.8000000000D+00  0.1000000000D+01
 ****
     13 0
 S   3 1.00       0.000000000000
      0.1873113696D+02  0.3349460434D-01
      0.2825394365D+01  0.2347269535D+00
      0.6401216923D+00  0.8137573261D+00
 S   1 1.00       0.000000000000
      0.1612777588D+00  0.1000000000D+01
 ****
     14 0
 S   6 1.00       0.000000000000
      0.3047524880D+04  0.1834737132D-02
      0.4573695180D+03  0.1403732281D-01
      0.1039486850D+03  0.6884262226D-01
      0.2921015530D+02  0.2321844432D+00
      0.9286662960D+01  0.4679413484D+00
      0.3163926960D+01  0.3623119853D+00
 SP   3 1.00       0.000000000000
      0.7868272350D+01 -0.1193324198D+00  0.6899906659D-01
      0.1881288540D+01 -0.1608541517D+00  0.3164239610D+00
      0.5442492580D+00  0.1143456438D+01  0.7443082909D+00
 SP   1 1.00       0.000000000000
      0.1687144782D+00  0.1000000000D+01  0.1000000000D+01
 D   1 1.00       0.000000000000
      0.8000000000D+00  0.1000000000D+01
 ****
     15 0
 S   3 1.00       0.000000000000
      0.1873113696D+02  0.3349460434D-01
      0.2825394365D+01  0.2347269535D+00
      0.6401216923D+00  0.8137573261D+00
 S   1 1.00       0.000000000000
      0.1612777588D+00  0.1000000000D+01
 ****
     16 0
 S   3 1.00       0.000000000000
      0.1873113696D+02  0.3349460434D-01
      0.2825394365D+01  0.2347269535D+00
      0.6401216923D+00  0.8137573261D+00
 S   1 1.00       0.000000000000
      0.1612777588D+00  0.1000000000D+01
 ****
     17 0
 S   6 1.00       0.000000000000
      0.3047524880D+04  0.1834737132D-02
      0.4573695180D+03  0.1403732281D-01
      0.1039486850D+03  0.6884262226D-01
      0.2921015530D+02  0.2321844432D+00
      0.9286662960D+01  0.4679413484D+00
      0.3163926960D+01  0.3623119853D+00
 SP   3 1.00       0.000000000000
      0.7868272350D+01 -0.1193324198D+00  0.6899906659D-01
      0.1881288540D+01 -0.1608541517D+00  0.3164239610D+00
      0.5442492580D+00  0.1143456438D+01  0.7443082909D+00
 SP   1 1.00       0.000000000000
      0.1687144782D+00  0.1000000000D+01  0.1000000000D+01
 D   1 1.00       0.000000000000
      0.8000000000D+00  0.1000000000D+01
 ****
     18 0
 S   6 1.00       0.000000000000
      0.3047524880D+04  0.1834737132D-02
      0.4573695180D+03  0.1403732281D-01
      0.1039486850D+03  0.6884262226D-01
      0.2921015530D+02  0.2321844432D+00
      0.9286662960D+01  0.4679413484D+00
      0.3163926960D+01  0.3623119853D+00
 SP   3 1.00       0.000000000000
      0.7868272350D+01 -0.1193324198D+00  0.6899906659D-01
      0.1881288540D+01 -0.1608541517D+00  0.3164239610D+00
      0.5442492580D+00  0.1143456438D+01  0.7443082909D+00
 SP   1 1.00       0.000000000000
      0.1687144782D+00  0.1000000000D+01  0.1000000000D+01
 D   1 1.00       0.000000000000
      0.8000000000D+00  0.1000000000D+01
 ****
     19 0
 S   3 1.00       0.000000000000
      0.1873113696D+02  0.3349460434D-01
      0.2825394365D+01  0.2347269535D+00
      0.6401216923D+00  0.8137573261D+00
 S   1 1.00       0.000000000000
      0.1612777588D+00  0.1000000000D+01
 ****
     20 0
 S   3 1.00       0.000000000000
      0.1873113696D+02  0.3349460434D-01
      0.2825394365D+01  0.2347269535D+00
      0.6401216923D+00  0.8137573261D+00
 S   1 1.00       0.000000000000
      0.1612777588D+00  0.1000000000D+01
 ****
     21 0
 S   6 1.00       0.000000000000
      0.3047524880D+04  0.1834737132D-02
      0.4573695180D+03  0.1403732281D-01
      0.1039486850D+03  0.6884262226D-01
      0.2921015530D+02  0.2321844432D+00
      0.9286662960D+01  0.4679413484D+00
      0.3163926960D+01  0.3623119853D+00
 SP   3 1.00       0.000000000000
      0.7868272350D+01 -0.1193324198D+00  0.6899906659D-01
      0.1881288540D+01 -0.1608541517D+00  0.3164239610D+00
      0.5442492580D+00  0.1143456438D+01  0.7443082909D+00
 SP   1 1.00       0.000000000000
      0.1687144782D+00  0.1000000000D+01  0.1000000000D+01
 D   1 1.00       0.000000000000
      0.8000000000D+00  0.1000000000D+01
 ****
     22 0
 S   3 1.00       0.000000000000
      0.1873113696D+02  0.3349460434D-01
      0.2825394365D+01  0.2347269535D+00
      0.6401216923D+00  0.8137573261D+00
 S   1 1.00       0.000000000000
      0.1612777588D+00  0.1000000000D+01
 ****
     23 0
 S   3 1.00       0.000000000000
      0.1873113696D+02  0.3349460434D-01
      0.2825394365D+01  0.2347269535D+00
      0.6401216923D+00  0.8137573261D+00
 S   1 1.00       0.000000000000
      0.1612777588D+00  0.1000000000D+01
 ****
     24 0
 S   6 1.00       0.000000000000
      0.3047524880D+04  0.1834737132D-02
      0.4573695180D+03  0.1403732281D-01
      0.1039486850D+03  0.6884262226D-01
      0.2921015530D+02  0.2321844432D+00
      0.9286662960D+01  0.4679413484D+00
      0.3163926960D+01  0.3623119853D+00
 SP   3 1.00       0.000000000000
      0.7868272350D+01 -0.1193324198D+00  0.6899906659D-01
      0.1881288540D+01 -0.1608541517D+00  0.3164239610D+00
      0.5442492580D+00  0.1143456438D+01  0.7443082909D+00
 SP   1 1.00       0.000000000000
      0.1687144782D+00  0.1000000000D+01  0.1000000000D+01
 D   1 1.00       0.000000000000
      0.8000000000D+00  0.1000000000D+01
 ****
     25 0
 S   3 1.00       0.000000000000
      0.1873113696D+02  0.3349460434D-01
      0.2825394365D+01  0.2347269535D+00
      0.6401216923D+00  0.8137573261D+00
 S   1 1.00       0.000000000000
      0.1612777588D+00  0.1000000000D+01
 ****
     26 0
 S   3 1.00       0.000000000000
      0.1873113696D+02  0.3349460434D-01
      0.2825394365D+01  0.2347269535D+00
      0.6401216923D+00  0.8137573261D+00
 S   1 1.00       0.000000000000
      0.1612777588D+00  0.1000000000D+01
 ****
     27 0
 S   6 1.00       0.000000000000
      0.3047524880D+04  0.1834737132D-02
      0.4573695180D+03  0.1403732281D-01
      0.1039486850D+03  0.6884262226D-01
      0.2921015530D+02  0.2321844432D+00
      0.9286662960D+01  0.4679413484D+00
      0.3163926960D+01  0.3623119853D+00
 SP   3 1.00       0.000000000000
      0.7868272350D+01 -0.1193324198D+00  0.6899906659D-01
      0.1881288540D+01 -0.1608541517D+00  0.3164239610D+00
      0.5442492580D+00  0.1143456438D+01  0.7443082909D+00
 SP   1 1.00       0.000000000000
      0.1687144782D+00  0.1000000000D+01  0.1000000000D+01
 D   1 1.00       0.000000000000
      0.8000000000D+00  0.1000000000D+01
 ****
     28 0
 S   3 1.00       0.000000000000
      0.1873113696D+02  0.3349460434D-01
      0.2825394365D+01  0.2347269535D+00
      0.6401216923D+00  0.8137573261D+00
 S   1 1.00       0.000000000000
      0.1612777588D+00  0.1000000000D+01
 ****
     29 0
 S   6 1.00       0.000000000000
      0.3047524880D+04  0.1834737132D-02
      0.4573695180D+03  0.1403732281D-01
      0.1039486850D+03  0.6884262226D-01
      0.2921015530D+02  0.2321844432D+00
      0.9286662960D+01  0.4679413484D+00
      0.3163926960D+01  0.3623119853D+00
 SP   3 1.00       0.000000000000
      0.7868272350D+01 -0.1193324198D+00  0.6899906659D-01
      0.1881288540D+01 -0.1608541517D+00  0.3164239610D+00
      0.5442492580D+00  0.1143456438D+01  0.7443082909D+00
 SP   1 1.00       0.000000000000
      0.1687144782D+00  0.1000000000D+01  0.1000000000D+01
 D   1 1.00       0.000000000000
      0.8000000000D+00  0.1000000000D+01
 ****
     30 0
 S   3 1.00       0.000000000000
      0.1873113696D+02  0.3349460434D-01
      0.2825394365D+01  0.2347269535D+00
      0.6401216923D+00  0.8137573261D+00
 S   1 1.00       0.000000000000
      0.1612777588D+00  0.1000000000D+01
 ****
     31 0
 S   6 1.00       0.000000000000
      0.3047524880D+04  0.1834737132D-02
      0.4573695180D+03  0.1403732281D-01
      0.1039486850D+03  0.6884262226D-01
      0.2921015530D+02  0.2321844432D+00
      0.9286662960D+01  0.4679413484D+00
      0.3163926960D+01  0.3623119853D+00
 SP   3 1.00       0.000000000000
      0.7868272350D+01 -0.1193324198D+00  0.6899906659D-01
      0.1881288540D+01 -0.1608541517D+00  0.3164239610D+00
      0.5442492580D+00  0.1143456438D+01  0.7443082909D+00
 SP   1 1.00       0.000000000000
      0.1687144782D+00  0.1000000000D+01  0.1000000000D+01
 D   1 1.00       0.000000000000
      0.8000000000D+00  0.1000000000D+01
 ****
     32 0
 S   3 1.00       0.000000000000
      0.1873113696D+02  0.3349460434D-01
      0.2825394365D+01  0.2347269535D+00
      0.6401216923D+00  0.8137573261D+00
 S   1 1.00       0.000000000000
      0.1612777588D+00  0.1000000000D+01
 ****
     33 0
 S   3 1.00       0.000000000000
      0.1873113696D+02  0.3349460434D-01
      0.2825394365D+01  0.2347269535D+00
      0.6401216923D+00  0.8137573261D+00
 S   1 1.00       0.000000000000
      0.1612777588D+00  0.1000000000D+01
 ****
     34 0
 S   3 1.00       0.000000000000
      0.1873113696D+02  0.3349460434D-01
      0.2825394365D+01  0.2347269535D+00
      0.6401216923D+00  0.8137573261D+00
 S   1 1.00       0.000000000000
      0.1612777588D+00  0.1000000000D+01
 ****
     35 0
 S   6 1.00       0.000000000000
      0.3047524880D+04  0.1834737132D-02
      0.4573695180D+03  0.1403732281D-01
      0.1039486850D+03  0.6884262226D-01
      0.2921015530D+02  0.2321844432D+00
      0.9286662960D+01  0.4679413484D+00
      0.3163926960D+01  0.3623119853D+00
 SP   3 1.00       0.000000000000
      0.7868272350D+01 -0.1193324198D+00  0.6899906659D-01
      0.1881288540D+01 -0.1608541517D+00  0.3164239610D+00
      0.5442492580D+00  0.1143456438D+01  0.7443082909D+00
 SP   1 1.00       0.000000000000
      0.1687144782D+00  0.1000000000D+01  0.1000000000D+01
 D   1 1.00       0.000000000000
      0.8000000000D+00  0.1000000000D+01
 ****
     36 0
 S   6 1.00       0.000000000000
      0.3047524880D+04  0.1834737132D-02
      0.4573695180D+03  0.1403732281D-01
      0.1039486850D+03  0.6884262226D-01
      0.2921015530D+02  0.2321844432D+00
      0.9286662960D+01  0.4679413484D+00
      0.3163926960D+01  0.3623119853D+00
 SP   3 1.00       0.000000000000
      0.7868272350D+01 -0.1193324198D+00  0.6899906659D-01
      0.1881288540D+01 -0.1608541517D+00  0.3164239610D+00
      0.5442492580D+00  0.1143456438D+01  0.7443082909D+00
 SP   1 1.00       0.000000000000
      0.1687144782D+00  0.1000000000D+01  0.1000000000D+01
 D   1 1.00       0.000000000000
      0.8000000000D+00  0.1000000000D+01
 ****
     37 0
 S   3 1.00       0.000000000000
      0.1873113696D+02  0.3349460434D-01
      0.2825394365D+01  0.2347269535D+00
      0.6401216923D+00  0.8137573261D+00
 S   1 1.00       0.000000000000
      0.1612777588D+00  0.1000000000D+01
 ****
     38 0
 S   3 1.00       0.000000000000
      0.1873113696D+02  0.3349460434D-01
      0.2825394365D+01  0.2347269535D+00
      0.6401216923D+00  0.8137573261D+00
 S   1 1.00       0.000000000000
      0.1612777588D+00  0.1000000000D+01
 ****
     39 0
 S   6 1.00       0.000000000000
      0.3047524880D+04  0.1834737132D-02
      0.4573695180D+03  0.1403732281D-01
      0.1039486850D+03  0.6884262226D-01
      0.2921015530D+02  0.2321844432D+00
      0.9286662960D+01  0.4679413484D+00
      0.3163926960D+01  0.3623119853D+00
 SP   3 1.00       0.000000000000
      0.7868272350D+01 -0.1193324198D+00  0.6899906659D-01
      0.1881288540D+01 -0.1608541517D+00  0.3164239610D+00
      0.5442492580D+00  0.1143456438D+01  0.7443082909D+00
 SP   1 1.00       0.000000000000
      0.1687144782D+00  0.1000000000D+01  0.1000000000D+01
 D   1 1.00       0.000000000000
      0.8000000000D+00  0.1000000000D+01
 ****
     40 0
 S   3 1.00       0.000000000000
      0.1873113696D+02  0.3349460434D-01
      0.2825394365D+01  0.2347269535D+00
      0.6401216923D+00  0.8137573261D+00
 S   1 1.00       0.000000000000
      0.1612777588D+00  0.1000000000D+01
 ****
     41 0
 S   6 1.00       0.000000000000
      0.3047524880D+04  0.1834737132D-02
      0.4573695180D+03  0.1403732281D-01
      0.1039486850D+03  0.6884262226D-01
      0.2921015530D+02  0.2321844432D+00
      0.9286662960D+01  0.4679413484D+00
      0.3163926960D+01  0.3623119853D+00
 SP   3 1.00       0.000000000000
      0.7868272350D+01 -0.1193324198D+00  0.6899906659D-01
      0.1881288540D+01 -0.1608541517D+00  0.3164239610D+00
      0.5442492580D+00  0.1143456438D+01  0.7443082909D+00
 SP   1 1.00       0.000000000000
      0.1687144782D+00  0.1000000000D+01  0.1000000000D+01
 D   1 1.00       0.000000000000
      0.8000000000D+00  0.1000000000D+01
 ****
     42 0
 S   3 1.00       0.000000000000
      0.1873113696D+02  0.3349460434D-01
      0.2825394365D+01  0.2347269535D+00
      0.6401216923D+00  0.8137573261D+00
 S   1 1.00       0.000000000000
      0.1612777588D+00  0.1000000000D+01
 ****
     43 0
 S   3 1.00       0.000000000000
      0.1873113696D+02  0.3349460434D-01
      0.2825394365D+01  0.2347269535D+00
      0.6401216923D+00  0.8137573261D+00
 S   1 1.00       0.000000000000
      0.1612777588D+00  0.1000000000D+01
 ****
     44 0
 S   3 1.00       0.000000000000
      0.1873113696D+02  0.3349460434D-01
      0.2825394365D+01  0.2347269535D+00
      0.6401216923D+00  0.8137573261D+00
 S   1 1.00       0.000000000000
      0.1612777588D+00  0.1000000000D+01
 ****
     45 0
 S   6 1.00       0.000000000000
      0.3047524880D+04  0.1834737132D-02
      0.4573695180D+03  0.1403732281D-01
      0.1039486850D+03  0.6884262226D-01
      0.2921015530D+02  0.2321844432D+00
      0.9286662960D+01  0.4679413484D+00
      0.3163926960D+01  0.3623119853D+00
 SP   3 1.00       0.000000000000
      0.7868272350D+01 -0.1193324198D+00  0.6899906659D-01
      0.1881288540D+01 -0.1608541517D+00  0.3164239610D+00
      0.5442492580D+00  0.1143456438D+01  0.7443082909D+00
 SP   1 1.00       0.000000000000
      0.1687144782D+00  0.1000000000D+01  0.1000000000D+01
 D   1 1.00       0.000000000000
      0.8000000000D+00  0.1000000000D+01
 ****
     46 0
 S   3 1.00       0.000000000000
      0.1873113696D+02  0.3349460434D-01
      0.2825394365D+01  0.2347269535D+00
      0.6401216923D+00  0.8137573261D+00
 S   1 1.00       0.000000000000
      0.1612777588D+00  0.1000000000D+01
 ****
     47 0
 S   3 1.00       0.000000000000
      0.1873113696D+02  0.3349460434D-01
      0.2825394365D+01  0.2347269535D+00
      0.6401216923D+00  0.8137573261D+00
 S   1 1.00       0.000000000000
      0.1612777588D+00  0.1000000000D+01
 ****
     48 0
 S   6 1.00       0.000000000000
      0.3047524880D+04  0.1834737132D-02
      0.4573695180D+03  0.1403732281D-01
      0.1039486850D+03  0.6884262226D-01
      0.2921015530D+02  0.2321844432D+00
      0.9286662960D+01  0.4679413484D+00
      0.3163926960D+01  0.3623119853D+00
 SP   3 1.00       0.000000000000
      0.7868272350D+01 -0.1193324198D+00  0.6899906659D-01
      0.1881288540D+01 -0.1608541517D+00  0.3164239610D+00
      0.5442492580D+00  0.1143456438D+01  0.7443082909D+00
 SP   1 1.00       0.000000000000
      0.1687144782D+00  0.1000000000D+01  0.1000000000D+01
 D   1 1.00       0.000000000000
      0.8000000000D+00  0.1000000000D+01
 ****
     49 0
 S   3 1.00       0.000000000000
      0.1873113696D+02  0.3349460434D-01
      0.2825394365D+01  0.2347269535D+00
      0.6401216923D+00  0.8137573261D+00
 S   1 1.00       0.000000000000
      0.1612777588D+00  0.1000000000D+01
 ****
     50 0
 S   3 1.00       0.000000000000
      0.1873113696D+02  0.3349460434D-01
      0.2825394365D+01  0.2347269535D+00
      0.6401216923D+00  0.8137573261D+00
 S   1 1.00       0.000000000000
      0.1612777588D+00  0.1000000000D+01
 ****
     51 0
 S   6 1.00       0.000000000000
      0.3047524880D+04  0.1834737132D-02
      0.4573695180D+03  0.1403732281D-01
      0.1039486850D+03  0.6884262226D-01
      0.2921015530D+02  0.2321844432D+00
      0.9286662960D+01  0.4679413484D+00
      0.3163926960D+01  0.3623119853D+00
 SP   3 1.00       0.000000000000
      0.7868272350D+01 -0.1193324198D+00  0.6899906659D-01
      0.1881288540D+01 -0.1608541517D+00  0.3164239610D+00
      0.5442492580D+00  0.1143456438D+01  0.7443082909D+00
 SP   1 1.00       0.000000000000
      0.1687144782D+00  0.1000000000D+01  0.1000000000D+01
 D   1 1.00       0.000000000000
      0.8000000000D+00  0.1000000000D+01
 ****
     52 0
 S   3 1.00       0.000000000000
      0.1873113696D+02  0.3349460434D-01
      0.2825394365D+01  0.2347269535D+00
      0.6401216923D+00  0.8137573261D+00
 S   1 1.00       0.000000000000
      0.1612777588D+00  0.1000000000D+01
 ****
     53 0
 S   3 1.00       0.000000000000
      0.1873113696D+02  0.3349460434D-01
      0.2825394365D+01  0.2347269535D+00
      0.6401216923D+00  0.8137573261D+00
 S   1 1.00       0.000000000000
      0.1612777588D+00  0.1000000000D+01
 ****
     54 0
 S   6 1.00       0.000000000000
      0.3047524880D+04  0.1834737132D-02
      0.4573695180D+03  0.1403732281D-01
      0.1039486850D+03  0.6884262226D-01
      0.2921015530D+02  0.2321844432D+00
      0.9286662960D+01  0.4679413484D+00
      0.3163926960D+01  0.3623119853D+00
 SP   3 1.00       0.000000000000
      0.7868272350D+01 -0.1193324198D+00  0.6899906659D-01
      0.1881288540D+01 -0.1608541517D+00  0.3164239610D+00
      0.5442492580D+00  0.1143456438D+01  0.7443082909D+00
 SP   1 1.00       0.000000000000
      0.1687144782D+00  0.1000000000D+01  0.1000000000D+01
 D   1 1.00       0.000000000000
      0.8000000000D+00  0.1000000000D+01
 ****
     55 0
 S   3 1.00       0.000000000000
      0.1873113696D+02  0.3349460434D-01
      0.2825394365D+01  0.2347269535D+00
      0.6401216923D+00  0.8137573261D+00
 S   1 1.00       0.000000000000
      0.1612777588D+00  0.1000000000D+01
 ****
     56 0
 S   6 1.00       0.000000000000
      0.3047524880D+04  0.1834737132D-02
      0.4573695180D+03  0.1403732281D-01
      0.1039486850D+03  0.6884262226D-01
      0.2921015530D+02  0.2321844432D+00
      0.9286662960D+01  0.4679413484D+00
      0.3163926960D+01  0.3623119853D+00
 SP   3 1.00       0.000000000000
      0.7868272350D+01 -0.1193324198D+00  0.6899906659D-01
      0.1881288540D+01 -0.1608541517D+00  0.3164239610D+00
      0.5442492580D+00  0.1143456438D+01  0.7443082909D+00
 SP   1 1.00       0.000000000000
      0.1687144782D+00  0.1000000000D+01  0.1000000000D+01
 D   1 1.00       0.000000000000
      0.8000000000D+00  0.1000000000D+01
 ****
     57 0
 S   3 1.00       0.000000000000
      0.1873113696D+02  0.3349460434D-01
      0.2825394365D+01  0.2347269535D+00
      0.6401216923D+00  0.8137573261D+00
 S   1 1.00       0.000000000000
      0.1612777588D+00  0.1000000000D+01
 ****
     58 0
 S   3 1.00       0.000000000000
      0.1873113696D+02  0.3349460434D-01
      0.2825394365D+01  0.2347269535D+00
      0.6401216923D+00  0.8137573261D+00
 S   1 1.00       0.000000000000
      0.1612777588D+00  0.1000000000D+01
 ****
     59 0
 S   3 1.00       0.000000000000
      0.1873113696D+02  0.3349460434D-01
      0.2825394365D+01  0.2347269535D+00
      0.6401216923D+00  0.8137573261D+00
 S   1 1.00       0.000000000000
      0.1612777588D+00  0.1000000000D+01
 ****
     60 0
 S   6 1.00       0.000000000000
      0.3047524880D+04  0.1834737132D-02
      0.4573695180D+03  0.1403732281D-01
      0.1039486850D+03  0.6884262226D-01
      0.2921015530D+02  0.2321844432D+00
      0.9286662960D+01  0.4679413484D+00
      0.3163926960D+01  0.3623119853D+00
 SP   3 1.00       0.000000000000
      0.7868272350D+01 -0.1193324198D+00  0.6899906659D-01
      0.1881288540D+01 -0.1608541517D+00  0.3164239610D+00
      0.5442492580D+00  0.1143456438D+01  0.7443082909D+00
 SP   1 1.00       0.000000000000
      0.1687144782D+00  0.1000000000D+01  0.1000000000D+01
 D   1 1.00       0.000000000000
      0.8000000000D+00  0.1000000000D+01
 ****
     61 0
 S   3 1.00       0.000000000000
      0.1873113696D+02  0.3349460434D-01
      0.2825394365D+01  0.2347269535D+00
      0.6401216923D+00  0.8137573261D+00
 S   1 1.00       0.000000000000
      0.1612777588D+00  0.1000000000D+01
 ****
     62 0
 S   3 1.00       0.000000000000
      0.1873113696D+02  0.3349460434D-01
      0.2825394365D+01  0.2347269535D+00
      0.6401216923D+00  0.8137573261D+00
 S   1 1.00       0.000000000000
      0.1612777588D+00  0.1000000000D+01
 ****
     63 0
 S   6 1.00       0.000000000000
      0.3047524880D+04  0.1834737132D-02
      0.4573695180D+03  0.1403732281D-01
      0.1039486850D+03  0.6884262226D-01
      0.2921015530D+02  0.2321844432D+00
      0.9286662960D+01  0.4679413484D+00
      0.3163926960D+01  0.3623119853D+00
 SP   3 1.00       0.000000000000
      0.7868272350D+01 -0.1193324198D+00  0.6899906659D-01
      0.1881288540D+01 -0.1608541517D+00  0.3164239610D+00
      0.5442492580D+00  0.1143456438D+01  0.7443082909D+00
 SP   1 1.00       0.000000000000
      0.1687144782D+00  0.1000000000D+01  0.1000000000D+01
 D   1 1.00       0.000000000000
      0.8000000000D+00  0.1000000000D+01
 ****
     64 0
 S   3 1.00       0.000000000000
      0.1873113696D+02  0.3349460434D-01
      0.2825394365D+01  0.2347269535D+00
      0.6401216923D+00  0.8137573261D+00
 S   1 1.00       0.000000000000
      0.1612777588D+00  0.1000000000D+01
 ****
     65 0
 S   3 1.00       0.000000000000
      0.1873113696D+02  0.3349460434D-01
      0.2825394365D+01  0.2347269535D+00
      0.6401216923D+00  0.8137573261D+00
 S   1 1.00       0.000000000000
      0.1612777588D+00  0.1000000000D+01
 ****
     66 0
 S   6 1.00       0.000000000000
      0.3047524880D+04  0.1834737132D-02
      0.4573695180D+03  0.1403732281D-01
      0.1039486850D+03  0.6884262226D-01
      0.2921015530D+02  0.2321844432D+00
      0.9286662960D+01  0.4679413484D+00
      0.3163926960D+01  0.3623119853D+00
 SP   3 1.00       0.000000000000
      0.7868272350D+01 -0.1193324198D+00  0.6899906659D-01
      0.1881288540D+01 -0.1608541517D+00  0.3164239610D+00
      0.5442492580D+00  0.1143456438D+01  0.7443082909D+00
 SP   1 1.00       0.000000000000
      0.1687144782D+00  0.1000000000D+01  0.1000000000D+01
 D   1 1.00       0.000000000000
      0.8000000000D+00  0.1000000000D+01
 ****
     67 0
 S   3 1.00       0.000000000000
      0.1873113696D+02  0.3349460434D-01
      0.2825394365D+01  0.2347269535D+00
      0.6401216923D+00  0.8137573261D+00
 S   1 1.00       0.000000000000
      0.1612777588D+00  0.1000000000D+01
 ****
     68 0
 S   6 1.00       0.000000000000
      0.3047524880D+04  0.1834737132D-02
      0.4573695180D+03  0.1403732281D-01
      0.1039486850D+03  0.6884262226D-01
      0.2921015530D+02  0.2321844432D+00
      0.9286662960D+01  0.4679413484D+00
      0.3163926960D+01  0.3623119853D+00
 SP   3 1.00       0.000000000000
      0.7868272350D+01 -0.1193324198D+00  0.6899906659D-01
      0.1881288540D+01 -0.1608541517D+00  0.3164239610D+00
      0.5442492580D+00  0.1143456438D+01  0.7443082909D+00
 SP   1 1.00       0.000000000000
      0.1687144782D+00  0.1000000000D+01  0.1000000000D+01
 D   1 1.00       0.000000000000
      0.8000000000D+00  0.1000000000D+01
 ****
     69 0
 S   3 1.00       0.000000000000
      0.1873113696D+02  0.3349460434D-01
      0.2825394365D+01  0.2347269535D+00
      0.6401216923D+00  0.8137573261D+00
 S   1 1.00       0.000000000000
      0.1612777588D+00  0.1000000000D+01
 ****
     70 0
 S   3 1.00       0.000000000000
      0.1873113696D+02  0.3349460434D-01
      0.2825394365D+01  0.2347269535D+00
      0.6401216923D+00  0.8137573261D+00
 S   1 1.00       0.000000000000
      0.1612777588D+00  0.1000000000D+01
 ****
     71 0
 S   3 1.00       0.000000000000
      0.1873113696D+02  0.3349460434D-01
      0.2825394365D+01  0.2347269535D+00
      0.6401216923D+00  0.8137573261D+00
 S   1 1.00       0.000000000000
      0.1612777588D+00  0.1000000000D+01
 ****
     72 0
 S   6 1.00       0.000000000000
      0.3047524880D+04  0.1834737132D-02
      0.4573695180D+03  0.1403732281D-01
      0.1039486850D+03  0.6884262226D-01
      0.2921015530D+02  0.2321844432D+00
      0.9286662960D+01  0.4679413484D+00
      0.3163926960D+01  0.3623119853D+00
 SP   3 1.00       0.000000000000
      0.7868272350D+01 -0.1193324198D+00  0.6899906659D-01
      0.1881288540D+01 -0.1608541517D+00  0.3164239610D+00
      0.5442492580D+00  0.1143456438D+01  0.7443082909D+00
 SP   1 1.00       0.000000000000
      0.1687144782D+00  0.1000000000D+01  0.1000000000D+01
 D   1 1.00       0.000000000000
      0.8000000000D+00  0.1000000000D+01
 ****
     73 0
 S   3 1.00       0.000000000000
      0.1873113696D+02  0.3349460434D-01
      0.2825394365D+01  0.2347269535D+00
      0.6401216923D+00  0.8137573261D+00
 S   1 1.00       0.000000000000
      0.1612777588D+00  0.1000000000D+01
 ****
     74 0
 S   3 1.00       0.000000000000
      0.1873113696D+02  0.3349460434D-01
      0.2825394365D+01  0.2347269535D+00
      0.6401216923D+00  0.8137573261D+00
 S   1 1.00       0.000000000000
      0.1612777588D+00  0.1000000000D+01
 ****
     75 0
 S   3 1.00       0.000000000000
      0.1873113696D+02  0.3349460434D-01
      0.2825394365D+01  0.2347269535D+00
      0.6401216923D+00  0.8137573261D+00
 S   1 1.00       0.000000000000
      0.1612777588D+00  0.1000000000D+01
 ****

 AO basis set (Overlap normalization):
 Atom O1       Shell     1 S   6     bf    1 -     1          0.000000000000          0.000000000000          0.000000000000
      0.5484671660D+04  0.1831074430D-02
      0.8252349460D+03  0.1395017220D-01
      0.1880469580D+03  0.6844507810D-01
      0.5296450000D+02  0.2327143360D+00
      0.1689757040D+02  0.4701928980D+00
      0.5799635340D+01  0.3585208530D+00
 Atom O1       Shell     2 SP   3    bf    2 -     5          0.000000000000          0.000000000000          0.000000000000
      0.1553961625D+02 -0.1107775495D+00  0.7087426823D-01
      0.3599933586D+01 -0.1480262627D+00  0.3397528391D+00
      0.1013761750D+01  0.1130767015D+01  0.7271585773D+00
 Atom O1       Shell     3 SP   1    bf    6 -     9          0.000000000000          0.000000000000          0.000000000000
      0.2700058226D+00  0.1000000000D+01  0.1000000000D+01
 Atom O1       Shell     4 D   1     bf   10 -    15          0.000000000000          0.000000000000          0.000000000000
      0.8000000000D+00  0.1000000000D+01
 Atom H2       Shell     5 S   3     bf   16 -    16          1.828556794005          0.000000000000          0.000000000000
      0.1873113696D+02  0.3349460434D-01
      0.2825394365D+01  0.2347269535D+00
      0.6401216923D+00  0.8137573261D+00
 Atom H2       Shell     6 S   1     bf   17 -    17          1.828556794005          0.000000000000          0.000000000000
      0.1612777588D+00  0.1000000000D+01
 Atom O3       Shell     7 S   6     bf   18 -    18          3.099245816671         -5.036137321751         12.179960352362
      0.5484671660D+04  0.1831074430D-02
      0.8252349460D+03  0.1395017220D-01
      0.1880469580D+03  0.6844507810D-01
      0.5296450000D+02  0.2327143360D+00
      0.1689757040D+02  0.4701928980D+00
      0.5799635340D+01  0.3585208530D+00
 Atom O3       Shell     8 SP   3    bf   19 -    22          3.099245816671         -5.036137321751         12.179960352362
      0.1553961625D+02 -0.1107775495D+00  0.7087426823D-01
      0.3599933586D+01 -0.1480262627D+00  0.3397528391D+00
      0.1013761750D+01  0.1130767015D+01  0.7271585773D+00
 Atom O3       Shell     9 SP   1    bf   23 -    26          3.099245816671         -5.036137321751         12.179960352362
      0.2700058226D+00  0.1000000000D+01  0.1000000000D+01
 Atom O3       Shell    10 D   1     bf   27 -    32          3.099245816671         -5.036137321751         12.179960352362
      0.8000000000D+00  0.1000000000D+01
 Atom H4       Shell    11 S   3     bf   33 -    33          4.872027835193         -4.602276138251         12.289956397270
      0.1873113696D+02  0.3349460434D-01
      0.2825394365D+01  0.2347269535D+00
      0.6401216923D+00  0.8137573261D+00
 Atom H4       Shell    12 S   1     bf   34 -    34          4.872027835193         -4.602276138251         12.289956397270
      0.1612777588D+00  0.1000000000D+01
 Atom C5       Shell    13 S   6     bf   35 -    35         -2.259101602628          7.791239915615          2.929175831533
      0.3047524880D+04  0.1834737132D-02
      0.4573695180D+03  0.1403732281D-01
      0.1039486850D+03  0.6884262226D-01
      0.2921015530D+02  0.2321844432D+00
      0.9286662960D+01  0.4679413484D+00
      0.3163926960D+01  0.3623119853D+00
 Atom C5       Shell    14 SP   3    bf   36 -    39         -2.259101602628          7.791239915615          2.929175831533
      0.7868272350D+01 -0.1193324198D+00  0.6899906659D-01
      0.1881288540D+01 -0.1608541517D+00  0.3164239610D+00
      0.5442492580D+00  0.1143456438D+01  0.7443082909D+00
 Atom C5       Shell    15 SP   1    bf   40 -    43         -2.259101602628          7.791239915615          2.929175831533
      0.1687144782D+00  0.1000000000D+01  0.1000000000D+01
 Atom C5       Shell    16 D   1     bf   44 -    49         -2.259101602628          7.791239915615          2.929175831533
      0.8000000000D+00  0.1000000000D+01
 Atom C6       Shell    17 S   6     bf   50 -    50         -2.434040920681          4.959560384305          2.153992313911
      0.3047524880D+04  0.1834737132D-02
      0.4573695180D+03  0.1403732281D-01
      0.1039486850D+03  0.6884262226D-01
      0.2921015530D+02  0.2321844432D+00
      0.9286662960D+01  0.4679413484D+00
      0.3163926960D+01  0.3623119853D+00
 Atom C6       Shell    18 SP   3    bf   51 -    54         -2.434040920681          4.959560384305          2.153992313911
      0.7868272350D+01 -0.1193324198D+00  0.6899906659D-01
      0.1881288540D+01 -0.1608541517D+00  0.3164239610D+00
      0.5442492580D+00  0.1143456438D+01  0.7443082909D+00
 Atom C6       Shell    19 SP   1    bf   55 -    58         -2.434040920681          4.959560384305          2.153992313911
      0.1687144782D+00  0.1000000000D+01  0.1000000000D+01
 Atom C6       Shell    20 D   1     bf   59 -    64         -2.434040920681          4.959560384305          2.153992313911
      0.8000000000D+00  0.1000000000D+01
 Atom H7       Shell    21 S   3     bf   65 -    65         -4.269902186492          4.311914577878          2.903612920318
      0.1873113696D+02  0.3349460434D-01
      0.2825394365D+01  0.2347269535D+00
      0.6401216923D+00  0.8137573261D+00
 Atom H7       Shell    22 S   1     bf   66 -    66         -4.269902186492          4.311914577878          2.903612920318
      0.1612777588D+00  0.1000000000D+01
 Atom C8       Shell    23 S   6     bf   67 -    67         -0.451895898233          3.214341155267          3.372276282939
      0.3047524880D+04  0.1834737132D-02
      0.4573695180D+03  0.1403732281D-01
      0.1039486850D+03  0.6884262226D-01
      0.2921015530D+02  0.2321844432D+00
      0.9286662960D+01  0.4679413484D+00
      0.3163926960D+01  0.3623119853D+00
 Atom C8       Shell    24 SP   3    bf   68 -    71         -0.451895898233          3.214341155267          3.372276282939
      0.7868272350D+01 -0.1193324198D+00  0.6899906659D-01
      0.1881288540D+01 -0.1608541517D+00  0.3164239610D+00
      0.5442492580D+00  0.1143456438D+01  0.7443082909D+00
 Atom C8       Shell    25 SP   1    bf   72 -    75         -0.451895898233          3.214341155267          3.372276282939
      0.1687144782D+00  0.1000000000D+01  0.1000000000D+01
 Atom C8       Shell    26 D   1     bf   76 -    81         -0.451895898233          3.214341155267          3.372276282939
      0.8000000000D+00  0.1000000000D+01
 Atom H9       Shell    27 S   3     bf   82 -    82          1.449285697779          3.774061897566          2.745336413620
      0.1873113696D+02  0.3349460434D-01
      0.2825394365D+01  0.2347269535D+00
      0.6401216923D+00  0.8137573261D+00
 Atom H9       Shell    28 S   1     bf   83 -    83          1.449285697779          3.774061897566          2.745336413620
      0.1612777588D+00  0.1000000000D+01
 Atom C10      Shell    29 S   6     bf   84 -    84         -0.617920357665          3.428582751767          6.297272569390
      0.3047524880D+04  0.1834737132D-02
      0.4573695180D+03  0.1403732281D-01
      0.1039486850D+03  0.6884262226D-01
      0.2921015530D+02  0.2321844432D+00
      0.9286662960D+01  0.4679413484D+00
      0.3163926960D+01  0.3623119853D+00
 Atom C10      Shell    30 SP   3    bf   85 -    88         -0.617920357665          3.428582751767          6.297272569390
      0.7868272350D+01 -0.1193324198D+00  0.6899906659D-01
      0.1881288540D+01 -0.1608541517D+00  0.3164239610D+00
      0.5442492580D+00  0.1143456438D+01  0.7443082909D+00
 Atom C10      Shell    31 SP   1    bf   89 -    92         -0.617920357665          3.428582751767          6.297272569390
      0.1687144782D+00  0.1000000000D+01  0.1000000000D+01
 Atom C10      Shell    32 D   1     bf   93 -    98         -0.617920357665          3.428582751767          6.297272569390
      0.8000000000D+00  0.1000000000D+01
 Atom H11      Shell    33 S   3     bf   99 -    99         -2.472880839836          2.632223870169          6.812749871836
      0.1873113696D+02  0.3349460434D-01
      0.2825394365D+01  0.2347269535D+00
      0.6401216923D+00  0.8137573261D+00
 Atom H11      Shell    34 S   1     bf  100 -   100         -2.472880839836          2.632223870169          6.812749871836
      0.1612777588D+00  0.1000000000D+01
 Atom C12      Shell    35 S   6     bf  101 -   101         -4.500293117962          8.894350141309          1.334420168778
      0.3047524880D+04  0.1834737132D-02
      0.4573695180D+03  0.1403732281D-01
      0.1039486850D+03  0.6884262226D-01
      0.2921015530D+02  0.2321844432D+00
      0.9286662960D+01  0.4679413484D+00
      0.3163926960D+01  0.3623119853D+00
 Atom C12      Shell    36 SP   3    bf  102 -   105         -4.500293117962          8.894350141309          1.334420168778
      0.7868272350D+01 -0.1193324198D+00  0.6899906659D-01
      0.1881288540D+01 -0.1608541517D+00  0.3164239610D+00
      0.5442492580D+00  0.1143456438D+01  0.7443082909D+00
 Atom C12      Shell    37 SP   1    bf  106 -   109         -4.500293117962          8.894350141309          1.334420168778
      0.1687144782D+00  0.1000000000D+01  0.1000000000D+01
 Atom C12      Shell    38 D   1     bf  110 -   115         -4.500293117962          8.894350141309          1.334420168778
      0.8000000000D+00  0.1000000000D+01
 Atom H13      Shell    39 S   3     bf  116 -   116         -6.231707670832          8.245117135006          2.285953685011
      0.1873113696D+02  0.3349460434D-01
      0.2825394365D+01  0.2347269535D+00
      0.6401216923D+00  0.8137573261D+00
 Atom H13      Shell    40 S   1     bf  117 -   117         -6.231707670832          8.245117135006          2.285953685011
      0.1612777588D+00  0.1000000000D+01
 Atom C14      Shell    41 S   6     bf  118 -   118         -2.573233196547          7.892805174147          5.822596910796
      0.3047524880D+04  0.1834737132D-02
      0.4573695180D+03  0.1403732281D-01
      0.1039486850D+03  0.6884262226D-01
      0.2921015530D+02  0.2321844432D+00
      0.9286662960D+01  0.4679413484D+00
      0.3163926960D+01  0.3623119853D+00
 Atom C14      Shell    42 SP   3    bf  119 -   122         -2.573233196547          7.892805174147          5.822596910796
      0.7868272350D+01 -0.1193324198D+00  0.6899906659D-01
      0.1881288540D+01 -0.1608541517D+00  0.3164239610D+00
      0.5442492580D+00  0.1143456438D+01  0.7443082909D+00
 Atom C14      Shell    43 SP   1    bf  123 -   126         -2.573233196547          7.892805174147          5.822596910796
      0.1687144782D+00  0.1000000000D+01  0.1000000000D+01
 Atom C14      Shell    44 D   1     bf  127 -   132         -2.573233196547          7.892805174147          5.822596910796
      0.8000000000D+00  0.1000000000D+01
 Atom H15      Shell    45 S   3     bf  133 -   133         -4.491294298809          7.256073027467          6.306523383523
      0.1873113696D+02  0.3349460434D-01
      0.2825394365D+01  0.2347269535D+00
      0.6401216923D+00  0.8137573261D+00
 Atom H15      Shell    46 S   1     bf  134 -   134         -4.491294298809          7.256073027467          6.306523383523
      0.1612777588D+00  0.1000000000D+01
 Atom H16      Shell    47 S   3     bf  135 -   135         -2.394505525618          9.822700950878          6.545233758704
      0.1873113696D+02  0.3349460434D-01
      0.2825394365D+01  0.2347269535D+00
      0.6401216923D+00  0.8137573261D+00
 Atom H16      Shell    48 S   1     bf  136 -   136         -2.394505525618          9.822700950878          6.545233758704
      0.1612777588D+00  0.1000000000D+01
 Atom C17      Shell    49 S   6     bf  137 -   137          1.382505762010          1.758320171194          7.710073570385
      0.3047524880D+04  0.1834737132D-02
      0.4573695180D+03  0.1403732281D-01
      0.1039486850D+03  0.6884262226D-01
      0.2921015530D+02  0.2321844432D+00
      0.9286662960D+01  0.4679413484D+00
      0.3163926960D+01  0.3623119853D+00
 Atom C17      Shell    50 SP   3    bf  138 -   141          1.382505762010          1.758320171194          7.710073570385
      0.7868272350D+01 -0.1193324198D+00  0.6899906659D-01
      0.1881288540D+01 -0.1608541517D+00  0.3164239610D+00
      0.5442492580D+00  0.1143456438D+01  0.7443082909D+00
 Atom C17      Shell    51 SP   1    bf  142 -   145          1.382505762010          1.758320171194          7.710073570385
      0.1687144782D+00  0.1000000000D+01  0.1000000000D+01
 Atom C17      Shell    52 D   1     bf  146 -   151          1.382505762010          1.758320171194          7.710073570385
      0.8000000000D+00  0.1000000000D+01
 Atom C18      Shell    53 S   6     bf  152 -   152         -2.708165595073          5.024860721203         -0.738389189212
      0.3047524880D+04  0.1834737132D-02
      0.4573695180D+03  0.1403732281D-01
      0.1039486850D+03  0.6884262226D-01
      0.2921015530D+02  0.2321844432D+00
      0.9286662960D+01  0.4679413484D+00
      0.3163926960D+01  0.3623119853D+00
 Atom C18      Shell    54 SP   3    bf  153 -   156         -2.708165595073          5.024860721203         -0.738389189212
      0.7868272350D+01 -0.1193324198D+00  0.6899906659D-01
      0.1881288540D+01 -0.1608541517D+00  0.3164239610D+00
      0.5442492580D+00  0.1143456438D+01  0.7443082909D+00
 Atom C18      Shell    55 SP   1    bf  157 -   160         -2.708165595073          5.024860721203         -0.738389189212
      0.1687144782D+00  0.1000000000D+01  0.1000000000D+01
 Atom C18      Shell    56 D   1     bf  161 -   166         -2.708165595073          5.024860721203         -0.738389189212
      0.8000000000D+00  0.1000000000D+01
 Atom H19      Shell    57 S   3     bf  167 -   167         -3.610310892055          3.322447606322         -1.480130261254
      0.1873113696D+02  0.3349460434D-01
      0.2825394365D+01  0.2347269535D+00
      0.6401216923D+00  0.8137573261D+00
 Atom H19      Shell    58 S   1     bf  168 -   168         -3.610310892055          3.322447606322         -1.480130261254
      0.1612777588D+00  0.1000000000D+01
 Atom H20      Shell    59 S   3     bf  169 -   169         -0.851733620956          5.129892398868         -1.646575808360
      0.1873113696D+02  0.3349460434D-01
      0.2825394365D+01  0.2347269535D+00
      0.6401216923D+00  0.8137573261D+00
 Atom H20      Shell    60 S   1     bf  170 -   170         -0.851733620956          5.129892398868         -1.646575808360
      0.1612777588D+00  0.1000000000D+01
 Atom C21      Shell    61 S   6     bf  171 -   171         -0.624501461203          6.212225029039          7.184286885918
      0.3047524880D+04  0.1834737132D-02
      0.4573695180D+03  0.1403732281D-01
      0.1039486850D+03  0.6884262226D-01
      0.2921015530D+02  0.2321844432D+00
      0.9286662960D+01  0.4679413484D+00
      0.3163926960D+01  0.3623119853D+00
 Atom C21      Shell    62 SP   3    bf  172 -   175         -0.624501461203          6.212225029039          7.184286885918
      0.7868272350D+01 -0.1193324198D+00  0.6899906659D-01
      0.1881288540D+01 -0.1608541517D+00  0.3164239610D+00
      0.5442492580D+00  0.1143456438D+01  0.7443082909D+00
 Atom C21      Shell    63 SP   1    bf  176 -   179         -0.624501461203          6.212225029039          7.184286885918
      0.1687144782D+00  0.1000000000D+01  0.1000000000D+01
 Atom C21      Shell    64 D   1     bf  180 -   185         -0.624501461203          6.212225029039          7.184286885918
      0.8000000000D+00  0.1000000000D+01
 Atom H22      Shell    65 S   3     bf  186 -   186          1.256843339440          7.034593061781          6.921838111206
      0.1873113696D+02  0.3349460434D-01
      0.2825394365D+01  0.2347269535D+00
      0.6401216923D+00  0.8137573261D+00
 Atom H22      Shell    66 S   1     bf  187 -   187          1.256843339440          7.034593061781          6.921838111206
      0.1612777588D+00  0.1000000000D+01
 Atom H23      Shell    67 S   3     bf  188 -   188         -1.001119079583          6.290720699914          9.218714243190
      0.1873113696D+02  0.3349460434D-01
      0.2825394365D+01  0.2347269535D+00
      0.6401216923D+00  0.8137573261D+00
 Atom H23      Shell    68 S   1     bf  189 -   189         -1.001119079583          6.290720699914          9.218714243190
      0.1612777588D+00  0.1000000000D+01
 Atom C24      Shell    69 S   6     bf  190 -   190         -4.275847416084          7.455760973744         -1.236507920935
      0.3047524880D+04  0.1834737132D-02
      0.4573695180D+03  0.1403732281D-01
      0.1039486850D+03  0.6884262226D-01
      0.2921015530D+02  0.2321844432D+00
      0.9286662960D+01  0.4679413484D+00
      0.3163926960D+01  0.3623119853D+00
 Atom C24      Shell    70 SP   3    bf  191 -   194         -4.275847416084          7.455760973744         -1.236507920935
      0.7868272350D+01 -0.1193324198D+00  0.6899906659D-01
      0.1881288540D+01 -0.1608541517D+00  0.3164239610D+00
      0.5442492580D+00  0.1143456438D+01  0.7443082909D+00
 Atom C24      Shell    71 SP   1    bf  195 -   198         -4.275847416084          7.455760973744         -1.236507920935
      0.1687144782D+00  0.1000000000D+01  0.1000000000D+01
 Atom C24      Shell    72 D   1     bf  199 -   204         -4.275847416084          7.455760973744         -1.236507920935
      0.8000000000D+00  0.1000000000D+01
 Atom H25      Shell    73 S   3     bf  205 -   205         -3.340336018458          8.650253895471         -2.647806835320
      0.1873113696D+02  0.3349460434D-01
      0.2825394365D+01  0.2347269535D+00
      0.6401216923D+00  0.8137573261D+00
 Atom H25      Shell    74 S   1     bf  206 -   206         -3.340336018458          8.650253895471         -2.647806835320
      0.1612777588D+00  0.1000000000D+01
 Atom H26      Shell    75 S   3     bf  207 -   207         -6.145458245764          7.014043480614         -2.003485510695
      0.1873113696D+02  0.3349460434D-01
      0.2825394365D+01  0.2347269535D+00
      0.6401216923D+00  0.8137573261D+00
 Atom H26      Shell    76 S   1     bf  208 -   208         -6.145458245764          7.014043480614         -2.003485510695
      0.1612777588D+00  0.1000000000D+01
 Atom C27      Shell    77 S   6     bf  209 -   209         -0.836795033520          0.445717438641          2.553787404414
      0.3047524880D+04  0.1834737132D-02
      0.4573695180D+03  0.1403732281D-01
      0.1039486850D+03  0.6884262226D-01
      0.2921015530D+02  0.2321844432D+00
      0.9286662960D+01  0.4679413484D+00
      0.3163926960D+01  0.3623119853D+00
 Atom C27      Shell    78 SP   3    bf  210 -   213         -0.836795033520          0.445717438641          2.553787404414
      0.7868272350D+01 -0.1193324198D+00  0.6899906659D-01
      0.1881288540D+01 -0.1608541517D+00  0.3164239610D+00
      0.5442492580D+00  0.1143456438D+01  0.7443082909D+00
 Atom C27      Shell    79 SP   1    bf  214 -   217         -0.836795033520          0.445717438641          2.553787404414
      0.1687144782D+00  0.1000000000D+01  0.1000000000D+01
 Atom C27      Shell    80 D   1     bf  218 -   223         -0.836795033520          0.445717438641          2.553787404414
      0.8000000000D+00  0.1000000000D+01
 Atom H28      Shell    81 S   3     bf  224 -   224         -2.873971016349          0.048733599220          2.464506745245
      0.1873113696D+02  0.3349460434D-01
      0.2825394365D+01  0.2347269535D+00
      0.6401216923D+00  0.8137573261D+00
 Atom H28      Shell    82 S   1     bf  225 -   225         -2.873971016349          0.048733599220          2.464506745245
      0.1612777588D+00  0.1000000000D+01
 Atom C29      Shell    83 S   6     bf  226 -   226         -4.736907843554         11.790718626422          0.987181007648
      0.3047524880D+04  0.1834737132D-02
      0.4573695180D+03  0.1403732281D-01
      0.1039486850D+03  0.6884262226D-01
      0.2921015530D+02  0.2321844432D+00
      0.9286662960D+01  0.4679413484D+00
      0.3163926960D+01  0.3623119853D+00
 Atom C29      Shell    84 SP   3    bf  227 -   230         -4.736907843554         11.790718626422          0.987181007648
      0.7868272350D+01 -0.1193324198D+00  0.6899906659D-01
      0.1881288540D+01 -0.1608541517D+00  0.3164239610D+00
      0.5442492580D+00  0.1143456438D+01  0.7443082909D+00
 Atom C29      Shell    85 SP   1    bf  231 -   234         -4.736907843554         11.790718626422          0.987181007648
      0.1687144782D+00  0.1000000000D+01  0.1000000000D+01
 Atom C29      Shell    86 D   1     bf  235 -   240         -4.736907843554         11.790718626422          0.987181007648
      0.8000000000D+00  0.1000000000D+01
 Atom H30      Shell    87 S   3     bf  241 -   241         -3.021726529494         12.428601295064          0.000000000000
      0.1873113696D+02  0.3349460434D-01
      0.2825394365D+01  0.2347269535D+00
      0.6401216923D+00  0.8137573261D+00
 Atom H30      Shell    88 S   1     bf  242 -   242         -3.021726529494         12.428601295064          0.000000000000
      0.1612777588D+00  0.1000000000D+01
 Atom C31      Shell    89 S   6     bf  243 -   243          0.267705955019          9.013747554830          2.120912015448
      0.3047524880D+04  0.1834737132D-02
      0.4573695180D+03  0.1403732281D-01
      0.1039486850D+03  0.6884262226D-01
      0.2921015530D+02  0.2321844432D+00
      0.9286662960D+01  0.4679413484D+00
      0.3163926960D+01  0.3623119853D+00
 Atom C31      Shell    90 SP   3    bf  244 -   247          0.267705955019          9.013747554830          2.120912015448
      0.7868272350D+01 -0.1193324198D+00  0.6899906659D-01
      0.1881288540D+01 -0.1608541517D+00  0.3164239610D+00
      0.5442492580D+00  0.1143456438D+01  0.7443082909D+00
 Atom C31      Shell    91 SP   1    bf  248 -   251          0.267705955019          9.013747554830          2.120912015448
      0.1687144782D+00  0.1000000000D+01  0.1000000000D+01
 Atom C31      Shell    92 D   1     bf  252 -   257          0.267705955019          9.013747554830          2.120912015448
      0.8000000000D+00  0.1000000000D+01
 Atom H32      Shell    93 S   3     bf  258 -   258          1.904858492840          8.024796459611          2.901231392960
      0.1873113696D+02  0.3349460434D-01
      0.2825394365D+01  0.2347269535D+00
      0.6401216923D+00  0.8137573261D+00
 Atom H32      Shell    94 S   1     bf  259 -   259          1.904858492840          8.024796459611          2.901231392960
      0.1612777588D+00  0.1000000000D+01
 Atom H33      Shell    95 S   3     bf  260 -   260          0.493342033183          9.035810768836          0.066158008001
      0.1873113696D+02  0.3349460434D-01
      0.2825394365D+01  0.2347269535D+00
      0.6401216923D+00  0.8137573261D+00
 Atom H33      Shell    96 S   1     bf  261 -   261          0.493342033183          9.035810768836          0.066158008001
      0.1612777588D+00  0.1000000000D+01
 Atom H34      Shell    97 S   3     bf  262 -   262          0.372547412851         10.974405068340          2.774957058171
      0.1873113696D+02  0.3349460434D-01
      0.2825394365D+01  0.2347269535D+00
      0.6401216923D+00  0.8137573261D+00
 Atom H34      Shell    98 S   1     bf  263 -   263          0.372547412851         10.974405068340          2.774957058171
      0.1612777588D+00  0.1000000000D+01
 Atom C35      Shell    99 S   6     bf  264 -   264          1.454049092647         -0.890734053449          6.541914587032
      0.3047524880D+04  0.1834737132D-02
      0.4573695180D+03  0.1403732281D-01
      0.1039486850D+03  0.6884262226D-01
      0.2921015530D+02  0.2321844432D+00
      0.9286662960D+01  0.4679413484D+00
      0.3163926960D+01  0.3623119853D+00
 Atom C35      Shell   100 SP   3    bf  265 -   268          1.454049092647         -0.890734053449          6.541914587032
      0.7868272350D+01 -0.1193324198D+00  0.6899906659D-01
      0.1881288540D+01 -0.1608541517D+00  0.3164239610D+00
      0.5442492580D+00  0.1143456438D+01  0.7443082909D+00
 Atom C35      Shell   101 SP   1    bf  269 -   272          1.454049092647         -0.890734053449          6.541914587032
      0.1687144782D+00  0.1000000000D+01  0.1000000000D+01
 Atom C35      Shell   102 D   1     bf  273 -   278          1.454049092647         -0.890734053449          6.541914587032
      0.8000000000D+00  0.1000000000D+01
 Atom C36      Shell   103 S   6     bf  279 -   279          0.567767763091          1.497275992122         10.532996847789
      0.3047524880D+04  0.1834737132D-02
      0.4573695180D+03  0.1403732281D-01
      0.1039486850D+03  0.6884262226D-01
      0.2921015530D+02  0.2321844432D+00
      0.9286662960D+01  0.4679413484D+00
      0.3163926960D+01  0.3623119853D+00
 Atom C36      Shell   104 SP   3    bf  280 -   283          0.567767763091          1.497275992122         10.532996847789
      0.7868272350D+01 -0.1193324198D+00  0.6899906659D-01
      0.1881288540D+01 -0.1608541517D+00  0.3164239610D+00
      0.5442492580D+00  0.1143456438D+01  0.7443082909D+00
 Atom C36      Shell   105 SP   1    bf  284 -   287          0.567767763091          1.497275992122         10.532996847789
      0.1687144782D+00  0.1000000000D+01  0.1000000000D+01
 Atom C36      Shell   106 D   1     bf  288 -   293          0.567767763091          1.497275992122         10.532996847789
      0.8000000000D+00  0.1000000000D+01
 Atom H37      Shell   107 S   3     bf  294 -   294         -1.452911723180          1.022224920535         10.583542070761
      0.1873113696D+02  0.3349460434D-01
      0.2825394365D+01  0.2347269535D+00
      0.6401216923D+00  0.8137573261D+00
 Atom H37      Shell   108 S   1     bf  295 -   295         -1.452911723180          1.022224920535         10.583542070761
      0.1612777588D+00  0.1000000000D+01
 Atom H38      Shell   109 S   3     bf  296 -   296          0.763778359006          3.327451903478         11.478689749668
      0.1873113696D+02  0.3349460434D-01
      0.2825394365D+01  0.2347269535D+00
      0.6401216923D+00  0.8137573261D+00
 Atom H38      Shell   110 S   1     bf  297 -   297          0.763778359006          3.327451903478         11.478689749668
      0.1612777588D+00  0.1000000000D+01
 Atom C39      Shell   111 S   6     bf  298 -   298          0.402449343137         -1.422216939398          4.298225099415
      0.3047524880D+04  0.1834737132D-02
[...]
 1533 Fit       0.000474
 1534 Fit       0.001240
 1535 Fit       0.001409
 1536 Fit      -0.000491
 1537 Fit       0.000142
 1538 Fit      -0.001277
 1539 Fit       0.001101
 1540 Fit       0.001823
 1541 Fit       0.001478
 1542 Fit      -0.000064
 1543 Fit      -0.002321
 1544 Fit       0.002432
 1545 Fit       0.001726
 1546 Fit       0.000278
 1547 Fit      -0.001873
 1548 Fit       0.000182
 1549 Fit      -0.001510
 1550 Fit       0.002036
 1551 Fit       0.004155
 1552 Fit       0.002595
 1553 Fit       0.000248
 1554 Fit      -0.000790
 1555 Fit       0.000666
 1556 Fit       0.003161
 1557 Fit       0.005281
 1558 Fit      -0.002059
 1559 Fit       0.000032
 1560 Fit       0.002492
 1561 Fit       0.004506
 1562 Fit      -0.001030
 1563 Fit       0.001470
 1564 Fit       0.003873
 1565 Fit      -0.000980
 1566 Fit      -0.002128
 1567 Fit      -0.002615
 1568 Fit      -0.003007
 1569 Fit      -0.001448
 1570 Fit      -0.003290
 1571 Fit      -0.003470
 1572 Fit      -0.003206
 1573 Fit      -0.002265
 1574 Fit      -0.003113
 1575 Fit      -0.002717
 1576 Fit      -0.001164
 1577 Fit       0.000611
 1578 Fit       0.001552
 1579 Fit      -0.000682
 1580 Fit      -0.002015
 1581 Fit      -0.001288
 1582 Fit       0.000517
 1583 Fit       0.001913
 1584 Fit       0.000486
 1585 Fit      -0.000114
 1586 Fit       0.001478
 1587 Fit      -0.000428
 1588 Fit       0.001442
 1589 Fit       0.002324
 1590 Fit      -0.000612
 1591 Fit       0.001057
 1592 Fit       0.001589
 1593 Fit       0.000907
 1594 Fit      -0.002396
 1595 Fit      -0.000665
 1596 Fit      -0.000294
 1597 Fit      -0.001510
 1598 Fit      -0.002837
 1599 Fit       0.001929
 1600 Fit       0.000867
 1601 Fit      -0.001133
 1602 Fit       0.002524
 1603 Fit       0.002123
 1604 Fit       0.000784
 1605 Fit      -0.001442
 1606 Fit       0.000547
 1607 Fit       0.001492
 1608 Fit       0.000941
 1609 Fit      -0.000984
 1610 Fit      -0.000648
 1611 Fit      -0.001515
 1612 Fit      -0.015151
 1613 Fit      -0.021132
 1614 Fit      -0.021734
 1615 Fit      -0.018558
 1616 Fit      -0.011295
 1617 Fit      -0.024622
 1618 Fit      -0.024159
 1619 Fit      -0.019708
 1620 Fit      -0.011208
 1621 Fit      -0.010135
 1622 Fit      -0.015078
 1623 Fit      -0.024563
 1624 Fit      -0.023280
 1625 Fit      -0.016069
 1626 Fit      -0.020128
 1627 Fit       0.016921
 1628 Fit       0.018563
 1629 Fit       0.008001
 1630 Fit       0.013337
 1631 Fit       0.016013
 1632 Fit       0.015880
 1633 Fit       0.012372
 1634 Fit       0.007379
 1635 Fit       0.013196
 1636 Fit       0.011181
 1637 Fit       0.009620
 1638 Fit       0.002666
 1639 Fit      -0.001007
 1640 Fit       0.007773
 1641 Fit       0.002244
 1642 Fit      -0.014823
 1643 Fit      -0.005816
 1644 Fit      -0.005762
 1645 Fit      -0.018063
 1646 Fit      -0.021181
 1647 Fit      -0.015025
 1648 Fit      -0.016164
 1649 Fit      -0.022253
 1650 Fit      -0.024583
 1651 Fit      -0.021757
 1652 Fit      -0.013699
 1653 Fit      -0.002193
 1654 Fit      -0.021856
 1655 Fit      -0.025366
 1656 Fit      -0.024091
 1657 Fit      -0.017639
 1658 Fit      -0.006318
 1659 Fit      -0.022704
 1660 Fit      -0.024392
 1661 Fit      -0.021447
 1662 Fit      -0.013778
 1663 Fit      -0.019506
 1664 Fit      -0.020457
 1665 Fit      -0.015743
 1666 Fit      -0.005548
 1667 Fit       0.006297
 1668 Fit       0.005529
 1669 Fit       0.014362
 1670 Fit       0.016443
 1671 Fit       0.007736
 1672 Fit       0.018742
 1673 Fit       0.021735
 1674 Fit       0.003464
 1675 Fit       0.012942
 1676 Fit       0.020112
 1677 Fit       0.024163
 1678 Fit       0.003802
 1679 Fit       0.013718
 1680 Fit       0.010229
 1681 Fit       0.005066
 1682 Fit       0.003606
 1683 Fit       0.003317
 1684 Fit       0.002021
 1685 Fit       0.001311
 1686 Fit       0.013377
 1687 Fit       0.007283
 1688 Fit       0.005997
 1689 Fit       0.006533
 1690 Fit       0.005694
 1691 Fit       0.005162
 1692 Fit       0.003650
 1693 Fit       0.005198
 1694 Fit       0.004826
 1695 Fit       0.003141
 1696 Fit       0.001783
 1697 Fit       0.003668
 1698 Fit       0.003719
 1699 Fit       0.005006
 1700 Fit       0.002209
 1701 Fit       0.003602
 1702 Fit       0.004438
 1703 Fit       0.005303
 1704 Fit       0.004579
 1705 Fit       0.004744
 1706 Fit       0.004880
 1707 Fit       0.005637
 1708 Fit       0.004861
 1709 Fit       0.004284
 1710 Fit       0.003062
 1711 Fit       0.004984
 1712 Fit       0.004597
 1713 Fit       0.002918
 1714 Fit       0.001506
 1715 Fit       0.005295
 1716 Fit       0.005884
 1717 Fit      -0.021199
 1718 Fit      -0.010250
 1719 Fit      -0.011922
 1720 Fit      -0.008021
 1721 Fit      -0.002446
 1722 Fit      -0.005253
 1723 Fit      -0.004430
 1724 Fit      -0.008493
 1725 Fit      -0.019206
 1726 Fit      -0.005559
 1727 Fit      -0.009188
 1728 Fit      -0.017651
 1729 Fit      -0.007538
 1730 Fit      -0.010878
 1731 Fit      -0.016222
 1732 Fit       0.002915
 1733 Fit      -0.000794
 1734 Fit       0.000788
 1735 Fit      -0.005945
 1736 Fit      -0.004174
 1737 Fit      -0.002450
 1738 Fit      -0.010457
 1739 Fit      -0.007014
 1740 Fit       0.008308
 1741 Fit       0.004846
 1742 Fit       0.005921
 1743 Fit       0.006363
 1744 Fit       0.005282
 1745 Fit       0.007445
 1746 Fit       0.007938
 1747 Fit       0.006686
 1748 Fit       0.006720
 1749 Fit       0.008169
 1750 Fit       0.006043
 1751 Fit       0.005215
 1752 Fit       0.004764
 1753 Fit       0.005028
 1754 Fit       0.005659
 1755 Fit      -0.003837
 1756 Fit      -0.005842
 1757 Fit      -0.006710
 1758 Fit       0.000458
 1759 Fit       0.001576
 1760 Fit       0.001309
 1761 Fit      -0.001107
 1762 Fit       0.000111
 1763 Fit      -0.000506
 1764 Fit      -0.002858
 1765 Fit      -0.004354
 1766 Fit      -0.002168
 1767 Fit       0.001195
 1768 Fit      -0.000724
 1769 Fit      -0.000047
 1770 Fit      -0.001810
 1771 Fit      -0.001136
 1772 Fit      -0.001000
 1773 Fit      -0.002575
 1774 Fit      -0.002159
 1775 Fit      -0.002232
 1776 Fit      -0.004010
 1777 Fit       0.003047
 1778 Fit      -0.000435
 1779 Fit       0.002916
 1780 Fit       0.000998
 1781 Fit      -0.001240
 1782 Fit       0.000104
 1783 Fit      -0.001762
 1784 Fit      -0.004345
 1785 Fit      -0.007075
 1786 Fit      -0.006150
 1787 Fit      -0.010804
 1788 Fit       0.001222
 1789 Fit       0.001431
 1790 Fit       0.001211
 1791 Fit       0.000524
 1792 Fit       0.001469
 1793 Fit       0.000613
 1794 Fit       0.001945
 1795 Fit       0.000449
 1796 Fit       0.003770
 1797 Fit       0.002524
 1798 Fit       0.001436
 1799 Fit       0.000945
 1800 Fit       0.002105
 1801 Fit       0.000955
 1802 Fit       0.000565
 1803 Fit       0.000917
 1804 Fit       0.004007
 1805 Fit       0.005896
 1806 Fit       0.007197
 1807 Fit       0.004500
 1808 Fit       0.005775
 1809 Fit       0.002882
 1810 Fit       0.009764
 1811 Fit       0.006839
 1812 Fit       0.002329
 1813 Fit       0.001874
 1814 Fit       0.001756
 1815 Fit       0.002658
 1816 Fit       0.002419
 1817 Fit       0.002561
 1818 Fit       0.005655
 1819 Fit       0.004039
 1820 Fit       0.004979
 1821 Fit       0.002609
 1822 Fit       0.003439
 1823 Fit       0.003891
 1824 Fit       0.002159
 1825 Fit       0.002516
 1826 Fit       0.001264
 1827 Fit       0.006895
 1828 Fit       0.006261
 1829 Fit       0.004844
 1830 Fit       0.005587
 1831 Fit       0.004730
 1832 Fit       0.004951
 1833 Fit       0.004726
 1834 Fit       0.004285
 1835 Fit       0.005673
 1836 Fit       0.005531
 1837 Fit       0.005028
 1838 Fit       0.006332
 1839 Fit       0.004972
 1840 Fit       0.007584
 1841 Fit       0.006957
 1842 Fit       0.008798
 1843 Fit       0.008801
 1844 Fit       0.008421
 1845 Fit       0.007405
 1846 Fit       0.005704
 1847 Fit      -0.001408
 1848 Fit      -0.003152
 1849 Fit      -0.003068
 1850 Fit      -0.002624
 1851 Fit      -0.002998
 1852 Fit       0.007191
 1853 Fit      -0.001156
 1854 Fit       0.001244
 1855 Fit      -0.003795
 1856 Fit      -0.001900
 1857 Fit       0.000359
 1858 Fit       0.002295
 1859 Fit       0.003478
 1860 Fit       0.003702
 1861 Fit      -0.006441
 1862 Fit      -0.002685
 1863 Fit      -0.000182
 1864 Fit       0.002063
 1865 Fit       0.007409
 1866 Fit       0.006483
 1867 Fit       0.007325
 1868 Fit       0.006127
 1869 Fit       0.006010
 1870 Fit       0.008276
 1871 Fit       0.008274
 1872 Fit       0.009103
 1873 Fit       0.009142
 1874 Fit       0.007993
 1875 Fit       0.008554
 1876 Fit       0.008908
 1877 Fit       0.006926
 1878 Fit       0.007589
 1879 Fit       0.008231
 1880 Fit       0.006942
 1881 Fit       0.012973
 1882 Fit       0.009284
 1883 Fit       0.019755
 1884 Fit       0.011029
 1885 Fit       0.008158
 1886 Fit       0.015217
 1887 Fit       0.009216
 1888 Fit       0.011990
 1889 Fit       0.009507
 1890 Fit       0.007485
 1891 Fit       0.007136
 1892 Fit       0.007290
 1893 Fit       0.009538
 1894 Fit       0.009113
 1895 Fit       0.011426
 1896 Fit       0.010467
 1897 Fit       0.013117
 1898 Fit      -0.002102
 1899 Fit       0.003542
 1900 Fit       0.005204
 1901 Fit       0.003847
 1902 Fit      -0.006728
 1903 Fit      -0.009596
 1904 Fit      -0.009675
 1905 Fit      -0.005430
 1906 Fit      -0.000864
 1907 Fit      -0.000973
 1908 Fit      -0.001578
 1909 Fit      -0.001337
 1910 Fit       0.000263
 1911 Fit       0.002367
 1912 Fit       0.002428
 1913 Fit       0.003178
 1914 Fit       0.017256
 1915 Fit       0.016217
 1916 Fit       0.012170
 1917 Fit       0.006163
 1918 Fit       0.010052
 1919 Fit       0.008852
 1920 Fit       0.006564
 1921 Fit       0.006063
 1922 Fit       0.005846
 1923 Fit       0.005690
 1924 Fit       0.002286
 1925 Fit       0.007058
 1926 Fit       0.012020
 1927 Fit       0.009414
 1928 Fit       0.007896
 1929 Fit       0.016081
 1930 Fit       0.012174
 1931 Fit       0.009899
 1932 Fit       0.009550
 1933 Fit       0.001487
 1934 Fit       0.001549
 1935 Fit       0.003700
 1936 Fit       0.003913
 1937 Fit       0.001993
 1938 Fit      -0.002357
 1939 Fit      -0.003229
 1940 Fit       0.005333
 1941 Fit       0.005670
 1942 Fit       0.005050
 1943 Fit       0.003748
 1944 Fit       0.000915
 1945 Fit      -0.005147
 1946 Fit       0.003800
 1947 Fit       0.000370
 1948 Fit      -0.000909
 1949 Fit      -0.001879
 1950 Fit      -0.001400
 1951 Fit       0.002345
 1952 Fit       0.002364
 1953 Fit       0.000763
 1954 Fit       0.001384
 1955 Fit       0.001519
 1956 Fit       0.001249
 1957 Fit      -0.000867
 1958 Fit      -0.000078
 1959 Fit       0.000221
 1960 Fit      -0.000198
 1961 Fit      -0.001675
 1962 Fit      -0.001497
 1963 Fit      -0.000344
 1964 Fit      -0.001703
 1965 Fit      -0.001190
 1966 Fit      -0.000002
 1967 Fit      -0.000716
 1968 Fit      -0.001011
 1969 Fit      -0.000507
 1970 Fit      -0.000874
 1971 Fit      -0.000934
 1972 Fit      -0.000421
 1973 Fit      -0.007661
 1974 Fit      -0.004169
 1975 Fit       0.002262
 1976 Fit      -0.002496
 1977 Fit      -0.010106
 1978 Fit       0.002193
 1979 Fit      -0.001613
 1980 Fit      -0.007234
 1981 Fit       0.002196
 1982 Fit      -0.000549
 1983 Fit      -0.004295
 1984 Fit      -0.010545
 1985 Fit      -0.001237
 1986 Fit      -0.002219
 1987 Fit       0.000909
 1988 Fit       0.000487
 1989 Fit      -0.000302
 1990 Fit      -0.000124
 1991 Fit      -0.001007
 1992 Fit      -0.001079
 1993 Fit      -0.000472
 1994 Fit      -0.001994
 1995 Fit       0.000506
 1996 Fit       0.000352
 1997 Fit       0.001501
 1998 Fit       0.000664
 1999 Fit       0.002512
 2000 Fit       0.002608
 2001 Fit      -0.000300
 2002 Fit       0.004454
 2003 Fit      -0.000195
 2004 Fit       0.000117
 2005 Fit      -0.000609
 2006 Fit       0.000255
 2007 Fit       0.001084
 2008 Fit       0.001388
 2009 Fit       0.000792
 2010 Fit       0.000733
 2011 Fit       0.001707
 2012 Fit       0.002221
 2013 Fit       0.002178
 2014 Fit       0.001456
 2015 Fit       0.002448
 2016 Fit       0.006005
 2017 Fit       0.003997
 2018 Fit       0.001506
 2019 Fit       0.004432
 2020 Fit       0.002014
 2021 Fit       0.001228
 2022 Fit       0.000071
 2023 Fit      -0.001112
 2024 Fit      -0.000608
 2025 Fit       0.000918
 2026 Fit      -0.000717
 2027 Fit      -0.000522
 2028 Fit       0.000297
 2029 Fit       0.001154
 2030 Fit       0.000372
 2031 Fit      -0.000513
 2032 Fit       0.000220
 2033 Fit       0.001382
 2034 Fit       0.001287
 2035 Fit      -0.001793
 2036 Fit      -0.000780
 2037 Fit      -0.000124
 2038 Fit       0.000202
 2039 Fit       0.001487
 2040 Fit       0.001359
 2041 Fit       0.001046
 2042 Fit       0.002092
 2043 Fit       0.002031
 2044 Fit       0.001744
 2045 Fit       0.002759
 2046 Fit       0.000924
 2047 Fit       0.001713
 2048 Fit       0.003482
 2049 Fit       0.001021
 2050 Fit       0.001146
 2051 Fit       0.000962
 2052 Fit       0.001201
 2053 Fit       0.000854
 2054 Fit       0.000102
 2055 Fit       0.000992
 2056 Fit       0.000350
 2057 Fit       0.000929
 2058 Fit       0.001006
 2059 Fit       0.000863
 2060 Fit       0.000428
 2061 Fit       0.000261
 2062 Fit       0.000425
 2063 Fit       0.000232
 2064 Fit       0.000301
 2065 Fit       0.000792
 2066 Fit      -0.000084
 2067 Fit      -0.000814
 2068 Fit      -0.001382
 2069 Fit      -0.001841
 2070 Fit      -0.001554
 2071 Fit      -0.002379
 2072 Fit      -0.001757
 2073 Fit      -0.000263
 2074 Fit      -0.002196
 2075 Fit      -0.002348
 2076 Fit      -0.002114
 2077 Fit      -0.001140
 2078 Fit       0.000330
 2079 Fit      -0.001958
 2080 Fit      -0.001063
 2081 Fit      -0.000161
 2082 Fit       0.001038
 2083 Fit      -0.001955
 2084 Fit      -0.000934
 2085 Fit      -0.000022
 2086 Fit       0.000705
 2087 Fit       0.000198
 2088 Fit       0.000608
 2089 Fit      -0.000120
 2090 Fit      -0.001039
 2091 Fit       0.000697
 2092 Fit       0.001102
 2093 Fit       0.000802
 2094 Fit      -0.000297
 2095 Fit       0.001837
 2096 Fit       0.001622
 2097 Fit       0.000899
 2098 Fit      -0.000369
 2099 Fit      -0.001938
 2100 Fit       0.001341
 2101 Fit       0.000405
 2102 Fit      -0.000904
 2103 Fit      -0.000604
 2104 Fit      -0.001759
 2105 Fit       0.001796
 2106 Fit       0.003477
 2107 Fit       0.002309
 2108 Fit       0.000590
 2109 Fit      -0.000159
 2110 Fit       0.000818
 2111 Fit       0.002684
 2112 Fit       0.004778
 2113 Fit      -0.001051
 2114 Fit       0.000524
 2115 Fit       0.002513
 2116 Fit       0.004197
 2117 Fit       0.000583
 2118 Fit       0.002746
 2119 Fit       0.004644
 2120 Fit       0.001293
 2121 Fit      -0.001069
 2122 Fit      -0.001584
 2123 Fit      -0.002233
 2124 Fit      -0.002463
 2125 Fit      -0.002145
 2126 Fit      -0.000972
 2127 Fit      -0.002568
 2128 Fit      -0.002731
 2129 Fit      -0.002453
 2130 Fit      -0.001568
 2131 Fit      -0.002282
 2132 Fit      -0.001922
 2133 Fit      -0.001923
 2134 Fit      -0.000811
 2135 Fit       0.000385
 2136 Fit       0.001075
 2137 Fit       0.001190
 2138 Fit      -0.000514
 2139 Fit      -0.001487
 2140 Fit      -0.001049
 2141 Fit       0.000170
 2142 Fit       0.001144
 2143 Fit       0.000132
 2144 Fit       0.001133
 2145 Fit      -0.000198
 2146 Fit       0.001058
 2147 Fit       0.001849
 2148 Fit      -0.000855
 2149 Fit       0.000498
 2150 Fit       0.001326
 2151 Fit       0.001487
 2152 Fit      -0.001550
 2153 Fit      -0.000253
 2154 Fit       0.000474
 2155 Fit       0.000366
 2156 Fit      -0.000620
 2157 Fit      -0.001255
 2158 Fit      -0.001011
 2159 Fit      -0.001796
 2160 Fit       0.001256
 2161 Fit       0.000443
 2162 Fit       0.001710
 2163 Fit       0.000809
 2164 Fit      -0.000620
 2165 Fit       0.001723
 2166 Fit       0.001594
 2167 Fit       0.000816
 2168 Fit      -0.000601
 2169 Fit       0.000013
 2170 Fit       0.000668
 2171 Fit       0.000249
 2172 Fit      -0.001126
 2173 Fit      -0.000888
 2174 Fit      -0.001549
 -----------------------------------------------------------------
 Leave Link  602 at Thu May 18 12:40:38 2017, MaxMem=    33554432 cpu:         3.3
 (Enter /home/michal/g09/l9999.exe)

 Test job not archived.
 1\1\GINC-LINUX\SP\RHF\6-31G(d)\C27H46O2\MICHAL\18-May-2017\0\\#P HF/6-
 31G* SCF(Conver=6) NoSymm Test Pop=mk IOp(6/33=2) GFInput GFPrint\\MEP
  - Input generated by R.E.D.-III.x MOLECULE\\0,1\O,0,0.,0.,0.\H,0,0.96
 763058,0.,0.\O,0,1.64005025,-2.66500909,6.44535742\H,0,2.57816609,-2.4
 3541964,6.50356482\C,0,-1.19546508,4.12294659,1.55005309\C,0,-1.288038
 98,2.62448632,1.13984364\H,0,-2.25953492,2.28176692,1.53652578\C,0,-0.
 23913301,1.70095608,1.78453175\H,0,0.76692896,1.99714754,1.45276946\C,
 0,-0.32698937,1.81432785,3.33237312\H,0,-1.30859218,1.39291288,3.60515
 196\C,0,-2.38145255,4.70668738,0.70614474\H,0,-3.29767767,4.36312807,1
 .20967459\C,0,-1.36169636,4.17669261,3.08118558\H,0,-2.37669058,3.8397
 4847,3.33726844\H,0,-1.26711775,5.19794947,3.46358853\C,0,0.73159054,0
 .93046296,4.07999521\C,0,-1.43309951,2.65904177,-0.39073873\H,0,-1.910
 49424,1.75816355,-0.7832512\H,0,-0.45071802,2.71462214,-0.87133039\C,0
 ,-0.33047194,3.2873679,3.80176088\H,0,0.66509285,3.72254632,3.66287897
 \H,0,-0.5297694,3.32890602,4.87833347\C,0,-2.262681,3.94541878,-0.6543
 3181\H,0,-1.76762969,4.57751721,-1.40115903\H,0,-3.25203644,3.71167195
 ,-1.06019887\C,0,-0.44281286,0.23586351,1.35140609\H,0,-1.52083996,0.0
 2578871,1.3041608\C,0,-2.50666367,6.23937957,0.52239369\H,0,-1.5990288
 1,6.57693254,0.\C,0,0.14166389,4.76986977,1.1223383\H,0,1.0080077,4.24
 653939,1.53526553\H,0,0.26106536,4.78154512,0.03500931\H,0,0.1971436,5
 .80740504,1.46844403\C,0,0.76944964,-0.47135616,3.4618321\C,0,0.300449
 76,0.79232433,5.57382187\H,0,-0.76884777,0.54093813,5.60056925\H,0,0.4
 041741,1.76081171,6.074261\C,0,0.21296702,-0.75260479,2.27452276\H,0,0
 .24025091,-1.77468943,1.89679688\C,0,2.15336853,1.54899882,4.00556297\
 H,0,2.21793014,2.47177274,4.59030592\H,0,2.91046228,0.86533513,4.39835
 085\H,0,2.43208079,1.77891471,2.97259148\C,0,1.46293369,-1.56118927,4.
 2575398\H,0,1.33347624,-2.5302266,3.76567552\H,0,2.54703984,-1.3654370
 7,4.28996319\C,0,1.06579125,-0.27245203,6.37468747\H,0,2.12691005,0.00
 342467,6.46587425\H,0,0.66858768,-0.33079578,7.39442522\C,0,-3.6698478
 1,6.61880972,-0.43940648\H,0,-3.6872499,7.7147496,-0.52614365\H,0,-3.4
 059837,6.25079992,-1.4379866\C,0,0.96337805,-1.64377882,5.70757008\H,0
 ,-0.08533676,-1.96507637,5.70506456\C,0,-2.56641769,7.02382697,1.84784
 341\H,0,-3.29844131,6.60593928,2.54582719\H,0,-2.84200258,8.068579,1.6
 6504795\H,0,-1.5978802,7.0294499,2.35567052\C,0,-5.1039034,6.12870264,
 -0.13775682\H,0,-5.68050841,6.26435633,-1.06174588\H,0,-5.09507476,5.0
 4777191,0.04700636\C,0,-5.84023459,6.84816472,1.00629155\H,0,-5.719412
 14,7.93345066,0.87626694\H,0,-5.36629265,6.60373161,1.96392999\C,0,-7.
 3524569,6.54267818,1.13569952\H,0,-7.69759428,7.1066494,2.01497782\C,0
 ,-7.63366421,5.0564982,1.41355191\H,0,-7.37247184,4.42882356,0.5537337
 7\H,0,-8.6963679,4.89329392,1.62634287\H,0,-7.06140068,4.69641506,2.27
 67736\C,0,-8.1708891,7.04420589,-0.06593092\H,0,-7.93556609,6.48836613
 ,-0.98076069\H,0,-9.24462999,6.92505897,0.11896954\H,0,-7.98176702,8.1
 0628354,-0.26154034\\Version=EM64L-G09RevD.01\HF=-1198.9214687\RMSD=4.
 892e-07\Dipole=0.6833167,0.7720034,0.3606649\Quadrupole=6.2756011,-3.8
 168021,-2.4587989,0.320709,2.7933626,9.1811601\PG=C01 [X(C27H46O2)]\\@


 CLIMB THE MOUNTAINS AND GET THEIR GOOD TIDINGS.
 NATURE'S PEACE WILL FLOW INTO YOU AS SUNSHINE FLOWS INTO TREES.
 THE WINDS WILL BLOW THEIR OWN FRESHNESS INTO YOU, 
 AND CARES WILL DROP OFF LIKE AUTUMN LEAVES.

                                         -- JOHN MUIR
 Job cpu time:       0 days  0 hours 11 minutes 21.0 seconds.
 File lengths (MBytes):  RWF=    150 Int=      0 D2E=      0 Chk=     11 Scr=      1
 Normal termination of Gaussian 09 at Thu May 18 12:40:38 2017.
