 Entering Gaussian System, Link 0=/home/michal/g09/g09
 Input=JOB2-gau_m1-15-2.com
 Output=JOB2-gau_m1-15-2.log
 Initial command:
 /home/michal/g09/l1.exe "/home/michal/gauss_scratch/Gau-26114.inp" -scrdir="/home/michal/gauss_scratch/"
 Entering Link 1 = /home/michal/g09/l1.exe PID=     26115.
  
 Copyright (c) 1988,1990,1992,1993,1995,1998,2003,2009,2013,
            Gaussian, Inc.  All Rights Reserved.
  
 This is part of the Gaussian(R) 09 program.  It is based on
 the Gaussian(R) 03 system (copyright 2003, Gaussian, Inc.),
 the Gaussian(R) 98 system (copyright 1998, Gaussian, Inc.),
 the Gaussian(R) 94 system (copyright 1995, Gaussian, Inc.),
 the Gaussian 92(TM) system (copyright 1992, Gaussian, Inc.),
 the Gaussian 90(TM) system (copyright 1990, Gaussian, Inc.),
 the Gaussian 88(TM) system (copyright 1988, Gaussian, Inc.),
 the Gaussian 86(TM) system (copyright 1986, Carnegie Mellon
 University), and the Gaussian 82(TM) system (copyright 1983,
 Carnegie Mellon University). Gaussian is a federally registered
 trademark of Gaussian, Inc.
  
 This software contains proprietary and confidential information,
 including trade secrets, belonging to Gaussian, Inc.
  
 This software is provided under written license and may be
 used, copied, transmitted, or stored only in accord with that
 written license.
  
 The following legend is applicable only to US Government
 contracts under FAR:
  
                    RESTRICTED RIGHTS LEGEND
  
 Use, reproduction and disclosure by the US Government is
 subject to restrictions as set forth in subparagraphs (a)
 and (c) of the Commercial Computer Software - Restricted
 Rights clause in FAR 52.227-19.
  
 Gaussian, Inc.
 340 Quinnipiac St., Bldg. 40, Wallingford CT 06492
  
  
 ---------------------------------------------------------------
 Warning -- This program may not be used in any manner that
 competes with the business of Gaussian, Inc. or will provide
 assistance to any competitor of Gaussian, Inc.  The licensee
 of this program is prohibited from giving any competitor of
 Gaussian, Inc. access to this program.  By using this program,
 the user acknowledges that Gaussian, Inc. is engaged in the
 business of creating and licensing software in the field of
 computational chemistry and represents and warrants to the
 licensee that it is not a competitor of Gaussian, Inc. and that
 it will not use this program in any manner prohibited above.
 ---------------------------------------------------------------
  

 Cite this work as:
 Gaussian 09, Revision D.01,
 M. J. Frisch, G. W. Trucks, H. B. Schlegel, G. E. Scuseria, 
 M. A. Robb, J. R. Cheeseman, G. Scalmani, V. Barone, B. Mennucci, 
 G. A. Petersson, H. Nakatsuji, M. Caricato, X. Li, H. P. Hratchian, 
 A. F. Izmaylov, J. Bloino, G. Zheng, J. L. Sonnenberg, M. Hada, 
 M. Ehara, K. Toyota, R. Fukuda, J. Hasegawa, M. Ishida, T. Nakajima, 
 Y. Honda, O. Kitao, H. Nakai, T. Vreven, J. A. Montgomery, Jr., 
 J. E. Peralta, F. Ogliaro, M. Bearpark, J. J. Heyd, E. Brothers, 
 K. N. Kudin, V. N. Staroverov, T. Keith, R. Kobayashi, J. Normand, 
 K. Raghavachari, A. Rendell, J. C. Burant, S. S. Iyengar, J. Tomasi, 
 M. Cossi, N. Rega, J. M. Millam, M. Klene, J. E. Knox, J. B. Cross, 
 V. Bakken, C. Adamo, J. Jaramillo, R. Gomperts, R. E. Stratmann, 
 O. Yazyev, A. J. Austin, R. Cammi, C. Pomelli, J. W. Ochterski, 
 R. L. Martin, K. Morokuma, V. G. Zakrzewski, G. A. Voth, 
 P. Salvador, J. J. Dannenberg, S. Dapprich, A. D. Daniels, 
 O. Farkas, J. B. Foresman, J. V. Ortiz, J. Cioslowski, 
 and D. J. Fox, Gaussian, Inc., Wallingford CT, 2013.
 
 ******************************************
 Gaussian 09:  EM64L-G09RevD.01 24-Apr-2013
                18-May-2017 
 ******************************************
 %Mem=256MB
 %NProc=12
 Will use up to   12 processors via shared memory.
 ----------------------------------------------------------------------
 #P HF/6-31G* SCF(Conver=6) NoSymm Test Pop=mk IOp(6/33=2) GFInput GFPr
 int
 ----------------------------------------------------------------------
 1/38=1/1;
 2/12=2,15=1,17=6,18=5,40=1/2;
 3/5=1,6=6,7=1,11=9,16=1,24=110,25=1,30=1/1,2,3;
 4//1;
 5/5=2,6=6,38=5/2;
 6/7=2,8=2,9=2,10=2,15=8,20=1,28=1,33=2/1,2;
 99/5=1,9=1/99;
 Leave Link    1 at Thu May 18 13:14:25 2017, MaxMem=    33554432 cpu:         0.6
 (Enter /home/michal/g09/l101.exe)
 ----------------------------------------------
 MEP - Input generated by R.E.D.-III.x MOLECULE
 ----------------------------------------------
 Symbolic Z-matrix:
 Charge =  0 Multiplicity = 1
 O                     7.12053   0.78143   0. 
 H                     7.69122   0.        0. 
 O                     10.34821   1.13597  -6.38607 
 H                     10.71718   0.24421  -6.45525 
 C                     3.11385  -0.66585  -1.64835 
 C                     4.26625   0.2781   -1.1907 
 H                     3.98222   1.2775   -1.56239 
 C                     5.64054  -0.00786  -1.82195 
 H                     5.99722  -0.99809  -1.5032 
 C                     5.51962   0.02285  -3.37253 
 H                     5.2836    1.06853  -3.63037 
 C                     1.93959  -0.04354  -0.81538 
 H                     1.77819   0.94211  -1.27377 
 C                     2.99883  -0.53134  -3.17781 
 H                     2.68553   0.49287  -3.42415 
 H                     2.22939  -1.20057  -3.5806 
 C                     6.87029  -0.29534  -4.1044 
 C                     4.12407   0.32624   0.34264 
 H                     4.56614   1.22824   0.77193 
 H                     4.64759  -0.51755   0.8045 
 C                     4.3365   -0.83535  -3.87872 
 H                     4.56697  -1.89841  -3.75114 
 H                     4.20727  -0.68153  -4.95574 
 C                     2.58987   0.23376   0.57664 
 H                     2.35397  -0.56231   1.29044 
 H                     2.18532   1.15734   1.00563 
 C                     6.69238   1.01758  -1.35595 
 H                     6.22287   2.01018  -1.30311 
 C                     0.51777  -0.66596  -0.70701 
 H                     0.        0.        0. 
 C                     3.39323  -2.13754  -1.26335 
 H                     4.38385  -2.46543  -1.58921 
 H                     3.34087  -2.29938  -0.18395 
 H                     2.66527  -2.80554  -1.73273 
 C                     8.0141    0.48982  -3.45284 
 C                     6.75224   0.16265  -5.5921 
 H                     6.32444   1.1746   -5.60676 
 H                     6.04037  -0.4829   -6.11715 
 C                     7.89298   1.08575  -2.25758 
 H                     8.72794   1.66009  -1.85627 
 C                     7.20908  -1.80929  -4.05336 
 H                     6.51089  -2.39474  -4.65943 
 H                     8.21343  -2.00963  -4.43543 
 H                     7.17297  -2.18947  -3.02785 
 C                     9.31645   0.58598  -4.22511 
 H                     10.01486   1.2518   -3.70877 
 H                     9.79744  -0.40467  -4.2686 
 C                     8.07658   0.18815  -6.37088 
 H                     8.48135  -0.82951  -6.47545 
 H                     7.90601   0.56318  -7.38641 
 C                    -0.30207  -0.64031  -2.02061 
 H                     0.17939  -1.29773  -2.7559 
 H                    -1.27712  -1.10224  -1.80752 
 C                     9.1125    1.06623  -5.66963 
 H                     8.75351   2.10251  -5.65279 
 C                     0.41989  -2.07615  -0.09038 
 H                     0.71084  -2.85718  -0.79907 
 H                    -0.61683  -2.27698   0.203 
 H                     1.03814  -2.18956   0.80484 
 C                    -0.56358   0.73038  -2.67516 
 H                     0.38521   1.19746  -2.96245 
 H                    -1.10232   0.54676  -3.61346 
 C                    -1.37937   1.69762  -1.8011 
 H                    -0.80763   1.94044  -0.89557 
 H                    -2.28619   1.17885  -1.45651 
 C                    -1.80521   3.02869  -2.46553 
 H                    -2.35358   3.58811  -1.69318 
 C                    -2.77239   2.82455  -3.64358 
 H                    -2.2836    2.32743  -4.48934 
 H                    -3.15132   3.78679  -4.00657 
 H                    -3.63538   2.21524  -3.35027 
 C                    -0.60361   3.89353  -2.88131 
 H                    -0.03656   3.43114  -3.69753 
 H                    -0.93423   4.87838  -3.23056 
 H                     0.08455   4.05096  -2.0424 
 
 NAtoms=     75 NQM=       75 NQMF=       0 NMMI=      0 NMMIF=      0
                NMic=       0 NMicF=      0.
                    Isotopes and Nuclear Properties:
 (Nuclear quadrupole moments (NQMom) in fm**2, nuclear magnetic moments (NMagM)
  in nuclear magnetons)

  Atom         1           2           3           4           5           6           7           8           9          10
 IAtWgt=          16           1          16           1          12          12           1          12           1          12
 AtmWgt=  15.9949146   1.0078250  15.9949146   1.0078250  12.0000000  12.0000000   1.0078250  12.0000000   1.0078250  12.0000000
 NucSpn=           0           1           0           1           0           0           1           0           1           0
 AtZEff=   0.0000000   0.0000000   0.0000000   0.0000000   0.0000000   0.0000000   0.0000000   0.0000000   0.0000000   0.0000000
 NQMom=    0.0000000   0.0000000   0.0000000   0.0000000   0.0000000   0.0000000   0.0000000   0.0000000   0.0000000   0.0000000
 NMagM=    0.0000000   2.7928460   0.0000000   2.7928460   0.0000000   0.0000000   2.7928460   0.0000000   2.7928460   0.0000000
 AtZNuc=   8.0000000   1.0000000   8.0000000   1.0000000   6.0000000   6.0000000   1.0000000   6.0000000   1.0000000   6.0000000

  Atom        11          12          13          14          15          16          17          18          19          20
 IAtWgt=           1          12           1          12           1           1          12          12           1           1
 AtmWgt=   1.0078250  12.0000000   1.0078250  12.0000000   1.0078250   1.0078250  12.0000000  12.0000000   1.0078250   1.0078250
 NucSpn=           1           0           1           0           1           1           0           0           1           1
 AtZEff=   0.0000000   0.0000000   0.0000000   0.0000000   0.0000000   0.0000000   0.0000000   0.0000000   0.0000000   0.0000000
 NQMom=    0.0000000   0.0000000   0.0000000   0.0000000   0.0000000   0.0000000   0.0000000   0.0000000   0.0000000   0.0000000
 NMagM=    2.7928460   0.0000000   2.7928460   0.0000000   2.7928460   2.7928460   0.0000000   0.0000000   2.7928460   2.7928460
 AtZNuc=   1.0000000   6.0000000   1.0000000   6.0000000   1.0000000   1.0000000   6.0000000   6.0000000   1.0000000   1.0000000

  Atom        21          22          23          24          25          26          27          28          29          30
 IAtWgt=          12           1           1          12           1           1          12           1          12           1
 AtmWgt=  12.0000000   1.0078250   1.0078250  12.0000000   1.0078250   1.0078250  12.0000000   1.0078250  12.0000000   1.0078250
 NucSpn=           0           1           1           0           1           1           0           1           0           1
 AtZEff=   0.0000000   0.0000000   0.0000000   0.0000000   0.0000000   0.0000000   0.0000000   0.0000000   0.0000000   0.0000000
 NQMom=    0.0000000   0.0000000   0.0000000   0.0000000   0.0000000   0.0000000   0.0000000   0.0000000   0.0000000   0.0000000
 NMagM=    0.0000000   2.7928460   2.7928460   0.0000000   2.7928460   2.7928460   0.0000000   2.7928460   0.0000000   2.7928460
 AtZNuc=   6.0000000   1.0000000   1.0000000   6.0000000   1.0000000   1.0000000   6.0000000   1.0000000   6.0000000   1.0000000

  Atom        31          32          33          34          35          36          37          38          39          40
 IAtWgt=          12           1           1           1          12          12           1           1          12           1
 AtmWgt=  12.0000000   1.0078250   1.0078250   1.0078250  12.0000000  12.0000000   1.0078250   1.0078250  12.0000000   1.0078250
 NucSpn=           0           1           1           1           0           0           1           1           0           1
 AtZEff=   0.0000000   0.0000000   0.0000000   0.0000000   0.0000000   0.0000000   0.0000000   0.0000000   0.0000000   0.0000000
 NQMom=    0.0000000   0.0000000   0.0000000   0.0000000   0.0000000   0.0000000   0.0000000   0.0000000   0.0000000   0.0000000
 NMagM=    0.0000000   2.7928460   2.7928460   2.7928460   0.0000000   0.0000000   2.7928460   2.7928460   0.0000000   2.7928460
 AtZNuc=   6.0000000   1.0000000   1.0000000   1.0000000   6.0000000   6.0000000   1.0000000   1.0000000   6.0000000   1.0000000

  Atom        41          42          43          44          45          46          47          48          49          50
 IAtWgt=          12           1           1           1          12           1           1          12           1           1
 AtmWgt=  12.0000000   1.0078250   1.0078250   1.0078250  12.0000000   1.0078250   1.0078250  12.0000000   1.0078250   1.0078250
 NucSpn=           0           1           1           1           0           1           1           0           1           1
 AtZEff=   0.0000000   0.0000000   0.0000000   0.0000000   0.0000000   0.0000000   0.0000000   0.0000000   0.0000000   0.0000000
 NQMom=    0.0000000   0.0000000   0.0000000   0.0000000   0.0000000   0.0000000   0.0000000   0.0000000   0.0000000   0.0000000
 NMagM=    0.0000000   2.7928460   2.7928460   2.7928460   0.0000000   2.7928460   2.7928460   0.0000000   2.7928460   2.7928460
 AtZNuc=   6.0000000   1.0000000   1.0000000   1.0000000   6.0000000   1.0000000   1.0000000   6.0000000   1.0000000   1.0000000

  Atom        51          52          53          54          55          56          57          58          59          60
 IAtWgt=          12           1           1          12           1          12           1           1           1          12
 AtmWgt=  12.0000000   1.0078250   1.0078250  12.0000000   1.0078250  12.0000000   1.0078250   1.0078250   1.0078250  12.0000000
 NucSpn=           0           1           1           0           1           0           1           1           1           0
 AtZEff=   0.0000000   0.0000000   0.0000000   0.0000000   0.0000000   0.0000000   0.0000000   0.0000000   0.0000000   0.0000000
 NQMom=    0.0000000   0.0000000   0.0000000   0.0000000   0.0000000   0.0000000   0.0000000   0.0000000   0.0000000   0.0000000
 NMagM=    0.0000000   2.7928460   2.7928460   0.0000000   2.7928460   0.0000000   2.7928460   2.7928460   2.7928460   0.0000000
 AtZNuc=   6.0000000   1.0000000   1.0000000   6.0000000   1.0000000   6.0000000   1.0000000   1.0000000   1.0000000   6.0000000

  Atom        61          62          63          64          65          66          67          68          69          70
 IAtWgt=           1           1          12           1           1          12           1          12           1           1
 AtmWgt=   1.0078250   1.0078250  12.0000000   1.0078250   1.0078250  12.0000000   1.0078250  12.0000000   1.0078250   1.0078250
 NucSpn=           1           1           0           1           1           0           1           0           1           1
 AtZEff=   0.0000000   0.0000000   0.0000000   0.0000000   0.0000000   0.0000000   0.0000000   0.0000000   0.0000000   0.0000000
 NQMom=    0.0000000   0.0000000   0.0000000   0.0000000   0.0000000   0.0000000   0.0000000   0.0000000   0.0000000   0.0000000
 NMagM=    2.7928460   2.7928460   0.0000000   2.7928460   2.7928460   0.0000000   2.7928460   0.0000000   2.7928460   2.7928460
 AtZNuc=   1.0000000   1.0000000   6.0000000   1.0000000   1.0000000   6.0000000   1.0000000   6.0000000   1.0000000   1.0000000

  Atom        71          72          73          74          75
 IAtWgt=           1          12           1           1           1
 AtmWgt=   1.0078250  12.0000000   1.0078250   1.0078250   1.0078250
 NucSpn=           1           0           1           1           1
 AtZEff=   0.0000000   0.0000000   0.0000000   0.0000000   0.0000000
 NQMom=    0.0000000   0.0000000   0.0000000   0.0000000   0.0000000
 NMagM=    2.7928460   0.0000000   2.7928460   2.7928460   2.7928460
 AtZNuc=   1.0000000   6.0000000   1.0000000   1.0000000   1.0000000
 Leave Link  101 at Thu May 18 13:14:25 2017, MaxMem=    33554432 cpu:         1.1
 (Enter /home/michal/g09/l202.exe)
 Symmetry turned off by external request.
 Stoichiometry    C27H46O2
 Framework group  C1[X(C27H46O2)]
 Deg. of freedom   219
 Full point group                 C1      NOp   1
                          Input orientation:                          
 ---------------------------------------------------------------------
 Center     Atomic      Atomic             Coordinates (Angstroms)
 Number     Number       Type             X           Y           Z
 ---------------------------------------------------------------------
      1          8           0        7.120535    0.781434    0.000000
      2          1           0        7.691216    0.000000    0.000000
      3          8           0       10.348207    1.135968   -6.386070
      4          1           0       10.717178    0.244207   -6.455250
      5          6           0        3.113848   -0.665847   -1.648353
      6          6           0        4.266249    0.278096   -1.190703
      7          1           0        3.982221    1.277504   -1.562385
      8          6           0        5.640543   -0.007858   -1.821953
      9          1           0        5.997216   -0.998090   -1.503204
     10          6           0        5.519620    0.022852   -3.372531
     11          1           0        5.283597    1.068535   -3.630372
     12          6           0        1.939587   -0.043539   -0.815380
     13          1           0        1.778194    0.942113   -1.273771
     14          6           0        2.998832   -0.531344   -3.177805
     15          1           0        2.685527    0.492872   -3.424146
     16          1           0        2.229387   -1.200565   -3.580603
     17          6           0        6.870295   -0.295344   -4.104402
     18          6           0        4.124069    0.326238    0.342643
     19          1           0        4.566136    1.228243    0.771925
     20          1           0        4.647592   -0.517546    0.804501
     21          6           0        4.336504   -0.835354   -3.878721
     22          1           0        4.566972   -1.898407   -3.751137
     23          1           0        4.207268   -0.681533   -4.955736
     24          6           0        2.589871    0.233763    0.576636
     25          1           0        2.353966   -0.562308    1.290444
     26          1           0        2.185322    1.157339    1.005633
     27          6           0        6.692379    1.017584   -1.355951
     28          1           0        6.222868    2.010176   -1.303114
     29          6           0        0.517769   -0.665959   -0.707009
     30          1           0        0.000000    0.000000    0.000000
     31          6           0        3.393231   -2.137539   -1.263352
     32          1           0        4.383853   -2.465434   -1.589212
     33          1           0        3.340865   -2.299381   -0.183952
     34          1           0        2.665275   -2.805541   -1.732728
     35          6           0        8.014103    0.489819   -3.452844
     36          6           0        6.752245    0.162648   -5.592101
     37          1           0        6.324436    1.174602   -5.606755
     38          1           0        6.040368   -0.482905   -6.117155
     39          6           0        7.892977    1.085751   -2.257577
     40          1           0        8.727938    1.660085   -1.856269
     41          6           0        7.209084   -1.809292   -4.053362
     42          1           0        6.510890   -2.394741   -4.659435
     43          1           0        8.213430   -2.009634   -4.435434
     44          1           0        7.172974   -2.189469   -3.027851
     45          6           0        9.316455    0.585981   -4.225106
     46          1           0       10.014865    1.251801   -3.708767
     47          1           0        9.797436   -0.404674   -4.268601
     48          6           0        8.076580    0.188151   -6.370879
     49          1           0        8.481354   -0.829505   -6.475451
     50          1           0        7.906007    0.563176   -7.386411
     51          6           0       -0.302069   -0.640305   -2.020608
     52          1           0        0.179389   -1.297730   -2.755902
     53          1           0       -1.277118   -1.102245   -1.807521
     54          6           0        9.112501    1.066231   -5.669630
     55          1           0        8.753506    2.102512   -5.652794
     56          6           0        0.419887   -2.076148   -0.090379
     57          1           0        0.710838   -2.857182   -0.799073
     58          1           0       -0.616833   -2.276980    0.202997
     59          1           0        1.038136   -2.189560    0.804840
     60          6           0       -0.563575    0.730385   -2.675157
     61          1           0        0.385205    1.197461   -2.962453
     62          1           0       -1.102316    0.546764   -3.613457
     63          6           0       -1.379371    1.697625   -1.801104
     64          1           0       -0.807632    1.940443   -0.895574
     65          1           0       -2.286194    1.178848   -1.456506
     66          6           0       -1.805214    3.028691   -2.465526
     67          1           0       -2.353579    3.588112   -1.693180
     68          6           0       -2.772394    2.824552   -3.643580
     69          1           0       -2.283596    2.327428   -4.489343
     70          1           0       -3.151321    3.786793   -4.006565
     71          1           0       -3.635380    2.215239   -3.350272
     72          6           0       -0.603607    3.893532   -2.881311
     73          1           0       -0.036556    3.431136   -3.697532
     74          1           0       -0.934226    4.878376   -3.230561
     75          1           0        0.084546    4.050957   -2.042399
 ---------------------------------------------------------------------
 Rotational constants (GHZ):      0.2587008      0.0754491      0.0681495
 Leave Link  202 at Thu May 18 13:14:25 2017, MaxMem=    33554432 cpu:         0.0
 (Enter /home/michal/g09/l301.exe)
 Standard basis: 6-31G(d) (6D, 7F)
 Ernie: Thresh=  0.10000D-02 Tol=  0.10000D-05 Strict=F.
 AO basis set in the form of general basis input (Overlap normalization):
      1 0
 S   6 1.00       0.000000000000
      0.5484671660D+04  0.1831074430D-02
      0.8252349460D+03  0.1395017220D-01
      0.1880469580D+03  0.6844507810D-01
      0.5296450000D+02  0.2327143360D+00
      0.1689757040D+02  0.4701928980D+00
      0.5799635340D+01  0.3585208530D+00
 SP   3 1.00       0.000000000000
      0.1553961625D+02 -0.1107775495D+00  0.7087426823D-01
      0.3599933586D+01 -0.1480262627D+00  0.3397528391D+00
      0.1013761750D+01  0.1130767015D+01  0.7271585773D+00
 SP   1 1.00       0.000000000000
      0.2700058226D+00  0.1000000000D+01  0.1000000000D+01
 D   1 1.00       0.000000000000
      0.8000000000D+00  0.1000000000D+01
 ****
      2 0
 S   3 1.00       0.000000000000
      0.1873113696D+02  0.3349460434D-01
      0.2825394365D+01  0.2347269535D+00
      0.6401216923D+00  0.8137573261D+00
 S   1 1.00       0.000000000000
      0.1612777588D+00  0.1000000000D+01
 ****
      3 0
 S   6 1.00       0.000000000000
      0.5484671660D+04  0.1831074430D-02
      0.8252349460D+03  0.1395017220D-01
      0.1880469580D+03  0.6844507810D-01
      0.5296450000D+02  0.2327143360D+00
      0.1689757040D+02  0.4701928980D+00
      0.5799635340D+01  0.3585208530D+00
 SP   3 1.00       0.000000000000
      0.1553961625D+02 -0.1107775495D+00  0.7087426823D-01
      0.3599933586D+01 -0.1480262627D+00  0.3397528391D+00
      0.1013761750D+01  0.1130767015D+01  0.7271585773D+00
 SP   1 1.00       0.000000000000
      0.2700058226D+00  0.1000000000D+01  0.1000000000D+01
 D   1 1.00       0.000000000000
      0.8000000000D+00  0.1000000000D+01
 ****
      4 0
 S   3 1.00       0.000000000000
      0.1873113696D+02  0.3349460434D-01
      0.2825394365D+01  0.2347269535D+00
      0.6401216923D+00  0.8137573261D+00
 S   1 1.00       0.000000000000
      0.1612777588D+00  0.1000000000D+01
 ****
      5 0
 S   6 1.00       0.000000000000
      0.3047524880D+04  0.1834737132D-02
      0.4573695180D+03  0.1403732281D-01
      0.1039486850D+03  0.6884262226D-01
      0.2921015530D+02  0.2321844432D+00
      0.9286662960D+01  0.4679413484D+00
      0.3163926960D+01  0.3623119853D+00
 SP   3 1.00       0.000000000000
      0.7868272350D+01 -0.1193324198D+00  0.6899906659D-01
      0.1881288540D+01 -0.1608541517D+00  0.3164239610D+00
      0.5442492580D+00  0.1143456438D+01  0.7443082909D+00
 SP   1 1.00       0.000000000000
      0.1687144782D+00  0.1000000000D+01  0.1000000000D+01
 D   1 1.00       0.000000000000
      0.8000000000D+00  0.1000000000D+01
 ****
      6 0
 S   6 1.00       0.000000000000
      0.3047524880D+04  0.1834737132D-02
      0.4573695180D+03  0.1403732281D-01
      0.1039486850D+03  0.6884262226D-01
      0.2921015530D+02  0.2321844432D+00
      0.9286662960D+01  0.4679413484D+00
      0.3163926960D+01  0.3623119853D+00
 SP   3 1.00       0.000000000000
      0.7868272350D+01 -0.1193324198D+00  0.6899906659D-01
      0.1881288540D+01 -0.1608541517D+00  0.3164239610D+00
      0.5442492580D+00  0.1143456438D+01  0.7443082909D+00
 SP   1 1.00       0.000000000000
      0.1687144782D+00  0.1000000000D+01  0.1000000000D+01
 D   1 1.00       0.000000000000
      0.8000000000D+00  0.1000000000D+01
 ****
      7 0
 S   3 1.00       0.000000000000
      0.1873113696D+02  0.3349460434D-01
      0.2825394365D+01  0.2347269535D+00
      0.6401216923D+00  0.8137573261D+00
 S   1 1.00       0.000000000000
      0.1612777588D+00  0.1000000000D+01
 ****
      8 0
 S   6 1.00       0.000000000000
      0.3047524880D+04  0.1834737132D-02
      0.4573695180D+03  0.1403732281D-01
      0.1039486850D+03  0.6884262226D-01
      0.2921015530D+02  0.2321844432D+00
      0.9286662960D+01  0.4679413484D+00
      0.3163926960D+01  0.3623119853D+00
 SP   3 1.00       0.000000000000
      0.7868272350D+01 -0.1193324198D+00  0.6899906659D-01
      0.1881288540D+01 -0.1608541517D+00  0.3164239610D+00
      0.5442492580D+00  0.1143456438D+01  0.7443082909D+00
 SP   1 1.00       0.000000000000
      0.1687144782D+00  0.1000000000D+01  0.1000000000D+01
 D   1 1.00       0.000000000000
      0.8000000000D+00  0.1000000000D+01
 ****
      9 0
 S   3 1.00       0.000000000000
      0.1873113696D+02  0.3349460434D-01
      0.2825394365D+01  0.2347269535D+00
      0.6401216923D+00  0.8137573261D+00
 S   1 1.00       0.000000000000
      0.1612777588D+00  0.1000000000D+01
 ****
     10 0
 S   6 1.00       0.000000000000
      0.3047524880D+04  0.1834737132D-02
      0.4573695180D+03  0.1403732281D-01
      0.1039486850D+03  0.6884262226D-01
      0.2921015530D+02  0.2321844432D+00
      0.9286662960D+01  0.4679413484D+00
      0.3163926960D+01  0.3623119853D+00
 SP   3 1.00       0.000000000000
      0.7868272350D+01 -0.1193324198D+00  0.6899906659D-01
      0.1881288540D+01 -0.1608541517D+00  0.3164239610D+00
      0.5442492580D+00  0.1143456438D+01  0.7443082909D+00
 SP   1 1.00       0.000000000000
      0.1687144782D+00  0.1000000000D+01  0.1000000000D+01
 D   1 1.00       0.000000000000
      0.8000000000D+00  0.1000000000D+01
 ****
     11 0
 S   3 1.00       0.000000000000
      0.1873113696D+02  0.3349460434D-01
      0.2825394365D+01  0.2347269535D+00
      0.6401216923D+00  0.8137573261D+00
 S   1 1.00       0.000000000000
      0.1612777588D+00  0.1000000000D+01
 ****
     12 0
 S   6 1.00       0.000000000000
      0.3047524880D+04  0.1834737132D-02
      0.4573695180D+03  0.1403732281D-01
      0.1039486850D+03  0.6884262226D-01
      0.2921015530D+02  0.2321844432D+00
      0.9286662960D+01  0.4679413484D+00
      0.3163926960D+01  0.3623119853D+00
 SP   3 1.00       0.000000000000
      0.7868272350D+01 -0.1193324198D+00  0.6899906659D-01
      0.1881288540D+01 -0.1608541517D+00  0.3164239610D+00
      0.5442492580D+00  0.1143456438D+01  0.7443082909D+00
 SP   1 1.00       0.000000000000
      0.1687144782D+00  0.1000000000D+01  0.1000000000D+01
 D   1 1.00       0.000000000000
      0.8000000000D+00  0.1000000000D+01
 ****
     13 0
 S   3 1.00       0.000000000000
      0.1873113696D+02  0.3349460434D-01
      0.2825394365D+01  0.2347269535D+00
      0.6401216923D+00  0.8137573261D+00
 S   1 1.00       0.000000000000
      0.1612777588D+00  0.1000000000D+01
 ****
     14 0
 S   6 1.00       0.000000000000
      0.3047524880D+04  0.1834737132D-02
      0.4573695180D+03  0.1403732281D-01
      0.1039486850D+03  0.6884262226D-01
      0.2921015530D+02  0.2321844432D+00
      0.9286662960D+01  0.4679413484D+00
      0.3163926960D+01  0.3623119853D+00
 SP   3 1.00       0.000000000000
      0.7868272350D+01 -0.1193324198D+00  0.6899906659D-01
      0.1881288540D+01 -0.1608541517D+00  0.3164239610D+00
      0.5442492580D+00  0.1143456438D+01  0.7443082909D+00
 SP   1 1.00       0.000000000000
      0.1687144782D+00  0.1000000000D+01  0.1000000000D+01
 D   1 1.00       0.000000000000
      0.8000000000D+00  0.1000000000D+01
 ****
     15 0
 S   3 1.00       0.000000000000
      0.1873113696D+02  0.3349460434D-01
      0.2825394365D+01  0.2347269535D+00
      0.6401216923D+00  0.8137573261D+00
 S   1 1.00       0.000000000000
      0.1612777588D+00  0.1000000000D+01
 ****
     16 0
 S   3 1.00       0.000000000000
      0.1873113696D+02  0.3349460434D-01
      0.2825394365D+01  0.2347269535D+00
      0.6401216923D+00  0.8137573261D+00
 S   1 1.00       0.000000000000
      0.1612777588D+00  0.1000000000D+01
 ****
     17 0
 S   6 1.00       0.000000000000
      0.3047524880D+04  0.1834737132D-02
      0.4573695180D+03  0.1403732281D-01
      0.1039486850D+03  0.6884262226D-01
      0.2921015530D+02  0.2321844432D+00
      0.9286662960D+01  0.4679413484D+00
      0.3163926960D+01  0.3623119853D+00
 SP   3 1.00       0.000000000000
      0.7868272350D+01 -0.1193324198D+00  0.6899906659D-01
      0.1881288540D+01 -0.1608541517D+00  0.3164239610D+00
      0.5442492580D+00  0.1143456438D+01  0.7443082909D+00
 SP   1 1.00       0.000000000000
      0.1687144782D+00  0.1000000000D+01  0.1000000000D+01
 D   1 1.00       0.000000000000
      0.8000000000D+00  0.1000000000D+01
 ****
     18 0
 S   6 1.00       0.000000000000
      0.3047524880D+04  0.1834737132D-02
      0.4573695180D+03  0.1403732281D-01
      0.1039486850D+03  0.6884262226D-01
      0.2921015530D+02  0.2321844432D+00
      0.9286662960D+01  0.4679413484D+00
      0.3163926960D+01  0.3623119853D+00
 SP   3 1.00       0.000000000000
      0.7868272350D+01 -0.1193324198D+00  0.6899906659D-01
      0.1881288540D+01 -0.1608541517D+00  0.3164239610D+00
      0.5442492580D+00  0.1143456438D+01  0.7443082909D+00
 SP   1 1.00       0.000000000000
      0.1687144782D+00  0.1000000000D+01  0.1000000000D+01
 D   1 1.00       0.000000000000
      0.8000000000D+00  0.1000000000D+01
 ****
     19 0
 S   3 1.00       0.000000000000
      0.1873113696D+02  0.3349460434D-01
      0.2825394365D+01  0.2347269535D+00
      0.6401216923D+00  0.8137573261D+00
 S   1 1.00       0.000000000000
      0.1612777588D+00  0.1000000000D+01
 ****
     20 0
 S   3 1.00       0.000000000000
      0.1873113696D+02  0.3349460434D-01
      0.2825394365D+01  0.2347269535D+00
      0.6401216923D+00  0.8137573261D+00
 S   1 1.00       0.000000000000
      0.1612777588D+00  0.1000000000D+01
 ****
     21 0
 S   6 1.00       0.000000000000
      0.3047524880D+04  0.1834737132D-02
      0.4573695180D+03  0.1403732281D-01
      0.1039486850D+03  0.6884262226D-01
      0.2921015530D+02  0.2321844432D+00
      0.9286662960D+01  0.4679413484D+00
      0.3163926960D+01  0.3623119853D+00
 SP   3 1.00       0.000000000000
      0.7868272350D+01 -0.1193324198D+00  0.6899906659D-01
      0.1881288540D+01 -0.1608541517D+00  0.3164239610D+00
      0.5442492580D+00  0.1143456438D+01  0.7443082909D+00
 SP   1 1.00       0.000000000000
      0.1687144782D+00  0.1000000000D+01  0.1000000000D+01
 D   1 1.00       0.000000000000
      0.8000000000D+00  0.1000000000D+01
 ****
     22 0
 S   3 1.00       0.000000000000
      0.1873113696D+02  0.3349460434D-01
      0.2825394365D+01  0.2347269535D+00
      0.6401216923D+00  0.8137573261D+00
 S   1 1.00       0.000000000000
      0.1612777588D+00  0.1000000000D+01
 ****
     23 0
 S   3 1.00       0.000000000000
      0.1873113696D+02  0.3349460434D-01
      0.2825394365D+01  0.2347269535D+00
      0.6401216923D+00  0.8137573261D+00
 S   1 1.00       0.000000000000
      0.1612777588D+00  0.1000000000D+01
 ****
     24 0
 S   6 1.00       0.000000000000
      0.3047524880D+04  0.1834737132D-02
      0.4573695180D+03  0.1403732281D-01
      0.1039486850D+03  0.6884262226D-01
      0.2921015530D+02  0.2321844432D+00
      0.9286662960D+01  0.4679413484D+00
      0.3163926960D+01  0.3623119853D+00
 SP   3 1.00       0.000000000000
      0.7868272350D+01 -0.1193324198D+00  0.6899906659D-01
      0.1881288540D+01 -0.1608541517D+00  0.3164239610D+00
      0.5442492580D+00  0.1143456438D+01  0.7443082909D+00
 SP   1 1.00       0.000000000000
      0.1687144782D+00  0.1000000000D+01  0.1000000000D+01
 D   1 1.00       0.000000000000
      0.8000000000D+00  0.1000000000D+01
 ****
     25 0
 S   3 1.00       0.000000000000
      0.1873113696D+02  0.3349460434D-01
      0.2825394365D+01  0.2347269535D+00
      0.6401216923D+00  0.8137573261D+00
 S   1 1.00       0.000000000000
      0.1612777588D+00  0.1000000000D+01
 ****
     26 0
 S   3 1.00       0.000000000000
      0.1873113696D+02  0.3349460434D-01
      0.2825394365D+01  0.2347269535D+00
      0.6401216923D+00  0.8137573261D+00
 S   1 1.00       0.000000000000
      0.1612777588D+00  0.1000000000D+01
 ****
     27 0
 S   6 1.00       0.000000000000
      0.3047524880D+04  0.1834737132D-02
      0.4573695180D+03  0.1403732281D-01
      0.1039486850D+03  0.6884262226D-01
      0.2921015530D+02  0.2321844432D+00
      0.9286662960D+01  0.4679413484D+00
      0.3163926960D+01  0.3623119853D+00
 SP   3 1.00       0.000000000000
      0.7868272350D+01 -0.1193324198D+00  0.6899906659D-01
      0.1881288540D+01 -0.1608541517D+00  0.3164239610D+00
      0.5442492580D+00  0.1143456438D+01  0.7443082909D+00
 SP   1 1.00       0.000000000000
      0.1687144782D+00  0.1000000000D+01  0.1000000000D+01
 D   1 1.00       0.000000000000
      0.8000000000D+00  0.1000000000D+01
 ****
     28 0
 S   3 1.00       0.000000000000
      0.1873113696D+02  0.3349460434D-01
      0.2825394365D+01  0.2347269535D+00
      0.6401216923D+00  0.8137573261D+00
 S   1 1.00       0.000000000000
      0.1612777588D+00  0.1000000000D+01
 ****
     29 0
 S   6 1.00       0.000000000000
      0.3047524880D+04  0.1834737132D-02
      0.4573695180D+03  0.1403732281D-01
      0.1039486850D+03  0.6884262226D-01
      0.2921015530D+02  0.2321844432D+00
      0.9286662960D+01  0.4679413484D+00
      0.3163926960D+01  0.3623119853D+00
 SP   3 1.00       0.000000000000
      0.7868272350D+01 -0.1193324198D+00  0.6899906659D-01
      0.1881288540D+01 -0.1608541517D+00  0.3164239610D+00
      0.5442492580D+00  0.1143456438D+01  0.7443082909D+00
 SP   1 1.00       0.000000000000
      0.1687144782D+00  0.1000000000D+01  0.1000000000D+01
 D   1 1.00       0.000000000000
      0.8000000000D+00  0.1000000000D+01
 ****
     30 0
 S   3 1.00       0.000000000000
      0.1873113696D+02  0.3349460434D-01
      0.2825394365D+01  0.2347269535D+00
      0.6401216923D+00  0.8137573261D+00
 S   1 1.00       0.000000000000
      0.1612777588D+00  0.1000000000D+01
 ****
     31 0
 S   6 1.00       0.000000000000
      0.3047524880D+04  0.1834737132D-02
      0.4573695180D+03  0.1403732281D-01
      0.1039486850D+03  0.6884262226D-01
      0.2921015530D+02  0.2321844432D+00
      0.9286662960D+01  0.4679413484D+00
      0.3163926960D+01  0.3623119853D+00
 SP   3 1.00       0.000000000000
      0.7868272350D+01 -0.1193324198D+00  0.6899906659D-01
      0.1881288540D+01 -0.1608541517D+00  0.3164239610D+00
      0.5442492580D+00  0.1143456438D+01  0.7443082909D+00
 SP   1 1.00       0.000000000000
      0.1687144782D+00  0.1000000000D+01  0.1000000000D+01
 D   1 1.00       0.000000000000
      0.8000000000D+00  0.1000000000D+01
 ****
     32 0
 S   3 1.00       0.000000000000
      0.1873113696D+02  0.3349460434D-01
      0.2825394365D+01  0.2347269535D+00
      0.6401216923D+00  0.8137573261D+00
 S   1 1.00       0.000000000000
      0.1612777588D+00  0.1000000000D+01
 ****
     33 0
 S   3 1.00       0.000000000000
      0.1873113696D+02  0.3349460434D-01
      0.2825394365D+01  0.2347269535D+00
      0.6401216923D+00  0.8137573261D+00
 S   1 1.00       0.000000000000
      0.1612777588D+00  0.1000000000D+01
 ****
     34 0
 S   3 1.00       0.000000000000
      0.1873113696D+02  0.3349460434D-01
      0.2825394365D+01  0.2347269535D+00
      0.6401216923D+00  0.8137573261D+00
 S   1 1.00       0.000000000000
      0.1612777588D+00  0.1000000000D+01
 ****
     35 0
 S   6 1.00       0.000000000000
      0.3047524880D+04  0.1834737132D-02
      0.4573695180D+03  0.1403732281D-01
      0.1039486850D+03  0.6884262226D-01
      0.2921015530D+02  0.2321844432D+00
      0.9286662960D+01  0.4679413484D+00
      0.3163926960D+01  0.3623119853D+00
 SP   3 1.00       0.000000000000
      0.7868272350D+01 -0.1193324198D+00  0.6899906659D-01
      0.1881288540D+01 -0.1608541517D+00  0.3164239610D+00
      0.5442492580D+00  0.1143456438D+01  0.7443082909D+00
 SP   1 1.00       0.000000000000
      0.1687144782D+00  0.1000000000D+01  0.1000000000D+01
 D   1 1.00       0.000000000000
      0.8000000000D+00  0.1000000000D+01
 ****
     36 0
 S   6 1.00       0.000000000000
      0.3047524880D+04  0.1834737132D-02
      0.4573695180D+03  0.1403732281D-01
      0.1039486850D+03  0.6884262226D-01
      0.2921015530D+02  0.2321844432D+00
      0.9286662960D+01  0.4679413484D+00
      0.3163926960D+01  0.3623119853D+00
 SP   3 1.00       0.000000000000
      0.7868272350D+01 -0.1193324198D+00  0.6899906659D-01
      0.1881288540D+01 -0.1608541517D+00  0.3164239610D+00
      0.5442492580D+00  0.1143456438D+01  0.7443082909D+00
 SP   1 1.00       0.000000000000
      0.1687144782D+00  0.1000000000D+01  0.1000000000D+01
 D   1 1.00       0.000000000000
      0.8000000000D+00  0.1000000000D+01
 ****
     37 0
 S   3 1.00       0.000000000000
      0.1873113696D+02  0.3349460434D-01
      0.2825394365D+01  0.2347269535D+00
      0.6401216923D+00  0.8137573261D+00
 S   1 1.00       0.000000000000
      0.1612777588D+00  0.1000000000D+01
 ****
     38 0
 S   3 1.00       0.000000000000
      0.1873113696D+02  0.3349460434D-01
      0.2825394365D+01  0.2347269535D+00
      0.6401216923D+00  0.8137573261D+00
 S   1 1.00       0.000000000000
      0.1612777588D+00  0.1000000000D+01
 ****
     39 0
 S   6 1.00       0.000000000000
      0.3047524880D+04  0.1834737132D-02
      0.4573695180D+03  0.1403732281D-01
      0.1039486850D+03  0.6884262226D-01
      0.2921015530D+02  0.2321844432D+00
      0.9286662960D+01  0.4679413484D+00
      0.3163926960D+01  0.3623119853D+00
 SP   3 1.00       0.000000000000
      0.7868272350D+01 -0.1193324198D+00  0.6899906659D-01
      0.1881288540D+01 -0.1608541517D+00  0.3164239610D+00
      0.5442492580D+00  0.1143456438D+01  0.7443082909D+00
 SP   1 1.00       0.000000000000
      0.1687144782D+00  0.1000000000D+01  0.1000000000D+01
 D   1 1.00       0.000000000000
      0.8000000000D+00  0.1000000000D+01
 ****
     40 0
 S   3 1.00       0.000000000000
      0.1873113696D+02  0.3349460434D-01
      0.2825394365D+01  0.2347269535D+00
      0.6401216923D+00  0.8137573261D+00
 S   1 1.00       0.000000000000
      0.1612777588D+00  0.1000000000D+01
 ****
     41 0
 S   6 1.00       0.000000000000
      0.3047524880D+04  0.1834737132D-02
      0.4573695180D+03  0.1403732281D-01
      0.1039486850D+03  0.6884262226D-01
      0.2921015530D+02  0.2321844432D+00
      0.9286662960D+01  0.4679413484D+00
      0.3163926960D+01  0.3623119853D+00
 SP   3 1.00       0.000000000000
      0.7868272350D+01 -0.1193324198D+00  0.6899906659D-01
      0.1881288540D+01 -0.1608541517D+00  0.3164239610D+00
      0.5442492580D+00  0.1143456438D+01  0.7443082909D+00
 SP   1 1.00       0.000000000000
      0.1687144782D+00  0.1000000000D+01  0.1000000000D+01
 D   1 1.00       0.000000000000
      0.8000000000D+00  0.1000000000D+01
 ****
     42 0
 S   3 1.00       0.000000000000
      0.1873113696D+02  0.3349460434D-01
      0.2825394365D+01  0.2347269535D+00
      0.6401216923D+00  0.8137573261D+00
 S   1 1.00       0.000000000000
      0.1612777588D+00  0.1000000000D+01
 ****
     43 0
 S   3 1.00       0.000000000000
      0.1873113696D+02  0.3349460434D-01
      0.2825394365D+01  0.2347269535D+00
      0.6401216923D+00  0.8137573261D+00
 S   1 1.00       0.000000000000
      0.1612777588D+00  0.1000000000D+01
 ****
     44 0
 S   3 1.00       0.000000000000
      0.1873113696D+02  0.3349460434D-01
      0.2825394365D+01  0.2347269535D+00
      0.6401216923D+00  0.8137573261D+00
 S   1 1.00       0.000000000000
      0.1612777588D+00  0.1000000000D+01
 ****
     45 0
 S   6 1.00       0.000000000000
      0.3047524880D+04  0.1834737132D-02
      0.4573695180D+03  0.1403732281D-01
      0.1039486850D+03  0.6884262226D-01
      0.2921015530D+02  0.2321844432D+00
      0.9286662960D+01  0.4679413484D+00
      0.3163926960D+01  0.3623119853D+00
 SP   3 1.00       0.000000000000
      0.7868272350D+01 -0.1193324198D+00  0.6899906659D-01
      0.1881288540D+01 -0.1608541517D+00  0.3164239610D+00
      0.5442492580D+00  0.1143456438D+01  0.7443082909D+00
 SP   1 1.00       0.000000000000
      0.1687144782D+00  0.1000000000D+01  0.1000000000D+01
 D   1 1.00       0.000000000000
      0.8000000000D+00  0.1000000000D+01
 ****
     46 0
 S   3 1.00       0.000000000000
      0.1873113696D+02  0.3349460434D-01
      0.2825394365D+01  0.2347269535D+00
      0.6401216923D+00  0.8137573261D+00
 S   1 1.00       0.000000000000
      0.1612777588D+00  0.1000000000D+01
 ****
     47 0
 S   3 1.00       0.000000000000
      0.1873113696D+02  0.3349460434D-01
      0.2825394365D+01  0.2347269535D+00
      0.6401216923D+00  0.8137573261D+00
 S   1 1.00       0.000000000000
      0.1612777588D+00  0.1000000000D+01
 ****
     48 0
 S   6 1.00       0.000000000000
      0.3047524880D+04  0.1834737132D-02
      0.4573695180D+03  0.1403732281D-01
      0.1039486850D+03  0.6884262226D-01
      0.2921015530D+02  0.2321844432D+00
      0.9286662960D+01  0.4679413484D+00
      0.3163926960D+01  0.3623119853D+00
 SP   3 1.00       0.000000000000
      0.7868272350D+01 -0.1193324198D+00  0.6899906659D-01
      0.1881288540D+01 -0.1608541517D+00  0.3164239610D+00
      0.5442492580D+00  0.1143456438D+01  0.7443082909D+00
 SP   1 1.00       0.000000000000
      0.1687144782D+00  0.1000000000D+01  0.1000000000D+01
 D   1 1.00       0.000000000000
      0.8000000000D+00  0.1000000000D+01
 ****
     49 0
 S   3 1.00       0.000000000000
      0.1873113696D+02  0.3349460434D-01
      0.2825394365D+01  0.2347269535D+00
      0.6401216923D+00  0.8137573261D+00
 S   1 1.00       0.000000000000
      0.1612777588D+00  0.1000000000D+01
 ****
     50 0
 S   3 1.00       0.000000000000
      0.1873113696D+02  0.3349460434D-01
      0.2825394365D+01  0.2347269535D+00
      0.6401216923D+00  0.8137573261D+00
 S   1 1.00       0.000000000000
      0.1612777588D+00  0.1000000000D+01
 ****
     51 0
 S   6 1.00       0.000000000000
      0.3047524880D+04  0.1834737132D-02
      0.4573695180D+03  0.1403732281D-01
      0.1039486850D+03  0.6884262226D-01
      0.2921015530D+02  0.2321844432D+00
      0.9286662960D+01  0.4679413484D+00
      0.3163926960D+01  0.3623119853D+00
 SP   3 1.00       0.000000000000
      0.7868272350D+01 -0.1193324198D+00  0.6899906659D-01
      0.1881288540D+01 -0.1608541517D+00  0.3164239610D+00
      0.5442492580D+00  0.1143456438D+01  0.7443082909D+00
 SP   1 1.00       0.000000000000
      0.1687144782D+00  0.1000000000D+01  0.1000000000D+01
 D   1 1.00       0.000000000000
      0.8000000000D+00  0.1000000000D+01
 ****
     52 0
 S   3 1.00       0.000000000000
      0.1873113696D+02  0.3349460434D-01
      0.2825394365D+01  0.2347269535D+00
      0.6401216923D+00  0.8137573261D+00
 S   1 1.00       0.000000000000
      0.1612777588D+00  0.1000000000D+01
 ****
     53 0
 S   3 1.00       0.000000000000
      0.1873113696D+02  0.3349460434D-01
      0.2825394365D+01  0.2347269535D+00
      0.6401216923D+00  0.8137573261D+00
 S   1 1.00       0.000000000000
      0.1612777588D+00  0.1000000000D+01
 ****
     54 0
 S   6 1.00       0.000000000000
      0.3047524880D+04  0.1834737132D-02
      0.4573695180D+03  0.1403732281D-01
      0.1039486850D+03  0.6884262226D-01
      0.2921015530D+02  0.2321844432D+00
      0.9286662960D+01  0.4679413484D+00
      0.3163926960D+01  0.3623119853D+00
 SP   3 1.00       0.000000000000
      0.7868272350D+01 -0.1193324198D+00  0.6899906659D-01
      0.1881288540D+01 -0.1608541517D+00  0.3164239610D+00
      0.5442492580D+00  0.1143456438D+01  0.7443082909D+00
 SP   1 1.00       0.000000000000
      0.1687144782D+00  0.1000000000D+01  0.1000000000D+01
 D   1 1.00       0.000000000000
      0.8000000000D+00  0.1000000000D+01
 ****
     55 0
 S   3 1.00       0.000000000000
      0.1873113696D+02  0.3349460434D-01
      0.2825394365D+01  0.2347269535D+00
      0.6401216923D+00  0.8137573261D+00
 S   1 1.00       0.000000000000
      0.1612777588D+00  0.1000000000D+01
 ****
     56 0
 S   6 1.00       0.000000000000
      0.3047524880D+04  0.1834737132D-02
      0.4573695180D+03  0.1403732281D-01
      0.1039486850D+03  0.6884262226D-01
      0.2921015530D+02  0.2321844432D+00
      0.9286662960D+01  0.4679413484D+00
      0.3163926960D+01  0.3623119853D+00
 SP   3 1.00       0.000000000000
      0.7868272350D+01 -0.1193324198D+00  0.6899906659D-01
      0.1881288540D+01 -0.1608541517D+00  0.3164239610D+00
      0.5442492580D+00  0.1143456438D+01  0.7443082909D+00
 SP   1 1.00       0.000000000000
      0.1687144782D+00  0.1000000000D+01  0.1000000000D+01
 D   1 1.00       0.000000000000
      0.8000000000D+00  0.1000000000D+01
 ****
     57 0
 S   3 1.00       0.000000000000
      0.1873113696D+02  0.3349460434D-01
      0.2825394365D+01  0.2347269535D+00
      0.6401216923D+00  0.8137573261D+00
 S   1 1.00       0.000000000000
      0.1612777588D+00  0.1000000000D+01
 ****
     58 0
 S   3 1.00       0.000000000000
      0.1873113696D+02  0.3349460434D-01
      0.2825394365D+01  0.2347269535D+00
      0.6401216923D+00  0.8137573261D+00
 S   1 1.00       0.000000000000
      0.1612777588D+00  0.1000000000D+01
 ****
     59 0
 S   3 1.00       0.000000000000
      0.1873113696D+02  0.3349460434D-01
      0.2825394365D+01  0.2347269535D+00
      0.6401216923D+00  0.8137573261D+00
 S   1 1.00       0.000000000000
      0.1612777588D+00  0.1000000000D+01
 ****
     60 0
 S   6 1.00       0.000000000000
      0.3047524880D+04  0.1834737132D-02
      0.4573695180D+03  0.1403732281D-01
      0.1039486850D+03  0.6884262226D-01
      0.2921015530D+02  0.2321844432D+00
      0.9286662960D+01  0.4679413484D+00
      0.3163926960D+01  0.3623119853D+00
 SP   3 1.00       0.000000000000
      0.7868272350D+01 -0.1193324198D+00  0.6899906659D-01
      0.1881288540D+01 -0.1608541517D+00  0.3164239610D+00
      0.5442492580D+00  0.1143456438D+01  0.7443082909D+00
 SP   1 1.00       0.000000000000
      0.1687144782D+00  0.1000000000D+01  0.1000000000D+01
 D   1 1.00       0.000000000000
      0.8000000000D+00  0.1000000000D+01
 ****
     61 0
 S   3 1.00       0.000000000000
      0.1873113696D+02  0.3349460434D-01
      0.2825394365D+01  0.2347269535D+00
      0.6401216923D+00  0.8137573261D+00
 S   1 1.00       0.000000000000
      0.1612777588D+00  0.1000000000D+01
 ****
     62 0
 S   3 1.00       0.000000000000
      0.1873113696D+02  0.3349460434D-01
      0.2825394365D+01  0.2347269535D+00
      0.6401216923D+00  0.8137573261D+00
 S   1 1.00       0.000000000000
      0.1612777588D+00  0.1000000000D+01
 ****
     63 0
 S   6 1.00       0.000000000000
      0.3047524880D+04  0.1834737132D-02
      0.4573695180D+03  0.1403732281D-01
      0.1039486850D+03  0.6884262226D-01
      0.2921015530D+02  0.2321844432D+00
      0.9286662960D+01  0.4679413484D+00
      0.3163926960D+01  0.3623119853D+00
 SP   3 1.00       0.000000000000
      0.7868272350D+01 -0.1193324198D+00  0.6899906659D-01
      0.1881288540D+01 -0.1608541517D+00  0.3164239610D+00
      0.5442492580D+00  0.1143456438D+01  0.7443082909D+00
 SP   1 1.00       0.000000000000
      0.1687144782D+00  0.1000000000D+01  0.1000000000D+01
 D   1 1.00       0.000000000000
      0.8000000000D+00  0.1000000000D+01
 ****
     64 0
 S   3 1.00       0.000000000000
      0.1873113696D+02  0.3349460434D-01
      0.2825394365D+01  0.2347269535D+00
      0.6401216923D+00  0.8137573261D+00
 S   1 1.00       0.000000000000
      0.1612777588D+00  0.1000000000D+01
 ****
     65 0
 S   3 1.00       0.000000000000
      0.1873113696D+02  0.3349460434D-01
      0.2825394365D+01  0.2347269535D+00
      0.6401216923D+00  0.8137573261D+00
 S   1 1.00       0.000000000000
      0.1612777588D+00  0.1000000000D+01
 ****
     66 0
 S   6 1.00       0.000000000000
      0.3047524880D+04  0.1834737132D-02
      0.4573695180D+03  0.1403732281D-01
      0.1039486850D+03  0.6884262226D-01
      0.2921015530D+02  0.2321844432D+00
      0.9286662960D+01  0.4679413484D+00
      0.3163926960D+01  0.3623119853D+00
 SP   3 1.00       0.000000000000
      0.7868272350D+01 -0.1193324198D+00  0.6899906659D-01
      0.1881288540D+01 -0.1608541517D+00  0.3164239610D+00
      0.5442492580D+00  0.1143456438D+01  0.7443082909D+00
 SP   1 1.00       0.000000000000
      0.1687144782D+00  0.1000000000D+01  0.1000000000D+01
 D   1 1.00       0.000000000000
      0.8000000000D+00  0.1000000000D+01
 ****
     67 0
 S   3 1.00       0.000000000000
      0.1873113696D+02  0.3349460434D-01
      0.2825394365D+01  0.2347269535D+00
      0.6401216923D+00  0.8137573261D+00
 S   1 1.00       0.000000000000
      0.1612777588D+00  0.1000000000D+01
 ****
     68 0
 S   6 1.00       0.000000000000
      0.3047524880D+04  0.1834737132D-02
      0.4573695180D+03  0.1403732281D-01
      0.1039486850D+03  0.6884262226D-01
      0.2921015530D+02  0.2321844432D+00
      0.9286662960D+01  0.4679413484D+00
      0.3163926960D+01  0.3623119853D+00
 SP   3 1.00       0.000000000000
      0.7868272350D+01 -0.1193324198D+00  0.6899906659D-01
      0.1881288540D+01 -0.1608541517D+00  0.3164239610D+00
      0.5442492580D+00  0.1143456438D+01  0.7443082909D+00
 SP   1 1.00       0.000000000000
      0.1687144782D+00  0.1000000000D+01  0.1000000000D+01
 D   1 1.00       0.000000000000
      0.8000000000D+00  0.1000000000D+01
 ****
     69 0
 S   3 1.00       0.000000000000
      0.1873113696D+02  0.3349460434D-01
      0.2825394365D+01  0.2347269535D+00
      0.6401216923D+00  0.8137573261D+00
 S   1 1.00       0.000000000000
      0.1612777588D+00  0.1000000000D+01
 ****
     70 0
 S   3 1.00       0.000000000000
      0.1873113696D+02  0.3349460434D-01
      0.2825394365D+01  0.2347269535D+00
      0.6401216923D+00  0.8137573261D+00
 S   1 1.00       0.000000000000
      0.1612777588D+00  0.1000000000D+01
 ****
     71 0
 S   3 1.00       0.000000000000
      0.1873113696D+02  0.3349460434D-01
      0.2825394365D+01  0.2347269535D+00
      0.6401216923D+00  0.8137573261D+00
 S   1 1.00       0.000000000000
      0.1612777588D+00  0.1000000000D+01
 ****
     72 0
 S   6 1.00       0.000000000000
      0.3047524880D+04  0.1834737132D-02
      0.4573695180D+03  0.1403732281D-01
      0.1039486850D+03  0.6884262226D-01
      0.2921015530D+02  0.2321844432D+00
      0.9286662960D+01  0.4679413484D+00
      0.3163926960D+01  0.3623119853D+00
 SP   3 1.00       0.000000000000
      0.7868272350D+01 -0.1193324198D+00  0.6899906659D-01
      0.1881288540D+01 -0.1608541517D+00  0.3164239610D+00
      0.5442492580D+00  0.1143456438D+01  0.7443082909D+00
 SP   1 1.00       0.000000000000
      0.1687144782D+00  0.1000000000D+01  0.1000000000D+01
 D   1 1.00       0.000000000000
      0.8000000000D+00  0.1000000000D+01
 ****
     73 0
 S   3 1.00       0.000000000000
      0.1873113696D+02  0.3349460434D-01
      0.2825394365D+01  0.2347269535D+00
      0.6401216923D+00  0.8137573261D+00
 S   1 1.00       0.000000000000
      0.1612777588D+00  0.1000000000D+01
 ****
     74 0
 S   3 1.00       0.000000000000
      0.1873113696D+02  0.3349460434D-01
      0.2825394365D+01  0.2347269535D+00
      0.6401216923D+00  0.8137573261D+00
 S   1 1.00       0.000000000000
      0.1612777588D+00  0.1000000000D+01
 ****
     75 0
 S   3 1.00       0.000000000000
      0.1873113696D+02  0.3349460434D-01
      0.2825394365D+01  0.2347269535D+00
      0.6401216923D+00  0.8137573261D+00
 S   1 1.00       0.000000000000
      0.1612777588D+00  0.1000000000D+01
 ****

 AO basis set (Overlap normalization):
 Atom O1       Shell     1 S   6     bf    1 -     1         13.455860238147          1.476696080850          0.000000000000
      0.5484671660D+04  0.1831074430D-02
      0.8252349460D+03  0.1395017220D-01
      0.1880469580D+03  0.6844507810D-01
      0.5296450000D+02  0.2327143360D+00
      0.1689757040D+02  0.4701928980D+00
      0.5799635340D+01  0.3585208530D+00
 Atom O1       Shell     2 SP   3    bf    2 -     5         13.455860238147          1.476696080850          0.000000000000
      0.1553961625D+02 -0.1107775495D+00  0.7087426823D-01
      0.3599933586D+01 -0.1480262627D+00  0.3397528391D+00
      0.1013761750D+01  0.1130767015D+01  0.7271585773D+00
 Atom O1       Shell     3 SP   1    bf    6 -     9         13.455860238147          1.476696080850          0.000000000000
      0.2700058226D+00  0.1000000000D+01  0.1000000000D+01
 Atom O1       Shell     4 D   1     bf   10 -    15         13.455860238147          1.476696080850          0.000000000000
      0.8000000000D+00  0.1000000000D+01
 Atom H2       Shell     5 S   3     bf   16 -    16         14.534292322402          0.000000000000          0.000000000000
      0.1873113696D+02  0.3349460434D-01
      0.2825394365D+01  0.2347269535D+00
      0.6401216923D+00  0.8137573261D+00
 Atom H2       Shell     6 S   1     bf   17 -    17         14.534292322402          0.000000000000          0.000000000000
      0.1612777588D+00  0.1000000000D+01
 Atom O3       Shell     7 S   6     bf   18 -    18         19.555277328691          2.146668510208        -12.067923875663
      0.5484671660D+04  0.1831074430D-02
      0.8252349460D+03  0.1395017220D-01
      0.1880469580D+03  0.6844507810D-01
      0.5296450000D+02  0.2327143360D+00
      0.1689757040D+02  0.4701928980D+00
      0.5799635340D+01  0.3585208530D+00
 Atom O3       Shell     8 SP   3    bf   19 -    22         19.555277328691          2.146668510208        -12.067923875663
      0.1553961625D+02 -0.1107775495D+00  0.7087426823D-01
      0.3599933586D+01 -0.1480262627D+00  0.3397528391D+00
      0.1013761750D+01  0.1130767015D+01  0.7271585773D+00
 Atom O3       Shell     9 SP   1    bf   23 -    26         19.555277328691          2.146668510208        -12.067923875663
      0.2700058226D+00  0.1000000000D+01  0.1000000000D+01
 Atom O3       Shell    10 D   1     bf   27 -    32         19.555277328691          2.146668510208        -12.067923875663
      0.8000000000D+00  0.1000000000D+01
 Atom H4       Shell    11 S   3     bf   33 -    33         20.252530864956          0.461484255247        -12.198654676002
      0.1873113696D+02  0.3349460434D-01
      0.2825394365D+01  0.2347269535D+00
      0.6401216923D+00  0.8137573261D+00
 Atom H4       Shell    12 S   1     bf   34 -    34         20.252530864956          0.461484255247        -12.198654676002
      0.1612777588D+00  0.1000000000D+01
 Atom C5       Shell    13 S   6     bf   35 -    35          5.884320260687         -1.258267588232         -3.114934984430
      0.3047524880D+04  0.1834737132D-02
      0.4573695180D+03  0.1403732281D-01
      0.1039486850D+03  0.6884262226D-01
      0.2921015530D+02  0.2321844432D+00
      0.9286662960D+01  0.4679413484D+00
      0.3163926960D+01  0.3623119853D+00
 Atom C5       Shell    14 SP   3    bf   36 -    39          5.884320260687         -1.258267588232         -3.114934984430
      0.7868272350D+01 -0.1193324198D+00  0.6899906659D-01
      0.1881288540D+01 -0.1608541517D+00  0.3164239610D+00
      0.5442492580D+00  0.1143456438D+01  0.7443082909D+00
 Atom C5       Shell    15 SP   1    bf   40 -    43          5.884320260687         -1.258267588232         -3.114934984430
      0.1687144782D+00  0.1000000000D+01  0.1000000000D+01
 Atom C5       Shell    16 D   1     bf   44 -    49          5.884320260687         -1.258267588232         -3.114934984430
      0.8000000000D+00  0.1000000000D+01
 Atom C6       Shell    17 S   6     bf   50 -    50          8.062042168005          0.525524428274         -2.250102877962
      0.3047524880D+04  0.1834737132D-02
      0.4573695180D+03  0.1403732281D-01
      0.1039486850D+03  0.6884262226D-01
      0.2921015530D+02  0.2321844432D+00
      0.9286662960D+01  0.4679413484D+00
      0.3163926960D+01  0.3623119853D+00
 Atom C6       Shell    18 SP   3    bf   51 -    54          8.062042168005          0.525524428274         -2.250102877962
      0.7868272350D+01 -0.1193324198D+00  0.6899906659D-01
      0.1881288540D+01 -0.1608541517D+00  0.3164239610D+00
      0.5442492580D+00  0.1143456438D+01  0.7443082909D+00
 Atom C6       Shell    19 SP   1    bf   55 -    58          8.062042168005          0.525524428274         -2.250102877962
      0.1687144782D+00  0.1000000000D+01  0.1000000000D+01
 Atom C6       Shell    20 D   1     bf   59 -    64          8.062042168005          0.525524428274         -2.250102877962
      0.8000000000D+00  0.1000000000D+01
 Atom H7       Shell    21 S   3     bf   65 -    65          7.525307109523          2.414132391310         -2.952480142074
      0.1873113696D+02  0.3349460434D-01
      0.2825394365D+01  0.2347269535D+00
      0.6401216923D+00  0.8137573261D+00
 Atom H7       Shell    22 S   1     bf   66 -    66          7.525307109523          2.414132391310         -2.952480142074
      0.1612777588D+00  0.1000000000D+01
 Atom C8       Shell    23 S   6     bf   67 -    67         10.659082153272         -0.014850110459         -3.442991441099
      0.3047524880D+04  0.1834737132D-02
      0.4573695180D+03  0.1403732281D-01
      0.1039486850D+03  0.6884262226D-01
      0.2921015530D+02  0.2321844432D+00
      0.9286662960D+01  0.4679413484D+00
      0.3163926960D+01  0.3623119853D+00
 Atom C8       Shell    24 SP   3    bf   68 -    71         10.659082153272         -0.014850110459         -3.442991441099
      0.7868272350D+01 -0.1193324198D+00  0.6899906659D-01
      0.1881288540D+01 -0.1608541517D+00  0.3164239610D+00
      0.5442492580D+00  0.1143456438D+01  0.7443082909D+00
 Atom C8       Shell    25 SP   1    bf   72 -    75         10.659082153272         -0.014850110459         -3.442991441099
      0.1687144782D+00  0.1000000000D+01  0.1000000000D+01
 Atom C8       Shell    26 D   1     bf   76 -    81         10.659082153272         -0.014850110459         -3.442991441099
      0.8000000000D+00  0.1000000000D+01
 Atom H9       Shell    27 S   3     bf   82 -    82         11.333095043869         -1.886117530760         -2.840643787372
      0.1873113696D+02  0.3349460434D-01
      0.2825394365D+01  0.2347269535D+00
      0.6401216923D+00  0.8137573261D+00
 Atom H9       Shell    28 S   1     bf   83 -    83         11.333095043869         -1.886117530760         -2.840643787372
      0.1612777588D+00  0.1000000000D+01
 Atom C10      Shell    29 S   6     bf   84 -    84         10.430569552886          0.043184229459         -6.373160758352
      0.3047524880D+04  0.1834737132D-02
      0.4573695180D+03  0.1403732281D-01
      0.1039486850D+03  0.6884262226D-01
      0.2921015530D+02  0.2321844432D+00
      0.9286662960D+01  0.4679413484D+00
      0.3163926960D+01  0.3623119853D+00
 Atom C10      Shell    30 SP   3    bf   85 -    88         10.430569552886          0.043184229459         -6.373160758352
      0.7868272350D+01 -0.1193324198D+00  0.6899906659D-01
      0.1881288540D+01 -0.1608541517D+00  0.3164239610D+00
      0.5442492580D+00  0.1143456438D+01  0.7443082909D+00
 Atom C10      Shell    31 SP   1    bf   89 -    92         10.430569552886          0.043184229459         -6.373160758352
      0.1687144782D+00  0.1000000000D+01  0.1000000000D+01
 Atom C10      Shell    32 D   1     bf   93 -    98         10.430569552886          0.043184229459         -6.373160758352
      0.8000000000D+00  0.1000000000D+01
 Atom H11      Shell    33 S   3     bf   99 -    99          9.984550476159          2.019238059869         -6.860408972777
      0.1873113696D+02  0.3349460434D-01
      0.2825394365D+01  0.2347269535D+00
      0.6401216923D+00  0.8137573261D+00
 Atom H11      Shell    34 S   1     bf  100 -   100          9.984550476159          2.019238059869         -6.860408972777
      0.1612777588D+00  0.1000000000D+01
 Atom C12      Shell    35 S   6     bf  101 -   101          3.665289110179         -0.082277390812         -1.540844856438
      0.3047524880D+04  0.1834737132D-02
      0.4573695180D+03  0.1403732281D-01
      0.1039486850D+03  0.6884262226D-01
      0.2921015530D+02  0.2321844432D+00
      0.9286662960D+01  0.4679413484D+00
      0.3163926960D+01  0.3623119853D+00
 Atom C12      Shell    36 SP   3    bf  102 -   105          3.665289110179         -0.082277390812         -1.540844856438
      0.7868272350D+01 -0.1193324198D+00  0.6899906659D-01
      0.1881288540D+01 -0.1608541517D+00  0.3164239610D+00
      0.5442492580D+00  0.1143456438D+01  0.7443082909D+00
 Atom C12      Shell    37 SP   1    bf  106 -   109          3.665289110179         -0.082277390812         -1.540844856438
      0.1687144782D+00  0.1000000000D+01  0.1000000000D+01
 Atom C12      Shell    38 D   1     bf  110 -   115          3.665289110179         -0.082277390812         -1.540844856438
      0.8000000000D+00  0.1000000000D+01
 Atom H13      Shell    39 S   3     bf  116 -   116          3.360299425476          1.780335688512         -2.407077986964
      0.1873113696D+02  0.3349460434D-01
      0.2825394365D+01  0.2347269535D+00
      0.6401216923D+00  0.8137573261D+00
 Atom H13      Shell    40 S   1     bf  117 -   117          3.360299425476          1.780335688512         -2.407077986964
      0.1612777588D+00  0.1000000000D+01
 Atom C14      Shell    41 S   6     bf  118 -   118          5.666970612719         -1.004094264407         -6.005181985194
      0.3047524880D+04  0.1834737132D-02
      0.4573695180D+03  0.1403732281D-01
      0.1039486850D+03  0.6884262226D-01
      0.2921015530D+02  0.2321844432D+00
      0.9286662960D+01  0.4679413484D+00
      0.3163926960D+01  0.3623119853D+00
 Atom C14      Shell    42 SP   3    bf  119 -   122          5.666970612719         -1.004094264407         -6.005181985194
      0.7868272350D+01 -0.1193324198D+00  0.6899906659D-01
      0.1881288540D+01 -0.1608541517D+00  0.3164239610D+00
      0.5442492580D+00  0.1143456438D+01  0.7443082909D+00
 Atom C14      Shell    43 SP   1    bf  123 -   126          5.666970612719         -1.004094264407         -6.005181985194
      0.1687144782D+00  0.1000000000D+01  0.1000000000D+01
 Atom C14      Shell    44 D   1     bf  127 -   132          5.666970612719         -1.004094264407         -6.005181985194
      0.8000000000D+00  0.1000000000D+01
 Atom H15      Shell    45 S   3     bf  133 -   133          5.074910533573          0.931392361574         -6.470698897112
      0.1873113696D+02  0.3349460434D-01
      0.2825394365D+01  0.2347269535D+00
      0.6401216923D+00  0.8137573261D+00
 Atom H15      Shell    46 S   1     bf  134 -   134          5.074910533573          0.931392361574         -6.470698897112
      0.1612777588D+00  0.1000000000D+01
 Atom H16      Shell    47 S   3     bf  135 -   135          4.212931535620         -2.268739092522         -6.766359514123
      0.1873113696D+02  0.3349460434D-01
      0.2825394365D+01  0.2347269535D+00
      0.6401216923D+00  0.8137573261D+00
 Atom H16      Shell    48 S   1     bf  136 -   136          4.212931535620         -2.268739092522         -6.766359514123
      0.1612777588D+00  0.1000000000D+01
 Atom C17      Shell    49 S   6     bf  137 -   137         12.982975454113         -0.558119936395         -7.756195435809
      0.3047524880D+04  0.1834737132D-02
      0.4573695180D+03  0.1403732281D-01
      0.1039486850D+03  0.6884262226D-01
      0.2921015530D+02  0.2321844432D+00
      0.9286662960D+01  0.4679413484D+00
      0.3163926960D+01  0.3623119853D+00
 Atom C17      Shell    50 SP   3    bf  138 -   141         12.982975454113         -0.558119936395         -7.756195435809
      0.7868272350D+01 -0.1193324198D+00  0.6899906659D-01
      0.1881288540D+01 -0.1608541517D+00  0.3164239610D+00
      0.5442492580D+00  0.1143456438D+01  0.7443082909D+00
 Atom C17      Shell    51 SP   1    bf  142 -   145         12.982975454113         -0.558119936395         -7.756195435809
      0.1687144782D+00  0.1000000000D+01  0.1000000000D+01
 Atom C17      Shell    52 D   1     bf  146 -   151         12.982975454113         -0.558119936395         -7.756195435809
      0.8000000000D+00  0.1000000000D+01
 Atom C18      Shell    53 S   6     bf  152 -   152          7.793360679665          0.616499888325          0.647500694357
      0.3047524880D+04  0.1834737132D-02
      0.4573695180D+03  0.1403732281D-01
      0.1039486850D+03  0.6884262226D-01
      0.2921015530D+02  0.2321844432D+00
      0.9286662960D+01  0.4679413484D+00
      0.3163926960D+01  0.3623119853D+00
 Atom C18      Shell    54 SP   3    bf  153 -   156          7.793360679665          0.616499888325          0.647500694357
      0.7868272350D+01 -0.1193324198D+00  0.6899906659D-01
      0.1881288540D+01 -0.1608541517D+00  0.3164239610D+00
      0.5442492580D+00  0.1143456438D+01  0.7443082909D+00
 Atom C18      Shell    55 SP   1    bf  157 -   160          7.793360679665          0.616499888325          0.647500694357
      0.1687144782D+00  0.1000000000D+01  0.1000000000D+01
 Atom C18      Shell    56 D   1     bf  161 -   166          7.793360679665          0.616499888325          0.647500694357
      0.8000000000D+00  0.1000000000D+01
 Atom H19      Shell    57 S   3     bf  167 -   167          8.628747319195          2.321043102504          1.458726864025
      0.1873113696D+02  0.3349460434D-01
      0.2825394365D+01  0.2347269535D+00
      0.6401216923D+00  0.8137573261D+00
 Atom H19      Shell    58 S   1     bf  168 -   168          8.628747319195          2.321043102504          1.458726864025
      0.1612777588D+00  0.1000000000D+01
 Atom H20      Shell    59 S   3     bf  169 -   169          8.782676888870         -0.978020068890          1.520287111653
      0.1873113696D+02  0.3349460434D-01
      0.2825394365D+01  0.2347269535D+00
      0.6401216923D+00  0.8137573261D+00
 Atom H20      Shell    60 S   1     bf  170 -   170          8.782676888870         -0.978020068890          1.520287111653
      0.1612777588D+00  0.1000000000D+01
 Atom C21      Shell    61 S   6     bf  171 -   171          8.194804764088         -1.578589414737         -7.329720341386
      0.3047524880D+04  0.1834737132D-02
      0.4573695180D+03  0.1403732281D-01
      0.1039486850D+03  0.6884262226D-01
      0.2921015530D+02  0.2321844432D+00
      0.9286662960D+01  0.4679413484D+00
      0.3163926960D+01  0.3623119853D+00
 Atom C21      Shell    62 SP   3    bf  172 -   175          8.194804764088         -1.578589414737         -7.329720341386
      0.7868272350D+01 -0.1193324198D+00  0.6899906659D-01
      0.1881288540D+01 -0.1608541517D+00  0.3164239610D+00
      0.5442492580D+00  0.1143456438D+01  0.7443082909D+00
 Atom C21      Shell    63 SP   1    bf  176 -   179          8.194804764088         -1.578589414737         -7.329720341386
      0.1687144782D+00  0.1000000000D+01  0.1000000000D+01
 Atom C21      Shell    64 D   1     bf  180 -   185          8.194804764088         -1.578589414737         -7.329720341386
      0.8000000000D+00  0.1000000000D+01
 Atom H22      Shell    65 S   3     bf  186 -   186          8.630326884578         -3.587468543965         -7.088622353927
      0.1873113696D+02  0.3349460434D-01
      0.2825394365D+01  0.2347269535D+00
      0.6401216923D+00  0.8137573261D+00
 Atom H22      Shell    66 S   1     bf  187 -   187          8.630326884578         -3.587468543965         -7.088622353927
      0.1612777588D+00  0.1000000000D+01
 Atom H23      Shell    67 S   3     bf  188 -   188          7.950583550660         -1.287910115812         -9.364983789088
      0.1873113696D+02  0.3349460434D-01
      0.2825394365D+01  0.2347269535D+00
      0.6401216923D+00  0.8137573261D+00
 Atom H23      Shell    68 S   1     bf  189 -   189          7.950583550660         -1.287910115812         -9.364983789088
      0.1612777588D+00  0.1000000000D+01
 Atom C24      Shell    69 S   6     bf  190 -   190          4.894147060681          0.441748975968          1.089683853801
      0.3047524880D+04  0.1834737132D-02
      0.4573695180D+03  0.1403732281D-01
      0.1039486850D+03  0.6884262226D-01
      0.2921015530D+02  0.2321844432D+00
      0.9286662960D+01  0.4679413484D+00
      0.3163926960D+01  0.3623119853D+00
 Atom C24      Shell    70 SP   3    bf  191 -   194          4.894147060681          0.441748975968          1.089683853801
      0.7868272350D+01 -0.1193324198D+00  0.6899906659D-01
      0.1881288540D+01 -0.1608541517D+00  0.3164239610D+00
      0.5442492580D+00  0.1143456438D+01  0.7443082909D+00
 Atom C24      Shell    71 SP   1    bf  195 -   198          4.894147060681          0.441748975968          1.089683853801
      0.1687144782D+00  0.1000000000D+01  0.1000000000D+01
 Atom C24      Shell    72 D   1     bf  199 -   204          4.894147060681          0.441748975968          1.089683853801
      0.8000000000D+00  0.1000000000D+01
 Atom H25      Shell    73 S   3     bf  205 -   205          4.448351028330         -1.062608311303          2.438584918346
      0.1873113696D+02  0.3349460434D-01
      0.2825394365D+01  0.2347269535D+00
      0.6401216923D+00  0.8137573261D+00
 Atom H25      Shell    74 S   1     bf  206 -   206          4.448351028330         -1.062608311303          2.438584918346
      0.1612777588D+00  0.1000000000D+01
 Atom H26      Shell    75 S   3     bf  207 -   207          4.129659997684          2.187052845839          1.900370960192
      0.1873113696D+02  0.3349460434D-01
      0.2825394365D+01  0.2347269535D+00
      0.6401216923D+00  0.8137573261D+00
 Atom H26      Shell    76 S   1     bf  208 -   208          4.129659997684          2.187052845839          1.900370960192
      0.1612777588D+00  0.1000000000D+01
 Atom C27      Shell    77 S   6     bf  209 -   209         12.646762939455          1.922955341768         -2.562376266380
      0.3047524880D+04  0.1834737132D-02
      0.4573695180D+03  0.1403732281D-01
      0.1039486850D+03  0.6884262226D-01
      0.2921015530D+02  0.2321844432D+00
      0.9286662960D+01  0.4679413484D+00
      0.3163926960D+01  0.3623119853D+00
 Atom C27      Shell    78 SP   3    bf  210 -   213         12.646762939455          1.922955341768         -2.562376266380
      0.7868272350D+01 -0.1193324198D+00  0.6899906659D-01
      0.1881288540D+01 -0.1608541517D+00  0.3164239610D+00
      0.5442492580D+00  0.1143456438D+01  0.7443082909D+00
 Atom C27      Shell    79 SP   1    bf  214 -   217         12.646762939455          1.922955341768         -2.562376266380
      0.1687144782D+00  0.1000000000D+01  0.1000000000D+01
 Atom C27      Shell    80 D   1     bf  218 -   223         12.646762939455          1.922955341768         -2.562376266380
      0.8000000000D+00  0.1000000000D+01
 Atom H28      Shell    81 S   3     bf  224 -   224         11.759516488968          3.798682043310         -2.462529090155
      0.1873113696D+02  0.3349460434D-01
      0.2825394365D+01  0.2347269535D+00
      0.6401216923D+00  0.8137573261D+00
 Atom H28      Shell    82 S   1     bf  225 -   225         11.759516488968          3.798682043310         -2.462529090155
      0.1612777588D+00  0.1000000000D+01
 Atom C29      Shell    83 S   6     bf  226 -   226          0.978442195913         -1.258480541470         -1.336052778773
      0.3047524880D+04  0.1834737132D-02
      0.4573695180D+03  0.1403732281D-01
      0.1039486850D+03  0.6884262226D-01
      0.2921015530D+02  0.2321844432D+00
      0.9286662960D+01  0.4679413484D+00
      0.3163926960D+01  0.3623119853D+00
 Atom C29      Shell    84 SP   3    bf  227 -   230          0.978442195913         -1.258480541470         -1.336052778773
      0.7868272350D+01 -0.1193324198D+00  0.6899906659D-01
      0.1881288540D+01 -0.1608541517D+00  0.3164239610D+00
      0.5442492580D+00  0.1143456438D+01  0.7443082909D+00
 Atom C29      Shell    85 SP   1    bf  231 -   234          0.978442195913         -1.258480541470         -1.336052778773
      0.1687144782D+00  0.1000000000D+01  0.1000000000D+01
 Atom C29      Shell    86 D   1     bf  235 -   240          0.978442195913         -1.258480541470         -1.336052778773
      0.8000000000D+00  0.1000000000D+01
 Atom H30      Shell    87 S   3     bf  241 -   241          0.000000000000          0.000000000000          0.000000000000
      0.1873113696D+02  0.3349460434D-01
      0.2825394365D+01  0.2347269535D+00
      0.6401216923D+00  0.8137573261D+00
 Atom H30      Shell    88 S   1     bf  242 -   242          0.000000000000          0.000000000000          0.000000000000
      0.1612777588D+00  0.1000000000D+01
 Atom C31      Shell    89 S   6     bf  243 -   243          6.412276898775         -4.039363497335         -2.387389440611
      0.3047524880D+04  0.1834737132D-02
      0.4573695180D+03  0.1403732281D-01
      0.1039486850D+03  0.6884262226D-01
      0.2921015530D+02  0.2321844432D+00
      0.9286662960D+01  0.4679413484D+00
      0.3163926960D+01  0.3623119853D+00
 Atom C31      Shell    90 SP   3    bf  244 -   247          6.412276898775         -4.039363497335         -2.387389440611
      0.7868272350D+01 -0.1193324198D+00  0.6899906659D-01
      0.1881288540D+01 -0.1608541517D+00  0.3164239610D+00
      0.5442492580D+00  0.1143456438D+01  0.7443082909D+00
 Atom C31      Shell    91 SP   1    bf  248 -   251          6.412276898775         -4.039363497335         -2.387389440611
      0.1687144782D+00  0.1000000000D+01  0.1000000000D+01
 Atom C31      Shell    92 D   1     bf  252 -   257          6.412276898775         -4.039363497335         -2.387389440611
      0.8000000000D+00  0.1000000000D+01
 Atom H32      Shell    93 S   3     bf  258 -   258          8.284280896528         -4.658995701212         -3.003174729000
      0.1873113696D+02  0.3349460434D-01
      0.2825394365D+01  0.2347269535D+00
      0.6401216923D+00  0.8137573261D+00
 Atom H32      Shell    94 S   1     bf  259 -   259          8.284280896528         -4.658995701212         -3.003174729000
      0.1612777588D+00  0.1000000000D+01
 Atom H33      Shell    95 S   3     bf  260 -   260          6.313319934738         -4.345199628168         -0.347618788213
      0.1873113696D+02  0.3349460434D-01
      0.2825394365D+01  0.2347269535D+00
      0.6401216923D+00  0.8137573261D+00
 Atom H33      Shell    96 S   1     bf  261 -   261          6.313319934738         -4.345199628168         -0.347618788213
      0.1612777588D+00  0.1000000000D+01
 Atom H34      Shell    97 S   3     bf  262 -   262          5.036639573162         -5.301704787089         -3.274380626892
      0.1873113696D+02  0.3349460434D-01
      0.2825394365D+01  0.2347269535D+00
      0.6401216923D+00  0.8137573261D+00
 Atom H34      Shell    98 S   1     bf  263 -   263          5.036639573162         -5.301704787089         -3.274380626892
      0.1612777588D+00  0.1000000000D+01
 Atom C35      Shell    99 S   6     bf  264 -   264         15.144459984121          0.925624482780         -6.524928708098
      0.3047524880D+04  0.1834737132D-02
      0.4573695180D+03  0.1403732281D-01
      0.1039486850D+03  0.6884262226D-01
      0.2921015530D+02  0.2321844432D+00
      0.9286662960D+01  0.4679413484D+00
      0.3163926960D+01  0.3623119853D+00
 Atom C35      Shell   100 SP   3    bf  265 -   268         15.144459984121          0.925624482780         -6.524928708098
      0.7868272350D+01 -0.1193324198D+00  0.6899906659D-01
      0.1881288540D+01 -0.1608541517D+00  0.3164239610D+00
      0.5442492580D+00  0.1143456438D+01  0.7443082909D+00
 Atom C35      Shell   101 SP   1    bf  269 -   272         15.144459984121          0.925624482780         -6.524928708098
      0.1687144782D+00  0.1000000000D+01  0.1000000000D+01
 Atom C35      Shell   102 D   1     bf  273 -   278         15.144459984121          0.925624482780         -6.524928708098
      0.8000000000D+00  0.1000000000D+01
 Atom C36      Shell   103 S   6     bf  279 -   279         12.759893397509          0.307360497315        -10.567539057285
      0.3047524880D+04  0.1834737132D-02
      0.4573695180D+03  0.1403732281D-01
      0.1039486850D+03  0.6884262226D-01
      0.2921015530D+02  0.2321844432D+00
      0.9286662960D+01  0.4679413484D+00
      0.3163926960D+01  0.3623119853D+00
 Atom C36      Shell   104 SP   3    bf  280 -   283         12.759893397509          0.307360497315        -10.567539057285
      0.7868272350D+01 -0.1193324198D+00  0.6899906659D-01
      0.1881288540D+01 -0.1608541517D+00  0.3164239610D+00
      0.5442492580D+00  0.1143456438D+01  0.7443082909D+00
 Atom C36      Shell   105 SP   1    bf  284 -   287         12.759893397509          0.307360497315        -10.567539057285
      0.1687144782D+00  0.1000000000D+01  0.1000000000D+01
 Atom C36      Shell   106 D   1     bf  288 -   293         12.759893397509          0.307360497315        -10.567539057285
      0.8000000000D+00  0.1000000000D+01
 Atom H37      Shell   107 S   3     bf  294 -   294         11.951451607018          2.219676170729        -10.595231595365
      0.1873113696D+02  0.3349460434D-01
      0.2825394365D+01  0.2347269535D+00
      0.6401216923D+00  0.8137573261D+00
 Atom H37      Shell   108 S   1     bf  295 -   295         11.951451607018          2.219676170729        -10.595231595365
      0.1612777588D+00  0.1000000000D+01
 Atom H38      Shell   109 S   3     bf  296 -   296         11.414641488613         -0.912557347824        -11.559747511234
      0.1873113696D+02  0.3349460434D-01
      0.2825394365D+01  0.2347269535D+00
      0.6401216923D+00  0.8137573261D+00
 Atom H38      Shell   110 S   1     bf  297 -   297         11.414641488613         -0.912557347824        -11.559747511234
      0.1612777588D+00  0.1000000000D+01
 Atom C39      Shell   111 S   6     bf  298 -   298         14.915565734645          2.051771547178         -4.266202348388
      0.3047524880D+04  0.1834737132D-02
[...]
 1513 Fit       0.003145
 1514 Fit       0.001140
 1515 Fit       0.001932
 1516 Fit       0.000777
 1517 Fit      -0.001206
 1518 Fit       0.003193
 1519 Fit       0.002540
 1520 Fit       0.001331
 1521 Fit      -0.000685
 1522 Fit       0.001622
 1523 Fit       0.002337
 1524 Fit       0.001706
 1525 Fit      -0.000137
 1526 Fit      -0.000246
 1527 Fit       0.000531
 1528 Fit      -0.001305
 1529 Fit      -0.001768
 1530 Fit       0.001546
 1531 Fit       0.000603
 1532 Fit       0.002340
 1533 Fit       0.003066
 1534 Fit      -0.000116
 1535 Fit       0.001608
 1536 Fit       0.002301
 1537 Fit       0.001876
 1538 Fit       0.000675
 1539 Fit      -0.001678
 1540 Fit      -0.000009
 1541 Fit       0.000447
 1542 Fit      -0.000219
 1543 Fit       0.000077
 1544 Fit      -0.001456
 1545 Fit      -0.002071
 1546 Fit       0.000537
 1547 Fit      -0.001230
 1548 Fit      -0.002281
 1549 Fit       0.003682
 1550 Fit      -0.001583
 1551 Fit      -0.002136
 1552 Fit       0.002644
 1553 Fit       0.003439
 1554 Fit       0.000499
 1555 Fit       0.005269
 1556 Fit       0.003007
 1557 Fit       0.000289
 1558 Fit      -0.001334
 1559 Fit       0.003695
 1560 Fit       0.001701
 1561 Fit      -0.001399
 1562 Fit       0.000204
 1563 Fit       0.000965
 1564 Fit      -0.000772
 1565 Fit       0.001079
 1566 Fit       0.002205
 1567 Fit       0.002622
 1568 Fit      -0.001625
 1569 Fit       0.000499
 1570 Fit       0.002077
 1571 Fit       0.002784
 1572 Fit      -0.000266
 1573 Fit       0.001048
 1574 Fit      -0.001524
 1575 Fit       0.002430
 1576 Fit       0.002872
 1577 Fit       0.001660
 1578 Fit       0.000573
 1579 Fit       0.002587
 1580 Fit       0.001523
 1581 Fit       0.000171
 1582 Fit      -0.001145
 1583 Fit       0.001684
 1584 Fit       0.000244
 1585 Fit      -0.001186
 1586 Fit       0.003420
 1587 Fit      -0.020233
 1588 Fit      -0.015227
 1589 Fit      -0.022840
 1590 Fit      -0.024678
 1591 Fit      -0.016247
 1592 Fit      -0.010294
 1593 Fit      -0.009144
 1594 Fit      -0.018222
 1595 Fit      -0.023537
 1596 Fit      -0.024777
 1597 Fit      -0.003093
 1598 Fit      -0.013249
 1599 Fit      -0.019470
 1600 Fit      -0.021699
 1601 Fit      -0.020430
 1602 Fit      -0.014497
 1603 Fit      -0.003481
 1604 Fit       0.002112
 1605 Fit       0.002779
 1606 Fit       0.007542
 1607 Fit       0.011062
 1608 Fit       0.009478
 1609 Fit       0.006690
 1610 Fit       0.012580
 1611 Fit       0.015871
 1612 Fit       0.015797
 1613 Fit       0.012750
 1614 Fit       0.018430
 1615 Fit       0.016668
 1616 Fit       0.012871
 1617 Fit      -0.007035
 1618 Fit      -0.008747
 1619 Fit      -0.017686
 1620 Fit      -0.021072
 1621 Fit      -0.018856
 1622 Fit      -0.008765
 1623 Fit      -0.018568
 1624 Fit      -0.023739
 1625 Fit      -0.024195
 1626 Fit      -0.020192
 1627 Fit      -0.009311
 1628 Fit      -0.019585
 1629 Fit      -0.024850
 1630 Fit      -0.024947
 1631 Fit      -0.020411
 1632 Fit      -0.011227
 1633 Fit      -0.020312
 1634 Fit      -0.024320
 1635 Fit      -0.022961
 1636 Fit      -0.017381
 1637 Fit      -0.013629
 1638 Fit      -0.020705
 1639 Fit      -0.018353
 1640 Fit      -0.005653
 1641 Fit      -0.004776
 1642 Fit      -0.014383
 1643 Fit       0.002120
 1644 Fit       0.013363
 1645 Fit       0.002507
 1646 Fit       0.023836
 1647 Fit       0.019545
 1648 Fit       0.012848
 1649 Fit       0.002416
 1650 Fit       0.021690
 1651 Fit       0.018401
 1652 Fit       0.012283
 1653 Fit       0.000920
 1654 Fit       0.016436
 1655 Fit       0.015835
 1656 Fit       0.010851
 1657 Fit       0.005251
 1658 Fit       0.007123
 1659 Fit       0.001585
 1660 Fit       0.004247
 1661 Fit       0.003418
 1662 Fit       0.003807
 1663 Fit       0.005275
 1664 Fit       0.010994
 1665 Fit       0.005292
 1666 Fit       0.004034
 1667 Fit       0.005285
 1668 Fit       0.005857
 1669 Fit       0.006274
 1670 Fit       0.002129
 1671 Fit       0.001654
 1672 Fit       0.003773
 1673 Fit       0.005702
 1674 Fit       0.006022
 1675 Fit       0.005146
 1676 Fit       0.004059
 1677 Fit       0.005839
 1678 Fit       0.005350
 1679 Fit       0.005085
 1680 Fit       0.005270
 1681 Fit       0.003540
 1682 Fit       0.004687
 1683 Fit      -0.008435
 1684 Fit      -0.012078
 1685 Fit      -0.019961
 1686 Fit      -0.000436
 1687 Fit      -0.010660
 1688 Fit      -0.016603
 1689 Fit      -0.011701
 1690 Fit      -0.007872
 1691 Fit      -0.022697
 1692 Fit      -0.011861
 1693 Fit      -0.006678
 1694 Fit      -0.018422
 1695 Fit      -0.008204
 1696 Fit      -0.004364
 1697 Fit      -0.004939
 1698 Fit      -0.002336
 1699 Fit      -0.007407
 1700 Fit      -0.010057
 1701 Fit      -0.002808
 1702 Fit      -0.004074
 1703 Fit       0.000783
 1704 Fit      -0.000311
 1705 Fit      -0.003373
 1706 Fit       0.002224
 1707 Fit       0.002823
 1708 Fit       0.005103
 1709 Fit       0.007064
 1710 Fit       0.007029
 1711 Fit       0.005336
 1712 Fit       0.006327
 1713 Fit       0.005408
 1714 Fit       0.007298
 1715 Fit       0.005964
 1716 Fit       0.005409
 1717 Fit       0.004913
 1718 Fit       0.005200
 1719 Fit       0.005798
 1720 Fit       0.007170
 1721 Fit       0.006905
 1722 Fit       0.006751
 1723 Fit       0.007751
 1724 Fit      -0.004976
 1725 Fit      -0.007060
 1726 Fit      -0.006534
 1727 Fit      -0.002780
 1728 Fit      -0.004486
 1729 Fit      -0.001967
 1730 Fit      -0.000146
 1731 Fit      -0.001003
 1732 Fit      -0.002686
 1733 Fit       0.001389
 1734 Fit      -0.004813
 1735 Fit      -0.004608
 1736 Fit      -0.002593
 1737 Fit      -0.003104
 1738 Fit      -0.003697
 1739 Fit      -0.001370
 1740 Fit      -0.000497
 1741 Fit      -0.001002
 1742 Fit      -0.001661
 1743 Fit       0.000207
 1744 Fit       0.001133
 1745 Fit       0.001191
 1746 Fit      -0.000474
 1747 Fit       0.001397
 1748 Fit      -0.012951
 1749 Fit      -0.007473
 1750 Fit      -0.006554
 1751 Fit      -0.003939
 1752 Fit      -0.001486
 1753 Fit       0.000271
 1754 Fit      -0.000955
 1755 Fit       0.001268
 1756 Fit       0.003166
 1757 Fit       0.002055
 1758 Fit       0.005064
 1759 Fit      -0.002021
 1760 Fit      -0.000504
 1761 Fit      -0.000735
 1762 Fit       0.001145
 1763 Fit       0.000321
 1764 Fit      -0.000115
 1765 Fit      -0.000092
 1766 Fit      -0.000253
 1767 Fit       0.000678
 1768 Fit       0.002190
 1769 Fit       0.004560
 1770 Fit       0.000499
 1771 Fit       0.001849
 1772 Fit       0.001667
 1773 Fit       0.003768
 1774 Fit       0.005814
 1775 Fit       0.002683
 1776 Fit       0.005941
 1777 Fit       0.010527
 1778 Fit       0.004199
 1779 Fit       0.007195
 1780 Fit       0.007011
 1781 Fit       0.002347
 1782 Fit       0.001192
 1783 Fit       0.001720
 1784 Fit       0.002168
 1785 Fit       0.001704
 1786 Fit       0.003483
 1787 Fit       0.002571
 1788 Fit       0.005338
 1789 Fit       0.004487
 1790 Fit       0.004041
 1791 Fit       0.005644
 1792 Fit       0.006120
 1793 Fit       0.004838
 1794 Fit       0.005568
 1795 Fit       0.006239
 1796 Fit       0.004235
 1797 Fit       0.005098
 1798 Fit       0.006445
 1799 Fit       0.005064
 1800 Fit       0.005576
 1801 Fit       0.005774
 1802 Fit       0.004568
 1803 Fit       0.004936
 1804 Fit       0.005098
 1805 Fit       0.004757
 1806 Fit       0.006977
 1807 Fit       0.008356
 1808 Fit       0.008834
 1809 Fit       0.008967
 1810 Fit       0.006964
 1811 Fit       0.007701
 1812 Fit       0.006655
 1813 Fit       0.005550
 1814 Fit      -0.003154
 1815 Fit      -0.003311
 1816 Fit      -0.001953
 1817 Fit      -0.002911
 1818 Fit      -0.000326
 1819 Fit      -0.006938
 1820 Fit       0.000653
 1821 Fit      -0.001451
 1822 Fit      -0.004640
 1823 Fit      -0.009294
 1824 Fit       0.003311
 1825 Fit       0.003487
 1826 Fit       0.002222
 1827 Fit       0.000231
 1828 Fit      -0.002039
 1829 Fit      -0.003852
 1830 Fit       0.003710
 1831 Fit       0.000974
 1832 Fit      -0.001413
 1833 Fit       0.007659
 1834 Fit       0.008412
 1835 Fit       0.006097
 1836 Fit       0.005848
 1837 Fit       0.006556
 1838 Fit       0.006117
 1839 Fit       0.007225
 1840 Fit       0.007590
 1841 Fit       0.009383
 1842 Fit       0.007781
 1843 Fit       0.006640
 1844 Fit       0.008096
 1845 Fit       0.007403
 1846 Fit       0.006790
 1847 Fit       0.008924
 1848 Fit       0.008691
 1849 Fit       0.008114
 1850 Fit       0.007903
 1851 Fit       0.009212
 1852 Fit       0.008954
 1853 Fit       0.009038
 1854 Fit       0.009421
 1855 Fit       0.012348
 1856 Fit       0.008266
 1857 Fit       0.011261
 1858 Fit       0.015686
 1859 Fit       0.011216
 1860 Fit       0.016569
 1861 Fit       0.018389
 1862 Fit       0.012940
 1863 Fit       0.010840
 1864 Fit       0.009047
 1865 Fit       0.009283
 1866 Fit       0.009998
 1867 Fit       0.007079
 1868 Fit       0.007075
 1869 Fit       0.007472
 1870 Fit       0.005391
 1871 Fit       0.004195
 1872 Fit       0.004700
 1873 Fit       0.002546
 1874 Fit       0.002136
 1875 Fit       0.002609
 1876 Fit       0.003470
 1877 Fit      -0.000107
 1878 Fit      -0.001698
 1879 Fit      -0.001847
 1880 Fit      -0.001122
 1881 Fit      -0.001050
 1882 Fit       0.002690
 1883 Fit      -0.006323
 1884 Fit      -0.010520
 1885 Fit      -0.010095
 1886 Fit      -0.006743
 1887 Fit       0.006045
 1888 Fit       0.009158
 1889 Fit       0.007430
 1890 Fit       0.005719
 1891 Fit       0.011939
 1892 Fit       0.009774
 1893 Fit       0.017122
 1894 Fit       0.016170
 1895 Fit       0.025261
 1896 Fit       0.008066
 1897 Fit       0.006006
 1898 Fit       0.005826
 1899 Fit       0.005024
 1900 Fit       0.009581
 1901 Fit       0.010078
 1902 Fit       0.012495
 1903 Fit       0.016564
 1904 Fit       0.007762
 1905 Fit       0.008830
 1906 Fit       0.010947
 1907 Fit       0.014362
 1908 Fit       0.007075
 1909 Fit       0.000817
 1910 Fit       0.004009
 1911 Fit      -0.007900
 1912 Fit      -0.000599
 1913 Fit       0.003086
 1914 Fit       0.004763
 1915 Fit       0.005657
 1916 Fit       0.005677
 1917 Fit      -0.002423
 1918 Fit      -0.002453
 1919 Fit       0.001814
 1920 Fit       0.003941
 1921 Fit       0.003920
 1922 Fit       0.002078
 1923 Fit       0.001683
 1924 Fit      -0.000860
 1925 Fit      -0.000492
 1926 Fit       0.000322
 1927 Fit       0.001837
 1928 Fit       0.005121
 1929 Fit       0.001002
 1930 Fit       0.003220
 1931 Fit       0.002753
 1932 Fit       0.002913
 1933 Fit       0.002237
 1934 Fit       0.002342
 1935 Fit       0.001937
 1936 Fit       0.001086
 1937 Fit       0.001836
 1938 Fit       0.001416
 1939 Fit       0.000572
 1940 Fit      -0.000698
 1941 Fit       0.000762
 1942 Fit       0.000062
 1943 Fit      -0.011760
 1944 Fit      -0.002965
 1945 Fit      -0.001440
 1946 Fit      -0.001170
 1947 Fit      -0.010165
 1948 Fit      -0.004012
 1949 Fit      -0.000319
 1950 Fit       0.002412
 1951 Fit      -0.016676
 1952 Fit      -0.006689
 1953 Fit      -0.001235
 1954 Fit       0.002542
 1955 Fit      -0.014414
 1956 Fit      -0.004641
 1957 Fit       0.000850
 1958 Fit      -0.004721
 1959 Fit      -0.001842
 1960 Fit      -0.001920
 1961 Fit      -0.001490
 1962 Fit      -0.001804
 1963 Fit      -0.002125
 1964 Fit      -0.001386
 1965 Fit      -0.001966
 1966 Fit      -0.001613
 1967 Fit      -0.001278
 1968 Fit      -0.001380
 1969 Fit      -0.001145
 1970 Fit      -0.000902
 1971 Fit      -0.000145
 1972 Fit      -0.000438
 1973 Fit       0.001035
 1974 Fit       0.002167
 1975 Fit       0.000930
 1976 Fit       0.003018
 1977 Fit       0.003322
 1978 Fit      -0.000643
 1979 Fit      -0.001378
 1980 Fit      -0.000150
 1981 Fit       0.000708
 1982 Fit       0.000727
 1983 Fit      -0.000229
 1984 Fit      -0.001784
 1985 Fit       0.001494
 1986 Fit       0.001755
 1987 Fit       0.001210
 1988 Fit       0.000020
 1989 Fit      -0.001552
 1990 Fit       0.002148
 1991 Fit       0.001129
 1992 Fit      -0.000228
 1993 Fit      -0.000853
 1994 Fit       0.000394
 1995 Fit      -0.001006
 1996 Fit      -0.001331
 1997 Fit      -0.000494
 1998 Fit       0.001132
 1999 Fit      -0.000899
 2000 Fit       0.000784
 2001 Fit       0.002580
 2002 Fit      -0.001028
 2003 Fit       0.000816
 2004 Fit       0.001455
 2005 Fit       0.002516
 2006 Fit       0.000839
 2007 Fit       0.000747
 2008 Fit       0.001389
 2009 Fit       0.001851
 2010 Fit       0.001817
 2011 Fit       0.002217
 2012 Fit       0.002034
 2013 Fit       0.002654
 2014 Fit       0.002386
 2015 Fit       0.003091
 2016 Fit      -0.000968
 2017 Fit      -0.000452
 2018 Fit       0.000830
 2019 Fit       0.001520
 2020 Fit       0.000524
 2021 Fit      -0.000391
 2022 Fit       0.001997
 2023 Fit       0.000986
 2024 Fit      -0.000008
 2025 Fit       0.000157
 2026 Fit       0.000750
 2027 Fit       0.001388
 2028 Fit       0.001551
 2029 Fit       0.001155
 2030 Fit       0.001986
 2031 Fit       0.002258
 2032 Fit       0.002350
 2033 Fit       0.002575
 2034 Fit       0.002262
 2035 Fit       0.001326
 2036 Fit       0.000383
 2037 Fit       0.000627
 2038 Fit       0.000908
 2039 Fit       0.000667
 2040 Fit       0.000124
 2041 Fit       0.000778
 2042 Fit       0.001111
 2043 Fit       0.000966
 2044 Fit       0.000650
 2045 Fit       0.000730
 2046 Fit       0.000944
 2047 Fit       0.000656
 2048 Fit       0.000373
 2049 Fit       0.000859
 2050 Fit      -0.000482
 2051 Fit      -0.001352
 2052 Fit      -0.001562
 2053 Fit      -0.001475
 2054 Fit      -0.000547
 2055 Fit      -0.000740
 2056 Fit      -0.000909
 2057 Fit      -0.001570
 2058 Fit      -0.001753
 2059 Fit      -0.001050
 2060 Fit      -0.000911
 2061 Fit      -0.001239
 2062 Fit      -0.001478
 2063 Fit       0.002769
 2064 Fit       0.000048
 2065 Fit       0.002028
 2066 Fit       0.003372
 2067 Fit       0.003132
 2068 Fit       0.002051
 2069 Fit       0.000273
 2070 Fit      -0.000839
 2071 Fit      -0.000548
 2072 Fit       0.001098
 2073 Fit       0.002469
 2074 Fit       0.000969
 2075 Fit       0.001319
 2076 Fit       0.000456
 2077 Fit       0.002006
 2078 Fit       0.001190
 2079 Fit      -0.000067
 2080 Fit       0.002484
 2081 Fit       0.002155
 2082 Fit       0.001508
 2083 Fit       0.000299
 2084 Fit      -0.001209
 2085 Fit       0.000892
 2086 Fit       0.001493
 2087 Fit       0.001054
 2088 Fit      -0.000231
 2089 Fit      -0.000330
 2090 Fit       0.000126
 2091 Fit      -0.001092
 2092 Fit       0.001285
 2093 Fit       0.000646
 2094 Fit       0.001869
 2095 Fit       0.002618
 2096 Fit      -0.000402
 2097 Fit       0.000969
 2098 Fit       0.001927
 2099 Fit       0.002234
 2100 Fit       0.001947
 2101 Fit      -0.001151
 2102 Fit       0.000159
 2103 Fit       0.001077
 2104 Fit       0.001293
 2105 Fit       0.000888
 2106 Fit      -0.000550
 2107 Fit      -0.000134
 2108 Fit      -0.000726
 2109 Fit      -0.001326
 2110 Fit      -0.001034
 2111 Fit      -0.000156
 2112 Fit      -0.001583
 2113 Fit       0.001439
 2114 Fit      -0.000617
 2115 Fit      -0.001579
 2116 Fit      -0.000516
 2117 Fit      -0.001359
 2118 Fit      -0.000715
 2119 Fit      -0.001050
 2120 Fit       0.003291
 2121 Fit       0.000535
 2122 Fit       0.003200
 2123 Fit       0.000924
 2124 Fit       0.004429
 2125 Fit       0.002553
 2126 Fit       0.000560
 2127 Fit      -0.000618
 2128 Fit       0.003128
 2129 Fit       0.001534
 2130 Fit      -0.000329
 2131 Fit       0.000385
 2132 Fit      -0.001286
 2133 Fit       0.000019
 2134 Fit       0.001022
 2135 Fit       0.001546
 2136 Fit       0.001729
 2137 Fit      -0.000646
 2138 Fit       0.000711
 2139 Fit       0.001701
 2140 Fit       0.002263
 2141 Fit       0.000269
 2142 Fit       0.001401
 2143 Fit       0.002012
 2144 Fit      -0.000289
 2145 Fit       0.000553
 2146 Fit       0.001947
 2147 Fit       0.002169
 2148 Fit       0.001238
 2149 Fit       0.000635
 2150 Fit       0.002009
 2151 Fit       0.001186
 2152 Fit       0.000288
 2153 Fit      -0.000498
 2154 Fit       0.001959
 2155 Fit       0.000741
 2156 Fit      -0.000298
 2157 Fit      -0.001202
 2158 Fit       0.001315
 2159 Fit      -0.000302
 -----------------------------------------------------------------
 Leave Link  602 at Thu May 18 13:15:22 2017, MaxMem=    33554432 cpu:         3.3
 (Enter /home/michal/g09/l9999.exe)

 Test job not archived.
 1\1\GINC-LINUX\SP\RHF\6-31G(d)\C27H46O2\MICHAL\18-May-2017\0\\#P HF/6-
 31G* SCF(Conver=6) NoSymm Test Pop=mk IOp(6/33=2) GFInput GFPrint\\MEP
  - Input generated by R.E.D.-III.x MOLECULE\\0,1\O,0,7.12053456,0.7814
 3391,0.\H,0,7.69121624,0.,0.\O,0,10.34820707,1.13596805,-6.38607027\H,
 0,10.71717775,0.24420695,-6.45525003\C,0,3.11384817,-0.66584653,-1.648
 3526\C,0,4.26624897,0.27809555,-1.19070316\H,0,3.98222101,1.27750384,-
 1.5623852\C,0,5.64054334,-0.00785834,-1.8219526\H,0,5.9972156,-0.99809
 041,-1.50320395\C,0,5.51961968,0.02285211,-3.37253142\H,0,5.28359655,1
 .06853476,-3.63037207\C,0,1.93958746,-0.04353932,-0.81537998\H,0,1.778
 19387,0.94211307,-1.27377081\C,0,2.99883169,-0.5313438,-3.17780544\H,0
 ,2.68552699,0.49287161,-3.42414638\H,0,2.22938735,-1.20056502,-3.58060
 324\C,0,6.87029471,-0.29534435,-4.10440185\C,0,4.12406885,0.32623769,0
 .34264261\H,0,4.56613642,1.22824311,0.77192501\H,0,4.64759244,-0.51754
 593,0.80450129\C,0,4.33650391,-0.83535354,-3.87872095\H,0,4.56697229,-
 1.89840659,-3.75113739\H,0,4.20726761,-0.68153268,-4.95573598\C,0,2.58
 987108,0.23376349,0.57663586\H,0,2.35396598,-0.5623081,1.29044356\H,0,
 2.18532195,1.15733852,1.005633\C,0,6.69237871,1.01758414,-1.35595112\H
 ,0,6.22286811,2.01017596,-1.30311427\C,0,0.51776931,-0.66595922,-0.707
 00868\H,0,0.,0.,0.\C,0,3.39323079,-2.1375391,-1.26335208\H,0,4.3838526
 4,-2.46543434,-1.58921162\H,0,3.34086502,-2.29938061,-0.18395194\H,0,2
 .66527487,-2.80554134,-1.7327276\C,0,8.01410306,0.48981938,-3.45284356
 \C,0,6.75224477,0.16264817,-5.59210082\H,0,6.3244358,1.17460204,-5.606
 75508\H,0,6.04036812,-0.48290455,-6.11715492\C,0,7.89297744,1.08575074
 ,-2.25757705\H,0,8.72793773,1.66008519,-1.85626901\C,0,7.20908378,-1.8
 0929212,-4.05336191\H,0,6.51088985,-2.39474131,-4.65943471\H,0,8.21343
 011,-2.00963442,-4.43543444\H,0,7.17297367,-2.18946895,-3.02785096\C,0
 ,9.31645497,0.58598133,-4.2251062\H,0,10.01486487,1.25180136,-3.708766
 87\H,0,9.79743561,-0.40467357,-4.26860064\C,0,8.07657976,0.18815063,-6
 .37087901\H,0,8.4813541,-0.82950525,-6.47545098\H,0,7.90600702,0.56317
 628,-7.38641084\C,0,-0.30206871,-0.64030521,-2.0206084\H,0,0.17938943,
 -1.29773008,-2.75590187\H,0,-1.27711771,-1.10224497,-1.80752135\C,0,9.
 11250074,1.06623082,-5.66962965\H,0,8.75350602,2.10251239,-5.65279357\
 C,0,0.41988695,-2.0761478,-0.0903786\H,0,0.71083789,-2.85718185,-0.799
 07287\H,0,-0.61683279,-2.27698046,0.20299683\H,0,1.03813625,-2.1895601
 4,0.8048397\C,0,-0.56357537,0.73038498,-2.67515744\H,0,0.38520531,1.19
 74613,-2.96245304\H,0,-1.10231571,0.54676354,-3.61345668\C,0,-1.379371
 36,1.69762487,-1.80110412\H,0,-0.80763196,1.94044315,-0.89557422\H,0,-
 2.28619375,1.1788477,-1.45650624\C,0,-1.80521367,3.02869064,-2.4655261
 2\H,0,-2.35357913,3.588112,-1.69318023\C,0,-2.77239418,2.8245515,-3.64
 357957\H,0,-2.28359644,2.32742768,-4.48934269\H,0,-3.15132087,3.786793
 38,-4.00656527\H,0,-3.63538038,2.21523866,-3.35027191\C,0,-0.6036069,3
 .89353201,-2.881311\H,0,-0.03655593,3.4311359,-3.69753189\H,0,-0.93422
 573,4.87837565,-3.23056085\H,0,0.08454635,4.05095657,-2.04239937\\Vers
 ion=EM64L-G09RevD.01\HF=-1198.9194764\RMSD=5.131e-07\Dipole=-0.2422435
 ,-0.943061,-0.3789974\Quadrupole=-3.4785708,2.7399852,0.7385856,-18.92
 79079,0.1903289,7.6460765\PG=C01 [X(C27H46O2)]\\@


 A leading authority is anyone who has guessed right more than once.
 -- Frank A. Clark
 Job cpu time:       0 days  0 hours 11 minutes 23.1 seconds.
 File lengths (MBytes):  RWF=    150 Int=      0 D2E=      0 Chk=     11 Scr=      1
 Normal termination of Gaussian 09 at Thu May 18 13:15:22 2017.
