 Entering Gaussian System, Link 0=/home/michal/g09/g09
 Input=JOB2-gau_m1-15-1.com
 Output=JOB2-gau_m1-15-1.log
 Initial command:
 /home/michal/g09/l1.exe "/home/michal/gauss_scratch/Gau-25990.inp" -scrdir="/home/michal/gauss_scratch/"
 Entering Link 1 = /home/michal/g09/l1.exe PID=     25991.
  
 Copyright (c) 1988,1990,1992,1993,1995,1998,2003,2009,2013,
            Gaussian, Inc.  All Rights Reserved.
  
 This is part of the Gaussian(R) 09 program.  It is based on
 the Gaussian(R) 03 system (copyright 2003, Gaussian, Inc.),
 the Gaussian(R) 98 system (copyright 1998, Gaussian, Inc.),
 the Gaussian(R) 94 system (copyright 1995, Gaussian, Inc.),
 the Gaussian 92(TM) system (copyright 1992, Gaussian, Inc.),
 the Gaussian 90(TM) system (copyright 1990, Gaussian, Inc.),
 the Gaussian 88(TM) system (copyright 1988, Gaussian, Inc.),
 the Gaussian 86(TM) system (copyright 1986, Carnegie Mellon
 University), and the Gaussian 82(TM) system (copyright 1983,
 Carnegie Mellon University). Gaussian is a federally registered
 trademark of Gaussian, Inc.
  
 This software contains proprietary and confidential information,
 including trade secrets, belonging to Gaussian, Inc.
  
 This software is provided under written license and may be
 used, copied, transmitted, or stored only in accord with that
 written license.
  
 The following legend is applicable only to US Government
 contracts under FAR:
  
                    RESTRICTED RIGHTS LEGEND
  
 Use, reproduction and disclosure by the US Government is
 subject to restrictions as set forth in subparagraphs (a)
 and (c) of the Commercial Computer Software - Restricted
 Rights clause in FAR 52.227-19.
  
 Gaussian, Inc.
 340 Quinnipiac St., Bldg. 40, Wallingford CT 06492
  
  
 ---------------------------------------------------------------
 Warning -- This program may not be used in any manner that
 competes with the business of Gaussian, Inc. or will provide
 assistance to any competitor of Gaussian, Inc.  The licensee
 of this program is prohibited from giving any competitor of
 Gaussian, Inc. access to this program.  By using this program,
 the user acknowledges that Gaussian, Inc. is engaged in the
 business of creating and licensing software in the field of
 computational chemistry and represents and warrants to the
 licensee that it is not a competitor of Gaussian, Inc. and that
 it will not use this program in any manner prohibited above.
 ---------------------------------------------------------------
  

 Cite this work as:
 Gaussian 09, Revision D.01,
 M. J. Frisch, G. W. Trucks, H. B. Schlegel, G. E. Scuseria, 
 M. A. Robb, J. R. Cheeseman, G. Scalmani, V. Barone, B. Mennucci, 
 G. A. Petersson, H. Nakatsuji, M. Caricato, X. Li, H. P. Hratchian, 
 A. F. Izmaylov, J. Bloino, G. Zheng, J. L. Sonnenberg, M. Hada, 
 M. Ehara, K. Toyota, R. Fukuda, J. Hasegawa, M. Ishida, T. Nakajima, 
 Y. Honda, O. Kitao, H. Nakai, T. Vreven, J. A. Montgomery, Jr., 
 J. E. Peralta, F. Ogliaro, M. Bearpark, J. J. Heyd, E. Brothers, 
 K. N. Kudin, V. N. Staroverov, T. Keith, R. Kobayashi, J. Normand, 
 K. Raghavachari, A. Rendell, J. C. Burant, S. S. Iyengar, J. Tomasi, 
 M. Cossi, N. Rega, J. M. Millam, M. Klene, J. E. Knox, J. B. Cross, 
 V. Bakken, C. Adamo, J. Jaramillo, R. Gomperts, R. E. Stratmann, 
 O. Yazyev, A. J. Austin, R. Cammi, C. Pomelli, J. W. Ochterski, 
 R. L. Martin, K. Morokuma, V. G. Zakrzewski, G. A. Voth, 
 P. Salvador, J. J. Dannenberg, S. Dapprich, A. D. Daniels, 
 O. Farkas, J. B. Foresman, J. V. Ortiz, J. Cioslowski, 
 and D. J. Fox, Gaussian, Inc., Wallingford CT, 2013.
 
 ******************************************
 Gaussian 09:  EM64L-G09RevD.01 24-Apr-2013
                18-May-2017 
 ******************************************
 %Mem=256MB
 %NProc=12
 Will use up to   12 processors via shared memory.
 ----------------------------------------------------------------------
 #P HF/6-31G* SCF(Conver=6) NoSymm Test Pop=mk IOp(6/33=2) GFInput GFPr
 int
 ----------------------------------------------------------------------
 1/38=1/1;
 2/12=2,15=1,17=6,18=5,40=1/2;
 3/5=1,6=6,7=1,11=9,16=1,24=110,25=1,30=1/1,2,3;
 4//1;
 5/5=2,6=6,38=5/2;
 6/7=2,8=2,9=2,10=2,15=8,20=1,28=1,33=2/1,2;
 99/5=1,9=1/99;
 Leave Link    1 at Thu May 18 13:13:27 2017, MaxMem=    33554432 cpu:         0.6
 (Enter /home/michal/g09/l101.exe)
 ----------------------------------------------
 MEP - Input generated by R.E.D.-III.x MOLECULE
 ----------------------------------------------
 Symbolic Z-matrix:
 Charge =  0 Multiplicity = 1
 O                     0.        0.        0. 
 H                     0.96763   0.        0. 
 O                     1.61727  -2.81567   6.38607 
 H                     2.55504  -2.58771   6.45525 
 C                    -1.19424   4.08925   1.64835 
 C                    -1.27689   2.60189   1.1907 
 H                    -2.25149   2.24185   1.56239 
 C                    -0.23544   1.6607    1.82195 
 H                     0.77459   1.95667   1.5032 
 C                    -0.33156   1.74024   3.37253 
 H                    -1.31523   1.31414   3.63037 
 C                    -2.38934   4.67053   0.81538 
 H                    -3.28051   4.21956   1.27377 
 C                    -1.37069   4.10281   3.17781 
 H                    -2.3826    3.75177   3.42415 
 H                    -1.28405   5.11887   3.5806 
 C                     0.72199   0.83714   4.1044 
 C                    -1.39962   2.68832  -0.34264 
 H                    -1.86734   1.79934  -0.77193 
 H                    -0.40945   2.76318  -0.8045 
 C                    -0.33627   3.20184   3.87872 
 H                     0.65815   3.64267   3.75114 
 H                    -0.53671   3.21548   4.95574 
 C                    -2.22977   3.98183  -0.57664 
 H                    -1.72601   4.64184  -1.29044 
 H                    -3.21421   3.76384  -1.00563 
 C                    -0.44322   0.20649   1.35595 
 H                    -1.52171   0.00025   1.30311 
 C                    -2.72524   6.18583   0.70701 
 H                    -3.56841   6.21121   0. 
 C                     0.15903   4.73159   1.26335 
 H                     1.00807   4.12497   1.58921 
 H                     0.25884   4.86932   0.18395 
 H                     0.26916   5.71343   1.73273 
 C                     0.7625   -0.54963   3.45284 
 C                     0.28251   0.66236   5.5921 
 H                    -0.78703   0.41103   5.60676 
 H                     0.38399   1.61798   6.11715 
 C                     0.20981  -0.80328   2.25758 
 H                     0.23842  -1.81629   1.85627 
 C                     2.14442   1.45642   4.05336 
 H                     2.20544   2.36554   4.65943 
 H                     2.89854   0.7635    4.43543 
 H                     2.43014   1.7098    3.02785 
 C                     1.45293  -1.65809   4.22511 
 H                     1.32713  -2.61479   3.70877 
 H                     2.53662  -1.46226   4.2686 
 C                     1.04297  -0.42217   6.37088 
 H                     2.10352  -0.14888   6.47545 
 H                     0.63951  -0.5056    7.38641 
 C                    -3.22947   6.83278   2.02061 
 H                    -2.41461   6.8317    2.7559 
 H                    -3.43148   7.89264   1.80752 
 C                     0.94481  -1.77662   5.66963 
 H                    -0.10379  -2.09787   5.65279 
 C                    -1.64414   7.09657   0.09038 
 H                    -0.8418    7.32223   0.79907 
 H                    -2.09338   8.05224  -0.203 
 H                    -1.18793   6.66417  -0.80484 
 C                    -4.49063   6.23557   2.67516 
 H                    -4.30827   5.1939    2.96245 
 H                    -4.66008   6.77894   3.61346 
 C                    -5.75288   6.32394   1.8011 
 H                    -5.61178   5.71901   0.89557 
 H                    -5.86874   7.36222   1.45651 
 C                    -7.07896   5.88281   2.46553 
 H                    -7.85414   5.99573   1.69318 
 C                    -7.48451   6.78428   3.64358 
 H                    -6.79477   6.68273   4.48934 
 H                    -8.48507   6.52279   4.00657 
 H                    -7.50141   7.84055   3.35027 
 C                    -7.06871   4.40237   2.88131 
 H                    -6.36086   4.21715   3.69753 
 H                    -8.05903   4.08854   3.23056 
 H                    -6.78999   3.7538    2.0424 
 
 NAtoms=     75 NQM=       75 NQMF=       0 NMMI=      0 NMMIF=      0
                NMic=       0 NMicF=      0.
                    Isotopes and Nuclear Properties:
 (Nuclear quadrupole moments (NQMom) in fm**2, nuclear magnetic moments (NMagM)
  in nuclear magnetons)

  Atom         1           2           3           4           5           6           7           8           9          10
 IAtWgt=          16           1          16           1          12          12           1          12           1          12
 AtmWgt=  15.9949146   1.0078250  15.9949146   1.0078250  12.0000000  12.0000000   1.0078250  12.0000000   1.0078250  12.0000000
 NucSpn=           0           1           0           1           0           0           1           0           1           0
 AtZEff=   0.0000000   0.0000000   0.0000000   0.0000000   0.0000000   0.0000000   0.0000000   0.0000000   0.0000000   0.0000000
 NQMom=    0.0000000   0.0000000   0.0000000   0.0000000   0.0000000   0.0000000   0.0000000   0.0000000   0.0000000   0.0000000
 NMagM=    0.0000000   2.7928460   0.0000000   2.7928460   0.0000000   0.0000000   2.7928460   0.0000000   2.7928460   0.0000000
 AtZNuc=   8.0000000   1.0000000   8.0000000   1.0000000   6.0000000   6.0000000   1.0000000   6.0000000   1.0000000   6.0000000

  Atom        11          12          13          14          15          16          17          18          19          20
 IAtWgt=           1          12           1          12           1           1          12          12           1           1
 AtmWgt=   1.0078250  12.0000000   1.0078250  12.0000000   1.0078250   1.0078250  12.0000000  12.0000000   1.0078250   1.0078250
 NucSpn=           1           0           1           0           1           1           0           0           1           1
 AtZEff=   0.0000000   0.0000000   0.0000000   0.0000000   0.0000000   0.0000000   0.0000000   0.0000000   0.0000000   0.0000000
 NQMom=    0.0000000   0.0000000   0.0000000   0.0000000   0.0000000   0.0000000   0.0000000   0.0000000   0.0000000   0.0000000
 NMagM=    2.7928460   0.0000000   2.7928460   0.0000000   2.7928460   2.7928460   0.0000000   0.0000000   2.7928460   2.7928460
 AtZNuc=   1.0000000   6.0000000   1.0000000   6.0000000   1.0000000   1.0000000   6.0000000   6.0000000   1.0000000   1.0000000

  Atom        21          22          23          24          25          26          27          28          29          30
 IAtWgt=          12           1           1          12           1           1          12           1          12           1
 AtmWgt=  12.0000000   1.0078250   1.0078250  12.0000000   1.0078250   1.0078250  12.0000000   1.0078250  12.0000000   1.0078250
 NucSpn=           0           1           1           0           1           1           0           1           0           1
 AtZEff=   0.0000000   0.0000000   0.0000000   0.0000000   0.0000000   0.0000000   0.0000000   0.0000000   0.0000000   0.0000000
 NQMom=    0.0000000   0.0000000   0.0000000   0.0000000   0.0000000   0.0000000   0.0000000   0.0000000   0.0000000   0.0000000
 NMagM=    0.0000000   2.7928460   2.7928460   0.0000000   2.7928460   2.7928460   0.0000000   2.7928460   0.0000000   2.7928460
 AtZNuc=   6.0000000   1.0000000   1.0000000   6.0000000   1.0000000   1.0000000   6.0000000   1.0000000   6.0000000   1.0000000

  Atom        31          32          33          34          35          36          37          38          39          40
 IAtWgt=          12           1           1           1          12          12           1           1          12           1
 AtmWgt=  12.0000000   1.0078250   1.0078250   1.0078250  12.0000000  12.0000000   1.0078250   1.0078250  12.0000000   1.0078250
 NucSpn=           0           1           1           1           0           0           1           1           0           1
 AtZEff=   0.0000000   0.0000000   0.0000000   0.0000000   0.0000000   0.0000000   0.0000000   0.0000000   0.0000000   0.0000000
 NQMom=    0.0000000   0.0000000   0.0000000   0.0000000   0.0000000   0.0000000   0.0000000   0.0000000   0.0000000   0.0000000
 NMagM=    0.0000000   2.7928460   2.7928460   2.7928460   0.0000000   0.0000000   2.7928460   2.7928460   0.0000000   2.7928460
 AtZNuc=   6.0000000   1.0000000   1.0000000   1.0000000   6.0000000   6.0000000   1.0000000   1.0000000   6.0000000   1.0000000

  Atom        41          42          43          44          45          46          47          48          49          50
 IAtWgt=          12           1           1           1          12           1           1          12           1           1
 AtmWgt=  12.0000000   1.0078250   1.0078250   1.0078250  12.0000000   1.0078250   1.0078250  12.0000000   1.0078250   1.0078250
 NucSpn=           0           1           1           1           0           1           1           0           1           1
 AtZEff=   0.0000000   0.0000000   0.0000000   0.0000000   0.0000000   0.0000000   0.0000000   0.0000000   0.0000000   0.0000000
 NQMom=    0.0000000   0.0000000   0.0000000   0.0000000   0.0000000   0.0000000   0.0000000   0.0000000   0.0000000   0.0000000
 NMagM=    0.0000000   2.7928460   2.7928460   2.7928460   0.0000000   2.7928460   2.7928460   0.0000000   2.7928460   2.7928460
 AtZNuc=   6.0000000   1.0000000   1.0000000   1.0000000   6.0000000   1.0000000   1.0000000   6.0000000   1.0000000   1.0000000

  Atom        51          52          53          54          55          56          57          58          59          60
 IAtWgt=          12           1           1          12           1          12           1           1           1          12
 AtmWgt=  12.0000000   1.0078250   1.0078250  12.0000000   1.0078250  12.0000000   1.0078250   1.0078250   1.0078250  12.0000000
 NucSpn=           0           1           1           0           1           0           1           1           1           0
 AtZEff=   0.0000000   0.0000000   0.0000000   0.0000000   0.0000000   0.0000000   0.0000000   0.0000000   0.0000000   0.0000000
 NQMom=    0.0000000   0.0000000   0.0000000   0.0000000   0.0000000   0.0000000   0.0000000   0.0000000   0.0000000   0.0000000
 NMagM=    0.0000000   2.7928460   2.7928460   0.0000000   2.7928460   0.0000000   2.7928460   2.7928460   2.7928460   0.0000000
 AtZNuc=   6.0000000   1.0000000   1.0000000   6.0000000   1.0000000   6.0000000   1.0000000   1.0000000   1.0000000   6.0000000

  Atom        61          62          63          64          65          66          67          68          69          70
 IAtWgt=           1           1          12           1           1          12           1          12           1           1
 AtmWgt=   1.0078250   1.0078250  12.0000000   1.0078250   1.0078250  12.0000000   1.0078250  12.0000000   1.0078250   1.0078250
 NucSpn=           1           1           0           1           1           0           1           0           1           1
 AtZEff=   0.0000000   0.0000000   0.0000000   0.0000000   0.0000000   0.0000000   0.0000000   0.0000000   0.0000000   0.0000000
 NQMom=    0.0000000   0.0000000   0.0000000   0.0000000   0.0000000   0.0000000   0.0000000   0.0000000   0.0000000   0.0000000
 NMagM=    2.7928460   2.7928460   0.0000000   2.7928460   2.7928460   0.0000000   2.7928460   0.0000000   2.7928460   2.7928460
 AtZNuc=   1.0000000   1.0000000   6.0000000   1.0000000   1.0000000   6.0000000   1.0000000   6.0000000   1.0000000   1.0000000

  Atom        71          72          73          74          75
 IAtWgt=           1          12           1           1           1
 AtmWgt=   1.0078250  12.0000000   1.0078250   1.0078250   1.0078250
 NucSpn=           1           0           1           1           1
 AtZEff=   0.0000000   0.0000000   0.0000000   0.0000000   0.0000000
 NQMom=    0.0000000   0.0000000   0.0000000   0.0000000   0.0000000
 NMagM=    2.7928460   0.0000000   2.7928460   2.7928460   2.7928460
 AtZNuc=   1.0000000   6.0000000   1.0000000   1.0000000   1.0000000
 Leave Link  101 at Thu May 18 13:13:27 2017, MaxMem=    33554432 cpu:         1.0
 (Enter /home/michal/g09/l202.exe)
 Symmetry turned off by external request.
 Stoichiometry    C27H46O2
 Framework group  C1[X(C27H46O2)]
 Deg. of freedom   219
 Full point group                 C1      NOp   1
                          Input orientation:                          
 ---------------------------------------------------------------------
 Center     Atomic      Atomic             Coordinates (Angstroms)
 Number     Number       Type             X           Y           Z
 ---------------------------------------------------------------------
      1          8           0        0.000000    0.000000    0.000000
      2          1           0        0.967635    0.000000    0.000000
      3          8           0        1.617272   -2.815669    6.386070
      4          1           0        2.555041   -2.587706    6.455250
      5          6           0       -1.194241    4.089248    1.648353
      6          6           0       -1.276890    2.601893    1.190703
      7          1           0       -2.251495    2.241845    1.562385
      8          6           0       -0.235444    1.660699    1.821953
      9          1           0        0.774593    1.956670    1.503204
     10          6           0       -0.331562    1.740242    3.372531
     11          1           0       -1.315225    1.314135    3.630372
     12          6           0       -2.389342    4.670529    0.815380
     13          1           0       -3.280511    4.219558    1.273771
     14          6           0       -1.370695    4.102806    3.177805
     15          1           0       -2.382599    3.751770    3.424146
     16          1           0       -1.284046    5.118874    3.580603
     17          6           0        0.721991    0.837138    4.104402
     18          6           0       -1.399622    2.688321   -0.342643
     19          1           0       -1.867337    1.799344   -0.771925
     20          1           0       -0.409448    2.763176   -0.804501
     21          6           0       -0.336266    3.201836    3.878721
     22          1           0        0.658148    3.642673    3.751137
     23          1           0       -0.536707    3.215485    4.955736
     24          6           0       -2.229766    3.981834   -0.576636
     25          1           0       -1.726011    4.641843   -1.290444
     26          1           0       -3.214210    3.763839   -1.005633
     27          6           0       -0.443222    0.206492    1.355951
     28          1           0       -1.521714    0.000255    1.303114
     29          6           0       -2.725239    6.185833    0.707009
     30          1           0       -3.568413    6.211206    0.000000
     31          6           0        0.159028    4.731586    1.263352
     32          1           0        1.008065    4.124971    1.589212
     33          1           0        0.258842    4.869324    0.183952
     34          1           0        0.269161    5.713430    1.732728
     35          6           0        0.762499   -0.549635    3.452844
     36          6           0        0.282507    0.662361    5.592101
     37          1           0       -0.787026    0.411028    5.606755
     38          1           0        0.383994    1.617980    6.117155
     39          6           0        0.209806   -0.803280    2.257577
     40          1           0        0.238424   -1.816295    1.856269
     41          6           0        2.144420    1.456422    4.053362
     42          1           0        2.205438    2.365544    4.659435
     43          1           0        2.898544    0.763497    4.435434
     44          1           0        2.430143    1.709801    3.027851
     45          6           0        1.452930   -1.658090    4.225106
     46          1           0        1.327134   -2.614787    3.708767
     47          1           0        2.536622   -1.462258    4.268601
     48          6           0        1.042965   -0.422174    6.370879
     49          1           0        2.103519   -0.148876    6.475451
     50          1           0        0.639507   -0.505603    7.386411
     51          6           0       -3.229472    6.832781    2.020608
     52          1           0       -2.414605    6.831698    2.755902
     53          1           0       -3.431477    7.892640    1.807521
     54          6           0        0.944808   -1.776619    5.669630
     55          1           0       -0.103788   -2.097873    5.652794
     56          6           0       -1.644139    7.096567    0.090379
     57          1           0       -0.841804    7.322233    0.799073
     58          1           0       -2.093378    8.052237   -0.202997
     59          1           0       -1.187926    6.664173   -0.804840
     60          6           0       -4.490631    6.235574    2.675157
     61          1           0       -4.308266    5.193899    2.962453
     62          1           0       -4.660076    6.778940    3.613457
     63          6           0       -5.752878    6.323939    1.801104
     64          1           0       -5.611776    5.719011    0.895574
     65          1           0       -5.868745    7.362222    1.456506
     66          6           0       -7.078958    5.882814    2.465526
     67          1           0       -7.854140    5.995729    1.693180
     68          6           0       -7.484515    6.784277    3.643580
     69          1           0       -6.794773    6.682726    4.489343
     70          1           0       -8.485073    6.522786    4.006565
     71          1           0       -7.501414    7.840554    3.350272
     72          6           0       -7.068707    4.402374    2.881311
     73          1           0       -6.360860    4.217147    3.697532
     74          1           0       -8.059028    4.088541    3.230561
     75          1           0       -6.789987    3.753797    2.042399
 ---------------------------------------------------------------------
 Rotational constants (GHZ):      0.2587008      0.0754491      0.0681495
 Leave Link  202 at Thu May 18 13:13:27 2017, MaxMem=    33554432 cpu:         0.0
 (Enter /home/michal/g09/l301.exe)
 Standard basis: 6-31G(d) (6D, 7F)
 Ernie: Thresh=  0.10000D-02 Tol=  0.10000D-05 Strict=F.
 AO basis set in the form of general basis input (Overlap normalization):
      1 0
 S   6 1.00       0.000000000000
      0.5484671660D+04  0.1831074430D-02
      0.8252349460D+03  0.1395017220D-01
      0.1880469580D+03  0.6844507810D-01
      0.5296450000D+02  0.2327143360D+00
      0.1689757040D+02  0.4701928980D+00
      0.5799635340D+01  0.3585208530D+00
 SP   3 1.00       0.000000000000
      0.1553961625D+02 -0.1107775495D+00  0.7087426823D-01
      0.3599933586D+01 -0.1480262627D+00  0.3397528391D+00
      0.1013761750D+01  0.1130767015D+01  0.7271585773D+00
 SP   1 1.00       0.000000000000
      0.2700058226D+00  0.1000000000D+01  0.1000000000D+01
 D   1 1.00       0.000000000000
      0.8000000000D+00  0.1000000000D+01
 ****
      2 0
 S   3 1.00       0.000000000000
      0.1873113696D+02  0.3349460434D-01
      0.2825394365D+01  0.2347269535D+00
      0.6401216923D+00  0.8137573261D+00
 S   1 1.00       0.000000000000
      0.1612777588D+00  0.1000000000D+01
 ****
      3 0
 S   6 1.00       0.000000000000
      0.5484671660D+04  0.1831074430D-02
      0.8252349460D+03  0.1395017220D-01
      0.1880469580D+03  0.6844507810D-01
      0.5296450000D+02  0.2327143360D+00
      0.1689757040D+02  0.4701928980D+00
      0.5799635340D+01  0.3585208530D+00
 SP   3 1.00       0.000000000000
      0.1553961625D+02 -0.1107775495D+00  0.7087426823D-01
      0.3599933586D+01 -0.1480262627D+00  0.3397528391D+00
      0.1013761750D+01  0.1130767015D+01  0.7271585773D+00
 SP   1 1.00       0.000000000000
      0.2700058226D+00  0.1000000000D+01  0.1000000000D+01
 D   1 1.00       0.000000000000
      0.8000000000D+00  0.1000000000D+01
 ****
      4 0
 S   3 1.00       0.000000000000
      0.1873113696D+02  0.3349460434D-01
      0.2825394365D+01  0.2347269535D+00
      0.6401216923D+00  0.8137573261D+00
 S   1 1.00       0.000000000000
      0.1612777588D+00  0.1000000000D+01
 ****
      5 0
 S   6 1.00       0.000000000000
      0.3047524880D+04  0.1834737132D-02
      0.4573695180D+03  0.1403732281D-01
      0.1039486850D+03  0.6884262226D-01
      0.2921015530D+02  0.2321844432D+00
      0.9286662960D+01  0.4679413484D+00
      0.3163926960D+01  0.3623119853D+00
 SP   3 1.00       0.000000000000
      0.7868272350D+01 -0.1193324198D+00  0.6899906659D-01
      0.1881288540D+01 -0.1608541517D+00  0.3164239610D+00
      0.5442492580D+00  0.1143456438D+01  0.7443082909D+00
 SP   1 1.00       0.000000000000
      0.1687144782D+00  0.1000000000D+01  0.1000000000D+01
 D   1 1.00       0.000000000000
      0.8000000000D+00  0.1000000000D+01
 ****
      6 0
 S   6 1.00       0.000000000000
      0.3047524880D+04  0.1834737132D-02
      0.4573695180D+03  0.1403732281D-01
      0.1039486850D+03  0.6884262226D-01
      0.2921015530D+02  0.2321844432D+00
      0.9286662960D+01  0.4679413484D+00
      0.3163926960D+01  0.3623119853D+00
 SP   3 1.00       0.000000000000
      0.7868272350D+01 -0.1193324198D+00  0.6899906659D-01
      0.1881288540D+01 -0.1608541517D+00  0.3164239610D+00
      0.5442492580D+00  0.1143456438D+01  0.7443082909D+00
 SP   1 1.00       0.000000000000
      0.1687144782D+00  0.1000000000D+01  0.1000000000D+01
 D   1 1.00       0.000000000000
      0.8000000000D+00  0.1000000000D+01
 ****
      7 0
 S   3 1.00       0.000000000000
      0.1873113696D+02  0.3349460434D-01
      0.2825394365D+01  0.2347269535D+00
      0.6401216923D+00  0.8137573261D+00
 S   1 1.00       0.000000000000
      0.1612777588D+00  0.1000000000D+01
 ****
      8 0
 S   6 1.00       0.000000000000
      0.3047524880D+04  0.1834737132D-02
      0.4573695180D+03  0.1403732281D-01
      0.1039486850D+03  0.6884262226D-01
      0.2921015530D+02  0.2321844432D+00
      0.9286662960D+01  0.4679413484D+00
      0.3163926960D+01  0.3623119853D+00
 SP   3 1.00       0.000000000000
      0.7868272350D+01 -0.1193324198D+00  0.6899906659D-01
      0.1881288540D+01 -0.1608541517D+00  0.3164239610D+00
      0.5442492580D+00  0.1143456438D+01  0.7443082909D+00
 SP   1 1.00       0.000000000000
      0.1687144782D+00  0.1000000000D+01  0.1000000000D+01
 D   1 1.00       0.000000000000
      0.8000000000D+00  0.1000000000D+01
 ****
      9 0
 S   3 1.00       0.000000000000
      0.1873113696D+02  0.3349460434D-01
      0.2825394365D+01  0.2347269535D+00
      0.6401216923D+00  0.8137573261D+00
 S   1 1.00       0.000000000000
      0.1612777588D+00  0.1000000000D+01
 ****
     10 0
 S   6 1.00       0.000000000000
      0.3047524880D+04  0.1834737132D-02
      0.4573695180D+03  0.1403732281D-01
      0.1039486850D+03  0.6884262226D-01
      0.2921015530D+02  0.2321844432D+00
      0.9286662960D+01  0.4679413484D+00
      0.3163926960D+01  0.3623119853D+00
 SP   3 1.00       0.000000000000
      0.7868272350D+01 -0.1193324198D+00  0.6899906659D-01
      0.1881288540D+01 -0.1608541517D+00  0.3164239610D+00
      0.5442492580D+00  0.1143456438D+01  0.7443082909D+00
 SP   1 1.00       0.000000000000
      0.1687144782D+00  0.1000000000D+01  0.1000000000D+01
 D   1 1.00       0.000000000000
      0.8000000000D+00  0.1000000000D+01
 ****
     11 0
 S   3 1.00       0.000000000000
      0.1873113696D+02  0.3349460434D-01
      0.2825394365D+01  0.2347269535D+00
      0.6401216923D+00  0.8137573261D+00
 S   1 1.00       0.000000000000
      0.1612777588D+00  0.1000000000D+01
 ****
     12 0
 S   6 1.00       0.000000000000
      0.3047524880D+04  0.1834737132D-02
      0.4573695180D+03  0.1403732281D-01
      0.1039486850D+03  0.6884262226D-01
      0.2921015530D+02  0.2321844432D+00
      0.9286662960D+01  0.4679413484D+00
      0.3163926960D+01  0.3623119853D+00
 SP   3 1.00       0.000000000000
      0.7868272350D+01 -0.1193324198D+00  0.6899906659D-01
      0.1881288540D+01 -0.1608541517D+00  0.3164239610D+00
      0.5442492580D+00  0.1143456438D+01  0.7443082909D+00
 SP   1 1.00       0.000000000000
      0.1687144782D+00  0.1000000000D+01  0.1000000000D+01
 D   1 1.00       0.000000000000
      0.8000000000D+00  0.1000000000D+01
 ****
     13 0
 S   3 1.00       0.000000000000
      0.1873113696D+02  0.3349460434D-01
      0.2825394365D+01  0.2347269535D+00
      0.6401216923D+00  0.8137573261D+00
 S   1 1.00       0.000000000000
      0.1612777588D+00  0.1000000000D+01
 ****
     14 0
 S   6 1.00       0.000000000000
      0.3047524880D+04  0.1834737132D-02
      0.4573695180D+03  0.1403732281D-01
      0.1039486850D+03  0.6884262226D-01
      0.2921015530D+02  0.2321844432D+00
      0.9286662960D+01  0.4679413484D+00
      0.3163926960D+01  0.3623119853D+00
 SP   3 1.00       0.000000000000
      0.7868272350D+01 -0.1193324198D+00  0.6899906659D-01
      0.1881288540D+01 -0.1608541517D+00  0.3164239610D+00
      0.5442492580D+00  0.1143456438D+01  0.7443082909D+00
 SP   1 1.00       0.000000000000
      0.1687144782D+00  0.1000000000D+01  0.1000000000D+01
 D   1 1.00       0.000000000000
      0.8000000000D+00  0.1000000000D+01
 ****
     15 0
 S   3 1.00       0.000000000000
      0.1873113696D+02  0.3349460434D-01
      0.2825394365D+01  0.2347269535D+00
      0.6401216923D+00  0.8137573261D+00
 S   1 1.00       0.000000000000
      0.1612777588D+00  0.1000000000D+01
 ****
     16 0
 S   3 1.00       0.000000000000
      0.1873113696D+02  0.3349460434D-01
      0.2825394365D+01  0.2347269535D+00
      0.6401216923D+00  0.8137573261D+00
 S   1 1.00       0.000000000000
      0.1612777588D+00  0.1000000000D+01
 ****
     17 0
 S   6 1.00       0.000000000000
      0.3047524880D+04  0.1834737132D-02
      0.4573695180D+03  0.1403732281D-01
      0.1039486850D+03  0.6884262226D-01
      0.2921015530D+02  0.2321844432D+00
      0.9286662960D+01  0.4679413484D+00
      0.3163926960D+01  0.3623119853D+00
 SP   3 1.00       0.000000000000
      0.7868272350D+01 -0.1193324198D+00  0.6899906659D-01
      0.1881288540D+01 -0.1608541517D+00  0.3164239610D+00
      0.5442492580D+00  0.1143456438D+01  0.7443082909D+00
 SP   1 1.00       0.000000000000
      0.1687144782D+00  0.1000000000D+01  0.1000000000D+01
 D   1 1.00       0.000000000000
      0.8000000000D+00  0.1000000000D+01
 ****
     18 0
 S   6 1.00       0.000000000000
      0.3047524880D+04  0.1834737132D-02
      0.4573695180D+03  0.1403732281D-01
      0.1039486850D+03  0.6884262226D-01
      0.2921015530D+02  0.2321844432D+00
      0.9286662960D+01  0.4679413484D+00
      0.3163926960D+01  0.3623119853D+00
 SP   3 1.00       0.000000000000
      0.7868272350D+01 -0.1193324198D+00  0.6899906659D-01
      0.1881288540D+01 -0.1608541517D+00  0.3164239610D+00
      0.5442492580D+00  0.1143456438D+01  0.7443082909D+00
 SP   1 1.00       0.000000000000
      0.1687144782D+00  0.1000000000D+01  0.1000000000D+01
 D   1 1.00       0.000000000000
      0.8000000000D+00  0.1000000000D+01
 ****
     19 0
 S   3 1.00       0.000000000000
      0.1873113696D+02  0.3349460434D-01
      0.2825394365D+01  0.2347269535D+00
      0.6401216923D+00  0.8137573261D+00
 S   1 1.00       0.000000000000
      0.1612777588D+00  0.1000000000D+01
 ****
     20 0
 S   3 1.00       0.000000000000
      0.1873113696D+02  0.3349460434D-01
      0.2825394365D+01  0.2347269535D+00
      0.6401216923D+00  0.8137573261D+00
 S   1 1.00       0.000000000000
      0.1612777588D+00  0.1000000000D+01
 ****
     21 0
 S   6 1.00       0.000000000000
      0.3047524880D+04  0.1834737132D-02
      0.4573695180D+03  0.1403732281D-01
      0.1039486850D+03  0.6884262226D-01
      0.2921015530D+02  0.2321844432D+00
      0.9286662960D+01  0.4679413484D+00
      0.3163926960D+01  0.3623119853D+00
 SP   3 1.00       0.000000000000
      0.7868272350D+01 -0.1193324198D+00  0.6899906659D-01
      0.1881288540D+01 -0.1608541517D+00  0.3164239610D+00
      0.5442492580D+00  0.1143456438D+01  0.7443082909D+00
 SP   1 1.00       0.000000000000
      0.1687144782D+00  0.1000000000D+01  0.1000000000D+01
 D   1 1.00       0.000000000000
      0.8000000000D+00  0.1000000000D+01
 ****
     22 0
 S   3 1.00       0.000000000000
      0.1873113696D+02  0.3349460434D-01
      0.2825394365D+01  0.2347269535D+00
      0.6401216923D+00  0.8137573261D+00
 S   1 1.00       0.000000000000
      0.1612777588D+00  0.1000000000D+01
 ****
     23 0
 S   3 1.00       0.000000000000
      0.1873113696D+02  0.3349460434D-01
      0.2825394365D+01  0.2347269535D+00
      0.6401216923D+00  0.8137573261D+00
 S   1 1.00       0.000000000000
      0.1612777588D+00  0.1000000000D+01
 ****
     24 0
 S   6 1.00       0.000000000000
      0.3047524880D+04  0.1834737132D-02
      0.4573695180D+03  0.1403732281D-01
      0.1039486850D+03  0.6884262226D-01
      0.2921015530D+02  0.2321844432D+00
      0.9286662960D+01  0.4679413484D+00
      0.3163926960D+01  0.3623119853D+00
 SP   3 1.00       0.000000000000
      0.7868272350D+01 -0.1193324198D+00  0.6899906659D-01
      0.1881288540D+01 -0.1608541517D+00  0.3164239610D+00
      0.5442492580D+00  0.1143456438D+01  0.7443082909D+00
 SP   1 1.00       0.000000000000
      0.1687144782D+00  0.1000000000D+01  0.1000000000D+01
 D   1 1.00       0.000000000000
      0.8000000000D+00  0.1000000000D+01
 ****
     25 0
 S   3 1.00       0.000000000000
      0.1873113696D+02  0.3349460434D-01
      0.2825394365D+01  0.2347269535D+00
      0.6401216923D+00  0.8137573261D+00
 S   1 1.00       0.000000000000
      0.1612777588D+00  0.1000000000D+01
 ****
     26 0
 S   3 1.00       0.000000000000
      0.1873113696D+02  0.3349460434D-01
      0.2825394365D+01  0.2347269535D+00
      0.6401216923D+00  0.8137573261D+00
 S   1 1.00       0.000000000000
      0.1612777588D+00  0.1000000000D+01
 ****
     27 0
 S   6 1.00       0.000000000000
      0.3047524880D+04  0.1834737132D-02
      0.4573695180D+03  0.1403732281D-01
      0.1039486850D+03  0.6884262226D-01
      0.2921015530D+02  0.2321844432D+00
      0.9286662960D+01  0.4679413484D+00
      0.3163926960D+01  0.3623119853D+00
 SP   3 1.00       0.000000000000
      0.7868272350D+01 -0.1193324198D+00  0.6899906659D-01
      0.1881288540D+01 -0.1608541517D+00  0.3164239610D+00
      0.5442492580D+00  0.1143456438D+01  0.7443082909D+00
 SP   1 1.00       0.000000000000
      0.1687144782D+00  0.1000000000D+01  0.1000000000D+01
 D   1 1.00       0.000000000000
      0.8000000000D+00  0.1000000000D+01
 ****
     28 0
 S   3 1.00       0.000000000000
      0.1873113696D+02  0.3349460434D-01
      0.2825394365D+01  0.2347269535D+00
      0.6401216923D+00  0.8137573261D+00
 S   1 1.00       0.000000000000
      0.1612777588D+00  0.1000000000D+01
 ****
     29 0
 S   6 1.00       0.000000000000
      0.3047524880D+04  0.1834737132D-02
      0.4573695180D+03  0.1403732281D-01
      0.1039486850D+03  0.6884262226D-01
      0.2921015530D+02  0.2321844432D+00
      0.9286662960D+01  0.4679413484D+00
      0.3163926960D+01  0.3623119853D+00
 SP   3 1.00       0.000000000000
      0.7868272350D+01 -0.1193324198D+00  0.6899906659D-01
      0.1881288540D+01 -0.1608541517D+00  0.3164239610D+00
      0.5442492580D+00  0.1143456438D+01  0.7443082909D+00
 SP   1 1.00       0.000000000000
      0.1687144782D+00  0.1000000000D+01  0.1000000000D+01
 D   1 1.00       0.000000000000
      0.8000000000D+00  0.1000000000D+01
 ****
     30 0
 S   3 1.00       0.000000000000
      0.1873113696D+02  0.3349460434D-01
      0.2825394365D+01  0.2347269535D+00
      0.6401216923D+00  0.8137573261D+00
 S   1 1.00       0.000000000000
      0.1612777588D+00  0.1000000000D+01
 ****
     31 0
 S   6 1.00       0.000000000000
      0.3047524880D+04  0.1834737132D-02
      0.4573695180D+03  0.1403732281D-01
      0.1039486850D+03  0.6884262226D-01
      0.2921015530D+02  0.2321844432D+00
      0.9286662960D+01  0.4679413484D+00
      0.3163926960D+01  0.3623119853D+00
 SP   3 1.00       0.000000000000
      0.7868272350D+01 -0.1193324198D+00  0.6899906659D-01
      0.1881288540D+01 -0.1608541517D+00  0.3164239610D+00
      0.5442492580D+00  0.1143456438D+01  0.7443082909D+00
 SP   1 1.00       0.000000000000
      0.1687144782D+00  0.1000000000D+01  0.1000000000D+01
 D   1 1.00       0.000000000000
      0.8000000000D+00  0.1000000000D+01
 ****
     32 0
 S   3 1.00       0.000000000000
      0.1873113696D+02  0.3349460434D-01
      0.2825394365D+01  0.2347269535D+00
      0.6401216923D+00  0.8137573261D+00
 S   1 1.00       0.000000000000
      0.1612777588D+00  0.1000000000D+01
 ****
     33 0
 S   3 1.00       0.000000000000
      0.1873113696D+02  0.3349460434D-01
      0.2825394365D+01  0.2347269535D+00
      0.6401216923D+00  0.8137573261D+00
 S   1 1.00       0.000000000000
      0.1612777588D+00  0.1000000000D+01
 ****
     34 0
 S   3 1.00       0.000000000000
      0.1873113696D+02  0.3349460434D-01
      0.2825394365D+01  0.2347269535D+00
      0.6401216923D+00  0.8137573261D+00
 S   1 1.00       0.000000000000
      0.1612777588D+00  0.1000000000D+01
 ****
     35 0
 S   6 1.00       0.000000000000
      0.3047524880D+04  0.1834737132D-02
      0.4573695180D+03  0.1403732281D-01
      0.1039486850D+03  0.6884262226D-01
      0.2921015530D+02  0.2321844432D+00
      0.9286662960D+01  0.4679413484D+00
      0.3163926960D+01  0.3623119853D+00
 SP   3 1.00       0.000000000000
      0.7868272350D+01 -0.1193324198D+00  0.6899906659D-01
      0.1881288540D+01 -0.1608541517D+00  0.3164239610D+00
      0.5442492580D+00  0.1143456438D+01  0.7443082909D+00
 SP   1 1.00       0.000000000000
      0.1687144782D+00  0.1000000000D+01  0.1000000000D+01
 D   1 1.00       0.000000000000
      0.8000000000D+00  0.1000000000D+01
 ****
     36 0
 S   6 1.00       0.000000000000
      0.3047524880D+04  0.1834737132D-02
      0.4573695180D+03  0.1403732281D-01
      0.1039486850D+03  0.6884262226D-01
      0.2921015530D+02  0.2321844432D+00
      0.9286662960D+01  0.4679413484D+00
      0.3163926960D+01  0.3623119853D+00
 SP   3 1.00       0.000000000000
      0.7868272350D+01 -0.1193324198D+00  0.6899906659D-01
      0.1881288540D+01 -0.1608541517D+00  0.3164239610D+00
      0.5442492580D+00  0.1143456438D+01  0.7443082909D+00
 SP   1 1.00       0.000000000000
      0.1687144782D+00  0.1000000000D+01  0.1000000000D+01
 D   1 1.00       0.000000000000
      0.8000000000D+00  0.1000000000D+01
 ****
     37 0
 S   3 1.00       0.000000000000
      0.1873113696D+02  0.3349460434D-01
      0.2825394365D+01  0.2347269535D+00
      0.6401216923D+00  0.8137573261D+00
 S   1 1.00       0.000000000000
      0.1612777588D+00  0.1000000000D+01
 ****
     38 0
 S   3 1.00       0.000000000000
      0.1873113696D+02  0.3349460434D-01
      0.2825394365D+01  0.2347269535D+00
      0.6401216923D+00  0.8137573261D+00
 S   1 1.00       0.000000000000
      0.1612777588D+00  0.1000000000D+01
 ****
     39 0
 S   6 1.00       0.000000000000
      0.3047524880D+04  0.1834737132D-02
      0.4573695180D+03  0.1403732281D-01
      0.1039486850D+03  0.6884262226D-01
      0.2921015530D+02  0.2321844432D+00
      0.9286662960D+01  0.4679413484D+00
      0.3163926960D+01  0.3623119853D+00
 SP   3 1.00       0.000000000000
      0.7868272350D+01 -0.1193324198D+00  0.6899906659D-01
      0.1881288540D+01 -0.1608541517D+00  0.3164239610D+00
      0.5442492580D+00  0.1143456438D+01  0.7443082909D+00
 SP   1 1.00       0.000000000000
      0.1687144782D+00  0.1000000000D+01  0.1000000000D+01
 D   1 1.00       0.000000000000
      0.8000000000D+00  0.1000000000D+01
 ****
     40 0
 S   3 1.00       0.000000000000
      0.1873113696D+02  0.3349460434D-01
      0.2825394365D+01  0.2347269535D+00
      0.6401216923D+00  0.8137573261D+00
 S   1 1.00       0.000000000000
      0.1612777588D+00  0.1000000000D+01
 ****
     41 0
 S   6 1.00       0.000000000000
      0.3047524880D+04  0.1834737132D-02
      0.4573695180D+03  0.1403732281D-01
      0.1039486850D+03  0.6884262226D-01
      0.2921015530D+02  0.2321844432D+00
      0.9286662960D+01  0.4679413484D+00
      0.3163926960D+01  0.3623119853D+00
 SP   3 1.00       0.000000000000
      0.7868272350D+01 -0.1193324198D+00  0.6899906659D-01
      0.1881288540D+01 -0.1608541517D+00  0.3164239610D+00
      0.5442492580D+00  0.1143456438D+01  0.7443082909D+00
 SP   1 1.00       0.000000000000
      0.1687144782D+00  0.1000000000D+01  0.1000000000D+01
 D   1 1.00       0.000000000000
      0.8000000000D+00  0.1000000000D+01
 ****
     42 0
 S   3 1.00       0.000000000000
      0.1873113696D+02  0.3349460434D-01
      0.2825394365D+01  0.2347269535D+00
      0.6401216923D+00  0.8137573261D+00
 S   1 1.00       0.000000000000
      0.1612777588D+00  0.1000000000D+01
 ****
     43 0
 S   3 1.00       0.000000000000
      0.1873113696D+02  0.3349460434D-01
      0.2825394365D+01  0.2347269535D+00
      0.6401216923D+00  0.8137573261D+00
 S   1 1.00       0.000000000000
      0.1612777588D+00  0.1000000000D+01
 ****
     44 0
 S   3 1.00       0.000000000000
      0.1873113696D+02  0.3349460434D-01
      0.2825394365D+01  0.2347269535D+00
      0.6401216923D+00  0.8137573261D+00
 S   1 1.00       0.000000000000
      0.1612777588D+00  0.1000000000D+01
 ****
     45 0
 S   6 1.00       0.000000000000
      0.3047524880D+04  0.1834737132D-02
      0.4573695180D+03  0.1403732281D-01
      0.1039486850D+03  0.6884262226D-01
      0.2921015530D+02  0.2321844432D+00
      0.9286662960D+01  0.4679413484D+00
      0.3163926960D+01  0.3623119853D+00
 SP   3 1.00       0.000000000000
      0.7868272350D+01 -0.1193324198D+00  0.6899906659D-01
      0.1881288540D+01 -0.1608541517D+00  0.3164239610D+00
      0.5442492580D+00  0.1143456438D+01  0.7443082909D+00
 SP   1 1.00       0.000000000000
      0.1687144782D+00  0.1000000000D+01  0.1000000000D+01
 D   1 1.00       0.000000000000
      0.8000000000D+00  0.1000000000D+01
 ****
     46 0
 S   3 1.00       0.000000000000
      0.1873113696D+02  0.3349460434D-01
      0.2825394365D+01  0.2347269535D+00
      0.6401216923D+00  0.8137573261D+00
 S   1 1.00       0.000000000000
      0.1612777588D+00  0.1000000000D+01
 ****
     47 0
 S   3 1.00       0.000000000000
      0.1873113696D+02  0.3349460434D-01
      0.2825394365D+01  0.2347269535D+00
      0.6401216923D+00  0.8137573261D+00
 S   1 1.00       0.000000000000
      0.1612777588D+00  0.1000000000D+01
 ****
     48 0
 S   6 1.00       0.000000000000
      0.3047524880D+04  0.1834737132D-02
      0.4573695180D+03  0.1403732281D-01
      0.1039486850D+03  0.6884262226D-01
      0.2921015530D+02  0.2321844432D+00
      0.9286662960D+01  0.4679413484D+00
      0.3163926960D+01  0.3623119853D+00
 SP   3 1.00       0.000000000000
      0.7868272350D+01 -0.1193324198D+00  0.6899906659D-01
      0.1881288540D+01 -0.1608541517D+00  0.3164239610D+00
      0.5442492580D+00  0.1143456438D+01  0.7443082909D+00
 SP   1 1.00       0.000000000000
      0.1687144782D+00  0.1000000000D+01  0.1000000000D+01
 D   1 1.00       0.000000000000
      0.8000000000D+00  0.1000000000D+01
 ****
     49 0
 S   3 1.00       0.000000000000
      0.1873113696D+02  0.3349460434D-01
      0.2825394365D+01  0.2347269535D+00
      0.6401216923D+00  0.8137573261D+00
 S   1 1.00       0.000000000000
      0.1612777588D+00  0.1000000000D+01
 ****
     50 0
 S   3 1.00       0.000000000000
      0.1873113696D+02  0.3349460434D-01
      0.2825394365D+01  0.2347269535D+00
      0.6401216923D+00  0.8137573261D+00
 S   1 1.00       0.000000000000
      0.1612777588D+00  0.1000000000D+01
 ****
     51 0
 S   6 1.00       0.000000000000
      0.3047524880D+04  0.1834737132D-02
      0.4573695180D+03  0.1403732281D-01
      0.1039486850D+03  0.6884262226D-01
      0.2921015530D+02  0.2321844432D+00
      0.9286662960D+01  0.4679413484D+00
      0.3163926960D+01  0.3623119853D+00
 SP   3 1.00       0.000000000000
      0.7868272350D+01 -0.1193324198D+00  0.6899906659D-01
      0.1881288540D+01 -0.1608541517D+00  0.3164239610D+00
      0.5442492580D+00  0.1143456438D+01  0.7443082909D+00
 SP   1 1.00       0.000000000000
      0.1687144782D+00  0.1000000000D+01  0.1000000000D+01
 D   1 1.00       0.000000000000
      0.8000000000D+00  0.1000000000D+01
 ****
     52 0
 S   3 1.00       0.000000000000
      0.1873113696D+02  0.3349460434D-01
      0.2825394365D+01  0.2347269535D+00
      0.6401216923D+00  0.8137573261D+00
 S   1 1.00       0.000000000000
      0.1612777588D+00  0.1000000000D+01
 ****
     53 0
 S   3 1.00       0.000000000000
      0.1873113696D+02  0.3349460434D-01
      0.2825394365D+01  0.2347269535D+00
      0.6401216923D+00  0.8137573261D+00
 S   1 1.00       0.000000000000
      0.1612777588D+00  0.1000000000D+01
 ****
     54 0
 S   6 1.00       0.000000000000
      0.3047524880D+04  0.1834737132D-02
      0.4573695180D+03  0.1403732281D-01
      0.1039486850D+03  0.6884262226D-01
      0.2921015530D+02  0.2321844432D+00
      0.9286662960D+01  0.4679413484D+00
      0.3163926960D+01  0.3623119853D+00
 SP   3 1.00       0.000000000000
      0.7868272350D+01 -0.1193324198D+00  0.6899906659D-01
      0.1881288540D+01 -0.1608541517D+00  0.3164239610D+00
      0.5442492580D+00  0.1143456438D+01  0.7443082909D+00
 SP   1 1.00       0.000000000000
      0.1687144782D+00  0.1000000000D+01  0.1000000000D+01
 D   1 1.00       0.000000000000
      0.8000000000D+00  0.1000000000D+01
 ****
     55 0
 S   3 1.00       0.000000000000
      0.1873113696D+02  0.3349460434D-01
      0.2825394365D+01  0.2347269535D+00
      0.6401216923D+00  0.8137573261D+00
 S   1 1.00       0.000000000000
      0.1612777588D+00  0.1000000000D+01
 ****
     56 0
 S   6 1.00       0.000000000000
      0.3047524880D+04  0.1834737132D-02
      0.4573695180D+03  0.1403732281D-01
      0.1039486850D+03  0.6884262226D-01
      0.2921015530D+02  0.2321844432D+00
      0.9286662960D+01  0.4679413484D+00
      0.3163926960D+01  0.3623119853D+00
 SP   3 1.00       0.000000000000
      0.7868272350D+01 -0.1193324198D+00  0.6899906659D-01
      0.1881288540D+01 -0.1608541517D+00  0.3164239610D+00
      0.5442492580D+00  0.1143456438D+01  0.7443082909D+00
 SP   1 1.00       0.000000000000
      0.1687144782D+00  0.1000000000D+01  0.1000000000D+01
 D   1 1.00       0.000000000000
      0.8000000000D+00  0.1000000000D+01
 ****
     57 0
 S   3 1.00       0.000000000000
      0.1873113696D+02  0.3349460434D-01
      0.2825394365D+01  0.2347269535D+00
      0.6401216923D+00  0.8137573261D+00
 S   1 1.00       0.000000000000
      0.1612777588D+00  0.1000000000D+01
 ****
     58 0
 S   3 1.00       0.000000000000
      0.1873113696D+02  0.3349460434D-01
      0.2825394365D+01  0.2347269535D+00
      0.6401216923D+00  0.8137573261D+00
 S   1 1.00       0.000000000000
      0.1612777588D+00  0.1000000000D+01
 ****
     59 0
 S   3 1.00       0.000000000000
      0.1873113696D+02  0.3349460434D-01
      0.2825394365D+01  0.2347269535D+00
      0.6401216923D+00  0.8137573261D+00
 S   1 1.00       0.000000000000
      0.1612777588D+00  0.1000000000D+01
 ****
     60 0
 S   6 1.00       0.000000000000
      0.3047524880D+04  0.1834737132D-02
      0.4573695180D+03  0.1403732281D-01
      0.1039486850D+03  0.6884262226D-01
      0.2921015530D+02  0.2321844432D+00
      0.9286662960D+01  0.4679413484D+00
      0.3163926960D+01  0.3623119853D+00
 SP   3 1.00       0.000000000000
      0.7868272350D+01 -0.1193324198D+00  0.6899906659D-01
      0.1881288540D+01 -0.1608541517D+00  0.3164239610D+00
      0.5442492580D+00  0.1143456438D+01  0.7443082909D+00
 SP   1 1.00       0.000000000000
      0.1687144782D+00  0.1000000000D+01  0.1000000000D+01
 D   1 1.00       0.000000000000
      0.8000000000D+00  0.1000000000D+01
 ****
     61 0
 S   3 1.00       0.000000000000
      0.1873113696D+02  0.3349460434D-01
      0.2825394365D+01  0.2347269535D+00
      0.6401216923D+00  0.8137573261D+00
 S   1 1.00       0.000000000000
      0.1612777588D+00  0.1000000000D+01
 ****
     62 0
 S   3 1.00       0.000000000000
      0.1873113696D+02  0.3349460434D-01
      0.2825394365D+01  0.2347269535D+00
      0.6401216923D+00  0.8137573261D+00
 S   1 1.00       0.000000000000
      0.1612777588D+00  0.1000000000D+01
 ****
     63 0
 S   6 1.00       0.000000000000
      0.3047524880D+04  0.1834737132D-02
      0.4573695180D+03  0.1403732281D-01
      0.1039486850D+03  0.6884262226D-01
      0.2921015530D+02  0.2321844432D+00
      0.9286662960D+01  0.4679413484D+00
      0.3163926960D+01  0.3623119853D+00
 SP   3 1.00       0.000000000000
      0.7868272350D+01 -0.1193324198D+00  0.6899906659D-01
      0.1881288540D+01 -0.1608541517D+00  0.3164239610D+00
      0.5442492580D+00  0.1143456438D+01  0.7443082909D+00
 SP   1 1.00       0.000000000000
      0.1687144782D+00  0.1000000000D+01  0.1000000000D+01
 D   1 1.00       0.000000000000
      0.8000000000D+00  0.1000000000D+01
 ****
     64 0
 S   3 1.00       0.000000000000
      0.1873113696D+02  0.3349460434D-01
      0.2825394365D+01  0.2347269535D+00
      0.6401216923D+00  0.8137573261D+00
 S   1 1.00       0.000000000000
      0.1612777588D+00  0.1000000000D+01
 ****
     65 0
 S   3 1.00       0.000000000000
      0.1873113696D+02  0.3349460434D-01
      0.2825394365D+01  0.2347269535D+00
      0.6401216923D+00  0.8137573261D+00
 S   1 1.00       0.000000000000
      0.1612777588D+00  0.1000000000D+01
 ****
     66 0
 S   6 1.00       0.000000000000
      0.3047524880D+04  0.1834737132D-02
      0.4573695180D+03  0.1403732281D-01
      0.1039486850D+03  0.6884262226D-01
      0.2921015530D+02  0.2321844432D+00
      0.9286662960D+01  0.4679413484D+00
      0.3163926960D+01  0.3623119853D+00
 SP   3 1.00       0.000000000000
      0.7868272350D+01 -0.1193324198D+00  0.6899906659D-01
      0.1881288540D+01 -0.1608541517D+00  0.3164239610D+00
      0.5442492580D+00  0.1143456438D+01  0.7443082909D+00
 SP   1 1.00       0.000000000000
      0.1687144782D+00  0.1000000000D+01  0.1000000000D+01
 D   1 1.00       0.000000000000
      0.8000000000D+00  0.1000000000D+01
 ****
     67 0
 S   3 1.00       0.000000000000
      0.1873113696D+02  0.3349460434D-01
      0.2825394365D+01  0.2347269535D+00
      0.6401216923D+00  0.8137573261D+00
 S   1 1.00       0.000000000000
      0.1612777588D+00  0.1000000000D+01
 ****
     68 0
 S   6 1.00       0.000000000000
      0.3047524880D+04  0.1834737132D-02
      0.4573695180D+03  0.1403732281D-01
      0.1039486850D+03  0.6884262226D-01
      0.2921015530D+02  0.2321844432D+00
      0.9286662960D+01  0.4679413484D+00
      0.3163926960D+01  0.3623119853D+00
 SP   3 1.00       0.000000000000
      0.7868272350D+01 -0.1193324198D+00  0.6899906659D-01
      0.1881288540D+01 -0.1608541517D+00  0.3164239610D+00
      0.5442492580D+00  0.1143456438D+01  0.7443082909D+00
 SP   1 1.00       0.000000000000
      0.1687144782D+00  0.1000000000D+01  0.1000000000D+01
 D   1 1.00       0.000000000000
      0.8000000000D+00  0.1000000000D+01
 ****
     69 0
 S   3 1.00       0.000000000000
      0.1873113696D+02  0.3349460434D-01
      0.2825394365D+01  0.2347269535D+00
      0.6401216923D+00  0.8137573261D+00
 S   1 1.00       0.000000000000
      0.1612777588D+00  0.1000000000D+01
 ****
     70 0
 S   3 1.00       0.000000000000
      0.1873113696D+02  0.3349460434D-01
      0.2825394365D+01  0.2347269535D+00
      0.6401216923D+00  0.8137573261D+00
 S   1 1.00       0.000000000000
      0.1612777588D+00  0.1000000000D+01
 ****
     71 0
 S   3 1.00       0.000000000000
      0.1873113696D+02  0.3349460434D-01
      0.2825394365D+01  0.2347269535D+00
      0.6401216923D+00  0.8137573261D+00
 S   1 1.00       0.000000000000
      0.1612777588D+00  0.1000000000D+01
 ****
     72 0
 S   6 1.00       0.000000000000
      0.3047524880D+04  0.1834737132D-02
      0.4573695180D+03  0.1403732281D-01
      0.1039486850D+03  0.6884262226D-01
      0.2921015530D+02  0.2321844432D+00
      0.9286662960D+01  0.4679413484D+00
      0.3163926960D+01  0.3623119853D+00
 SP   3 1.00       0.000000000000
      0.7868272350D+01 -0.1193324198D+00  0.6899906659D-01
      0.1881288540D+01 -0.1608541517D+00  0.3164239610D+00
      0.5442492580D+00  0.1143456438D+01  0.7443082909D+00
 SP   1 1.00       0.000000000000
      0.1687144782D+00  0.1000000000D+01  0.1000000000D+01
 D   1 1.00       0.000000000000
      0.8000000000D+00  0.1000000000D+01
 ****
     73 0
 S   3 1.00       0.000000000000
      0.1873113696D+02  0.3349460434D-01
      0.2825394365D+01  0.2347269535D+00
      0.6401216923D+00  0.8137573261D+00
 S   1 1.00       0.000000000000
      0.1612777588D+00  0.1000000000D+01
 ****
     74 0
 S   3 1.00       0.000000000000
      0.1873113696D+02  0.3349460434D-01
      0.2825394365D+01  0.2347269535D+00
      0.6401216923D+00  0.8137573261D+00
 S   1 1.00       0.000000000000
      0.1612777588D+00  0.1000000000D+01
 ****
     75 0
 S   3 1.00       0.000000000000
      0.1873113696D+02  0.3349460434D-01
      0.2825394365D+01  0.2347269535D+00
      0.6401216923D+00  0.8137573261D+00
 S   1 1.00       0.000000000000
      0.1612777588D+00  0.1000000000D+01
 ****

 AO basis set (Overlap normalization):
 Atom O1       Shell     1 S   6     bf    1 -     1          0.000000000000          0.000000000000          0.000000000000
      0.5484671660D+04  0.1831074430D-02
      0.8252349460D+03  0.1395017220D-01
      0.1880469580D+03  0.6844507810D-01
      0.5296450000D+02  0.2327143360D+00
      0.1689757040D+02  0.4701928980D+00
      0.5799635340D+01  0.3585208530D+00
 Atom O1       Shell     2 SP   3    bf    2 -     5          0.000000000000          0.000000000000          0.000000000000
      0.1553961625D+02 -0.1107775495D+00  0.7087426823D-01
      0.3599933586D+01 -0.1480262627D+00  0.3397528391D+00
      0.1013761750D+01  0.1130767015D+01  0.7271585773D+00
 Atom O1       Shell     3 SP   1    bf    6 -     9          0.000000000000          0.000000000000          0.000000000000
      0.2700058226D+00  0.1000000000D+01  0.1000000000D+01
 Atom O1       Shell     4 D   1     bf   10 -    15          0.000000000000          0.000000000000          0.000000000000
      0.8000000000D+00  0.1000000000D+01
 Atom H2       Shell     5 S   3     bf   16 -    16          1.828564220629          0.000000000000          0.000000000000
      0.1873113696D+02  0.3349460434D-01
      0.2825394365D+01  0.2347269535D+00
      0.6401216923D+00  0.8137573261D+00
 Atom H2       Shell     6 S   1     bf   17 -    17          1.828564220629          0.000000000000          0.000000000000
      0.1612777588D+00  0.1000000000D+01
 Atom O3       Shell     7 S   6     bf   18 -    18          3.056201899377         -5.320844084541         12.067923875663
      0.5484671660D+04  0.1831074430D-02
      0.8252349460D+03  0.1395017220D-01
      0.1880469580D+03  0.6844507810D-01
      0.5296450000D+02  0.2327143360D+00
      0.1689757040D+02  0.4701928980D+00
      0.5799635340D+01  0.3585208530D+00
 Atom O3       Shell     8 SP   3    bf   19 -    22          3.056201899377         -5.320844084541         12.067923875663
      0.1553961625D+02 -0.1107775495D+00  0.7087426823D-01
      0.3599933586D+01 -0.1480262627D+00  0.3397528391D+00
      0.1013761750D+01  0.1130767015D+01  0.7271585773D+00
 Atom O3       Shell     9 SP   1    bf   23 -    26          3.056201899377         -5.320844084541         12.067923875663
      0.2700058226D+00  0.1000000000D+01  0.1000000000D+01
 Atom O3       Shell    10 D   1     bf   27 -    32          3.056201899377         -5.320844084541         12.067923875663
      0.8000000000D+00  0.1000000000D+01
 Atom H4       Shell    11 S   3     bf   33 -    33          4.828327578219         -4.890055161096         12.198654676002
      0.1873113696D+02  0.3349460434D-01
      0.2825394365D+01  0.2347269535D+00
      0.6401216923D+00  0.8137573261D+00
 Atom H4       Shell    12 S   1     bf   34 -    34          4.828327578219         -4.890055161096         12.198654676002
      0.1612777588D+00  0.1000000000D+01
 Atom C5       Shell    13 S   6     bf   35 -    35         -2.256787840848          7.727557996868          3.114934984430
      0.3047524880D+04  0.1834737132D-02
      0.4573695180D+03  0.1403732281D-01
      0.1039486850D+03  0.6884262226D-01
      0.2921015530D+02  0.2321844432D+00
      0.9286662960D+01  0.4679413484D+00
      0.3163926960D+01  0.3623119853D+00
 Atom C5       Shell    14 SP   3    bf   36 -    39         -2.256787840848          7.727557996868          3.114934984430
      0.7868272350D+01 -0.1193324198D+00  0.6899906659D-01
      0.1881288540D+01 -0.1608541517D+00  0.3164239610D+00
      0.5442492580D+00  0.1143456438D+01  0.7443082909D+00
 Atom C5       Shell    15 SP   1    bf   40 -    43         -2.256787840848          7.727557996868          3.114934984430
      0.1687144782D+00  0.1000000000D+01  0.1000000000D+01
 Atom C5       Shell    16 D   1     bf   44 -    49         -2.256787840848          7.727557996868          3.114934984430
      0.8000000000D+00  0.1000000000D+01
 Atom C6       Shell    17 S   6     bf   50 -    50         -2.412972420718          4.916865348250          2.250102877962
      0.3047524880D+04  0.1834737132D-02
      0.4573695180D+03  0.1403732281D-01
      0.1039486850D+03  0.6884262226D-01
      0.2921015530D+02  0.2321844432D+00
      0.9286662960D+01  0.4679413484D+00
      0.3163926960D+01  0.3623119853D+00
 Atom C6       Shell    18 SP   3    bf   51 -    54         -2.412972420718          4.916865348250          2.250102877962
      0.7868272350D+01 -0.1193324198D+00  0.6899906659D-01
      0.1881288540D+01 -0.1608541517D+00  0.3164239610D+00
      0.5442492580D+00  0.1143456438D+01  0.7443082909D+00
 Atom C6       Shell    19 SP   1    bf   55 -    58         -2.412972420718          4.916865348250          2.250102877962
      0.1687144782D+00  0.1000000000D+01  0.1000000000D+01
 Atom C6       Shell    20 D   1     bf   59 -    64         -2.412972420718          4.916865348250          2.250102877962
      0.8000000000D+00  0.1000000000D+01
 Atom H7       Shell    21 S   3     bf   65 -    65         -4.254708259260          4.236473139071          2.952480142074
      0.1873113696D+02  0.3349460434D-01
      0.2825394365D+01  0.2347269535D+00
      0.6401216923D+00  0.8137573261D+00
 Atom H7       Shell    22 S   1     bf   66 -    66         -4.254708259260          4.236473139071          2.952480142074
      0.1612777588D+00  0.1000000000D+01
 Atom C8       Shell    23 S   6     bf   67 -    67         -0.444925473316          3.138266884972          3.442991441099
      0.3047524880D+04  0.1834737132D-02
      0.4573695180D+03  0.1403732281D-01
      0.1039486850D+03  0.6884262226D-01
      0.2921015530D+02  0.2321844432D+00
      0.9286662960D+01  0.4679413484D+00
      0.3163926960D+01  0.3623119853D+00
 Atom C8       Shell    24 SP   3    bf   68 -    71         -0.444925473316          3.138266884972          3.442991441099
      0.7868272350D+01 -0.1193324198D+00  0.6899906659D-01
      0.1881288540D+01 -0.1608541517D+00  0.3164239610D+00
      0.5442492580D+00  0.1143456438D+01  0.7443082909D+00
 Atom C8       Shell    25 SP   1    bf   72 -    75         -0.444925473316          3.138266884972          3.442991441099
      0.1687144782D+00  0.1000000000D+01  0.1000000000D+01
 Atom C8       Shell    26 D   1     bf   76 -    81         -0.444925473316          3.138266884972          3.442991441099
      0.8000000000D+00  0.1000000000D+01
 Atom H9       Shell    27 S   3     bf   82 -    82          1.463768993498          3.697570526920          2.840643787372
      0.1873113696D+02  0.3349460434D-01
      0.2825394365D+01  0.2347269535D+00
      0.6401216923D+00  0.8137573261D+00
 Atom H9       Shell    28 S   1     bf   83 -    83          1.463768993498          3.697570526920          2.840643787372
      0.1612777588D+00  0.1000000000D+01
 Atom C10      Shell    29 S   6     bf   84 -    84         -0.626562188654          3.288580218027          6.373160758352
      0.3047524880D+04  0.1834737132D-02
      0.4573695180D+03  0.1403732281D-01
      0.1039486850D+03  0.6884262226D-01
      0.2921015530D+02  0.2321844432D+00
      0.9286662960D+01  0.4679413484D+00
      0.3163926960D+01  0.3623119853D+00
 Atom C10      Shell    30 SP   3    bf   85 -    88         -0.626562188654          3.288580218027          6.373160758352
      0.7868272350D+01 -0.1193324198D+00  0.6899906659D-01
      0.1881288540D+01 -0.1608541517D+00  0.3164239610D+00
      0.5442492580D+00  0.1143456438D+01  0.7443082909D+00
 Atom C10      Shell    31 SP   1    bf   89 -    92         -0.626562188654          3.288580218027          6.373160758352
      0.1687144782D+00  0.1000000000D+01  0.1000000000D+01
 Atom C10      Shell    32 D   1     bf   93 -    98         -0.626562188654          3.288580218027          6.373160758352
      0.8000000000D+00  0.1000000000D+01
 Atom H11      Shell    33 S   3     bf   99 -    99         -2.485415279892          2.483355421715          6.860408972777
      0.1873113696D+02  0.3349460434D-01
      0.2825394365D+01  0.2347269535D+00
      0.6401216923D+00  0.8137573261D+00
 Atom H11      Shell    34 S   1     bf  100 -   100         -2.485415279892          2.483355421715          6.860408972777
      0.1612777588D+00  0.1000000000D+01
 Atom C12      Shell    35 S   6     bf  101 -   101         -4.515201564267          8.826020403344          1.540844856438
      0.3047524880D+04  0.1834737132D-02
      0.4573695180D+03  0.1403732281D-01
      0.1039486850D+03  0.6884262226D-01
      0.2921015530D+02  0.2321844432D+00
      0.9286662960D+01  0.4679413484D+00
      0.3163926960D+01  0.3623119853D+00
 Atom C12      Shell    36 SP   3    bf  102 -   105         -4.515201564267          8.826020403344          1.540844856438
      0.7868272350D+01 -0.1193324198D+00  0.6899906659D-01
      0.1881288540D+01 -0.1608541517D+00  0.3164239610D+00
      0.5442492580D+00  0.1143456438D+01  0.7443082909D+00
 Atom C12      Shell    37 SP   1    bf  106 -   109         -4.515201564267          8.826020403344          1.540844856438
      0.1687144782D+00  0.1000000000D+01  0.1000000000D+01
 Atom C12      Shell    38 D   1     bf  110 -   115         -4.515201564267          8.826020403344          1.540844856438
      0.8000000000D+00  0.1000000000D+01
 Atom H13      Shell    39 S   3     bf  116 -   116         -6.199268272987          7.973808247039          2.407077986964
      0.1873113696D+02  0.3349460434D-01
      0.2825394365D+01  0.2347269535D+00
      0.6401216923D+00  0.8137573261D+00
 Atom H13      Shell    40 S   1     bf  117 -   117         -6.199268272987          7.973808247039          2.407077986964
      0.1612777588D+00  0.1000000000D+01
 Atom C14      Shell    41 S   6     bf  118 -   118         -2.590237216853          7.753179565182          6.005181985194
      0.3047524880D+04  0.1834737132D-02
      0.4573695180D+03  0.1403732281D-01
      0.1039486850D+03  0.6884262226D-01
      0.2921015530D+02  0.2321844432D+00
      0.9286662960D+01  0.4679413484D+00
      0.3163926960D+01  0.3623119853D+00
 Atom C14      Shell    42 SP   3    bf  119 -   122         -2.590237216853          7.753179565182          6.005181985194
      0.7868272350D+01 -0.1193324198D+00  0.6899906659D-01
      0.1881288540D+01 -0.1608541517D+00  0.3164239610D+00
      0.5442492580D+00  0.1143456438D+01  0.7443082909D+00
 Atom C14      Shell    43 SP   1    bf  123 -   126         -2.590237216853          7.753179565182          6.005181985194
      0.1687144782D+00  0.1000000000D+01  0.1000000000D+01
 Atom C14      Shell    44 D   1     bf  127 -   132         -2.590237216853          7.753179565182          6.005181985194
      0.8000000000D+00  0.1000000000D+01
 Atom H15      Shell    45 S   3     bf  133 -   133         -4.502459991330          7.089818626159          6.470698897112
      0.1873113696D+02  0.3349460434D-01
      0.2825394365D+01  0.2347269535D+00
      0.6401216923D+00  0.8137573261D+00
 Atom H15      Shell    46 S   1     bf  134 -   134         -4.502459991330          7.089818626159          6.470698897112
      0.1612777588D+00  0.1000000000D+01
 Atom H16      Shell    47 S   3     bf  135 -   135         -2.426494715109          9.673269307345          6.766359514123
      0.1873113696D+02  0.3349460434D-01
      0.2825394365D+01  0.2347269535D+00
      0.6401216923D+00  0.8137573261D+00
 Atom H16      Shell    48 S   1     bf  136 -   136         -2.426494715109          9.673269307345          6.766359514123
      0.1612777588D+00  0.1000000000D+01
 Atom C17      Shell    49 S   6     bf  137 -   137          1.364365940710          1.581961385356          7.756195435809
      0.3047524880D+04  0.1834737132D-02
      0.4573695180D+03  0.1403732281D-01
      0.1039486850D+03  0.6884262226D-01
      0.2921015530D+02  0.2321844432D+00
      0.9286662960D+01  0.4679413484D+00
      0.3163926960D+01  0.3623119853D+00
 Atom C17      Shell    50 SP   3    bf  138 -   141          1.364365940710          1.581961385356          7.756195435809
      0.7868272350D+01 -0.1193324198D+00  0.6899906659D-01
      0.1881288540D+01 -0.1608541517D+00  0.3164239610D+00
      0.5442492580D+00  0.1143456438D+01  0.7443082909D+00
 Atom C17      Shell    51 SP   1    bf  142 -   145          1.364365940710          1.581961385356          7.756195435809
      0.1687144782D+00  0.1000000000D+01  0.1000000000D+01
 Atom C17      Shell    52 D   1     bf  146 -   151          1.364365940710          1.581961385356          7.756195435809
      0.8000000000D+00  0.1000000000D+01
 Atom C18      Shell    53 S   6     bf  152 -   152         -2.644901834925          5.080190258313         -0.647500694357
      0.3047524880D+04  0.1834737132D-02
      0.4573695180D+03  0.1403732281D-01
      0.1039486850D+03  0.6884262226D-01
      0.2921015530D+02  0.2321844432D+00
      0.9286662960D+01  0.4679413484D+00
      0.3163926960D+01  0.3623119853D+00
 Atom C18      Shell    54 SP   3    bf  153 -   156         -2.644901834925          5.080190258313         -0.647500694357
      0.7868272350D+01 -0.1193324198D+00  0.6899906659D-01
      0.1881288540D+01 -0.1608541517D+00  0.3164239610D+00
      0.5442492580D+00  0.1143456438D+01  0.7443082909D+00
 Atom C18      Shell    55 SP   1    bf  157 -   160         -2.644901834925          5.080190258313         -0.647500694357
      0.1687144782D+00  0.1000000000D+01  0.1000000000D+01
 Atom C18      Shell    56 D   1     bf  161 -   166         -2.644901834925          5.080190258313         -0.647500694357
      0.8000000000D+00  0.1000000000D+01
 Atom H19      Shell    57 S   3     bf  167 -   167         -3.528756245900          3.400267681207         -1.458726864025
      0.1873113696D+02  0.3349460434D-01
      0.2825394365D+01  0.2347269535D+00
      0.6401216923D+00  0.8137573261D+00
 Atom H19      Shell    58 S   1     bf  168 -   168         -3.528756245900          3.400267681207         -1.458726864025
      0.1612777588D+00  0.1000000000D+01
 Atom H20      Shell    59 S   3     bf  169 -   169         -0.773744302199          5.221646652853         -1.520287111653
      0.1873113696D+02  0.3349460434D-01
      0.2825394365D+01  0.2347269535D+00
      0.6401216923D+00  0.8137573261D+00
 Atom H20      Shell    60 S   1     bf  170 -   170         -0.773744302199          5.221646652853         -1.520287111653
      0.1612777588D+00  0.1000000000D+01
 Atom C21      Shell    61 S   6     bf  171 -   171         -0.635450969054          6.050593049030          7.329720341386
      0.3047524880D+04  0.1834737132D-02
      0.4573695180D+03  0.1403732281D-01
      0.1039486850D+03  0.6884262226D-01
      0.2921015530D+02  0.2321844432D+00
      0.9286662960D+01  0.4679413484D+00
      0.3163926960D+01  0.3623119853D+00
 Atom C21      Shell    62 SP   3    bf  172 -   175         -0.635450969054          6.050593049030          7.329720341386
      0.7868272350D+01 -0.1193324198D+00  0.6899906659D-01
      0.1881288540D+01 -0.1608541517D+00  0.3164239610D+00
      0.5442492580D+00  0.1143456438D+01  0.7443082909D+00
 Atom C21      Shell    63 SP   1    bf  176 -   179         -0.635450969054          6.050593049030          7.329720341386
      0.1687144782D+00  0.1000000000D+01  0.1000000000D+01
 Atom C21      Shell    64 D   1     bf  180 -   185         -0.635450969054          6.050593049030          7.329720341386
      0.8000000000D+00  0.1000000000D+01
 Atom H22      Shell    65 S   3     bf  186 -   186          1.243720098516          6.883654248273          7.088622353927
      0.1873113696D+02  0.3349460434D-01
      0.2825394365D+01  0.2347269535D+00
      0.6401216923D+00  0.8137573261D+00
 Atom H22      Shell    66 S   1     bf  187 -   187          1.243720098516          6.883654248273          7.088622353927
      0.1612777588D+00  0.1000000000D+01
 Atom H23      Shell    67 S   3     bf  188 -   188         -1.014229564856          6.076385221820          9.364983789088
      0.1873113696D+02  0.3349460434D-01
      0.2825394365D+01  0.2347269535D+00
      0.6401216923D+00  0.8137573261D+00
 Atom H23      Shell    68 S   1     bf  189 -   189         -1.014229564856          6.076385221820          9.364983789088
      0.1612777588D+00  0.1000000000D+01
 Atom C24      Shell    69 S   6     bf  190 -   190         -4.213646853653          7.524574954030         -1.089683853801
      0.3047524880D+04  0.1834737132D-02
      0.4573695180D+03  0.1403732281D-01
      0.1039486850D+03  0.6884262226D-01
      0.2921015530D+02  0.2321844432D+00
      0.9286662960D+01  0.4679413484D+00
      0.3163926960D+01  0.3623119853D+00
 Atom C24      Shell    70 SP   3    bf  191 -   194         -4.213646853653          7.524574954030         -1.089683853801
      0.7868272350D+01 -0.1193324198D+00  0.6899906659D-01
      0.1881288540D+01 -0.1608541517D+00  0.3164239610D+00
      0.5442492580D+00  0.1143456438D+01  0.7443082909D+00
 Atom C24      Shell    71 SP   1    bf  195 -   198         -4.213646853653          7.524574954030         -1.089683853801
      0.1687144782D+00  0.1000000000D+01  0.1000000000D+01
 Atom C24      Shell    72 D   1     bf  199 -   204         -4.213646853653          7.524574954030         -1.089683853801
      0.8000000000D+00  0.1000000000D+01
 Atom H25      Shell    73 S   3     bf  205 -   205         -3.261688073451          8.771811681702         -2.438584918346
      0.1873113696D+02  0.3349460434D-01
      0.2825394365D+01  0.2347269535D+00
      0.6401216923D+00  0.8137573261D+00
 Atom H25      Shell    74 S   1     bf  206 -   206         -3.261688073451          8.771811681702         -2.438584918346
      0.1612777588D+00  0.1000000000D+01
 Atom H26      Shell    75 S   3     bf  207 -   207         -6.073975707617          7.112625163939         -1.900370960192
      0.1873113696D+02  0.3349460434D-01
      0.2825394365D+01  0.2347269535D+00
      0.6401216923D+00  0.8137573261D+00
 Atom H26      Shell    76 S   1     bf  208 -   208         -6.073975707617          7.112625163939         -1.900370960192
      0.1612777588D+00  0.1000000000D+01
 Atom C27      Shell    77 S   6     bf  209 -   209         -0.837567421282          0.390213536502          2.562376266380
      0.3047524880D+04  0.1834737132D-02
      0.4573695180D+03  0.1403732281D-01
      0.1039486850D+03  0.6884262226D-01
      0.2921015530D+02  0.2321844432D+00
      0.9286662960D+01  0.4679413484D+00
      0.3163926960D+01  0.3623119853D+00
 Atom C27      Shell    78 SP   3    bf  210 -   213         -0.837567421282          0.390213536502          2.562376266380
      0.7868272350D+01 -0.1193324198D+00  0.6899906659D-01
      0.1881288540D+01 -0.1608541517D+00  0.3164239610D+00
      0.5442492580D+00  0.1143456438D+01  0.7443082909D+00
 Atom C27      Shell    79 SP   1    bf  214 -   217         -0.837567421282          0.390213536502          2.562376266380
      0.1687144782D+00  0.1000000000D+01  0.1000000000D+01
 Atom C27      Shell    80 D   1     bf  218 -   223         -0.837567421282          0.390213536502          2.562376266380
      0.8000000000D+00  0.1000000000D+01
 Atom H28      Shell    81 S   3     bf  224 -   224         -2.875621786612          0.000481256554          2.462529090155
      0.1873113696D+02  0.3349460434D-01
      0.2825394365D+01  0.2347269535D+00
      0.6401216923D+00  0.8137573261D+00
 Atom H28      Shell    82 S   1     bf  225 -   225         -2.875621786612          0.000481256554          2.462529090155
      0.1612777588D+00  0.1000000000D+01
 Atom C29      Shell    83 S   6     bf  226 -   226         -5.149954959817         11.689530179280          1.336052778773
      0.3047524880D+04  0.1834737132D-02
      0.4573695180D+03  0.1403732281D-01
      0.1039486850D+03  0.6884262226D-01
      0.2921015530D+02  0.2321844432D+00
      0.9286662960D+01  0.4679413484D+00
      0.3163926960D+01  0.3623119853D+00
 Atom C29      Shell    84 SP   3    bf  227 -   230         -5.149954959817         11.689530179280          1.336052778773
      0.7868272350D+01 -0.1193324198D+00  0.6899906659D-01
      0.1881288540D+01 -0.1608541517D+00  0.3164239610D+00
      0.5442492580D+00  0.1143456438D+01  0.7443082909D+00
 Atom C29      Shell    85 SP   1    bf  231 -   234         -5.149954959817         11.689530179280          1.336052778773
      0.1687144782D+00  0.1000000000D+01  0.1000000000D+01
 Atom C29      Shell    86 D   1     bf  235 -   240         -5.149954959817         11.689530179280          1.336052778773
      0.8000000000D+00  0.1000000000D+01
 Atom H30      Shell    87 S   3     bf  241 -   241         -6.743323525796         11.737478162655          0.000000000000
      0.1873113696D+02  0.3349460434D-01
      0.2825394365D+01  0.2347269535D+00
      0.6401216923D+00  0.8137573261D+00
 Atom H30      Shell    88 S   1     bf  242 -   242         -6.743323525796         11.737478162655          0.000000000000
      0.1612777588D+00  0.1000000000D+01
 Atom C31      Shell    89 S   6     bf  243 -   243          0.300518460392          8.941401922066          2.387389440611
      0.3047524880D+04  0.1834737132D-02
      0.4573695180D+03  0.1403732281D-01
      0.1039486850D+03  0.6884262226D-01
      0.2921015530D+02  0.2321844432D+00
      0.9286662960D+01  0.4679413484D+00
      0.3163926960D+01  0.3623119853D+00
 Atom C31      Shell    90 SP   3    bf  244 -   247          0.300518460392          8.941401922066          2.387389440611
      0.7868272350D+01 -0.1193324198D+00  0.6899906659D-01
      0.1881288540D+01 -0.1608541517D+00  0.3164239610D+00
      0.5442492580D+00  0.1143456438D+01  0.7443082909D+00
 Atom C31      Shell    91 SP   1    bf  248 -   251          0.300518460392          8.941401922066          2.387389440611
      0.1687144782D+00  0.1000000000D+01  0.1000000000D+01
 Atom C31      Shell    92 D   1     bf  252 -   257          0.300518460392          8.941401922066          2.387389440611
      0.8000000000D+00  0.1000000000D+01
 Atom H32      Shell    93 S   3     bf  258 -   258          1.904967246579          7.795065496095          3.003174729000
      0.1873113696D+02  0.3349460434D-01
      0.2825394365D+01  0.2347269535D+00
      0.6401216923D+00  0.8137573261D+00
 Atom H32      Shell    94 S   1     bf  259 -   259          1.904967246579          7.795065496095          3.003174729000
      0.1612777588D+00  0.1000000000D+01
 Atom H33      Shell    95 S   3     bf  260 -   260          0.489141134195          9.201689662664          0.347618788213
      0.1873113696D+02  0.3349460434D-01
      0.2825394365D+01  0.2347269535D+00
      0.6401216923D+00  0.8137573261D+00
 Atom H33      Shell    96 S   1     bf  261 -   261          0.489141134195          9.201689662664          0.347618788213
      0.1612777588D+00  0.1000000000D+01
 Atom H34      Shell    97 S   3     bf  262 -   262          0.508639687482         10.796818073899          3.274380626892
      0.1873113696D+02  0.3349460434D-01
      0.2825394365D+01  0.2347269535D+00
      0.6401216923D+00  0.8137573261D+00
 Atom H34      Shell    98 S   1     bf  263 -   263          0.508639687482         10.796818073899          3.274380626892
      0.1612777588D+00  0.1000000000D+01
 Atom C35      Shell    99 S   6     bf  264 -   264          1.440914891312         -1.038659358487          6.524928708098
      0.3047524880D+04  0.1834737132D-02
      0.4573695180D+03  0.1403732281D-01
      0.1039486850D+03  0.6884262226D-01
      0.2921015530D+02  0.2321844432D+00
      0.9286662960D+01  0.4679413484D+00
      0.3163926960D+01  0.3623119853D+00
 Atom C35      Shell   100 SP   3    bf  265 -   268          1.440914891312         -1.038659358487          6.524928708098
      0.7868272350D+01 -0.1193324198D+00  0.6899906659D-01
      0.1881288540D+01 -0.1608541517D+00  0.3164239610D+00
      0.5442492580D+00  0.1143456438D+01  0.7443082909D+00
 Atom C35      Shell   101 SP   1    bf  269 -   272          1.440914891312         -1.038659358487          6.524928708098
      0.1687144782D+00  0.1000000000D+01  0.1000000000D+01
 Atom C35      Shell   102 D   1     bf  273 -   278          1.440914891312         -1.038659358487          6.524928708098
      0.8000000000D+00  0.1000000000D+01
 Atom C36      Shell   103 S   6     bf  279 -   279          0.533861654308          1.251681779276         10.567539057285
      0.3047524880D+04  0.1834737132D-02
      0.4573695180D+03  0.1403732281D-01
      0.1039486850D+03  0.6884262226D-01
      0.2921015530D+02  0.2321844432D+00
      0.9286662960D+01  0.4679413484D+00
      0.3163926960D+01  0.3623119853D+00
 Atom C36      Shell   104 SP   3    bf  280 -   283          0.533861654308          1.251681779276         10.567539057285
      0.7868272350D+01 -0.1193324198D+00  0.6899906659D-01
      0.1881288540D+01 -0.1608541517D+00  0.3164239610D+00
      0.5442492580D+00  0.1143456438D+01  0.7443082909D+00
 Atom C36      Shell   105 SP   1    bf  284 -   287          0.533861654308          1.251681779276         10.567539057285
      0.1687144782D+00  0.1000000000D+01  0.1000000000D+01
 Atom C36      Shell   106 D   1     bf  288 -   293          0.533861654308          1.251681779276         10.567539057285
      0.8000000000D+00  0.1000000000D+01
 Atom H37      Shell   107 S   3     bf  294 -   294         -1.487264336454          0.776730050592         10.595231595365
      0.1873113696D+02  0.3349460434D-01
      0.2825394365D+01  0.2347269535D+00
      0.6401216923D+00  0.8137573261D+00
 Atom H37      Shell   108 S   1     bf  295 -   295         -1.487264336454          0.776730050592         10.595231595365
      0.1612777588D+00  0.1000000000D+01
 Atom H38      Shell   109 S   3     bf  296 -   296          0.725643307699          3.057539485329         11.559747511234
      0.1873113696D+02  0.3349460434D-01
      0.2825394365D+01  0.2347269535D+00
      0.6401216923D+00  0.8137573261D+00
 Atom H38      Shell   110 S   1     bf  297 -   297          0.725643307699          3.057539485329         11.559747511234
      0.1612777588D+00  0.1000000000D+01
 Atom C39      Shell   111 S   6     bf  298 -   298          0.396475862139         -1.517978527723          4.266202348388
      0.3047524880D+04  0.1834737132D-02
      0.4573695180D+03  0.1403732281D-01
[...]
 1507 Fit      -0.002273
 1508 Fit      -0.001477
 1509 Fit       0.001140
 1510 Fit       0.003201
 1511 Fit       0.001507
 1512 Fit      -0.000905
 1513 Fit      -0.001592
 1514 Fit      -0.000231
 1515 Fit       0.002328
 1516 Fit       0.003345
 1517 Fit       0.000442
 1518 Fit       0.003298
 1519 Fit      -0.001768
 1520 Fit      -0.001567
 1521 Fit       0.000444
 1522 Fit      -0.000040
 1523 Fit      -0.000971
 1524 Fit       0.001172
 1525 Fit       0.002265
 1526 Fit       0.002044
 1527 Fit      -0.000808
 1528 Fit       0.001238
 1529 Fit       0.002495
 1530 Fit       0.003146
 1531 Fit       0.000152
 1532 Fit       0.001610
 1533 Fit      -0.000450
 1534 Fit       0.000296
 1535 Fit       0.000311
 1536 Fit      -0.000993
 1537 Fit       0.000606
 1538 Fit       0.001824
 1539 Fit       0.002305
 1540 Fit       0.001676
 1541 Fit      -0.000003
 1542 Fit       0.003095
 1543 Fit       0.002723
 1544 Fit       0.001305
 1545 Fit      -0.000703
 1546 Fit       0.001732
 1547 Fit      -0.001676
 1548 Fit      -0.001581
 1549 Fit      -0.001774
 1550 Fit      -0.002191
 1551 Fit      -0.001420
 1552 Fit      -0.002267
 1553 Fit      -0.001972
 1554 Fit      -0.000626
 1555 Fit       0.001530
 1556 Fit      -0.002116
 1557 Fit      -0.001182
 1558 Fit       0.001701
 1559 Fit       0.003760
 1560 Fit      -0.001397
 1561 Fit       0.000036
 1562 Fit       0.002767
 1563 Fit      -0.000483
 1564 Fit       0.002420
 1565 Fit       0.004905
 1566 Fit       0.002442
 1567 Fit      -0.001524
 1568 Fit       0.001062
 1569 Fit      -0.000051
 1570 Fit       0.003006
 1571 Fit       0.002408
 1572 Fit       0.001159
 1573 Fit      -0.000870
 1574 Fit       0.002637
 1575 Fit       0.002243
 1576 Fit       0.001163
 1577 Fit      -0.000659
 1578 Fit       0.001052
 1579 Fit       0.000576
 1580 Fit      -0.000761
 1581 Fit      -0.001264
 1582 Fit       0.000166
 1583 Fit       0.001601
 1584 Fit       0.003300
 1585 Fit      -0.001434
 1586 Fit      -0.000337
 1587 Fit       0.001073
 1588 Fit       0.002242
 1589 Fit       0.003154
 1590 Fit       0.000543
 1591 Fit       0.001516
 1592 Fit       0.002771
 1593 Fit       0.002430
 1594 Fit      -0.014772
 1595 Fit      -0.017806
 1596 Fit      -0.021000
 1597 Fit      -0.021514
 1598 Fit      -0.018319
 1599 Fit      -0.011128
 1600 Fit      -0.024617
 1601 Fit      -0.024098
 1602 Fit      -0.019658
 1603 Fit      -0.011210
 1604 Fit      -0.010271
 1605 Fit      -0.015360
 1606 Fit      -0.024606
 1607 Fit      -0.023311
 1608 Fit      -0.016130
 1609 Fit      -0.020233
 1610 Fit       0.016920
 1611 Fit       0.018492
 1612 Fit       0.013316
 1613 Fit       0.015934
 1614 Fit       0.015715
 1615 Fit       0.012066
 1616 Fit       0.007402
 1617 Fit       0.013164
 1618 Fit       0.011066
 1619 Fit       0.009407
 1620 Fit       0.002280
 1621 Fit      -0.001003
 1622 Fit       0.007721
 1623 Fit       0.002110
 1624 Fit      -0.014383
 1625 Fit      -0.005315
 1626 Fit      -0.005216
 1627 Fit      -0.017669
 1628 Fit      -0.020904
 1629 Fit      -0.014673
 1630 Fit      -0.015871
 1631 Fit      -0.022107
 1632 Fit      -0.024459
 1633 Fit      -0.021579
 1634 Fit      -0.013427
 1635 Fit      -0.021892
 1636 Fit      -0.025383
 1637 Fit      -0.024046
 1638 Fit      -0.017520
 1639 Fit      -0.006119
 1640 Fit      -0.016982
 1641 Fit      -0.022894
 1642 Fit      -0.024525
 1643 Fit      -0.021516
 1644 Fit      -0.013799
 1645 Fit      -0.019890
 1646 Fit      -0.020773
 1647 Fit      -0.015998
 1648 Fit      -0.005798
 1649 Fit      -0.008703
 1650 Fit       0.006668
 1651 Fit       0.005985
 1652 Fit       0.014581
 1653 Fit       0.016731
 1654 Fit       0.007952
 1655 Fit       0.018822
 1656 Fit       0.021879
 1657 Fit       0.003545
 1658 Fit       0.013004
 1659 Fit       0.020037
 1660 Fit       0.024158
 1661 Fit       0.003684
 1662 Fit       0.013615
 1663 Fit       0.009911
 1664 Fit       0.005179
 1665 Fit       0.003715
 1666 Fit       0.003434
 1667 Fit       0.001537
 1668 Fit       0.013611
 1669 Fit       0.006193
 1670 Fit       0.006617
 1671 Fit       0.005794
 1672 Fit       0.005218
 1673 Fit       0.003822
 1674 Fit       0.005208
 1675 Fit       0.004725
 1676 Fit       0.003381
 1677 Fit       0.002019
 1678 Fit       0.003862
 1679 Fit       0.003898
 1680 Fit       0.005244
 1681 Fit       0.005061
 1682 Fit       0.005578
 1683 Fit       0.005828
 1684 Fit       0.004774
 1685 Fit       0.004748
 1686 Fit       0.003690
 1687 Fit       0.005205
 1688 Fit       0.005229
 1689 Fit       0.004519
 1690 Fit       0.005389
 1691 Fit       0.005861
 1692 Fit      -0.021881
 1693 Fit      -0.012348
 1694 Fit      -0.008435
 1695 Fit      -0.002491
 1696 Fit      -0.004593
 1697 Fit      -0.008796
 1698 Fit      -0.005773
 1699 Fit      -0.009471
 1700 Fit      -0.018205
 1701 Fit      -0.007754
 1702 Fit      -0.011105
 1703 Fit      -0.016422
 1704 Fit      -0.010660
 1705 Fit       0.002758
 1706 Fit      -0.000971
 1707 Fit       0.000434
 1708 Fit      -0.005883
 1709 Fit      -0.004451
 1710 Fit      -0.002760
 1711 Fit      -0.010818
 1712 Fit      -0.007407
 1713 Fit       0.008191
 1714 Fit       0.005011
 1715 Fit       0.005919
 1716 Fit       0.006187
 1717 Fit       0.005309
 1718 Fit       0.006852
 1719 Fit       0.007959
 1720 Fit       0.006789
 1721 Fit       0.006858
 1722 Fit       0.008141
 1723 Fit       0.006116
 1724 Fit       0.005399
 1725 Fit       0.004929
 1726 Fit       0.005176
 1727 Fit       0.005815
 1728 Fit      -0.003010
 1729 Fit      -0.004561
 1730 Fit      -0.006314
 1731 Fit      -0.007222
 1732 Fit      -0.004976
 1733 Fit       0.000548
 1734 Fit       0.002390
 1735 Fit      -0.002197
 1736 Fit      -0.001281
 1737 Fit      -0.000074
 1738 Fit      -0.001736
 1739 Fit      -0.004822
 1740 Fit      -0.002780
 1741 Fit       0.001240
 1742 Fit      -0.000671
 1743 Fit       0.001222
 1744 Fit       0.001084
 1745 Fit       0.000071
 1746 Fit      -0.001884
 1747 Fit      -0.001452
 1748 Fit      -0.000531
 1749 Fit      -0.000892
 1750 Fit      -0.002714
 1751 Fit      -0.003258
 1752 Fit      -0.002533
 1753 Fit      -0.004304
 1754 Fit      -0.004813
 1755 Fit       0.003173
 1756 Fit      -0.000366
 1757 Fit       0.002995
 1758 Fit       0.001072
 1759 Fit      -0.001173
 1760 Fit       0.000139
 1761 Fit      -0.001691
 1762 Fit      -0.004195
 1763 Fit      -0.006757
 1764 Fit      -0.006197
 1765 Fit      -0.010613
 1766 Fit      -0.000089
 1767 Fit       0.000033
 1768 Fit       0.000975
 1769 Fit      -0.000822
 1770 Fit      -0.000470
 1771 Fit      -0.002021
 1772 Fit       0.003388
 1773 Fit       0.002048
 1774 Fit       0.000939
 1775 Fit       0.000298
 1776 Fit       0.001737
 1777 Fit       0.000422
 1778 Fit      -0.000481
 1779 Fit       0.003931
 1780 Fit       0.005329
 1781 Fit       0.006883
 1782 Fit       0.003941
 1783 Fit       0.005598
 1784 Fit       0.009992
 1785 Fit       0.003536
 1786 Fit       0.007176
 1787 Fit       0.001894
 1788 Fit       0.001390
 1789 Fit       0.002242
 1790 Fit       0.002301
 1791 Fit       0.002980
 1792 Fit       0.005526
 1793 Fit       0.004226
 1794 Fit       0.005044
 1795 Fit       0.005822
 1796 Fit       0.002641
 1797 Fit       0.003581
 1798 Fit       0.001799
 1799 Fit       0.006760
 1800 Fit       0.004907
 1801 Fit       0.005746
 1802 Fit       0.004770
 1803 Fit       0.004992
 1804 Fit       0.004733
 1805 Fit       0.004269
 1806 Fit       0.005767
 1807 Fit       0.005539
 1808 Fit       0.005014
 1809 Fit       0.006334
 1810 Fit       0.004967
 1811 Fit       0.006655
 1812 Fit       0.007705
 1813 Fit       0.007090
 1814 Fit       0.005975
 1815 Fit       0.008897
 1816 Fit       0.008925
 1817 Fit       0.008586
 1818 Fit       0.007585
 1819 Fit       0.005832
 1820 Fit      -0.001272
 1821 Fit      -0.003054
 1822 Fit      -0.003098
 1823 Fit      -0.002703
 1824 Fit      -0.002999
 1825 Fit       0.006882
 1826 Fit      -0.001205
 1827 Fit       0.001229
 1828 Fit      -0.003748
 1829 Fit      -0.001825
 1830 Fit       0.000437
 1831 Fit       0.002381
 1832 Fit       0.003549
 1833 Fit       0.003704
 1834 Fit      -0.006110
 1835 Fit      -0.002428
 1836 Fit      -0.000019
 1837 Fit       0.002058
 1838 Fit      -0.007370
 1839 Fit       0.007289
 1840 Fit       0.006372
 1841 Fit       0.007266
 1842 Fit       0.006044
 1843 Fit       0.005866
 1844 Fit       0.006659
 1845 Fit       0.008242
 1846 Fit       0.009043
 1847 Fit       0.009122
 1848 Fit       0.008198
 1849 Fit       0.007936
 1850 Fit       0.008508
 1851 Fit       0.008871
 1852 Fit       0.006826
 1853 Fit       0.007475
 1854 Fit       0.008142
 1855 Fit       0.006731
 1856 Fit       0.012768
 1857 Fit       0.009118
 1858 Fit       0.019473
 1859 Fit       0.010930
 1860 Fit       0.008039
 1861 Fit       0.015172
 1862 Fit       0.009178
 1863 Fit       0.012038
 1864 Fit       0.009559
 1865 Fit       0.007420
 1866 Fit       0.007056
 1867 Fit       0.007110
 1868 Fit       0.009489
 1869 Fit       0.009061
 1870 Fit       0.010862
 1871 Fit       0.010327
 1872 Fit       0.013199
 1873 Fit      -0.002059
 1874 Fit       0.003496
 1875 Fit       0.005078
 1876 Fit       0.003801
 1877 Fit      -0.007129
 1878 Fit      -0.010293
 1879 Fit      -0.010337
 1880 Fit      -0.005675
 1881 Fit      -0.000944
 1882 Fit      -0.001198
 1883 Fit      -0.001884
 1884 Fit      -0.001612
 1885 Fit       0.000116
 1886 Fit       0.002193
 1887 Fit       0.002314
 1888 Fit       0.003124
 1889 Fit       0.017157
 1890 Fit       0.016349
 1891 Fit       0.012075
 1892 Fit       0.006192
 1893 Fit       0.010049
 1894 Fit       0.008731
 1895 Fit       0.006486
 1896 Fit       0.005920
 1897 Fit       0.005847
 1898 Fit       0.002582
 1899 Fit       0.007112
 1900 Fit       0.006062
 1901 Fit       0.011970
 1902 Fit       0.009467
 1903 Fit       0.008007
 1904 Fit       0.016057
 1905 Fit       0.012209
 1906 Fit       0.009933
 1907 Fit       0.001683
 1908 Fit       0.001738
 1909 Fit       0.003819
 1910 Fit       0.004027
 1911 Fit       0.002152
 1912 Fit      -0.002031
 1913 Fit      -0.002833
 1914 Fit       0.005453
 1915 Fit       0.005797
 1916 Fit       0.005140
 1917 Fit       0.003831
 1918 Fit       0.001039
 1919 Fit      -0.004837
 1920 Fit      -0.013981
 1921 Fit       0.003814
 1922 Fit       0.000349
 1923 Fit      -0.000534
 1924 Fit       0.002913
 1925 Fit       0.002970
 1926 Fit       0.004170
 1927 Fit       0.001681
 1928 Fit       0.004795
 1929 Fit       0.001563
 1930 Fit      -0.000275
 1931 Fit       0.000575
 1932 Fit       0.000889
 1933 Fit      -0.000577
 1934 Fit       0.000675
 1935 Fit       0.001470
 1936 Fit       0.001869
 1937 Fit       0.001205
 1938 Fit       0.001982
 1939 Fit       0.002393
 1940 Fit       0.002053
 1941 Fit      -0.007289
 1942 Fit      -0.003839
 1943 Fit       0.002417
 1944 Fit      -0.002420
 1945 Fit      -0.010126
 1946 Fit       0.002206
 1947 Fit      -0.001649
 1948 Fit      -0.007373
 1949 Fit       0.002156
 1950 Fit      -0.000606
 1951 Fit      -0.004459
 1952 Fit      -0.010959
 1953 Fit      -0.001185
 1954 Fit      -0.002310
 1955 Fit      -0.001441
 1956 Fit      -0.001260
 1957 Fit      -0.001414
 1958 Fit      -0.001860
 1959 Fit      -0.001810
 1960 Fit      -0.001642
 1961 Fit      -0.002173
 1962 Fit      -0.001998
 1963 Fit      -0.001382
 1964 Fit      -0.001916
 1965 Fit      -0.001872
 1966 Fit       0.003639
 1967 Fit       0.003728
 1968 Fit       0.001693
 1969 Fit      -0.000562
 1970 Fit       0.002086
 1971 Fit       0.000904
 1972 Fit      -0.000576
 1973 Fit      -0.000464
 1974 Fit      -0.000182
 1975 Fit      -0.001004
 1976 Fit      -0.000089
 1977 Fit       0.001241
 1978 Fit       0.002222
 1979 Fit      -0.001398
 1980 Fit       0.000154
 1981 Fit       0.001292
 1982 Fit       0.001767
 1983 Fit       0.001423
 1984 Fit      -0.000745
 1985 Fit       0.000490
 1986 Fit       0.000832
 1987 Fit       0.000209
 1988 Fit      -0.001519
 1989 Fit      -0.000642
 1990 Fit      -0.001388
 1991 Fit       0.000597
 1992 Fit       0.001424
 1993 Fit      -0.000331
 1994 Fit       0.003114
 1995 Fit       0.001287
 1996 Fit      -0.000345
 1997 Fit      -0.001303
 1998 Fit      -0.001081
 1999 Fit       0.000394
 2000 Fit       0.001531
 2001 Fit       0.000947
 2002 Fit       0.003091
 2003 Fit       0.002338
 2004 Fit       0.002633
 2005 Fit       0.002064
 2006 Fit       0.001913
 2007 Fit       0.001831
 2008 Fit       0.001684
 2009 Fit       0.000805
 2010 Fit       0.000775
 2011 Fit      -0.000974
 2012 Fit       0.000710
 2013 Fit       0.001638
 2014 Fit       0.002441
 2015 Fit      -0.000422
 2016 Fit       0.000409
 2017 Fit       0.001437
 2018 Fit       0.000830
 2019 Fit       0.002258
 2020 Fit       0.002639
 2021 Fit       0.002331
 2022 Fit       0.002249
 2023 Fit       0.001934
 2024 Fit       0.001058
 2025 Fit       0.001531
 2026 Fit       0.001496
 2027 Fit       0.001023
 2028 Fit       0.000253
 2029 Fit       0.000112
 2030 Fit       0.000059
 2031 Fit       0.000922
 2032 Fit       0.000378
 2033 Fit       0.000694
 2034 Fit       0.000950
 2035 Fit       0.000673
 2036 Fit       0.000528
 2037 Fit       0.000857
 2038 Fit       0.001103
 2039 Fit       0.000958
 2040 Fit       0.000340
 2041 Fit       0.000596
 2042 Fit       0.000920
 2043 Fit       0.000644
 2044 Fit       0.000383
 2045 Fit      -0.001442
 2046 Fit      -0.001278
 2047 Fit      -0.000983
 2048 Fit      -0.001592
 2049 Fit      -0.001770
 2050 Fit      -0.001130
 2051 Fit      -0.000671
 2052 Fit      -0.001593
 2053 Fit      -0.001084
 2054 Fit      -0.000539
 2055 Fit      -0.000292
 2056 Fit       0.000969
 2057 Fit       0.002514
 2058 Fit       0.001289
 2059 Fit      -0.000426
 2060 Fit      -0.000881
 2061 Fit       0.000102
 2062 Fit       0.001907
 2063 Fit       0.002668
 2064 Fit       0.000736
 2065 Fit      -0.000057
 2066 Fit       0.002351
 2067 Fit       0.003023
 2068 Fit      -0.001260
 2069 Fit       0.000066
 2070 Fit      -0.000204
 2071 Fit      -0.000805
 2072 Fit       0.000679
 2073 Fit       0.001449
 2074 Fit       0.001241
 2075 Fit      -0.000245
 2076 Fit      -0.001070
 2077 Fit       0.000434
 2078 Fit       0.001593
 2079 Fit       0.002191
 2080 Fit       0.000068
 2081 Fit       0.001285
 2082 Fit       0.002071
 2083 Fit       0.000013
 2084 Fit       0.001080
 2085 Fit      -0.000167
 2086 Fit      -0.000306
 2087 Fit      -0.001228
 2088 Fit       0.000943
 2089 Fit       0.001303
 2090 Fit       0.001019
 2091 Fit       0.000043
 2092 Fit       0.001996
 2093 Fit       0.002233
 2094 Fit       0.001864
 2095 Fit       0.000850
 2096 Fit      -0.000533
 2097 Fit       0.002190
 2098 Fit       0.001117
 2099 Fit      -0.000156
 2100 Fit       0.001420
 2101 Fit      -0.001111
 2102 Fit      -0.000793
 2103 Fit      -0.000895
 2104 Fit      -0.001314
 2105 Fit      -0.001618
 2106 Fit      -0.001190
 2107 Fit       0.000357
 2108 Fit      -0.001546
 2109 Fit      -0.000382
 2110 Fit      -0.001198
 2111 Fit      -0.000567
 2112 Fit       0.001534
 2113 Fit       0.003163
 2114 Fit      -0.000668
 2115 Fit       0.000379
 2116 Fit       0.002374
 2117 Fit       0.003787
 2118 Fit       0.000168
 2119 Fit       0.002418
 2120 Fit       0.004242
 2121 Fit       0.000776
 2122 Fit       0.003565
 2123 Fit       0.000559
 2124 Fit      -0.000157
 2125 Fit       0.002231
 2126 Fit       0.001664
 2127 Fit       0.000729
 2128 Fit      -0.000640
 2129 Fit       0.002219
 2130 Fit       0.001628
 2131 Fit       0.000594
 2132 Fit      -0.000780
 2133 Fit       0.001723
 2134 Fit       0.001515
 2135 Fit       0.000948
 2136 Fit      -0.000097
 2137 Fit      -0.001408
 2138 Fit       0.000560
 2139 Fit      -0.000024
 2140 Fit      -0.001013
 2141 Fit      -0.000170
 2142 Fit       0.001496
 2143 Fit      -0.001128
 2144 Fit      -0.000203
 2145 Fit       0.000845
 2146 Fit       0.002089
 2147 Fit      -0.000647
 2148 Fit      -0.000027
 2149 Fit       0.000876
 2150 Fit       0.001724
 2151 Fit       0.002514
 2152 Fit       0.000631
 2153 Fit       0.001148
 2154 Fit       0.002071
 2155 Fit       0.001947
 -----------------------------------------------------------------
 Leave Link  602 at Thu May 18 13:14:25 2017, MaxMem=    33554432 cpu:         3.3
 (Enter /home/michal/g09/l9999.exe)

 Test job not archived.
 1\1\GINC-LINUX\SP\RHF\6-31G(d)\C27H46O2\MICHAL\18-May-2017\0\\#P HF/6-
 31G* SCF(Conver=6) NoSymm Test Pop=mk IOp(6/33=2) GFInput GFPrint\\MEP
  - Input generated by R.E.D.-III.x MOLECULE\\0,1\O,0,0.,0.,0.\H,0,0.96
 763451,0.,0.\O,0,1.61727239,-2.81566942,6.38607027\H,0,2.55504091,-2.5
 8770574,6.45525003\C,0,-1.19424069,4.08924757,1.6483526\C,0,-1.2768900
 1,2.60189308,1.19070316\H,0,-2.25149464,2.24184503,1.5623852\C,0,-0.23
 544442,1.66069931,1.8219526\H,0,0.77459319,1.95667005,1.50320395\C,0,-
 0.33156243,1.7402417,3.37253142\H,0,-1.31522512,1.31413509,3.63037207\
 C,0,-2.38934176,4.67052884,0.81537998\H,0,-3.28051148,4.21955759,1.273
 77081\C,0,-1.3706945,4.10280592,3.17780544\H,0,-2.38259921,3.75177043,
 3.42414638\H,0,-1.2840457,5.11887365,3.58060324\C,0,0.72199136,0.83713
 791,4.10440185\C,0,-1.39962177,2.6883209,-0.34264261\H,0,-1.86733738,1
 .79934416,-0.77192501\H,0,-0.40944785,2.7631764,-0.80450129\C,0,-0.336
 26617,3.20183594,3.87872095\H,0,0.65814833,3.64267294,3.75113739\H,0,-
 0.53670717,3.21548457,4.95573598\C,0,-2.22976588,3.98183357,-0.5766358
 6\H,0,-1.72601099,4.64184282,-1.29044356\H,0,-3.21420951,3.76383913,-1
 .005633\C,0,-0.44322159,0.20649211,1.35595112\H,0,-1.52171351,0.000254
 67,1.30311427\C,0,-2.72523879,6.18583295,0.70700868\H,0,-3.56841312,6.
 21120593,0.\C,0,0.15902752,4.73158611,1.26335208\H,0,1.00806525,4.1249
 71,1.58921162\H,0,0.25884234,4.86932445,0.18395194\H,0,0.26916053,5.71
 343005,1.7327276\C,0,0.76249932,-0.54963486,3.45284356\C,0,0.28250742,
 0.66236147,5.59210082\H,0,-0.78702639,0.41102784,5.60675508\H,0,0.3839
 939,1.61798021,6.11715492\C,0,0.20980599,-0.80327964,2.25757705\H,0,0.
 23842436,-1.81629482,1.85626901\C,0,2.1444198,1.45642235,4.05336191\H,
 0,2.20543805,2.36554406,4.65943471\H,0,2.89854371,0.76349687,4.4354344
 4\H,0,2.43014306,1.70980068,3.02785096\C,0,1.45292961,-1.65809038,4.22
 51062\H,0,1.32713354,-2.61478681,3.70876687\H,0,2.53662202,-1.46225815
 ,4.26860064\C,0,1.04296524,-0.42217411,6.37087901\H,0,2.1035187,-0.148
 8755,6.47545098\H,0,0.6395066,-0.50560329,7.38641084\C,0,-3.22947199,6
 .83278069,2.0206084\H,0,-2.414605,6.83169827,2.75590187\H,0,-3.4314772
 ,7.89264049,1.80752135\C,0,0.94480781,-1.77661947,5.66962965\H,0,-0.10
 378777,-2.09787326,5.65279357\C,0,-1.64413895,7.09656668,0.0903786\H,0
 ,-0.84180412,7.32223339,0.79907287\H,0,-2.09337831,8.0522369,-0.202996
 83\H,0,-1.18792558,6.66417344,-0.8048397\C,0,-4.49063089,6.2355742,2.6
 7515744\H,0,-4.30826608,5.19389856,2.96245304\H,0,-4.66007629,6.778939
 86,3.61345668\C,0,-5.75287802,6.32393873,1.80110412\H,0,-5.61177643,5.
 71901146,0.89557422\H,0,-5.86874495,7.36222166,1.45650624\C,0,-7.07895
 757,5.88281429,2.46552612\H,0,-7.85413966,5.99572867,1.69318023\C,0,-7
 .48451457,6.78427669,3.64357957\H,0,-6.79477343,6.68272629,4.48934269\
 H,0,-8.4850731,6.52278575,4.00656527\H,0,-7.50141424,7.84055398,3.3502
 7191\C,0,-7.06870721,4.4023737,2.881311\H,0,-6.36085978,4.21714688,3.6
 9753189\H,0,-8.05902776,4.08854089,3.23056085\H,0,-6.78998673,3.753796
 58,2.04239937\\Version=EM64L-G09RevD.01\HF=-1198.9194764\RMSD=5.131e-0
 7\Dipole=0.6187213,0.7518179,0.3789988\Quadrupole=7.1610619,-4.7981828
 ,-2.3628791,-0.6063259,3.5068023,9.1116029\PG=C01 [X(C27H46O2)]\\@


 IF IT HAPPENS, IT MUST BE POSSIBLE.

 -- THE UNNAMED LAW FROM PAUL DICKSON'S 
    "THE OFFICIAL RULES"
 Job cpu time:       0 days  0 hours 11 minutes 34.2 seconds.
 File lengths (MBytes):  RWF=    150 Int=      0 D2E=      0 Chk=     11 Scr=      1
 Normal termination of Gaussian 09 at Thu May 18 13:14:25 2017.
