 Entering Gaussian System, Link 0=/home/michal/g09/g09
 Input=JOB2-gau_m1-14-2.com
 Output=JOB2-gau_m1-14-2.log
 Initial command:
 /home/michal/g09/l1.exe "/home/michal/gauss_scratch/Gau-25614.inp" -scrdir="/home/michal/gauss_scratch/"
 Entering Link 1 = /home/michal/g09/l1.exe PID=     25615.
  
 Copyright (c) 1988,1990,1992,1993,1995,1998,2003,2009,2013,
            Gaussian, Inc.  All Rights Reserved.
  
 This is part of the Gaussian(R) 09 program.  It is based on
 the Gaussian(R) 03 system (copyright 2003, Gaussian, Inc.),
 the Gaussian(R) 98 system (copyright 1998, Gaussian, Inc.),
 the Gaussian(R) 94 system (copyright 1995, Gaussian, Inc.),
 the Gaussian 92(TM) system (copyright 1992, Gaussian, Inc.),
 the Gaussian 90(TM) system (copyright 1990, Gaussian, Inc.),
 the Gaussian 88(TM) system (copyright 1988, Gaussian, Inc.),
 the Gaussian 86(TM) system (copyright 1986, Carnegie Mellon
 University), and the Gaussian 82(TM) system (copyright 1983,
 Carnegie Mellon University). Gaussian is a federally registered
 trademark of Gaussian, Inc.
  
 This software contains proprietary and confidential information,
 including trade secrets, belonging to Gaussian, Inc.
  
 This software is provided under written license and may be
 used, copied, transmitted, or stored only in accord with that
 written license.
  
 The following legend is applicable only to US Government
 contracts under FAR:
  
                    RESTRICTED RIGHTS LEGEND
  
 Use, reproduction and disclosure by the US Government is
 subject to restrictions as set forth in subparagraphs (a)
 and (c) of the Commercial Computer Software - Restricted
 Rights clause in FAR 52.227-19.
  
 Gaussian, Inc.
 340 Quinnipiac St., Bldg. 40, Wallingford CT 06492
  
  
 ---------------------------------------------------------------
 Warning -- This program may not be used in any manner that
 competes with the business of Gaussian, Inc. or will provide
 assistance to any competitor of Gaussian, Inc.  The licensee
 of this program is prohibited from giving any competitor of
 Gaussian, Inc. access to this program.  By using this program,
 the user acknowledges that Gaussian, Inc. is engaged in the
 business of creating and licensing software in the field of
 computational chemistry and represents and warrants to the
 licensee that it is not a competitor of Gaussian, Inc. and that
 it will not use this program in any manner prohibited above.
 ---------------------------------------------------------------
  

 Cite this work as:
 Gaussian 09, Revision D.01,
 M. J. Frisch, G. W. Trucks, H. B. Schlegel, G. E. Scuseria, 
 M. A. Robb, J. R. Cheeseman, G. Scalmani, V. Barone, B. Mennucci, 
 G. A. Petersson, H. Nakatsuji, M. Caricato, X. Li, H. P. Hratchian, 
 A. F. Izmaylov, J. Bloino, G. Zheng, J. L. Sonnenberg, M. Hada, 
 M. Ehara, K. Toyota, R. Fukuda, J. Hasegawa, M. Ishida, T. Nakajima, 
 Y. Honda, O. Kitao, H. Nakai, T. Vreven, J. A. Montgomery, Jr., 
 J. E. Peralta, F. Ogliaro, M. Bearpark, J. J. Heyd, E. Brothers, 
 K. N. Kudin, V. N. Staroverov, T. Keith, R. Kobayashi, J. Normand, 
 K. Raghavachari, A. Rendell, J. C. Burant, S. S. Iyengar, J. Tomasi, 
 M. Cossi, N. Rega, J. M. Millam, M. Klene, J. E. Knox, J. B. Cross, 
 V. Bakken, C. Adamo, J. Jaramillo, R. Gomperts, R. E. Stratmann, 
 O. Yazyev, A. J. Austin, R. Cammi, C. Pomelli, J. W. Ochterski, 
 R. L. Martin, K. Morokuma, V. G. Zakrzewski, G. A. Voth, 
 P. Salvador, J. J. Dannenberg, S. Dapprich, A. D. Daniels, 
 O. Farkas, J. B. Foresman, J. V. Ortiz, J. Cioslowski, 
 and D. J. Fox, Gaussian, Inc., Wallingford CT, 2013.
 
 ******************************************
 Gaussian 09:  EM64L-G09RevD.01 24-Apr-2013
                18-May-2017 
 ******************************************
 %Mem=256MB
 %NProc=12
 Will use up to   12 processors via shared memory.
 ----------------------------------------------------------------------
 #P HF/6-31G* SCF(Conver=6) NoSymm Test Pop=mk IOp(6/33=2) GFInput GFPr
 int
 ----------------------------------------------------------------------
 1/38=1/1;
 2/12=2,15=1,17=6,18=5,40=1/2;
 3/5=1,6=6,7=1,11=9,16=1,24=110,25=1,30=1/1,2,3;
 4//1;
 5/5=2,6=6,38=5/2;
 6/7=2,8=2,9=2,10=2,15=8,20=1,28=1,33=2/1,2;
 99/5=1,9=1/99;
 Leave Link    1 at Thu May 18 13:10:36 2017, MaxMem=    33554432 cpu:         0.6
 (Enter /home/michal/g09/l101.exe)
 ----------------------------------------------
 MEP - Input generated by R.E.D.-III.x MOLECULE
 ----------------------------------------------
 Symbolic Z-matrix:
 Charge =  0 Multiplicity = 1
 O                     7.12814   0.77977   0. 
 H                     7.70109   0.        0. 
 O                     10.33915   1.1229   -6.39531 
 H                     10.70896   0.23136  -6.46279 
 C                     3.11948  -0.67852  -1.63391 
 C                     4.27105   0.26999  -1.18322 
 H                     3.98425   1.26687  -1.55971 
 C                     5.64457  -0.01639  -1.816 
 H                     6.00305  -1.0052   -1.49476 
 C                     5.52023   0.00931  -3.36625 
 H                     5.28083   1.05355  -3.62678 
 C                     1.94554  -0.05388  -0.80276 
 H                     1.77811   0.9267   -1.26899 
 C                     3.001    -0.55051  -3.16378 
 H                     2.68381   0.47179  -3.41333 
 H                     2.23313  -1.22406  -3.56226 
 C                     6.86969  -0.30759  -4.10084 
 C                     4.13124   0.32677   0.34972 
 H                     4.57592   1.23004   0.77364 
 H                     4.6533   -0.51577   0.81552 
 C                     4.33791  -0.85362  -3.86654 
 H                     4.57116  -1.91559  -3.73508 
 H                     4.20586  -0.70452  -4.94388 
 C                     2.59715   0.23914   0.58569 
 H                     2.36096  -0.54693   1.31024 
 H                     2.19427   1.1689    1.00268 
 C                     6.69591   1.01204  -1.35531 
 H                     6.22478   2.00393  -1.30357 
 C                     0.5264   -0.6826   -0.68741 
 H                     0.        0.        0. 
 C                     3.40175  -2.14795  -1.24302 
 H                     4.38993  -2.47768  -1.57458 
 H                     3.35725  -2.30391  -0.16237 
 H                     2.67015  -2.81831  -1.70343 
 C                     8.0133    0.48178  -3.45432 
 C                     6.74661   0.14662  -5.58922 
 H                     6.31727   1.15789  -5.60508 
 H                     6.03423  -0.50127  -6.11071 
 C                     7.89397   1.08049  -2.26027 
 H                     8.72871   1.65769  -1.86263 
 C                     7.2123   -1.82057  -4.047 
 H                     6.5132   -2.40928  -4.64884 
 H                     8.21567  -2.01968  -4.43237 
 H                     7.18088  -2.19792  -3.02028 
 C                     9.3135    0.57839  -4.23002 
 H                     10.01178   1.24716  -3.71734 
 H                     9.79639  -0.41142  -4.27159 
 C                     8.06882   0.17221  -6.37168 
 H                     8.47486  -0.84511  -6.47442 
 H                     7.89496   0.54412  -7.38779 
 C                    -0.29555  -0.67848  -1.99846 
 H                     0.19681  -1.31221  -2.74808 
 H                    -1.25611  -1.169    -1.78429 
 C                     9.10531   1.05382  -5.67562 
 H                     8.745     2.08969  -5.66124 
 C                     0.43574  -2.08052  -0.04228 
 H                     0.7284   -2.87358  -0.7366 
 H                    -0.59946  -2.28002   0.25719 
 H                     1.05644  -2.17471   0.85336 
 C                    -0.59536   0.70015  -2.60765 
 H                    -1.0369    1.34019  -1.8316 
 H                     0.33707   1.18616  -2.91552 
 C                    -1.54692   0.60799  -3.81189 
 H                    -2.4765    0.11785  -3.48815 
 H                    -1.09939  -0.05972  -4.56249 
 C                    -1.91698   1.93942  -4.50622 
 H                    -2.59874   1.67154  -5.32703 
 C                    -0.70168   2.63681  -5.13984 
 H                     0.00224   2.99365  -4.37914 
 H                    -1.01463   3.50709  -5.72799 
 H                    -0.15717   1.96008  -5.80894 
 C                    -2.68211   2.89825  -3.57889 
 H                    -2.04791   3.26381  -2.76304 
 H                    -3.03892   3.77426  -4.1325 
 H                    -3.55465   2.40856  -3.13061 
 
 NAtoms=     75 NQM=       75 NQMF=       0 NMMI=      0 NMMIF=      0
                NMic=       0 NMicF=      0.
                    Isotopes and Nuclear Properties:
 (Nuclear quadrupole moments (NQMom) in fm**2, nuclear magnetic moments (NMagM)
  in nuclear magnetons)

  Atom         1           2           3           4           5           6           7           8           9          10
 IAtWgt=          16           1          16           1          12          12           1          12           1          12
 AtmWgt=  15.9949146   1.0078250  15.9949146   1.0078250  12.0000000  12.0000000   1.0078250  12.0000000   1.0078250  12.0000000
 NucSpn=           0           1           0           1           0           0           1           0           1           0
 AtZEff=   0.0000000   0.0000000   0.0000000   0.0000000   0.0000000   0.0000000   0.0000000   0.0000000   0.0000000   0.0000000
 NQMom=    0.0000000   0.0000000   0.0000000   0.0000000   0.0000000   0.0000000   0.0000000   0.0000000   0.0000000   0.0000000
 NMagM=    0.0000000   2.7928460   0.0000000   2.7928460   0.0000000   0.0000000   2.7928460   0.0000000   2.7928460   0.0000000
 AtZNuc=   8.0000000   1.0000000   8.0000000   1.0000000   6.0000000   6.0000000   1.0000000   6.0000000   1.0000000   6.0000000

  Atom        11          12          13          14          15          16          17          18          19          20
 IAtWgt=           1          12           1          12           1           1          12          12           1           1
 AtmWgt=   1.0078250  12.0000000   1.0078250  12.0000000   1.0078250   1.0078250  12.0000000  12.0000000   1.0078250   1.0078250
 NucSpn=           1           0           1           0           1           1           0           0           1           1
 AtZEff=   0.0000000   0.0000000   0.0000000   0.0000000   0.0000000   0.0000000   0.0000000   0.0000000   0.0000000   0.0000000
 NQMom=    0.0000000   0.0000000   0.0000000   0.0000000   0.0000000   0.0000000   0.0000000   0.0000000   0.0000000   0.0000000
 NMagM=    2.7928460   0.0000000   2.7928460   0.0000000   2.7928460   2.7928460   0.0000000   0.0000000   2.7928460   2.7928460
 AtZNuc=   1.0000000   6.0000000   1.0000000   6.0000000   1.0000000   1.0000000   6.0000000   6.0000000   1.0000000   1.0000000

  Atom        21          22          23          24          25          26          27          28          29          30
 IAtWgt=          12           1           1          12           1           1          12           1          12           1
 AtmWgt=  12.0000000   1.0078250   1.0078250  12.0000000   1.0078250   1.0078250  12.0000000   1.0078250  12.0000000   1.0078250
 NucSpn=           0           1           1           0           1           1           0           1           0           1
 AtZEff=   0.0000000   0.0000000   0.0000000   0.0000000   0.0000000   0.0000000   0.0000000   0.0000000   0.0000000   0.0000000
 NQMom=    0.0000000   0.0000000   0.0000000   0.0000000   0.0000000   0.0000000   0.0000000   0.0000000   0.0000000   0.0000000
 NMagM=    0.0000000   2.7928460   2.7928460   0.0000000   2.7928460   2.7928460   0.0000000   2.7928460   0.0000000   2.7928460
 AtZNuc=   6.0000000   1.0000000   1.0000000   6.0000000   1.0000000   1.0000000   6.0000000   1.0000000   6.0000000   1.0000000

  Atom        31          32          33          34          35          36          37          38          39          40
 IAtWgt=          12           1           1           1          12          12           1           1          12           1
 AtmWgt=  12.0000000   1.0078250   1.0078250   1.0078250  12.0000000  12.0000000   1.0078250   1.0078250  12.0000000   1.0078250
 NucSpn=           0           1           1           1           0           0           1           1           0           1
 AtZEff=   0.0000000   0.0000000   0.0000000   0.0000000   0.0000000   0.0000000   0.0000000   0.0000000   0.0000000   0.0000000
 NQMom=    0.0000000   0.0000000   0.0000000   0.0000000   0.0000000   0.0000000   0.0000000   0.0000000   0.0000000   0.0000000
 NMagM=    0.0000000   2.7928460   2.7928460   2.7928460   0.0000000   0.0000000   2.7928460   2.7928460   0.0000000   2.7928460
 AtZNuc=   6.0000000   1.0000000   1.0000000   1.0000000   6.0000000   6.0000000   1.0000000   1.0000000   6.0000000   1.0000000

  Atom        41          42          43          44          45          46          47          48          49          50
 IAtWgt=          12           1           1           1          12           1           1          12           1           1
 AtmWgt=  12.0000000   1.0078250   1.0078250   1.0078250  12.0000000   1.0078250   1.0078250  12.0000000   1.0078250   1.0078250
 NucSpn=           0           1           1           1           0           1           1           0           1           1
 AtZEff=   0.0000000   0.0000000   0.0000000   0.0000000   0.0000000   0.0000000   0.0000000   0.0000000   0.0000000   0.0000000
 NQMom=    0.0000000   0.0000000   0.0000000   0.0000000   0.0000000   0.0000000   0.0000000   0.0000000   0.0000000   0.0000000
 NMagM=    0.0000000   2.7928460   2.7928460   2.7928460   0.0000000   2.7928460   2.7928460   0.0000000   2.7928460   2.7928460
 AtZNuc=   6.0000000   1.0000000   1.0000000   1.0000000   6.0000000   1.0000000   1.0000000   6.0000000   1.0000000   1.0000000

  Atom        51          52          53          54          55          56          57          58          59          60
 IAtWgt=          12           1           1          12           1          12           1           1           1          12
 AtmWgt=  12.0000000   1.0078250   1.0078250  12.0000000   1.0078250  12.0000000   1.0078250   1.0078250   1.0078250  12.0000000
 NucSpn=           0           1           1           0           1           0           1           1           1           0
 AtZEff=   0.0000000   0.0000000   0.0000000   0.0000000   0.0000000   0.0000000   0.0000000   0.0000000   0.0000000   0.0000000
 NQMom=    0.0000000   0.0000000   0.0000000   0.0000000   0.0000000   0.0000000   0.0000000   0.0000000   0.0000000   0.0000000
 NMagM=    0.0000000   2.7928460   2.7928460   0.0000000   2.7928460   0.0000000   2.7928460   2.7928460   2.7928460   0.0000000
 AtZNuc=   6.0000000   1.0000000   1.0000000   6.0000000   1.0000000   6.0000000   1.0000000   1.0000000   1.0000000   6.0000000

  Atom        61          62          63          64          65          66          67          68          69          70
 IAtWgt=           1           1          12           1           1          12           1          12           1           1
 AtmWgt=   1.0078250   1.0078250  12.0000000   1.0078250   1.0078250  12.0000000   1.0078250  12.0000000   1.0078250   1.0078250
 NucSpn=           1           1           0           1           1           0           1           0           1           1
 AtZEff=   0.0000000   0.0000000   0.0000000   0.0000000   0.0000000   0.0000000   0.0000000   0.0000000   0.0000000   0.0000000
 NQMom=    0.0000000   0.0000000   0.0000000   0.0000000   0.0000000   0.0000000   0.0000000   0.0000000   0.0000000   0.0000000
 NMagM=    2.7928460   2.7928460   0.0000000   2.7928460   2.7928460   0.0000000   2.7928460   0.0000000   2.7928460   2.7928460
 AtZNuc=   1.0000000   1.0000000   6.0000000   1.0000000   1.0000000   6.0000000   1.0000000   6.0000000   1.0000000   1.0000000

  Atom        71          72          73          74          75
 IAtWgt=           1          12           1           1           1
 AtmWgt=   1.0078250  12.0000000   1.0078250   1.0078250   1.0078250
 NucSpn=           1           0           1           1           1
 AtZEff=   0.0000000   0.0000000   0.0000000   0.0000000   0.0000000
 NQMom=    0.0000000   0.0000000   0.0000000   0.0000000   0.0000000
 NMagM=    2.7928460   0.0000000   2.7928460   2.7928460   2.7928460
 AtZNuc=   1.0000000   6.0000000   1.0000000   1.0000000   1.0000000
 Leave Link  101 at Thu May 18 13:10:36 2017, MaxMem=    33554432 cpu:         1.0
 (Enter /home/michal/g09/l202.exe)
 Symmetry turned off by external request.
 Stoichiometry    C27H46O2
 Framework group  C1[X(C27H46O2)]
 Deg. of freedom   219
 Full point group                 C1      NOp   1
                          Input orientation:                          
 ---------------------------------------------------------------------
 Center     Atomic      Atomic             Coordinates (Angstroms)
 Number     Number       Type             X           Y           Z
 ---------------------------------------------------------------------
      1          8           0        7.128143    0.779768    0.000000
      2          1           0        7.701092    0.000000    0.000000
      3          8           0       10.339150    1.122904   -6.395312
      4          1           0       10.708958    0.231359   -6.462793
      5          6           0        3.119478   -0.678524   -1.633905
      6          6           0        4.271051    0.269988   -1.183220
      7          1           0        3.984248    1.266869   -1.559706
      8          6           0        5.644566   -0.016394   -1.815997
      9          1           0        6.003054   -1.005204   -1.494765
     10          6           0        5.520226    0.009307   -3.366249
     11          1           0        5.280833    1.053551   -3.626780
     12          6           0        1.945540   -0.053879   -0.802759
     13          1           0        1.778107    0.926703   -1.268994
     14          6           0        3.001000   -0.550510   -3.163778
     15          1           0        2.683806    0.471790   -3.413331
     16          1           0        2.233130   -1.224061   -3.562257
     17          6           0        6.869691   -0.307588   -4.100840
     18          6           0        4.131238    0.326771    0.349717
     19          1           0        4.575920    1.230036    0.773644
     20          1           0        4.653300   -0.515770    0.815525
     21          6           0        4.337915   -0.853618   -3.866539
     22          1           0        4.571162   -1.915594   -3.735083
     23          1           0        4.205857   -0.704523   -4.943876
     24          6           0        2.597148    0.239136    0.585693
     25          1           0        2.360963   -0.546934    1.310244
     26          1           0        2.194267    1.168901    1.002685
     27          6           0        6.695912    1.012042   -1.355313
     28          1           0        6.224778    2.003928   -1.303567
     29          6           0        0.526404   -0.682599   -0.687413
     30          1           0        0.000000    0.000000    0.000000
     31          6           0        3.401750   -2.147949   -1.243015
     32          1           0        4.389930   -2.477681   -1.574582
     33          1           0        3.357246   -2.303912   -0.162368
     34          1           0        2.670148   -2.818305   -1.703434
     35          6           0        8.013295    0.481782   -3.454317
     36          6           0        6.746608    0.146618   -5.589218
     37          1           0        6.317266    1.157893   -5.605080
     38          1           0        6.034232   -0.501270   -6.110707
     39          6           0        7.893967    1.080487   -2.260272
     40          1           0        8.728706    1.657685   -1.862627
     41          6           0        7.212304   -1.820571   -4.047004
     42          1           0        6.513196   -2.409277   -4.648844
     43          1           0        8.215668   -2.019680   -4.432369
     44          1           0        7.180879   -2.197915   -3.020275
     45          6           0        9.313499    0.578386   -4.230019
     46          1           0       10.011785    1.247165   -3.717342
     47          1           0        9.796385   -0.411417   -4.271591
     48          6           0        8.068822    0.172208   -6.371679
     49          1           0        8.474859   -0.845108   -6.474417
     50          1           0        7.894959    0.544119   -7.387793
     51          6           0       -0.295550   -0.678485   -1.998461
     52          1           0        0.196810   -1.312209   -2.748076
     53          1           0       -1.256111   -1.169000   -1.784293
     54          6           0        9.105308    1.053823   -5.675618
     55          1           0        8.745004    2.089693   -5.661242
     56          6           0        0.435744   -2.080522   -0.042284
     57          1           0        0.728401   -2.873577   -0.736602
     58          1           0       -0.599461   -2.280022    0.257193
     59          1           0        1.056435   -2.174707    0.853358
     60          6           0       -0.595358    0.700149   -2.607649
     61          1           0       -1.036895    1.340192   -1.831604
     62          1           0        0.337075    1.186165   -2.915522
     63          6           0       -1.546921    0.607995   -3.811891
     64          1           0       -2.476499    0.117852   -3.488150
     65          1           0       -1.099386   -0.059715   -4.562489
     66          6           0       -1.916985    1.939421   -4.506221
     67          1           0       -2.598738    1.671538   -5.327026
     68          6           0       -0.701685    2.636813   -5.139837
     69          1           0        0.002243    2.993654   -4.379140
     70          1           0       -1.014627    3.507087   -5.727989
     71          1           0       -0.157170    1.960076   -5.808939
     72          6           0       -2.682106    2.898246   -3.578890
     73          1           0       -2.047906    3.263805   -2.763040
     74          1           0       -3.038920    3.774262   -4.132501
     75          1           0       -3.554652    2.408559   -3.130606
 ---------------------------------------------------------------------
 Rotational constants (GHZ):      0.2360528      0.0794142      0.0671486
 Leave Link  202 at Thu May 18 13:10:36 2017, MaxMem=    33554432 cpu:         0.0
 (Enter /home/michal/g09/l301.exe)
 Standard basis: 6-31G(d) (6D, 7F)
 Ernie: Thresh=  0.10000D-02 Tol=  0.10000D-05 Strict=F.
 AO basis set in the form of general basis input (Overlap normalization):
      1 0
 S   6 1.00       0.000000000000
      0.5484671660D+04  0.1831074430D-02
      0.8252349460D+03  0.1395017220D-01
      0.1880469580D+03  0.6844507810D-01
      0.5296450000D+02  0.2327143360D+00
      0.1689757040D+02  0.4701928980D+00
      0.5799635340D+01  0.3585208530D+00
 SP   3 1.00       0.000000000000
      0.1553961625D+02 -0.1107775495D+00  0.7087426823D-01
      0.3599933586D+01 -0.1480262627D+00  0.3397528391D+00
      0.1013761750D+01  0.1130767015D+01  0.7271585773D+00
 SP   1 1.00       0.000000000000
      0.2700058226D+00  0.1000000000D+01  0.1000000000D+01
 D   1 1.00       0.000000000000
      0.8000000000D+00  0.1000000000D+01
 ****
      2 0
 S   3 1.00       0.000000000000
      0.1873113696D+02  0.3349460434D-01
      0.2825394365D+01  0.2347269535D+00
      0.6401216923D+00  0.8137573261D+00
 S   1 1.00       0.000000000000
      0.1612777588D+00  0.1000000000D+01
 ****
      3 0
 S   6 1.00       0.000000000000
      0.5484671660D+04  0.1831074430D-02
      0.8252349460D+03  0.1395017220D-01
      0.1880469580D+03  0.6844507810D-01
      0.5296450000D+02  0.2327143360D+00
      0.1689757040D+02  0.4701928980D+00
      0.5799635340D+01  0.3585208530D+00
 SP   3 1.00       0.000000000000
      0.1553961625D+02 -0.1107775495D+00  0.7087426823D-01
      0.3599933586D+01 -0.1480262627D+00  0.3397528391D+00
      0.1013761750D+01  0.1130767015D+01  0.7271585773D+00
 SP   1 1.00       0.000000000000
      0.2700058226D+00  0.1000000000D+01  0.1000000000D+01
 D   1 1.00       0.000000000000
      0.8000000000D+00  0.1000000000D+01
 ****
      4 0
 S   3 1.00       0.000000000000
      0.1873113696D+02  0.3349460434D-01
      0.2825394365D+01  0.2347269535D+00
      0.6401216923D+00  0.8137573261D+00
 S   1 1.00       0.000000000000
      0.1612777588D+00  0.1000000000D+01
 ****
      5 0
 S   6 1.00       0.000000000000
      0.3047524880D+04  0.1834737132D-02
      0.4573695180D+03  0.1403732281D-01
      0.1039486850D+03  0.6884262226D-01
      0.2921015530D+02  0.2321844432D+00
      0.9286662960D+01  0.4679413484D+00
      0.3163926960D+01  0.3623119853D+00
 SP   3 1.00       0.000000000000
      0.7868272350D+01 -0.1193324198D+00  0.6899906659D-01
      0.1881288540D+01 -0.1608541517D+00  0.3164239610D+00
      0.5442492580D+00  0.1143456438D+01  0.7443082909D+00
 SP   1 1.00       0.000000000000
      0.1687144782D+00  0.1000000000D+01  0.1000000000D+01
 D   1 1.00       0.000000000000
      0.8000000000D+00  0.1000000000D+01
 ****
      6 0
 S   6 1.00       0.000000000000
      0.3047524880D+04  0.1834737132D-02
      0.4573695180D+03  0.1403732281D-01
      0.1039486850D+03  0.6884262226D-01
      0.2921015530D+02  0.2321844432D+00
      0.9286662960D+01  0.4679413484D+00
      0.3163926960D+01  0.3623119853D+00
 SP   3 1.00       0.000000000000
      0.7868272350D+01 -0.1193324198D+00  0.6899906659D-01
      0.1881288540D+01 -0.1608541517D+00  0.3164239610D+00
      0.5442492580D+00  0.1143456438D+01  0.7443082909D+00
 SP   1 1.00       0.000000000000
      0.1687144782D+00  0.1000000000D+01  0.1000000000D+01
 D   1 1.00       0.000000000000
      0.8000000000D+00  0.1000000000D+01
 ****
      7 0
 S   3 1.00       0.000000000000
      0.1873113696D+02  0.3349460434D-01
      0.2825394365D+01  0.2347269535D+00
      0.6401216923D+00  0.8137573261D+00
 S   1 1.00       0.000000000000
      0.1612777588D+00  0.1000000000D+01
 ****
      8 0
 S   6 1.00       0.000000000000
      0.3047524880D+04  0.1834737132D-02
      0.4573695180D+03  0.1403732281D-01
      0.1039486850D+03  0.6884262226D-01
      0.2921015530D+02  0.2321844432D+00
      0.9286662960D+01  0.4679413484D+00
      0.3163926960D+01  0.3623119853D+00
 SP   3 1.00       0.000000000000
      0.7868272350D+01 -0.1193324198D+00  0.6899906659D-01
      0.1881288540D+01 -0.1608541517D+00  0.3164239610D+00
      0.5442492580D+00  0.1143456438D+01  0.7443082909D+00
 SP   1 1.00       0.000000000000
      0.1687144782D+00  0.1000000000D+01  0.1000000000D+01
 D   1 1.00       0.000000000000
      0.8000000000D+00  0.1000000000D+01
 ****
      9 0
 S   3 1.00       0.000000000000
      0.1873113696D+02  0.3349460434D-01
      0.2825394365D+01  0.2347269535D+00
      0.6401216923D+00  0.8137573261D+00
 S   1 1.00       0.000000000000
      0.1612777588D+00  0.1000000000D+01
 ****
     10 0
 S   6 1.00       0.000000000000
      0.3047524880D+04  0.1834737132D-02
      0.4573695180D+03  0.1403732281D-01
      0.1039486850D+03  0.6884262226D-01
      0.2921015530D+02  0.2321844432D+00
      0.9286662960D+01  0.4679413484D+00
      0.3163926960D+01  0.3623119853D+00
 SP   3 1.00       0.000000000000
      0.7868272350D+01 -0.1193324198D+00  0.6899906659D-01
      0.1881288540D+01 -0.1608541517D+00  0.3164239610D+00
      0.5442492580D+00  0.1143456438D+01  0.7443082909D+00
 SP   1 1.00       0.000000000000
      0.1687144782D+00  0.1000000000D+01  0.1000000000D+01
 D   1 1.00       0.000000000000
      0.8000000000D+00  0.1000000000D+01
 ****
     11 0
 S   3 1.00       0.000000000000
      0.1873113696D+02  0.3349460434D-01
      0.2825394365D+01  0.2347269535D+00
      0.6401216923D+00  0.8137573261D+00
 S   1 1.00       0.000000000000
      0.1612777588D+00  0.1000000000D+01
 ****
     12 0
 S   6 1.00       0.000000000000
      0.3047524880D+04  0.1834737132D-02
      0.4573695180D+03  0.1403732281D-01
      0.1039486850D+03  0.6884262226D-01
      0.2921015530D+02  0.2321844432D+00
      0.9286662960D+01  0.4679413484D+00
      0.3163926960D+01  0.3623119853D+00
 SP   3 1.00       0.000000000000
      0.7868272350D+01 -0.1193324198D+00  0.6899906659D-01
      0.1881288540D+01 -0.1608541517D+00  0.3164239610D+00
      0.5442492580D+00  0.1143456438D+01  0.7443082909D+00
 SP   1 1.00       0.000000000000
      0.1687144782D+00  0.1000000000D+01  0.1000000000D+01
 D   1 1.00       0.000000000000
      0.8000000000D+00  0.1000000000D+01
 ****
     13 0
 S   3 1.00       0.000000000000
      0.1873113696D+02  0.3349460434D-01
      0.2825394365D+01  0.2347269535D+00
      0.6401216923D+00  0.8137573261D+00
 S   1 1.00       0.000000000000
      0.1612777588D+00  0.1000000000D+01
 ****
     14 0
 S   6 1.00       0.000000000000
      0.3047524880D+04  0.1834737132D-02
      0.4573695180D+03  0.1403732281D-01
      0.1039486850D+03  0.6884262226D-01
      0.2921015530D+02  0.2321844432D+00
      0.9286662960D+01  0.4679413484D+00
      0.3163926960D+01  0.3623119853D+00
 SP   3 1.00       0.000000000000
      0.7868272350D+01 -0.1193324198D+00  0.6899906659D-01
      0.1881288540D+01 -0.1608541517D+00  0.3164239610D+00
      0.5442492580D+00  0.1143456438D+01  0.7443082909D+00
 SP   1 1.00       0.000000000000
      0.1687144782D+00  0.1000000000D+01  0.1000000000D+01
 D   1 1.00       0.000000000000
      0.8000000000D+00  0.1000000000D+01
 ****
     15 0
 S   3 1.00       0.000000000000
      0.1873113696D+02  0.3349460434D-01
      0.2825394365D+01  0.2347269535D+00
      0.6401216923D+00  0.8137573261D+00
 S   1 1.00       0.000000000000
      0.1612777588D+00  0.1000000000D+01
 ****
     16 0
 S   3 1.00       0.000000000000
      0.1873113696D+02  0.3349460434D-01
      0.2825394365D+01  0.2347269535D+00
      0.6401216923D+00  0.8137573261D+00
 S   1 1.00       0.000000000000
      0.1612777588D+00  0.1000000000D+01
 ****
     17 0
 S   6 1.00       0.000000000000
      0.3047524880D+04  0.1834737132D-02
      0.4573695180D+03  0.1403732281D-01
      0.1039486850D+03  0.6884262226D-01
      0.2921015530D+02  0.2321844432D+00
      0.9286662960D+01  0.4679413484D+00
      0.3163926960D+01  0.3623119853D+00
 SP   3 1.00       0.000000000000
      0.7868272350D+01 -0.1193324198D+00  0.6899906659D-01
      0.1881288540D+01 -0.1608541517D+00  0.3164239610D+00
      0.5442492580D+00  0.1143456438D+01  0.7443082909D+00
 SP   1 1.00       0.000000000000
      0.1687144782D+00  0.1000000000D+01  0.1000000000D+01
 D   1 1.00       0.000000000000
      0.8000000000D+00  0.1000000000D+01
 ****
     18 0
 S   6 1.00       0.000000000000
      0.3047524880D+04  0.1834737132D-02
      0.4573695180D+03  0.1403732281D-01
      0.1039486850D+03  0.6884262226D-01
      0.2921015530D+02  0.2321844432D+00
      0.9286662960D+01  0.4679413484D+00
      0.3163926960D+01  0.3623119853D+00
 SP   3 1.00       0.000000000000
      0.7868272350D+01 -0.1193324198D+00  0.6899906659D-01
      0.1881288540D+01 -0.1608541517D+00  0.3164239610D+00
      0.5442492580D+00  0.1143456438D+01  0.7443082909D+00
 SP   1 1.00       0.000000000000
      0.1687144782D+00  0.1000000000D+01  0.1000000000D+01
 D   1 1.00       0.000000000000
      0.8000000000D+00  0.1000000000D+01
 ****
     19 0
 S   3 1.00       0.000000000000
      0.1873113696D+02  0.3349460434D-01
      0.2825394365D+01  0.2347269535D+00
      0.6401216923D+00  0.8137573261D+00
 S   1 1.00       0.000000000000
      0.1612777588D+00  0.1000000000D+01
 ****
     20 0
 S   3 1.00       0.000000000000
      0.1873113696D+02  0.3349460434D-01
      0.2825394365D+01  0.2347269535D+00
      0.6401216923D+00  0.8137573261D+00
 S   1 1.00       0.000000000000
      0.1612777588D+00  0.1000000000D+01
 ****
     21 0
 S   6 1.00       0.000000000000
      0.3047524880D+04  0.1834737132D-02
      0.4573695180D+03  0.1403732281D-01
      0.1039486850D+03  0.6884262226D-01
      0.2921015530D+02  0.2321844432D+00
      0.9286662960D+01  0.4679413484D+00
      0.3163926960D+01  0.3623119853D+00
 SP   3 1.00       0.000000000000
      0.7868272350D+01 -0.1193324198D+00  0.6899906659D-01
      0.1881288540D+01 -0.1608541517D+00  0.3164239610D+00
      0.5442492580D+00  0.1143456438D+01  0.7443082909D+00
 SP   1 1.00       0.000000000000
      0.1687144782D+00  0.1000000000D+01  0.1000000000D+01
 D   1 1.00       0.000000000000
      0.8000000000D+00  0.1000000000D+01
 ****
     22 0
 S   3 1.00       0.000000000000
      0.1873113696D+02  0.3349460434D-01
      0.2825394365D+01  0.2347269535D+00
      0.6401216923D+00  0.8137573261D+00
 S   1 1.00       0.000000000000
      0.1612777588D+00  0.1000000000D+01
 ****
     23 0
 S   3 1.00       0.000000000000
      0.1873113696D+02  0.3349460434D-01
      0.2825394365D+01  0.2347269535D+00
      0.6401216923D+00  0.8137573261D+00
 S   1 1.00       0.000000000000
      0.1612777588D+00  0.1000000000D+01
 ****
     24 0
 S   6 1.00       0.000000000000
      0.3047524880D+04  0.1834737132D-02
      0.4573695180D+03  0.1403732281D-01
      0.1039486850D+03  0.6884262226D-01
      0.2921015530D+02  0.2321844432D+00
      0.9286662960D+01  0.4679413484D+00
      0.3163926960D+01  0.3623119853D+00
 SP   3 1.00       0.000000000000
      0.7868272350D+01 -0.1193324198D+00  0.6899906659D-01
      0.1881288540D+01 -0.1608541517D+00  0.3164239610D+00
      0.5442492580D+00  0.1143456438D+01  0.7443082909D+00
 SP   1 1.00       0.000000000000
      0.1687144782D+00  0.1000000000D+01  0.1000000000D+01
 D   1 1.00       0.000000000000
      0.8000000000D+00  0.1000000000D+01
 ****
     25 0
 S   3 1.00       0.000000000000
      0.1873113696D+02  0.3349460434D-01
      0.2825394365D+01  0.2347269535D+00
      0.6401216923D+00  0.8137573261D+00
 S   1 1.00       0.000000000000
      0.1612777588D+00  0.1000000000D+01
 ****
     26 0
 S   3 1.00       0.000000000000
      0.1873113696D+02  0.3349460434D-01
      0.2825394365D+01  0.2347269535D+00
      0.6401216923D+00  0.8137573261D+00
 S   1 1.00       0.000000000000
      0.1612777588D+00  0.1000000000D+01
 ****
     27 0
 S   6 1.00       0.000000000000
      0.3047524880D+04  0.1834737132D-02
      0.4573695180D+03  0.1403732281D-01
      0.1039486850D+03  0.6884262226D-01
      0.2921015530D+02  0.2321844432D+00
      0.9286662960D+01  0.4679413484D+00
      0.3163926960D+01  0.3623119853D+00
 SP   3 1.00       0.000000000000
      0.7868272350D+01 -0.1193324198D+00  0.6899906659D-01
      0.1881288540D+01 -0.1608541517D+00  0.3164239610D+00
      0.5442492580D+00  0.1143456438D+01  0.7443082909D+00
 SP   1 1.00       0.000000000000
      0.1687144782D+00  0.1000000000D+01  0.1000000000D+01
 D   1 1.00       0.000000000000
      0.8000000000D+00  0.1000000000D+01
 ****
     28 0
 S   3 1.00       0.000000000000
      0.1873113696D+02  0.3349460434D-01
      0.2825394365D+01  0.2347269535D+00
      0.6401216923D+00  0.8137573261D+00
 S   1 1.00       0.000000000000
      0.1612777588D+00  0.1000000000D+01
 ****
     29 0
 S   6 1.00       0.000000000000
      0.3047524880D+04  0.1834737132D-02
      0.4573695180D+03  0.1403732281D-01
      0.1039486850D+03  0.6884262226D-01
      0.2921015530D+02  0.2321844432D+00
      0.9286662960D+01  0.4679413484D+00
      0.3163926960D+01  0.3623119853D+00
 SP   3 1.00       0.000000000000
      0.7868272350D+01 -0.1193324198D+00  0.6899906659D-01
      0.1881288540D+01 -0.1608541517D+00  0.3164239610D+00
      0.5442492580D+00  0.1143456438D+01  0.7443082909D+00
 SP   1 1.00       0.000000000000
      0.1687144782D+00  0.1000000000D+01  0.1000000000D+01
 D   1 1.00       0.000000000000
      0.8000000000D+00  0.1000000000D+01
 ****
     30 0
 S   3 1.00       0.000000000000
      0.1873113696D+02  0.3349460434D-01
      0.2825394365D+01  0.2347269535D+00
      0.6401216923D+00  0.8137573261D+00
 S   1 1.00       0.000000000000
      0.1612777588D+00  0.1000000000D+01
 ****
     31 0
 S   6 1.00       0.000000000000
      0.3047524880D+04  0.1834737132D-02
      0.4573695180D+03  0.1403732281D-01
      0.1039486850D+03  0.6884262226D-01
      0.2921015530D+02  0.2321844432D+00
      0.9286662960D+01  0.4679413484D+00
      0.3163926960D+01  0.3623119853D+00
 SP   3 1.00       0.000000000000
      0.7868272350D+01 -0.1193324198D+00  0.6899906659D-01
      0.1881288540D+01 -0.1608541517D+00  0.3164239610D+00
      0.5442492580D+00  0.1143456438D+01  0.7443082909D+00
 SP   1 1.00       0.000000000000
      0.1687144782D+00  0.1000000000D+01  0.1000000000D+01
 D   1 1.00       0.000000000000
      0.8000000000D+00  0.1000000000D+01
 ****
     32 0
 S   3 1.00       0.000000000000
      0.1873113696D+02  0.3349460434D-01
      0.2825394365D+01  0.2347269535D+00
      0.6401216923D+00  0.8137573261D+00
 S   1 1.00       0.000000000000
      0.1612777588D+00  0.1000000000D+01
 ****
     33 0
 S   3 1.00       0.000000000000
      0.1873113696D+02  0.3349460434D-01
      0.2825394365D+01  0.2347269535D+00
      0.6401216923D+00  0.8137573261D+00
 S   1 1.00       0.000000000000
      0.1612777588D+00  0.1000000000D+01
 ****
     34 0
 S   3 1.00       0.000000000000
      0.1873113696D+02  0.3349460434D-01
      0.2825394365D+01  0.2347269535D+00
      0.6401216923D+00  0.8137573261D+00
 S   1 1.00       0.000000000000
      0.1612777588D+00  0.1000000000D+01
 ****
     35 0
 S   6 1.00       0.000000000000
      0.3047524880D+04  0.1834737132D-02
      0.4573695180D+03  0.1403732281D-01
      0.1039486850D+03  0.6884262226D-01
      0.2921015530D+02  0.2321844432D+00
      0.9286662960D+01  0.4679413484D+00
      0.3163926960D+01  0.3623119853D+00
 SP   3 1.00       0.000000000000
      0.7868272350D+01 -0.1193324198D+00  0.6899906659D-01
      0.1881288540D+01 -0.1608541517D+00  0.3164239610D+00
      0.5442492580D+00  0.1143456438D+01  0.7443082909D+00
 SP   1 1.00       0.000000000000
      0.1687144782D+00  0.1000000000D+01  0.1000000000D+01
 D   1 1.00       0.000000000000
      0.8000000000D+00  0.1000000000D+01
 ****
     36 0
 S   6 1.00       0.000000000000
      0.3047524880D+04  0.1834737132D-02
      0.4573695180D+03  0.1403732281D-01
      0.1039486850D+03  0.6884262226D-01
      0.2921015530D+02  0.2321844432D+00
      0.9286662960D+01  0.4679413484D+00
      0.3163926960D+01  0.3623119853D+00
 SP   3 1.00       0.000000000000
      0.7868272350D+01 -0.1193324198D+00  0.6899906659D-01
      0.1881288540D+01 -0.1608541517D+00  0.3164239610D+00
      0.5442492580D+00  0.1143456438D+01  0.7443082909D+00
 SP   1 1.00       0.000000000000
      0.1687144782D+00  0.1000000000D+01  0.1000000000D+01
 D   1 1.00       0.000000000000
      0.8000000000D+00  0.1000000000D+01
 ****
     37 0
 S   3 1.00       0.000000000000
      0.1873113696D+02  0.3349460434D-01
      0.2825394365D+01  0.2347269535D+00
      0.6401216923D+00  0.8137573261D+00
 S   1 1.00       0.000000000000
      0.1612777588D+00  0.1000000000D+01
 ****
     38 0
 S   3 1.00       0.000000000000
      0.1873113696D+02  0.3349460434D-01
      0.2825394365D+01  0.2347269535D+00
      0.6401216923D+00  0.8137573261D+00
 S   1 1.00       0.000000000000
      0.1612777588D+00  0.1000000000D+01
 ****
     39 0
 S   6 1.00       0.000000000000
      0.3047524880D+04  0.1834737132D-02
      0.4573695180D+03  0.1403732281D-01
      0.1039486850D+03  0.6884262226D-01
      0.2921015530D+02  0.2321844432D+00
      0.9286662960D+01  0.4679413484D+00
      0.3163926960D+01  0.3623119853D+00
 SP   3 1.00       0.000000000000
      0.7868272350D+01 -0.1193324198D+00  0.6899906659D-01
      0.1881288540D+01 -0.1608541517D+00  0.3164239610D+00
      0.5442492580D+00  0.1143456438D+01  0.7443082909D+00
 SP   1 1.00       0.000000000000
      0.1687144782D+00  0.1000000000D+01  0.1000000000D+01
 D   1 1.00       0.000000000000
      0.8000000000D+00  0.1000000000D+01
 ****
     40 0
 S   3 1.00       0.000000000000
      0.1873113696D+02  0.3349460434D-01
      0.2825394365D+01  0.2347269535D+00
      0.6401216923D+00  0.8137573261D+00
 S   1 1.00       0.000000000000
      0.1612777588D+00  0.1000000000D+01
 ****
     41 0
 S   6 1.00       0.000000000000
      0.3047524880D+04  0.1834737132D-02
      0.4573695180D+03  0.1403732281D-01
      0.1039486850D+03  0.6884262226D-01
      0.2921015530D+02  0.2321844432D+00
      0.9286662960D+01  0.4679413484D+00
      0.3163926960D+01  0.3623119853D+00
 SP   3 1.00       0.000000000000
      0.7868272350D+01 -0.1193324198D+00  0.6899906659D-01
      0.1881288540D+01 -0.1608541517D+00  0.3164239610D+00
      0.5442492580D+00  0.1143456438D+01  0.7443082909D+00
 SP   1 1.00       0.000000000000
      0.1687144782D+00  0.1000000000D+01  0.1000000000D+01
 D   1 1.00       0.000000000000
      0.8000000000D+00  0.1000000000D+01
 ****
     42 0
 S   3 1.00       0.000000000000
      0.1873113696D+02  0.3349460434D-01
      0.2825394365D+01  0.2347269535D+00
      0.6401216923D+00  0.8137573261D+00
 S   1 1.00       0.000000000000
      0.1612777588D+00  0.1000000000D+01
 ****
     43 0
 S   3 1.00       0.000000000000
      0.1873113696D+02  0.3349460434D-01
      0.2825394365D+01  0.2347269535D+00
      0.6401216923D+00  0.8137573261D+00
 S   1 1.00       0.000000000000
      0.1612777588D+00  0.1000000000D+01
 ****
     44 0
 S   3 1.00       0.000000000000
      0.1873113696D+02  0.3349460434D-01
      0.2825394365D+01  0.2347269535D+00
      0.6401216923D+00  0.8137573261D+00
 S   1 1.00       0.000000000000
      0.1612777588D+00  0.1000000000D+01
 ****
     45 0
 S   6 1.00       0.000000000000
      0.3047524880D+04  0.1834737132D-02
      0.4573695180D+03  0.1403732281D-01
      0.1039486850D+03  0.6884262226D-01
      0.2921015530D+02  0.2321844432D+00
      0.9286662960D+01  0.4679413484D+00
      0.3163926960D+01  0.3623119853D+00
 SP   3 1.00       0.000000000000
      0.7868272350D+01 -0.1193324198D+00  0.6899906659D-01
      0.1881288540D+01 -0.1608541517D+00  0.3164239610D+00
      0.5442492580D+00  0.1143456438D+01  0.7443082909D+00
 SP   1 1.00       0.000000000000
      0.1687144782D+00  0.1000000000D+01  0.1000000000D+01
 D   1 1.00       0.000000000000
      0.8000000000D+00  0.1000000000D+01
 ****
     46 0
 S   3 1.00       0.000000000000
      0.1873113696D+02  0.3349460434D-01
      0.2825394365D+01  0.2347269535D+00
      0.6401216923D+00  0.8137573261D+00
 S   1 1.00       0.000000000000
      0.1612777588D+00  0.1000000000D+01
 ****
     47 0
 S   3 1.00       0.000000000000
      0.1873113696D+02  0.3349460434D-01
      0.2825394365D+01  0.2347269535D+00
      0.6401216923D+00  0.8137573261D+00
 S   1 1.00       0.000000000000
      0.1612777588D+00  0.1000000000D+01
 ****
     48 0
 S   6 1.00       0.000000000000
      0.3047524880D+04  0.1834737132D-02
      0.4573695180D+03  0.1403732281D-01
      0.1039486850D+03  0.6884262226D-01
      0.2921015530D+02  0.2321844432D+00
      0.9286662960D+01  0.4679413484D+00
      0.3163926960D+01  0.3623119853D+00
 SP   3 1.00       0.000000000000
      0.7868272350D+01 -0.1193324198D+00  0.6899906659D-01
      0.1881288540D+01 -0.1608541517D+00  0.3164239610D+00
      0.5442492580D+00  0.1143456438D+01  0.7443082909D+00
 SP   1 1.00       0.000000000000
      0.1687144782D+00  0.1000000000D+01  0.1000000000D+01
 D   1 1.00       0.000000000000
      0.8000000000D+00  0.1000000000D+01
 ****
     49 0
 S   3 1.00       0.000000000000
      0.1873113696D+02  0.3349460434D-01
      0.2825394365D+01  0.2347269535D+00
      0.6401216923D+00  0.8137573261D+00
 S   1 1.00       0.000000000000
      0.1612777588D+00  0.1000000000D+01
 ****
     50 0
 S   3 1.00       0.000000000000
      0.1873113696D+02  0.3349460434D-01
      0.2825394365D+01  0.2347269535D+00
      0.6401216923D+00  0.8137573261D+00
 S   1 1.00       0.000000000000
      0.1612777588D+00  0.1000000000D+01
 ****
     51 0
 S   6 1.00       0.000000000000
      0.3047524880D+04  0.1834737132D-02
      0.4573695180D+03  0.1403732281D-01
      0.1039486850D+03  0.6884262226D-01
      0.2921015530D+02  0.2321844432D+00
      0.9286662960D+01  0.4679413484D+00
      0.3163926960D+01  0.3623119853D+00
 SP   3 1.00       0.000000000000
      0.7868272350D+01 -0.1193324198D+00  0.6899906659D-01
      0.1881288540D+01 -0.1608541517D+00  0.3164239610D+00
      0.5442492580D+00  0.1143456438D+01  0.7443082909D+00
 SP   1 1.00       0.000000000000
      0.1687144782D+00  0.1000000000D+01  0.1000000000D+01
 D   1 1.00       0.000000000000
      0.8000000000D+00  0.1000000000D+01
 ****
     52 0
 S   3 1.00       0.000000000000
      0.1873113696D+02  0.3349460434D-01
      0.2825394365D+01  0.2347269535D+00
      0.6401216923D+00  0.8137573261D+00
 S   1 1.00       0.000000000000
      0.1612777588D+00  0.1000000000D+01
 ****
     53 0
 S   3 1.00       0.000000000000
      0.1873113696D+02  0.3349460434D-01
      0.2825394365D+01  0.2347269535D+00
      0.6401216923D+00  0.8137573261D+00
 S   1 1.00       0.000000000000
      0.1612777588D+00  0.1000000000D+01
 ****
     54 0
 S   6 1.00       0.000000000000
      0.3047524880D+04  0.1834737132D-02
      0.4573695180D+03  0.1403732281D-01
      0.1039486850D+03  0.6884262226D-01
      0.2921015530D+02  0.2321844432D+00
      0.9286662960D+01  0.4679413484D+00
      0.3163926960D+01  0.3623119853D+00
 SP   3 1.00       0.000000000000
      0.7868272350D+01 -0.1193324198D+00  0.6899906659D-01
      0.1881288540D+01 -0.1608541517D+00  0.3164239610D+00
      0.5442492580D+00  0.1143456438D+01  0.7443082909D+00
 SP   1 1.00       0.000000000000
      0.1687144782D+00  0.1000000000D+01  0.1000000000D+01
 D   1 1.00       0.000000000000
      0.8000000000D+00  0.1000000000D+01
 ****
     55 0
 S   3 1.00       0.000000000000
      0.1873113696D+02  0.3349460434D-01
      0.2825394365D+01  0.2347269535D+00
      0.6401216923D+00  0.8137573261D+00
 S   1 1.00       0.000000000000
      0.1612777588D+00  0.1000000000D+01
 ****
     56 0
 S   6 1.00       0.000000000000
      0.3047524880D+04  0.1834737132D-02
      0.4573695180D+03  0.1403732281D-01
      0.1039486850D+03  0.6884262226D-01
      0.2921015530D+02  0.2321844432D+00
      0.9286662960D+01  0.4679413484D+00
      0.3163926960D+01  0.3623119853D+00
 SP   3 1.00       0.000000000000
      0.7868272350D+01 -0.1193324198D+00  0.6899906659D-01
      0.1881288540D+01 -0.1608541517D+00  0.3164239610D+00
      0.5442492580D+00  0.1143456438D+01  0.7443082909D+00
 SP   1 1.00       0.000000000000
      0.1687144782D+00  0.1000000000D+01  0.1000000000D+01
 D   1 1.00       0.000000000000
      0.8000000000D+00  0.1000000000D+01
 ****
     57 0
 S   3 1.00       0.000000000000
      0.1873113696D+02  0.3349460434D-01
      0.2825394365D+01  0.2347269535D+00
      0.6401216923D+00  0.8137573261D+00
 S   1 1.00       0.000000000000
      0.1612777588D+00  0.1000000000D+01
 ****
     58 0
 S   3 1.00       0.000000000000
      0.1873113696D+02  0.3349460434D-01
      0.2825394365D+01  0.2347269535D+00
      0.6401216923D+00  0.8137573261D+00
 S   1 1.00       0.000000000000
      0.1612777588D+00  0.1000000000D+01
 ****
     59 0
 S   3 1.00       0.000000000000
      0.1873113696D+02  0.3349460434D-01
      0.2825394365D+01  0.2347269535D+00
      0.6401216923D+00  0.8137573261D+00
 S   1 1.00       0.000000000000
      0.1612777588D+00  0.1000000000D+01
 ****
     60 0
 S   6 1.00       0.000000000000
      0.3047524880D+04  0.1834737132D-02
      0.4573695180D+03  0.1403732281D-01
      0.1039486850D+03  0.6884262226D-01
      0.2921015530D+02  0.2321844432D+00
      0.9286662960D+01  0.4679413484D+00
      0.3163926960D+01  0.3623119853D+00
 SP   3 1.00       0.000000000000
      0.7868272350D+01 -0.1193324198D+00  0.6899906659D-01
      0.1881288540D+01 -0.1608541517D+00  0.3164239610D+00
      0.5442492580D+00  0.1143456438D+01  0.7443082909D+00
 SP   1 1.00       0.000000000000
      0.1687144782D+00  0.1000000000D+01  0.1000000000D+01
 D   1 1.00       0.000000000000
      0.8000000000D+00  0.1000000000D+01
 ****
     61 0
 S   3 1.00       0.000000000000
      0.1873113696D+02  0.3349460434D-01
      0.2825394365D+01  0.2347269535D+00
      0.6401216923D+00  0.8137573261D+00
 S   1 1.00       0.000000000000
      0.1612777588D+00  0.1000000000D+01
 ****
     62 0
 S   3 1.00       0.000000000000
      0.1873113696D+02  0.3349460434D-01
      0.2825394365D+01  0.2347269535D+00
      0.6401216923D+00  0.8137573261D+00
 S   1 1.00       0.000000000000
      0.1612777588D+00  0.1000000000D+01
 ****
     63 0
 S   6 1.00       0.000000000000
      0.3047524880D+04  0.1834737132D-02
      0.4573695180D+03  0.1403732281D-01
      0.1039486850D+03  0.6884262226D-01
      0.2921015530D+02  0.2321844432D+00
      0.9286662960D+01  0.4679413484D+00
      0.3163926960D+01  0.3623119853D+00
 SP   3 1.00       0.000000000000
      0.7868272350D+01 -0.1193324198D+00  0.6899906659D-01
      0.1881288540D+01 -0.1608541517D+00  0.3164239610D+00
      0.5442492580D+00  0.1143456438D+01  0.7443082909D+00
 SP   1 1.00       0.000000000000
      0.1687144782D+00  0.1000000000D+01  0.1000000000D+01
 D   1 1.00       0.000000000000
      0.8000000000D+00  0.1000000000D+01
 ****
     64 0
 S   3 1.00       0.000000000000
      0.1873113696D+02  0.3349460434D-01
      0.2825394365D+01  0.2347269535D+00
      0.6401216923D+00  0.8137573261D+00
 S   1 1.00       0.000000000000
      0.1612777588D+00  0.1000000000D+01
 ****
     65 0
 S   3 1.00       0.000000000000
      0.1873113696D+02  0.3349460434D-01
      0.2825394365D+01  0.2347269535D+00
      0.6401216923D+00  0.8137573261D+00
 S   1 1.00       0.000000000000
      0.1612777588D+00  0.1000000000D+01
 ****
     66 0
 S   6 1.00       0.000000000000
      0.3047524880D+04  0.1834737132D-02
      0.4573695180D+03  0.1403732281D-01
      0.1039486850D+03  0.6884262226D-01
      0.2921015530D+02  0.2321844432D+00
      0.9286662960D+01  0.4679413484D+00
      0.3163926960D+01  0.3623119853D+00
 SP   3 1.00       0.000000000000
      0.7868272350D+01 -0.1193324198D+00  0.6899906659D-01
      0.1881288540D+01 -0.1608541517D+00  0.3164239610D+00
      0.5442492580D+00  0.1143456438D+01  0.7443082909D+00
 SP   1 1.00       0.000000000000
      0.1687144782D+00  0.1000000000D+01  0.1000000000D+01
 D   1 1.00       0.000000000000
      0.8000000000D+00  0.1000000000D+01
 ****
     67 0
 S   3 1.00       0.000000000000
      0.1873113696D+02  0.3349460434D-01
      0.2825394365D+01  0.2347269535D+00
      0.6401216923D+00  0.8137573261D+00
 S   1 1.00       0.000000000000
      0.1612777588D+00  0.1000000000D+01
 ****
     68 0
 S   6 1.00       0.000000000000
      0.3047524880D+04  0.1834737132D-02
      0.4573695180D+03  0.1403732281D-01
      0.1039486850D+03  0.6884262226D-01
      0.2921015530D+02  0.2321844432D+00
      0.9286662960D+01  0.4679413484D+00
      0.3163926960D+01  0.3623119853D+00
 SP   3 1.00       0.000000000000
      0.7868272350D+01 -0.1193324198D+00  0.6899906659D-01
      0.1881288540D+01 -0.1608541517D+00  0.3164239610D+00
      0.5442492580D+00  0.1143456438D+01  0.7443082909D+00
 SP   1 1.00       0.000000000000
      0.1687144782D+00  0.1000000000D+01  0.1000000000D+01
 D   1 1.00       0.000000000000
      0.8000000000D+00  0.1000000000D+01
 ****
     69 0
 S   3 1.00       0.000000000000
      0.1873113696D+02  0.3349460434D-01
      0.2825394365D+01  0.2347269535D+00
      0.6401216923D+00  0.8137573261D+00
 S   1 1.00       0.000000000000
      0.1612777588D+00  0.1000000000D+01
 ****
     70 0
 S   3 1.00       0.000000000000
      0.1873113696D+02  0.3349460434D-01
      0.2825394365D+01  0.2347269535D+00
      0.6401216923D+00  0.8137573261D+00
 S   1 1.00       0.000000000000
      0.1612777588D+00  0.1000000000D+01
 ****
     71 0
 S   3 1.00       0.000000000000
      0.1873113696D+02  0.3349460434D-01
      0.2825394365D+01  0.2347269535D+00
      0.6401216923D+00  0.8137573261D+00
 S   1 1.00       0.000000000000
      0.1612777588D+00  0.1000000000D+01
 ****
     72 0
 S   6 1.00       0.000000000000
      0.3047524880D+04  0.1834737132D-02
      0.4573695180D+03  0.1403732281D-01
      0.1039486850D+03  0.6884262226D-01
      0.2921015530D+02  0.2321844432D+00
      0.9286662960D+01  0.4679413484D+00
      0.3163926960D+01  0.3623119853D+00
 SP   3 1.00       0.000000000000
      0.7868272350D+01 -0.1193324198D+00  0.6899906659D-01
      0.1881288540D+01 -0.1608541517D+00  0.3164239610D+00
      0.5442492580D+00  0.1143456438D+01  0.7443082909D+00
 SP   1 1.00       0.000000000000
      0.1687144782D+00  0.1000000000D+01  0.1000000000D+01
 D   1 1.00       0.000000000000
      0.8000000000D+00  0.1000000000D+01
 ****
     73 0
 S   3 1.00       0.000000000000
      0.1873113696D+02  0.3349460434D-01
      0.2825394365D+01  0.2347269535D+00
      0.6401216923D+00  0.8137573261D+00
 S   1 1.00       0.000000000000
      0.1612777588D+00  0.1000000000D+01
 ****
     74 0
 S   3 1.00       0.000000000000
      0.1873113696D+02  0.3349460434D-01
      0.2825394365D+01  0.2347269535D+00
      0.6401216923D+00  0.8137573261D+00
 S   1 1.00       0.000000000000
      0.1612777588D+00  0.1000000000D+01
 ****
     75 0
 S   3 1.00       0.000000000000
      0.1873113696D+02  0.3349460434D-01
      0.2825394365D+01  0.2347269535D+00
      0.6401216923D+00  0.8137573261D+00
 S   1 1.00       0.000000000000
      0.1612777588D+00  0.1000000000D+01
 ****

 AO basis set (Overlap normalization):
 Atom O1       Shell     1 S   6     bf    1 -     1         13.470237841484          1.473547872702          0.000000000000
      0.5484671660D+04  0.1831074430D-02
      0.8252349460D+03  0.1395017220D-01
      0.1880469580D+03  0.6844507810D-01
      0.5296450000D+02  0.2327143360D+00
      0.1689757040D+02  0.4701928980D+00
      0.5799635340D+01  0.3585208530D+00
 Atom O1       Shell     2 SP   3    bf    2 -     5         13.470237841484          1.473547872702          0.000000000000
      0.1553961625D+02 -0.1107775495D+00  0.7087426823D-01
      0.3599933586D+01 -0.1480262627D+00  0.3397528391D+00
      0.1013761750D+01  0.1130767015D+01  0.7271585773D+00
 Atom O1       Shell     3 SP   1    bf    6 -     9         13.470237841484          1.473547872702          0.000000000000
      0.2700058226D+00  0.1000000000D+01  0.1000000000D+01
 Atom O1       Shell     4 D   1     bf   10 -    15         13.470237841484          1.473547872702          0.000000000000
      0.8000000000D+00  0.1000000000D+01
 Atom H2       Shell     5 S   3     bf   16 -    16         14.552953915985          0.000000000000          0.000000000000
      0.1873113696D+02  0.3349460434D-01
      0.2825394365D+01  0.2347269535D+00
      0.6401216923D+00  0.8137573261D+00
 Atom H2       Shell     6 S   1     bf   17 -    17         14.552953915985          0.000000000000          0.000000000000
      0.1612777588D+00  0.1000000000D+01
 Atom O3       Shell     7 S   6     bf   18 -    18         19.538161209831          2.121981316981        -12.085388271049
      0.5484671660D+04  0.1831074430D-02
      0.8252349460D+03  0.1395017220D-01
      0.1880469580D+03  0.6844507810D-01
      0.5296450000D+02  0.2327143360D+00
      0.1689757040D+02  0.4701928980D+00
      0.5799635340D+01  0.3585208530D+00
 Atom O3       Shell     8 SP   3    bf   19 -    22         19.538161209831          2.121981316981        -12.085388271049
      0.1553961625D+02 -0.1107775495D+00  0.7087426823D-01
      0.3599933586D+01 -0.1480262627D+00  0.3397528391D+00
      0.1013761750D+01  0.1130767015D+01  0.7271585773D+00
 Atom O3       Shell     9 SP   1    bf   23 -    26         19.538161209831          2.121981316981        -12.085388271049
      0.2700058226D+00  0.1000000000D+01  0.1000000000D+01
 Atom O3       Shell    10 D   1     bf   27 -    32         19.538161209831          2.121981316981        -12.085388271049
      0.8000000000D+00  0.1000000000D+01
 Atom H4       Shell    11 S   3     bf   33 -    33         20.236997769678          0.437205299556        -12.212909088092
      0.1873113696D+02  0.3349460434D-01
      0.2825394365D+01  0.2347269535D+00
      0.6401216923D+00  0.8137573261D+00
 Atom H4       Shell    12 S   1     bf   34 -    34         20.236997769678          0.437205299556        -12.212909088092
      0.1612777588D+00  0.1000000000D+01
 Atom C5       Shell    13 S   6     bf   35 -    35          5.894959947939         -1.282224572385         -3.087633714146
      0.3047524880D+04  0.1834737132D-02
      0.4573695180D+03  0.1403732281D-01
      0.1039486850D+03  0.6884262226D-01
      0.2921015530D+02  0.2321844432D+00
      0.9286662960D+01  0.4679413484D+00
      0.3163926960D+01  0.3623119853D+00
 Atom C5       Shell    14 SP   3    bf   36 -    39          5.894959947939         -1.282224572385         -3.087633714146
      0.7868272350D+01 -0.1193324198D+00  0.6899906659D-01
      0.1881288540D+01 -0.1608541517D+00  0.3164239610D+00
      0.5442492580D+00  0.1143456438D+01  0.7443082909D+00
 Atom C5       Shell    15 SP   1    bf   40 -    43          5.894959947939         -1.282224572385         -3.087633714146
      0.1687144782D+00  0.1000000000D+01  0.1000000000D+01
 Atom C5       Shell    16 D   1     bf   44 -    49          5.894959947939         -1.282224572385         -3.087633714146
      0.8000000000D+00  0.1000000000D+01
 Atom C6       Shell    17 S   6     bf   50 -    50          8.071115877005          0.510202755556         -2.235961339213
      0.3047524880D+04  0.1834737132D-02
      0.4573695180D+03  0.1403732281D-01
      0.1039486850D+03  0.6884262226D-01
      0.2921015530D+02  0.2321844432D+00
      0.9286662960D+01  0.4679413484D+00
      0.3163926960D+01  0.3623119853D+00
 Atom C6       Shell    18 SP   3    bf   51 -    54          8.071115877005          0.510202755556         -2.235961339213
      0.7868272350D+01 -0.1193324198D+00  0.6899906659D-01
      0.1881288540D+01 -0.1608541517D+00  0.3164239610D+00
      0.5442492580D+00  0.1143456438D+01  0.7443082909D+00
 Atom C6       Shell    19 SP   1    bf   55 -    58          8.071115877005          0.510202755556         -2.235961339213
      0.1687144782D+00  0.1000000000D+01  0.1000000000D+01
 Atom C6       Shell    20 D   1     bf   59 -    64          8.071115877005          0.510202755556         -2.235961339213
      0.8000000000D+00  0.1000000000D+01
 Atom H7       Shell    21 S   3     bf   65 -    65          7.529137924545          2.394035758599         -2.947417244510
      0.1873113696D+02  0.3349460434D-01
      0.2825394365D+01  0.2347269535D+00
      0.6401216923D+00  0.8137573261D+00
 Atom H7       Shell    22 S   1     bf   66 -    66          7.529137924545          2.394035758599         -2.947417244510
      0.1612777588D+00  0.1000000000D+01
 Atom C8       Shell    23 S   6     bf   67 -    67         10.666684332532         -0.030980359195         -3.431737555060
      0.3047524880D+04  0.1834737132D-02
      0.4573695180D+03  0.1403732281D-01
      0.1039486850D+03  0.6884262226D-01
      0.2921015530D+02  0.2321844432D+00
      0.9286662960D+01  0.4679413484D+00
      0.3163926960D+01  0.3623119853D+00
 Atom C8       Shell    24 SP   3    bf   68 -    71         10.666684332532         -0.030980359195         -3.431737555060
      0.7868272350D+01 -0.1193324198D+00  0.6899906659D-01
      0.1881288540D+01 -0.1608541517D+00  0.3164239610D+00
      0.5442492580D+00  0.1143456438D+01  0.7443082909D+00
 Atom C8       Shell    25 SP   1    bf   72 -    75         10.666684332532         -0.030980359195         -3.431737555060
      0.1687144782D+00  0.1000000000D+01  0.1000000000D+01
 Atom C8       Shell    26 D   1     bf   76 -    81         10.666684332532         -0.030980359195         -3.431737555060
      0.8000000000D+00  0.1000000000D+01
 Atom H9       Shell    27 S   3     bf   82 -    82         11.344127529595         -1.899559870839         -2.824696029489
      0.1873113696D+02  0.3349460434D-01
      0.2825394365D+01  0.2347269535D+00
      0.6401216923D+00  0.8137573261D+00
 Atom H9       Shell    28 S   1     bf   83 -    83         11.344127529595         -1.899559870839         -2.824696029489
      0.1612777588D+00  0.1000000000D+01
 Atom C10      Shell    29 S   6     bf   84 -    84         10.431715218251          0.017588607085         -6.361289101943
      0.3047524880D+04  0.1834737132D-02
      0.4573695180D+03  0.1403732281D-01
      0.1039486850D+03  0.6884262226D-01
      0.2921015530D+02  0.2321844432D+00
      0.9286662960D+01  0.4679413484D+00
      0.3163926960D+01  0.3623119853D+00
 Atom C10      Shell    30 SP   3    bf   85 -    88         10.431715218251          0.017588607085         -6.361289101943
      0.7868272350D+01 -0.1193324198D+00  0.6899906659D-01
      0.1881288540D+01 -0.1608541517D+00  0.3164239610D+00
      0.5442492580D+00  0.1143456438D+01  0.7443082909D+00
 Atom C10      Shell    31 SP   1    bf   89 -    92         10.431715218251          0.017588607085         -6.361289101943
      0.1687144782D+00  0.1000000000D+01  0.1000000000D+01
 Atom C10      Shell    32 D   1     bf   93 -    98         10.431715218251          0.017588607085         -6.361289101943
      0.8000000000D+00  0.1000000000D+01
 Atom H11      Shell    33 S   3     bf   99 -    99          9.979327424306          1.990923612918         -6.853621794604
      0.1873113696D+02  0.3349460434D-01
      0.2825394365D+01  0.2347269535D+00
      0.6401216923D+00  0.8137573261D+00
 Atom H11      Shell    34 S   1     bf  100 -   100          9.979327424306          1.990923612918         -6.853621794604
      0.1612777588D+00  0.1000000000D+01
 Atom C12      Shell    35 S   6     bf  101 -   101          3.676536835711         -0.101816932259         -1.516993734743
      0.3047524880D+04  0.1834737132D-02
      0.4573695180D+03  0.1403732281D-01
      0.1039486850D+03  0.6884262226D-01
      0.2921015530D+02  0.2321844432D+00
      0.9286662960D+01  0.4679413484D+00
      0.3163926960D+01  0.3623119853D+00
 Atom C12      Shell    36 SP   3    bf  102 -   105          3.676536835711         -0.101816932259         -1.516993734743
      0.7868272350D+01 -0.1193324198D+00  0.6899906659D-01
      0.1881288540D+01 -0.1608541517D+00  0.3164239610D+00
      0.5442492580D+00  0.1143456438D+01  0.7443082909D+00
 Atom C12      Shell    37 SP   1    bf  106 -   109          3.676536835711         -0.101816932259         -1.516993734743
      0.1687144782D+00  0.1000000000D+01  0.1000000000D+01
 Atom C12      Shell    38 D   1     bf  110 -   115          3.676536835711         -0.101816932259         -1.516993734743
      0.8000000000D+00  0.1000000000D+01
 Atom H13      Shell    39 S   3     bf  116 -   116          3.360134735844          1.751214120633         -2.398051256556
      0.1873113696D+02  0.3349460434D-01
      0.2825394365D+01  0.2347269535D+00
      0.6401216923D+00  0.8137573261D+00
 Atom H13      Shell    40 S   1     bf  117 -   117          3.360134735844          1.751214120633         -2.398051256556
      0.1612777588D+00  0.1000000000D+01
 Atom C14      Shell    41 S   6     bf  118 -   118          5.671068257071         -1.040313927100         -5.978673738482
      0.3047524880D+04  0.1834737132D-02
      0.4573695180D+03  0.1403732281D-01
      0.1039486850D+03  0.6884262226D-01
      0.2921015530D+02  0.2321844432D+00
      0.9286662960D+01  0.4679413484D+00
      0.3163926960D+01  0.3623119853D+00
 Atom C14      Shell    42 SP   3    bf  119 -   122          5.671068257071         -1.040313927100         -5.978673738482
      0.7868272350D+01 -0.1193324198D+00  0.6899906659D-01
      0.1881288540D+01 -0.1608541517D+00  0.3164239610D+00
      0.5442492580D+00  0.1143456438D+01  0.7443082909D+00
 Atom C14      Shell    43 SP   1    bf  123 -   126          5.671068257071         -1.040313927100         -5.978673738482
      0.1687144782D+00  0.1000000000D+01  0.1000000000D+01
 Atom C14      Shell    44 D   1     bf  127 -   132          5.671068257071         -1.040313927100         -5.978673738482
      0.8000000000D+00  0.1000000000D+01
 Atom H15      Shell    45 S   3     bf  133 -   133          5.071658466076          0.891553230830         -6.450260507430
      0.1873113696D+02  0.3349460434D-01
      0.2825394365D+01  0.2347269535D+00
      0.6401216923D+00  0.8137573261D+00
 Atom H15      Shell    46 S   1     bf  134 -   134          5.071658466076          0.891553230830         -6.450260507430
      0.1612777588D+00  0.1000000000D+01
 Atom H16      Shell    47 S   3     bf  135 -   135          4.220003495521         -2.313139889871         -6.731689596934
      0.1873113696D+02  0.3349460434D-01
      0.2825394365D+01  0.2347269535D+00
      0.6401216923D+00  0.8137573261D+00
 Atom H16      Shell    48 S   1     bf  136 -   136          4.220003495521         -2.313139889871         -6.731689596934
      0.1612777588D+00  0.1000000000D+01
 Atom C17      Shell    49 S   6     bf  137 -   137         12.981834002837         -0.581256193591         -7.749463834481
      0.3047524880D+04  0.1834737132D-02
      0.4573695180D+03  0.1403732281D-01
      0.1039486850D+03  0.6884262226D-01
      0.2921015530D+02  0.2321844432D+00
      0.9286662960D+01  0.4679413484D+00
      0.3163926960D+01  0.3623119853D+00
 Atom C17      Shell    50 SP   3    bf  138 -   141         12.981834002837         -0.581256193591         -7.749463834481
      0.7868272350D+01 -0.1193324198D+00  0.6899906659D-01
      0.1881288540D+01 -0.1608541517D+00  0.3164239610D+00
      0.5442492580D+00  0.1143456438D+01  0.7443082909D+00
 Atom C17      Shell    51 SP   1    bf  142 -   145         12.981834002837         -0.581256193591         -7.749463834481
      0.1687144782D+00  0.1000000000D+01  0.1000000000D+01
 Atom C17      Shell    52 D   1     bf  146 -   151         12.981834002837         -0.581256193591         -7.749463834481
      0.8000000000D+00  0.1000000000D+01
 Atom C18      Shell    53 S   6     bf  152 -   152          7.806908749921          0.617508057217          0.660869202836
      0.3047524880D+04  0.1834737132D-02
      0.4573695180D+03  0.1403732281D-01
      0.1039486850D+03  0.6884262226D-01
      0.2921015530D+02  0.2321844432D+00
      0.9286662960D+01  0.4679413484D+00
      0.3163926960D+01  0.3623119853D+00
 Atom C18      Shell    54 SP   3    bf  153 -   156          7.806908749921          0.617508057217          0.660869202836
      0.7868272350D+01 -0.1193324198D+00  0.6899906659D-01
      0.1881288540D+01 -0.1608541517D+00  0.3164239610D+00
      0.5442492580D+00  0.1143456438D+01  0.7443082909D+00
 Atom C18      Shell    55 SP   1    bf  157 -   160          7.806908749921          0.617508057217          0.660869202836
      0.1687144782D+00  0.1000000000D+01  0.1000000000D+01
 Atom C18      Shell    56 D   1     bf  161 -   166          7.806908749921          0.617508057217          0.660869202836
      0.8000000000D+00  0.1000000000D+01
 Atom H19      Shell    57 S   3     bf  167 -   167          8.647235341432          2.324430720056          1.461975530015
      0.1873113696D+02  0.3349460434D-01
      0.2825394365D+01  0.2347269535D+00
      0.6401216923D+00  0.8137573261D+00
 Atom H19      Shell    58 S   1     bf  168 -   168          8.647235341432          2.324430720056          1.461975530015
      0.1612777588D+00  0.1000000000D+01
 Atom H20      Shell    59 S   3     bf  169 -   169          8.793463086588         -0.974664803449          1.541118280912
      0.1873113696D+02  0.3349460434D-01
      0.2825394365D+01  0.2347269535D+00
      0.6401216923D+00  0.8137573261D+00
 Atom H20      Shell    60 S   1     bf  170 -   170          8.793463086588         -0.974664803449          1.541118280912
      0.1612777588D+00  0.1000000000D+01
 Atom C21      Shell    61 S   6     bf  171 -   171          8.197470921997         -1.613103580697         -7.306699130717
      0.3047524880D+04  0.1834737132D-02
      0.4573695180D+03  0.1403732281D-01
      0.1039486850D+03  0.6884262226D-01
      0.2921015530D+02  0.2321844432D+00
      0.9286662960D+01  0.4679413484D+00
      0.3163926960D+01  0.3623119853D+00
 Atom C21      Shell    62 SP   3    bf  172 -   175          8.197470921997         -1.613103580697         -7.306699130717
      0.7868272350D+01 -0.1193324198D+00  0.6899906659D-01
      0.1881288540D+01 -0.1608541517D+00  0.3164239610D+00
      0.5442492580D+00  0.1143456438D+01  0.7443082909D+00
 Atom C21      Shell    63 SP   1    bf  176 -   179          8.197470921997         -1.613103580697         -7.306699130717
      0.1687144782D+00  0.1000000000D+01  0.1000000000D+01
 Atom C21      Shell    64 D   1     bf  180 -   185          8.197470921997         -1.613103580697         -7.306699130717
      0.8000000000D+00  0.1000000000D+01
 Atom H22      Shell    65 S   3     bf  186 -   186          8.638244515821         -3.619947928415         -7.058283197706
      0.1873113696D+02  0.3349460434D-01
      0.2825394365D+01  0.2347269535D+00
      0.6401216923D+00  0.8137573261D+00
 Atom H22      Shell    66 S   1     bf  187 -   187          8.638244515821         -3.619947928415         -7.058283197706
      0.1612777588D+00  0.1000000000D+01
 Atom H23      Shell    67 S   3     bf  188 -   188          7.947918413203         -1.331355165271         -9.342571485974
      0.1873113696D+02  0.3349460434D-01
      0.2825394365D+01  0.2347269535D+00
      0.6401216923D+00  0.8137573261D+00
 Atom H23      Shell    68 S   1     bf  189 -   189          7.947918413203         -1.331355165271         -9.342571485974
      0.1612777588D+00  0.1000000000D+01
 Atom C24      Shell    69 S   6     bf  190 -   190          4.907898843414          0.451901359541          1.106799405743
      0.3047524880D+04  0.1834737132D-02
      0.4573695180D+03  0.1403732281D-01
      0.1039486850D+03  0.6884262226D-01
      0.2921015530D+02  0.2321844432D+00
      0.9286662960D+01  0.4679413484D+00
      0.3163926960D+01  0.3623119853D+00
 Atom C24      Shell    70 SP   3    bf  191 -   194          4.907898843414          0.451901359541          1.106799405743
      0.7868272350D+01 -0.1193324198D+00  0.6899906659D-01
      0.1881288540D+01 -0.1608541517D+00  0.3164239610D+00
      0.5442492580D+00  0.1143456438D+01  0.7443082909D+00
 Atom C24      Shell    71 SP   1    bf  195 -   198          4.907898843414          0.451901359541          1.106799405743
      0.1687144782D+00  0.1000000000D+01  0.1000000000D+01
 Atom C24      Shell    72 D   1     bf  199 -   204          4.907898843414          0.451901359541          1.106799405743
      0.8000000000D+00  0.1000000000D+01
 Atom H25      Shell    73 S   3     bf  205 -   205          4.461574084588         -1.033554924743          2.476001401291
      0.1873113696D+02  0.3349460434D-01
      0.2825394365D+01  0.2347269535D+00
      0.6401216923D+00  0.8137573261D+00
 Atom H25      Shell    74 S   1     bf  206 -   206          4.461574084588         -1.033554924743          2.476001401291
      0.1612777588D+00  0.1000000000D+01
 Atom H26      Shell    75 S   3     bf  207 -   207          4.146563238894          2.208901991668          1.894799990861
      0.1873113696D+02  0.3349460434D-01
      0.2825394365D+01  0.2347269535D+00
      0.6401216923D+00  0.8137573261D+00
 Atom H26      Shell    76 S   1     bf  208 -   208          4.146563238894          2.208901991668          1.894799990861
      0.1612777588D+00  0.1000000000D+01
 Atom C27      Shell    77 S   6     bf  209 -   209         12.653440570204          1.912482970868         -2.561170110881
      0.3047524880D+04  0.1834737132D-02
      0.4573695180D+03  0.1403732281D-01
      0.1039486850D+03  0.6884262226D-01
      0.2921015530D+02  0.2321844432D+00
      0.9286662960D+01  0.4679413484D+00
      0.3163926960D+01  0.3623119853D+00
 Atom C27      Shell    78 SP   3    bf  210 -   213         12.653440570204          1.912482970868         -2.561170110881
      0.7868272350D+01 -0.1193324198D+00  0.6899906659D-01
      0.1881288540D+01 -0.1608541517D+00  0.3164239610D+00
      0.5442492580D+00  0.1143456438D+01  0.7443082909D+00
 Atom C27      Shell    79 SP   1    bf  214 -   217         12.653440570204          1.912482970868         -2.561170110881
      0.1687144782D+00  0.1000000000D+01  0.1000000000D+01
 Atom C27      Shell    80 D   1     bf  218 -   223         12.653440570204          1.912482970868         -2.561170110881
      0.8000000000D+00  0.1000000000D+01
 Atom H28      Shell    81 S   3     bf  224 -   224         11.763126413902          3.786874713179         -2.463385287271
      0.1873113696D+02  0.3349460434D-01
      0.2825394365D+01  0.2347269535D+00
      0.6401216923D+00  0.8137573261D+00
 Atom H28      Shell    82 S   1     bf  225 -   225         11.763126413902          3.786874713179         -2.463385287271
      0.1612777588D+00  0.1000000000D+01
 Atom C29      Shell    83 S   6     bf  226 -   226          0.994758488187         -1.289924809534         -1.299021970035
      0.3047524880D+04  0.1834737132D-02
      0.4573695180D+03  0.1403732281D-01
      0.1039486850D+03  0.6884262226D-01
      0.2921015530D+02  0.2321844432D+00
      0.9286662960D+01  0.4679413484D+00
      0.3163926960D+01  0.3623119853D+00
 Atom C29      Shell    84 SP   3    bf  227 -   230          0.994758488187         -1.289924809534         -1.299021970035
      0.7868272350D+01 -0.1193324198D+00  0.6899906659D-01
      0.1881288540D+01 -0.1608541517D+00  0.3164239610D+00
      0.5442492580D+00  0.1143456438D+01  0.7443082909D+00
 Atom C29      Shell    85 SP   1    bf  231 -   234          0.994758488187         -1.289924809534         -1.299021970035
      0.1687144782D+00  0.1000000000D+01  0.1000000000D+01
 Atom C29      Shell    86 D   1     bf  235 -   240          0.994758488187         -1.289924809534         -1.299021970035
      0.8000000000D+00  0.1000000000D+01
 Atom H30      Shell    87 S   3     bf  241 -   241          0.000000000000          0.000000000000          0.000000000000
      0.1873113696D+02  0.3349460434D-01
      0.2825394365D+01  0.2347269535D+00
      0.6401216923D+00  0.8137573261D+00
 Atom H30      Shell    88 S   1     bf  242 -   242          0.000000000000          0.000000000000          0.000000000000
      0.1612777588D+00  0.1000000000D+01
 Atom C31      Shell    89 S   6     bf  243 -   243          6.428376004825         -4.059035111741         -2.348958628268
      0.3047524880D+04  0.1834737132D-02
      0.4573695180D+03  0.1403732281D-01
      0.1039486850D+03  0.6884262226D-01
      0.2921015530D+02  0.2321844432D+00
      0.9286662960D+01  0.4679413484D+00
      0.3163926960D+01  0.3623119853D+00
 Atom C31      Shell    90 SP   3    bf  244 -   247          6.428376004825         -4.059035111741         -2.348958628268
      0.7868272350D+01 -0.1193324198D+00  0.6899906659D-01
      0.1881288540D+01 -0.1608541517D+00  0.3164239610D+00
      0.5442492580D+00  0.1143456438D+01  0.7443082909D+00
 Atom C31      Shell    91 SP   1    bf  248 -   251          6.428376004825         -4.059035111741         -2.348958628268
      0.1687144782D+00  0.1000000000D+01  0.1000000000D+01
 Atom C31      Shell    92 D   1     bf  252 -   257          6.428376004825         -4.059035111741         -2.348958628268
      0.8000000000D+00  0.1000000000D+01
 Atom H32      Shell    93 S   3     bf  258 -   258          8.295764894518         -4.682137986634         -2.975528130162
      0.1873113696D+02  0.3349460434D-01
      0.2825394365D+01  0.2347269535D+00
      0.6401216923D+00  0.8137573261D+00
 Atom H32      Shell    94 S   1     bf  259 -   259          8.295764894518         -4.682137986634         -2.975528130162
      0.1612777588D+00  0.1000000000D+01
 Atom H33      Shell    95 S   3     bf  260 -   260          6.344275500726         -4.353763186700         -0.306831506279
      0.1873113696D+02  0.3349460434D-01
      0.2825394365D+01  0.2347269535D+00
      0.6401216923D+00  0.8137573261D+00
 Atom H33      Shell    96 S   1     bf  261 -   261          6.344275500726         -4.353763186700         -0.306831506279
      0.1612777588D+00  0.1000000000D+01
 Atom H34      Shell    97 S   3     bf  262 -   262          5.045848378683         -5.325825289244         -3.219023915521
      0.1873113696D+02  0.3349460434D-01
      0.2825394365D+01  0.2347269535D+00
      0.6401216923D+00  0.8137573261D+00
 Atom H34      Shell    98 S   1     bf  263 -   263          5.045848378683         -5.325825289244         -3.219023915521
      0.1612777588D+00  0.1000000000D+01
 Atom C35      Shell    99 S   6     bf  264 -   264         15.142933897988          0.910436886131         -6.527713918753
      0.3047524880D+04  0.1834737132D-02
      0.4573695180D+03  0.1403732281D-01
      0.1039486850D+03  0.6884262226D-01
      0.2921015530D+02  0.2321844432D+00
      0.9286662960D+01  0.4679413484D+00
      0.3163926960D+01  0.3623119853D+00
 Atom C35      Shell   100 SP   3    bf  265 -   268         15.142933897988          0.910436886131         -6.527713918753
      0.7868272350D+01 -0.1193324198D+00  0.6899906659D-01
      0.1881288540D+01 -0.1608541517D+00  0.3164239610D+00
      0.5442492580D+00  0.1143456438D+01  0.7443082909D+00
 Atom C35      Shell   101 SP   1    bf  269 -   272         15.142933897988          0.910436886131         -6.527713918753
      0.1687144782D+00  0.1000000000D+01  0.1000000000D+01
 Atom C35      Shell   102 D   1     bf  273 -   278         15.142933897988          0.910436886131         -6.527713918753
      0.8000000000D+00  0.1000000000D+01
 Atom C36      Shell   103 S   6     bf  279 -   279         12.749240935709          0.277068792117        -10.562091751632
      0.3047524880D+04  0.1834737132D-02
      0.4573695180D+03  0.1403732281D-01
      0.1039486850D+03  0.6884262226D-01
      0.2921015530D+02  0.2321844432D+00
      0.9286662960D+01  0.4679413484D+00
      0.3163926960D+01  0.3623119853D+00
 Atom C36      Shell   104 SP   3    bf  280 -   283         12.749240935709          0.277068792117        -10.562091751632
      0.7868272350D+01 -0.1193324198D+00  0.6899906659D-01
      0.1881288540D+01 -0.1608541517D+00  0.3164239610D+00
      0.5442492580D+00  0.1143456438D+01  0.7443082909D+00
 Atom C36      Shell   105 SP   1    bf  284 -   287         12.749240935709          0.277068792117        -10.562091751632
      0.1687144782D+00  0.1000000000D+01  0.1000000000D+01
 Atom C36      Shell   106 D   1     bf  288 -   293         12.749240935709          0.277068792117        -10.562091751632
      0.8000000000D+00  0.1000000000D+01
 Atom H37      Shell   107 S   3     bf  294 -   294         11.937901760419          2.188101058028        -10.592065680483
      0.1873113696D+02  0.3349460434D-01
      0.2825394365D+01  0.2347269535D+00
      0.6401216923D+00  0.8137573261D+00
 Atom H37      Shell   108 S   1     bf  295 -   295         11.937901760419          2.188101058028        -10.592065680483
      0.1612777588D+00  0.1000000000D+01
 Atom H38      Shell   109 S   3     bf  296 -   296         11.403045203096         -0.947262168255        -11.547562519335
      0.1873113696D+02  0.3349460434D-01
      0.2825394365D+01  0.2347269535D+00
      0.6401216923D+00  0.8137573261D+00
 Atom H38      Shell   110 S   1     bf  297 -   297         11.403045203096         -0.947262168255        -11.547562519335
      0.1612777588D+00  0.1000000000D+01
 Atom C39      Shell   111 S   6     bf  298 -   298         14.917435694242          2.041823915431         -4.271295727234
      0.3047524880D+04  0.1834737132D-02
[...]
 1539 Fit      -0.000733
 1540 Fit      -0.000638
 1541 Fit       0.000922
 1542 Fit       0.002236
 1543 Fit      -0.000759
 1544 Fit       0.001114
 1545 Fit       0.002546
 1546 Fit       0.003107
 1547 Fit       0.002524
 1548 Fit      -0.001053
 1549 Fit       0.000964
 1550 Fit       0.002139
 1551 Fit       0.001212
 1552 Fit       0.000165
 1553 Fit       0.002302
 1554 Fit       0.004049
 1555 Fit       0.003639
 1556 Fit       0.002789
 1557 Fit      -0.000074
 1558 Fit       0.001990
 1559 Fit       0.003962
 1560 Fit       0.004878
 1561 Fit       0.004589
 1562 Fit       0.002357
 1563 Fit      -0.000478
 1564 Fit       0.002215
 1565 Fit       0.003648
 1566 Fit       0.001114
 1567 Fit      -0.002800
 1568 Fit      -0.002548
 1569 Fit      -0.002694
 1570 Fit      -0.002297
 1571 Fit      -0.002020
 1572 Fit      -0.002106
 1573 Fit      -0.001406
 1574 Fit       0.001624
 1575 Fit       0.001872
 1576 Fit      -0.000129
 1577 Fit      -0.001199
 1578 Fit       0.002482
 1579 Fit       0.001043
 1580 Fit      -0.000784
 1581 Fit      -0.000003
 1582 Fit      -0.001628
 1583 Fit      -0.001433
 1584 Fit      -0.001557
 1585 Fit      -0.000858
 1586 Fit       0.000572
 1587 Fit       0.001077
 1588 Fit       0.000510
 1589 Fit      -0.000919
 1590 Fit       0.002093
 1591 Fit       0.002572
 1592 Fit       0.002206
 1593 Fit       0.000853
 1594 Fit      -0.000705
 1595 Fit       0.002848
 1596 Fit       0.001467
 1597 Fit      -0.000583
 1598 Fit      -0.001674
 1599 Fit       0.000769
 1600 Fit       0.001503
 1601 Fit      -0.001942
 1602 Fit       0.000497
 1603 Fit       0.002263
 1604 Fit       0.002939
 1605 Fit       0.000070
 1606 Fit       0.001830
 1607 Fit       0.002769
 1608 Fit      -0.001279
 1609 Fit       0.000558
 1610 Fit       0.001519
 1611 Fit      -0.020259
 1612 Fit      -0.015221
 1613 Fit      -0.022855
 1614 Fit      -0.024721
 1615 Fit      -0.016281
 1616 Fit      -0.010310
 1617 Fit      -0.009102
 1618 Fit      -0.018206
 1619 Fit      -0.023553
 1620 Fit      -0.024818
 1621 Fit      -0.003028
 1622 Fit      -0.013230
 1623 Fit      -0.019489
 1624 Fit      -0.021744
 1625 Fit      -0.020489
 1626 Fit      -0.014555
 1627 Fit      -0.003458
 1628 Fit       0.002105
 1629 Fit       0.002818
 1630 Fit       0.007517
 1631 Fit       0.011060
 1632 Fit       0.009496
 1633 Fit       0.006733
 1634 Fit       0.012569
 1635 Fit       0.015873
 1636 Fit       0.015810
 1637 Fit       0.012779
 1638 Fit       0.018443
 1639 Fit       0.016686
 1640 Fit       0.012908
 1641 Fit      -0.006935
 1642 Fit      -0.008667
 1643 Fit      -0.017619
 1644 Fit      -0.021010
 1645 Fit      -0.018798
 1646 Fit      -0.008716
 1647 Fit      -0.018528
 1648 Fit      -0.023706
 1649 Fit      -0.024166
 1650 Fit      -0.020170
 1651 Fit      -0.009293
 1652 Fit      -0.019570
 1653 Fit      -0.024838
 1654 Fit      -0.024941
 1655 Fit      -0.020418
 1656 Fit      -0.011238
 1657 Fit      -0.020318
 1658 Fit      -0.024329
 1659 Fit      -0.022983
 1660 Fit      -0.017430
 1661 Fit      -0.013663
 1662 Fit      -0.020736
 1663 Fit      -0.018409
 1664 Fit      -0.005726
 1665 Fit      -0.004836
 1666 Fit      -0.014439
 1667 Fit       0.002217
 1668 Fit       0.013445
 1669 Fit       0.002569
 1670 Fit       0.023870
 1671 Fit       0.019588
 1672 Fit       0.012899
 1673 Fit       0.002445
 1674 Fit       0.021695
 1675 Fit       0.018417
 1676 Fit       0.012307
 1677 Fit       0.000920
 1678 Fit       0.016403
 1679 Fit       0.015822
 1680 Fit       0.010847
 1681 Fit       0.005188
 1682 Fit       0.007086
 1683 Fit       0.001538
 1684 Fit       0.004404
 1685 Fit       0.003800
 1686 Fit       0.004614
 1687 Fit       0.005634
 1688 Fit       0.010926
 1689 Fit       0.005447
 1690 Fit       0.004047
 1691 Fit       0.005341
 1692 Fit       0.005889
 1693 Fit       0.006072
 1694 Fit       0.001439
 1695 Fit       0.001493
 1696 Fit       0.003813
 1697 Fit       0.003227
 1698 Fit       0.004481
 1699 Fit       0.006509
 1700 Fit       0.005833
 1701 Fit       0.005691
 1702 Fit       0.003731
 1703 Fit       0.003407
 1704 Fit       0.005900
 1705 Fit       0.005437
 1706 Fit       0.005438
 1707 Fit       0.005476
 1708 Fit       0.004572
 1709 Fit       0.005155
 1710 Fit      -0.008475
 1711 Fit      -0.012088
 1712 Fit      -0.019921
 1713 Fit      -0.000726
 1714 Fit      -0.016665
 1715 Fit      -0.011796
 1716 Fit      -0.008034
 1717 Fit      -0.022718
 1718 Fit      -0.011945
 1719 Fit      -0.006841
 1720 Fit      -0.018456
 1721 Fit      -0.008301
 1722 Fit      -0.004558
 1723 Fit      -0.005016
 1724 Fit      -0.002500
 1725 Fit      -0.007393
 1726 Fit      -0.010041
 1727 Fit      -0.002774
 1728 Fit      -0.004068
 1729 Fit       0.000814
 1730 Fit      -0.000322
 1731 Fit      -0.003423
 1732 Fit       0.002221
 1733 Fit       0.002756
 1734 Fit       0.005266
 1735 Fit       0.007099
 1736 Fit       0.005425
 1737 Fit       0.006405
 1738 Fit       0.005538
 1739 Fit       0.007388
 1740 Fit       0.005878
 1741 Fit       0.005487
 1742 Fit       0.005391
 1743 Fit       0.005641
 1744 Fit       0.006059
 1745 Fit       0.007324
 1746 Fit       0.007006
 1747 Fit       0.007003
 1748 Fit       0.007943
 1749 Fit      -0.005038
 1750 Fit      -0.007105
 1751 Fit      -0.006670
 1752 Fit      -0.004873
 1753 Fit      -0.003265
 1754 Fit      -0.002796
 1755 Fit      -0.004498
 1756 Fit      -0.002006
 1757 Fit      -0.000128
 1758 Fit      -0.000995
 1759 Fit      -0.002839
 1760 Fit       0.001405
 1761 Fit      -0.004851
 1762 Fit      -0.002916
 1763 Fit      -0.003394
 1764 Fit      -0.003972
 1765 Fit      -0.001786
 1766 Fit      -0.001023
 1767 Fit      -0.001488
 1768 Fit      -0.002066
 1769 Fit      -0.000483
 1770 Fit       0.000137
 1771 Fit       0.000069
 1772 Fit      -0.000993
 1773 Fit       0.000237
 1774 Fit       0.000717
 1775 Fit      -0.013039
 1776 Fit      -0.007520
 1777 Fit      -0.006599
 1778 Fit      -0.003959
 1779 Fit      -0.001485
 1780 Fit       0.000268
 1781 Fit      -0.000935
 1782 Fit       0.001322
 1783 Fit       0.003271
 1784 Fit       0.002102
 1785 Fit       0.005167
 1786 Fit      -0.002231
 1787 Fit      -0.000767
 1788 Fit      -0.000734
 1789 Fit       0.000158
 1790 Fit       0.000594
 1791 Fit       0.000537
 1792 Fit       0.000216
 1793 Fit       0.001138
 1794 Fit       0.001576
 1795 Fit       0.001280
 1796 Fit       0.001078
 1797 Fit      -0.000216
 1798 Fit       0.000695
 1799 Fit       0.002187
 1800 Fit       0.004512
 1801 Fit       0.000556
 1802 Fit       0.001879
 1803 Fit       0.001732
 1804 Fit       0.003844
 1805 Fit       0.005770
 1806 Fit       0.002716
 1807 Fit       0.005944
 1808 Fit       0.010484
 1809 Fit       0.004258
 1810 Fit       0.007230
 1811 Fit       0.007096
 1812 Fit       0.002337
 1813 Fit       0.001165
 1814 Fit       0.001719
 1815 Fit       0.002169
 1816 Fit       0.001832
 1817 Fit       0.003547
 1818 Fit       0.002626
 1819 Fit       0.005334
 1820 Fit       0.004528
 1821 Fit       0.004088
 1822 Fit       0.005710
 1823 Fit       0.006175
 1824 Fit       0.004802
 1825 Fit       0.005556
 1826 Fit       0.006253
 1827 Fit       0.004227
 1828 Fit       0.005086
 1829 Fit       0.006379
 1830 Fit       0.005011
 1831 Fit       0.005434
 1832 Fit       0.005554
 1833 Fit       0.004516
 1834 Fit       0.004824
 1835 Fit       0.004990
 1836 Fit       0.004714
 1837 Fit       0.007025
 1838 Fit       0.008458
 1839 Fit       0.008920
 1840 Fit       0.009022
 1841 Fit       0.007007
 1842 Fit       0.007750
 1843 Fit       0.006686
 1844 Fit       0.005632
 1845 Fit      -0.003131
 1846 Fit       0.004695
 1847 Fit      -0.003273
 1848 Fit      -0.001926
 1849 Fit      -0.002900
 1850 Fit      -0.000331
 1851 Fit      -0.006971
 1852 Fit       0.000656
 1853 Fit      -0.001466
 1854 Fit      -0.004663
 1855 Fit      -0.009322
 1856 Fit       0.003365
 1857 Fit       0.003491
 1858 Fit       0.002228
 1859 Fit       0.000242
 1860 Fit      -0.002026
 1861 Fit      -0.003837
 1862 Fit       0.003724
 1863 Fit       0.001006
 1864 Fit      -0.001374
 1865 Fit       0.007678
 1866 Fit       0.008428
 1867 Fit       0.006150
 1868 Fit       0.005880
 1869 Fit       0.006577
 1870 Fit       0.006160
 1871 Fit       0.007254
 1872 Fit       0.007635
 1873 Fit       0.009442
 1874 Fit       0.007861
 1875 Fit       0.006704
 1876 Fit       0.008171
 1877 Fit       0.007465
 1878 Fit       0.006839
 1879 Fit       0.009036
 1880 Fit       0.008768
 1881 Fit       0.008172
 1882 Fit       0.007949
 1883 Fit       0.009277
 1884 Fit       0.009004
 1885 Fit       0.009047
 1886 Fit       0.009435
 1887 Fit       0.012349
 1888 Fit       0.008301
 1889 Fit       0.011287
 1890 Fit       0.015699
 1891 Fit       0.011267
 1892 Fit       0.016619
 1893 Fit       0.018364
 1894 Fit       0.012923
 1895 Fit       0.010895
 1896 Fit       0.009061
 1897 Fit       0.009293
 1898 Fit       0.010016
 1899 Fit       0.007110
 1900 Fit       0.007096
 1901 Fit       0.007494
 1902 Fit       0.005433
 1903 Fit       0.004226
 1904 Fit       0.004733
 1905 Fit       0.002570
 1906 Fit       0.002170
 1907 Fit       0.002653
 1908 Fit       0.003489
 1909 Fit      -0.000069
 1910 Fit      -0.001642
 1911 Fit      -0.001787
 1912 Fit      -0.001072
 1913 Fit      -0.001009
 1914 Fit       0.002714
 1915 Fit      -0.006258
 1916 Fit      -0.010399
 1917 Fit      -0.009977
 1918 Fit      -0.006675
 1919 Fit       0.006087
 1920 Fit       0.009193
 1921 Fit       0.007463
 1922 Fit       0.005737
 1923 Fit       0.011971
 1924 Fit       0.009793
 1925 Fit       0.017155
 1926 Fit       0.016162
 1927 Fit       0.025350
 1928 Fit       0.008084
 1929 Fit       0.006023
 1930 Fit       0.005835
 1931 Fit       0.005030
 1932 Fit       0.009616
 1933 Fit       0.010105
 1934 Fit       0.012511
 1935 Fit       0.016581
 1936 Fit       0.007782
 1937 Fit       0.008849
 1938 Fit       0.010968
 1939 Fit       0.014408
 1940 Fit       0.007090
 1941 Fit       0.000796
 1942 Fit       0.003975
 1943 Fit      -0.007982
 1944 Fit      -0.000638
 1945 Fit       0.003057
 1946 Fit       0.004751
 1947 Fit       0.005666
 1948 Fit       0.005696
 1949 Fit      -0.002460
 1950 Fit      -0.002501
 1951 Fit       0.001790
 1952 Fit       0.003938
 1953 Fit       0.003928
 1954 Fit       0.002075
 1955 Fit       0.001668
 1956 Fit      -0.000925
 1957 Fit      -0.001075
 1958 Fit       0.001653
 1959 Fit       0.005016
 1960 Fit       0.000449
 1961 Fit       0.003147
 1962 Fit       0.001746
 1963 Fit       0.002303
 1964 Fit       0.001971
 1965 Fit       0.002280
 1966 Fit       0.002004
 1967 Fit       0.001130
 1968 Fit       0.001508
 1969 Fit       0.000493
 1970 Fit      -0.000703
 1971 Fit      -0.000604
 1972 Fit      -0.011839
 1973 Fit      -0.002919
 1974 Fit      -0.001419
 1975 Fit      -0.001147
 1976 Fit      -0.010115
 1977 Fit      -0.003987
 1978 Fit      -0.000305
 1979 Fit       0.002421
 1980 Fit      -0.016650
 1981 Fit      -0.006681
 1982 Fit      -0.001239
 1983 Fit       0.002522
 1984 Fit      -0.014425
 1985 Fit      -0.004663
 1986 Fit       0.000810
 1987 Fit      -0.004780
 1988 Fit      -0.001869
 1989 Fit      -0.001897
 1990 Fit      -0.001547
 1991 Fit      -0.001789
 1992 Fit      -0.002074
 1993 Fit      -0.001374
 1994 Fit      -0.001881
 1995 Fit      -0.001511
 1996 Fit      -0.001186
 1997 Fit      -0.001304
 1998 Fit      -0.001067
 1999 Fit      -0.000780
 2000 Fit      -0.000027
 2001 Fit      -0.000480
 2002 Fit      -0.000371
 2003 Fit       0.001115
 2004 Fit       0.002243
 2005 Fit       0.000894
 2006 Fit       0.003039
 2007 Fit       0.003186
 2008 Fit      -0.000576
 2009 Fit      -0.001313
 2010 Fit       0.000006
 2011 Fit       0.000813
 2012 Fit       0.000804
 2013 Fit      -0.000160
 2014 Fit      -0.001714
 2015 Fit       0.001653
 2016 Fit       0.001842
 2017 Fit       0.001285
 2018 Fit       0.000088
 2019 Fit      -0.001481
 2020 Fit       0.002254
 2021 Fit       0.001225
 2022 Fit      -0.000157
 2023 Fit      -0.000768
 2024 Fit       0.000374
 2025 Fit      -0.001027
 2026 Fit      -0.001328
 2027 Fit      -0.000506
 2028 Fit       0.001101
 2029 Fit      -0.000917
 2030 Fit       0.000754
 2031 Fit       0.002529
 2032 Fit       0.000818
 2033 Fit       0.001548
 2034 Fit       0.001630
 2035 Fit       0.001499
 2036 Fit       0.001423
 2037 Fit       0.002027
 2038 Fit       0.001314
 2039 Fit       0.000967
 2040 Fit       0.001180
 2041 Fit      -0.001228
 2042 Fit      -0.000131
 2043 Fit      -0.000700
 2044 Fit       0.000232
 2045 Fit       0.001863
 2046 Fit       0.002445
 2047 Fit       0.002418
 2048 Fit       0.002609
 2049 Fit       0.002194
 2050 Fit       0.001622
 2051 Fit       0.001800
 2052 Fit       0.001489
 2053 Fit       0.000747
 2054 Fit      -0.000513
 2055 Fit       0.000753
 2056 Fit      -0.000067
 2057 Fit       0.000530
 2058 Fit       0.002592
 2059 Fit       0.004873
 2060 Fit       0.000579
 2061 Fit       0.001997
 2062 Fit       0.003610
 2063 Fit       0.004434
 2064 Fit       0.002034
 2065 Fit       0.003437
 2066 Fit       0.002708
 2067 Fit       0.001108
 2068 Fit       0.000413
 2069 Fit       0.000963
 2070 Fit       0.001283
 2071 Fit       0.000947
 2072 Fit       0.001384
 2073 Fit       0.001445
 2074 Fit       0.001691
 2075 Fit       0.001596
 2076 Fit       0.001314
 2077 Fit       0.001290
 2078 Fit       0.001698
 2079 Fit       0.001707
 2080 Fit       0.001451
 2081 Fit       0.001214
 2082 Fit      -0.000950
 2083 Fit       0.001772
 2084 Fit       0.000389
 2085 Fit      -0.000626
 2086 Fit      -0.000800
 2087 Fit      -0.000349
 2088 Fit      -0.000789
 2089 Fit      -0.000553
 2090 Fit       0.000115
 2091 Fit       0.000536
 2092 Fit      -0.000136
 2093 Fit       0.002848
 2094 Fit       0.003621
 2095 Fit       0.002012
 2096 Fit       0.005174
 2097 Fit       0.003173
 2098 Fit       0.001580
 2099 Fit       0.000174
 2100 Fit       0.002678
 2101 Fit       0.001380
 2102 Fit       0.000066
 2103 Fit      -0.000161
 2104 Fit       0.000821
 2105 Fit      -0.000194
 2106 Fit       0.000926
 2107 Fit       0.001889
 2108 Fit       0.002663
 2109 Fit      -0.000284
 2110 Fit       0.000963
 2111 Fit       0.001971
 2112 Fit       0.002370
 2113 Fit       0.001976
 2114 Fit       0.000763
 2115 Fit       0.001557
 2116 Fit       0.001011
 2117 Fit       0.000305
 2118 Fit       0.002830
 2119 Fit       0.004486
 2120 Fit       0.004164
 2121 Fit       0.002675
 2122 Fit       0.000472
 2123 Fit       0.001895
 2124 Fit       0.003378
 2125 Fit       0.004234
 2126 Fit       0.004089
 2127 Fit       0.002064
 2128 Fit       0.000076
 2129 Fit       0.001955
 2130 Fit       0.002995
 2131 Fit       0.001138
 2132 Fit      -0.000795
 2133 Fit       0.000216
 2134 Fit      -0.001934
 2135 Fit      -0.001799
 2136 Fit      -0.002107
 2137 Fit      -0.001956
 2138 Fit      -0.001410
 2139 Fit      -0.001631
 2140 Fit      -0.001194
 2141 Fit      -0.001071
 2142 Fit      -0.000510
 2143 Fit      -0.000257
 2144 Fit       0.001320
 2145 Fit       0.001382
 2146 Fit       0.000001
 2147 Fit      -0.000554
 2148 Fit       0.001988
 2149 Fit       0.000927
 2150 Fit      -0.000400
 2151 Fit       0.002304
 2152 Fit       0.000802
 2153 Fit      -0.000478
 2154 Fit      -0.000651
 2155 Fit      -0.000567
 2156 Fit      -0.000067
 2157 Fit      -0.000203
 2158 Fit      -0.000917
 2159 Fit      -0.000069
 2160 Fit       0.000935
 2161 Fit       0.001357
 2162 Fit       0.001153
 2163 Fit       0.000360
 2164 Fit      -0.000688
 2165 Fit       0.002277
 2166 Fit       0.001900
 2167 Fit       0.000989
 2168 Fit       0.002386
 2169 Fit       0.001452
 2170 Fit      -0.000268
 2171 Fit       0.000439
 2172 Fit       0.001080
 2173 Fit      -0.001443
 2174 Fit       0.000302
 2175 Fit       0.001615
 2176 Fit       0.002193
 2177 Fit      -0.000455
 2178 Fit       0.001039
 2179 Fit       0.002068
 2180 Fit       0.002658
 2181 Fit      -0.000970
 2182 Fit       0.000434
 2183 Fit       0.001496
 2184 Fit       0.002141
 2185 Fit       0.000246
 -----------------------------------------------------------------
 Leave Link  602 at Thu May 18 13:11:32 2017, MaxMem=    33554432 cpu:         3.3
 (Enter /home/michal/g09/l9999.exe)

 Test job not archived.
 1\1\GINC-LINUX\SP\RHF\6-31G(d)\C27H46O2\MICHAL\18-May-2017\0\\#P HF/6-
 31G* SCF(Conver=6) NoSymm Test Pop=mk IOp(6/33=2) GFInput GFPrint\\MEP
  - Input generated by R.E.D.-III.x MOLECULE\\0,1\O,0,7.12814286,0.7797
 6795,0.\H,0,7.70109153,0.,0.\O,0,10.33914961,1.12290415,-6.39531203\H,
 0,10.70895799,0.23135908,-6.46279314\C,0,3.11947845,-0.67852402,-1.633
 90539\C,0,4.27105057,0.26998767,-1.18321978\H,0,3.98424819,1.26686916,
 -1.55970603\C,0,5.64456624,-0.0163941,-1.8159973\H,0,6.00305374,-1.005
 20379,-1.49476476\C,0,5.52022594,0.00930749,-3.36624921\H,0,5.28083263
 ,1.0535514,-3.62678045\C,0,1.9455395,-0.0538792,-0.80275851\H,0,1.7781
 0672,0.9267026,-1.26899407\C,0,3.00100007,-0.55051042,-3.16377788\H,0,
 2.68380607,0.47178965,-3.41333085\H,0,2.23312967,-1.22406091,-3.562256
 71\C,0,6.86969068,-0.30758753,-4.10083964\C,0,4.13123818,0.32677119,0.
 34971692\H,0,4.57591986,1.23003576,0.77364413\H,0,4.65330025,-0.515770
 4,0.81552467\C,0,4.33791478,-0.85361765,-3.86653865\H,0,4.57116212,-1.
 91559394,-3.7350826\H,0,4.20585728,-0.70452281,-4.9438759\C,0,2.597148
 21,0.2391359,0.58569302\H,0,2.36096332,-0.54693371,1.31024351\H,0,2.19
 426676,1.16890059,1.00268497\C,0,6.69591236,1.0120424,-1.35531285\H,0,
 6.2247784,2.00392779,-1.30356735\C,0,0.52640352,-0.68259881,-0.6874128
 2\H,0,0.,0.,0.\C,0,3.40175007,-2.14794887,-1.24301537\H,0,4.38992971,-
 2.47768071,-1.57458167\H,0,3.357246,-2.30391225,-0.16236824\H,0,2.6701
 4796,-2.81830536,-1.70343409\C,0,8.01329549,0.48178245,-3.45431743\C,0
 ,6.74660773,0.14661849,-5.58921823\H,0,6.31726553,1.15789321,-5.605079
 75\H,0,6.03423163,-0.50126955,-6.1107069\C,0,7.89396698,1.08048668,-2.
 26027235\H,0,8.72870589,1.65768525,-1.86262673\C,0,7.21230353,-1.82057
 096,-4.04700405\H,0,6.51319557,-2.40927672,-4.64884447\H,0,8.215668,-2
 .01968035,-4.43236919\H,0,7.1808786,-2.19791513,-3.02027536\C,0,9.3134
 9879,0.57838614,-4.23001887\H,0,10.0117846,1.24716479,-3.71734155\H,0,
 9.79638544,-0.41141712,-4.27159139\C,0,8.06882161,0.17220757,-6.371678
 75\H,0,8.47485907,-0.84510796,-6.47441655\H,0,7.89495928,0.54411924,-7
 .38779333\C,0,-0.29555045,-0.67848457,-1.99846105\H,0,0.19681,-1.31220
 925,-2.74807599\H,0,-1.25611133,-1.16900039,-1.78429284\C,0,9.10530789
 ,1.05382276,-5.67561826\H,0,8.7450043,2.08969284,-5.66124167\C,0,0.435
 74364,-2.08052197,-0.04228391\H,0,0.72840111,-2.87357653,-0.73660185\H
 ,0,-0.59946071,-2.28002246,0.25719278\H,0,1.05643549,-2.17470663,0.853
 35785\C,0,-0.59535768,0.7001486,-2.60764879\H,0,-1.0368951,1.34019202,
 -1.83160351\H,0,0.33707485,1.18616475,-2.91552155\C,0,-1.54692117,0.60
 79948,-3.8118912\H,0,-2.47649861,0.11785163,-3.48814977\H,0,-1.0993861
 5,-0.0597151,-4.56248862\C,0,-1.91698473,1.93942071,-4.50622127\H,0,-2
 .59873794,1.67153824,-5.3270263\C,0,-0.70168484,2.63681327,-5.13983671
 \H,0,0.00224251,2.99365432,-4.37913976\H,0,-1.0146271,3.50708702,-5.72
 798876\H,0,-0.15716969,1.96007645,-5.80893862\C,0,-2.6821055,2.8982460
 1,-3.57889041\H,0,-2.04790577,3.26380547,-2.76304012\H,0,-3.03892006,3
 .77426211,-4.13250143\H,0,-3.55465247,2.40855897,-3.13060611\\Version=
 EM64L-G09RevD.01\HF=-1198.9212711\RMSD=5.172e-07\Dipole=-0.2422407,-0.
 9641951,-0.4087358\Quadrupole=-3.407908,2.4124308,0.9954772,-18.781253
 ,0.5334918,7.5038634\PG=C01 [X(C27H46O2)]\\@


 ANYONE WHO IS NOT SHOCKED BY QUANTUM THEORY HAS
 NOT UNDERSTOOD IT. -- NIELS BOHR(1885-1962)
 Job cpu time:       0 days  0 hours 11 minutes 16.4 seconds.
 File lengths (MBytes):  RWF=    150 Int=      0 D2E=      0 Chk=     11 Scr=      1
 Normal termination of Gaussian 09 at Thu May 18 13:11:32 2017.
