 Entering Gaussian System, Link 0=/home/michal/g09/g09
 Input=JOB2-gau_m1-11-2.com
 Output=JOB2-gau_m1-11-2.log
 Initial command:
 /home/michal/g09/l1.exe "/home/michal/gauss_scratch/Gau-24094.inp" -scrdir="/home/michal/gauss_scratch/"
 Entering Link 1 = /home/michal/g09/l1.exe PID=     24095.
  
 Copyright (c) 1988,1990,1992,1993,1995,1998,2003,2009,2013,
            Gaussian, Inc.  All Rights Reserved.
  
 This is part of the Gaussian(R) 09 program.  It is based on
 the Gaussian(R) 03 system (copyright 2003, Gaussian, Inc.),
 the Gaussian(R) 98 system (copyright 1998, Gaussian, Inc.),
 the Gaussian(R) 94 system (copyright 1995, Gaussian, Inc.),
 the Gaussian 92(TM) system (copyright 1992, Gaussian, Inc.),
 the Gaussian 90(TM) system (copyright 1990, Gaussian, Inc.),
 the Gaussian 88(TM) system (copyright 1988, Gaussian, Inc.),
 the Gaussian 86(TM) system (copyright 1986, Carnegie Mellon
 University), and the Gaussian 82(TM) system (copyright 1983,
 Carnegie Mellon University). Gaussian is a federally registered
 trademark of Gaussian, Inc.
  
 This software contains proprietary and confidential information,
 including trade secrets, belonging to Gaussian, Inc.
  
 This software is provided under written license and may be
 used, copied, transmitted, or stored only in accord with that
 written license.
  
 The following legend is applicable only to US Government
 contracts under FAR:
  
                    RESTRICTED RIGHTS LEGEND
  
 Use, reproduction and disclosure by the US Government is
 subject to restrictions as set forth in subparagraphs (a)
 and (c) of the Commercial Computer Software - Restricted
 Rights clause in FAR 52.227-19.
  
 Gaussian, Inc.
 340 Quinnipiac St., Bldg. 40, Wallingford CT 06492
  
  
 ---------------------------------------------------------------
 Warning -- This program may not be used in any manner that
 competes with the business of Gaussian, Inc. or will provide
 assistance to any competitor of Gaussian, Inc.  The licensee
 of this program is prohibited from giving any competitor of
 Gaussian, Inc. access to this program.  By using this program,
 the user acknowledges that Gaussian, Inc. is engaged in the
 business of creating and licensing software in the field of
 computational chemistry and represents and warrants to the
 licensee that it is not a competitor of Gaussian, Inc. and that
 it will not use this program in any manner prohibited above.
 ---------------------------------------------------------------
  

 Cite this work as:
 Gaussian 09, Revision D.01,
 M. J. Frisch, G. W. Trucks, H. B. Schlegel, G. E. Scuseria, 
 M. A. Robb, J. R. Cheeseman, G. Scalmani, V. Barone, B. Mennucci, 
 G. A. Petersson, H. Nakatsuji, M. Caricato, X. Li, H. P. Hratchian, 
 A. F. Izmaylov, J. Bloino, G. Zheng, J. L. Sonnenberg, M. Hada, 
 M. Ehara, K. Toyota, R. Fukuda, J. Hasegawa, M. Ishida, T. Nakajima, 
 Y. Honda, O. Kitao, H. Nakai, T. Vreven, J. A. Montgomery, Jr., 
 J. E. Peralta, F. Ogliaro, M. Bearpark, J. J. Heyd, E. Brothers, 
 K. N. Kudin, V. N. Staroverov, T. Keith, R. Kobayashi, J. Normand, 
 K. Raghavachari, A. Rendell, J. C. Burant, S. S. Iyengar, J. Tomasi, 
 M. Cossi, N. Rega, J. M. Millam, M. Klene, J. E. Knox, J. B. Cross, 
 V. Bakken, C. Adamo, J. Jaramillo, R. Gomperts, R. E. Stratmann, 
 O. Yazyev, A. J. Austin, R. Cammi, C. Pomelli, J. W. Ochterski, 
 R. L. Martin, K. Morokuma, V. G. Zakrzewski, G. A. Voth, 
 P. Salvador, J. J. Dannenberg, S. Dapprich, A. D. Daniels, 
 O. Farkas, J. B. Foresman, J. V. Ortiz, J. Cioslowski, 
 and D. J. Fox, Gaussian, Inc., Wallingford CT, 2013.
 
 ******************************************
 Gaussian 09:  EM64L-G09RevD.01 24-Apr-2013
                18-May-2017 
 ******************************************
 %Mem=256MB
 %NProc=12
 Will use up to   12 processors via shared memory.
 ----------------------------------------------------------------------
 #P HF/6-31G* SCF(Conver=6) NoSymm Test Pop=mk IOp(6/33=2) GFInput GFPr
 int
 ----------------------------------------------------------------------
 1/38=1/1;
 2/12=2,15=1,17=6,18=5,40=1/2;
 3/5=1,6=6,7=1,11=9,16=1,24=110,25=1,30=1/1,2,3;
 4//1;
 5/5=2,6=6,38=5/2;
 6/7=2,8=2,9=2,10=2,15=8,20=1,28=1,33=2/1,2;
 99/5=1,9=1/99;
 Leave Link    1 at Thu May 18 12:59:20 2017, MaxMem=    33554432 cpu:         0.6
 (Enter /home/michal/g09/l101.exe)
 ----------------------------------------------
 MEP - Input generated by R.E.D.-III.x MOLECULE
 ----------------------------------------------
 Symbolic Z-matrix:
 Charge =  0 Multiplicity = 1
 O                     6.70308   0.90241   0. 
 H                     7.05231   0.        0. 
 O                     9.78075   0.33926  -6.44581 
 H                     9.90547  -0.61838  -6.50522 
 C                     2.42718   0.52561  -1.54914 
 C                     3.79084   1.15396  -1.13944 
 H                     3.75857   2.1837   -1.53605 
 C                     5.03124   0.51053  -1.78474 
 H                     5.11933  -0.53476  -1.45357 
 C                     4.89325   0.55207  -3.33252 
 H                     4.93093   1.61974  -3.60491 
 C                     1.45333   1.41875  -0.70489 
 H                     1.43494   2.3952   -1.2114 
 C                     2.31665   0.66263  -3.08017 
 H                     2.26362   1.73094  -3.33539 
 H                     1.39847   0.20573  -3.46304 
 C                     6.10009  -0.1149   -4.08042 
 C                     3.7063    1.27714   0.39096 
 H                     4.37716   2.04449   0.78414 
 H                     4.00455   0.33941   0.87155 
 C                     3.51841   0.02284  -3.80144 
 H                     3.47257  -1.06271  -3.66272 
 H                     3.40712   0.19394  -4.87792 
 C                     2.20841   1.59263   0.65327 
 H                     1.79642   0.91196   1.40783 
 H                     2.07301   2.60471   1.04826 
 C                     6.32328   1.23027  -1.35141 
 H                     6.12923   2.31129  -1.30391 
 C                    -0.01776   0.97265  -0.51322 
 H                     0.        0.        0. 
 C                     2.3076   -0.9555   -1.12351 
 H                     3.10839  -1.57375  -1.53765 
 H                     2.33984  -1.07249  -0.03627 
 H                     1.35996  -1.38149  -1.46999 
 C                     7.42086   0.35674  -3.46225 
 C                     6.07282   0.33687  -5.57423 
 H                     5.91962   1.42458  -5.60113 
 H                     5.20789  -0.11086  -6.07482 
 C                     7.482     0.97659  -2.27458 
 H                     8.44484   1.32048  -1.89672 
 C                     6.03831  -1.66415  -4.00616 
 H                     5.2003   -2.05831  -4.58921 
 H                     6.94894  -2.12208  -4.40107 
 H                     5.92723  -2.0074   -2.97303 
 C                     8.68764   0.10426  -4.25805 
 H                     9.54444   0.57492  -3.76603 
 H                     8.89674  -0.97732  -4.29093 
 C                     7.34252   0.00927  -6.37513 
 H                     7.46949  -1.07972  -6.46711 
 H                     7.25312   0.40123  -7.39465 
 C                    -0.79998   1.92398   0.43183 
 H                    -1.79553   1.48568   0.59239 
 H                    -0.3181    1.93474   1.41737 
 C                     8.58395   0.60052  -5.70786 
 H                     8.50428   1.69445  -5.70491 
 C                    -0.78806   0.77798  -1.83295 
 H                    -0.70946   1.65427  -2.48613 
 H                    -1.85276   0.60842  -1.63285 
 H                    -0.42376  -0.08474  -2.39651 
 C                    -0.97907   3.37557  -0.04384 
 H                     0.00368   3.84385  -0.17793 
 H                    -1.46364   3.38447  -1.02763 
 C                    -1.81211   4.20433   0.94795 
 H                    -1.32336   4.16907   1.93246 
 H                    -2.78905   3.71654   1.07858 
 C                    -2.05559   5.68673   0.58038 
 H                    -2.66277   6.10365   1.39758 
 C                    -2.86886   5.85089  -0.71439 
 H                    -2.30423   5.51544  -1.592 
 H                    -3.13259   6.90199  -0.8785 
 H                    -3.80097   5.27483  -0.67611 
 C                    -0.75496   6.50512   0.52286 
 H                    -0.11628   6.19182  -0.31109 
 H                    -0.97072   7.57091   0.38571 
 H                    -0.17482   6.39821   1.44701 
 
 NAtoms=     75 NQM=       75 NQMF=       0 NMMI=      0 NMMIF=      0
                NMic=       0 NMicF=      0.
                    Isotopes and Nuclear Properties:
 (Nuclear quadrupole moments (NQMom) in fm**2, nuclear magnetic moments (NMagM)
  in nuclear magnetons)

  Atom         1           2           3           4           5           6           7           8           9          10
 IAtWgt=          16           1          16           1          12          12           1          12           1          12
 AtmWgt=  15.9949146   1.0078250  15.9949146   1.0078250  12.0000000  12.0000000   1.0078250  12.0000000   1.0078250  12.0000000
 NucSpn=           0           1           0           1           0           0           1           0           1           0
 AtZEff=   0.0000000   0.0000000   0.0000000   0.0000000   0.0000000   0.0000000   0.0000000   0.0000000   0.0000000   0.0000000
 NQMom=    0.0000000   0.0000000   0.0000000   0.0000000   0.0000000   0.0000000   0.0000000   0.0000000   0.0000000   0.0000000
 NMagM=    0.0000000   2.7928460   0.0000000   2.7928460   0.0000000   0.0000000   2.7928460   0.0000000   2.7928460   0.0000000
 AtZNuc=   8.0000000   1.0000000   8.0000000   1.0000000   6.0000000   6.0000000   1.0000000   6.0000000   1.0000000   6.0000000

  Atom        11          12          13          14          15          16          17          18          19          20
 IAtWgt=           1          12           1          12           1           1          12          12           1           1
 AtmWgt=   1.0078250  12.0000000   1.0078250  12.0000000   1.0078250   1.0078250  12.0000000  12.0000000   1.0078250   1.0078250
 NucSpn=           1           0           1           0           1           1           0           0           1           1
 AtZEff=   0.0000000   0.0000000   0.0000000   0.0000000   0.0000000   0.0000000   0.0000000   0.0000000   0.0000000   0.0000000
 NQMom=    0.0000000   0.0000000   0.0000000   0.0000000   0.0000000   0.0000000   0.0000000   0.0000000   0.0000000   0.0000000
 NMagM=    2.7928460   0.0000000   2.7928460   0.0000000   2.7928460   2.7928460   0.0000000   0.0000000   2.7928460   2.7928460
 AtZNuc=   1.0000000   6.0000000   1.0000000   6.0000000   1.0000000   1.0000000   6.0000000   6.0000000   1.0000000   1.0000000

  Atom        21          22          23          24          25          26          27          28          29          30
 IAtWgt=          12           1           1          12           1           1          12           1          12           1
 AtmWgt=  12.0000000   1.0078250   1.0078250  12.0000000   1.0078250   1.0078250  12.0000000   1.0078250  12.0000000   1.0078250
 NucSpn=           0           1           1           0           1           1           0           1           0           1
 AtZEff=   0.0000000   0.0000000   0.0000000   0.0000000   0.0000000   0.0000000   0.0000000   0.0000000   0.0000000   0.0000000
 NQMom=    0.0000000   0.0000000   0.0000000   0.0000000   0.0000000   0.0000000   0.0000000   0.0000000   0.0000000   0.0000000
 NMagM=    0.0000000   2.7928460   2.7928460   0.0000000   2.7928460   2.7928460   0.0000000   2.7928460   0.0000000   2.7928460
 AtZNuc=   6.0000000   1.0000000   1.0000000   6.0000000   1.0000000   1.0000000   6.0000000   1.0000000   6.0000000   1.0000000

  Atom        31          32          33          34          35          36          37          38          39          40
 IAtWgt=          12           1           1           1          12          12           1           1          12           1
 AtmWgt=  12.0000000   1.0078250   1.0078250   1.0078250  12.0000000  12.0000000   1.0078250   1.0078250  12.0000000   1.0078250
 NucSpn=           0           1           1           1           0           0           1           1           0           1
 AtZEff=   0.0000000   0.0000000   0.0000000   0.0000000   0.0000000   0.0000000   0.0000000   0.0000000   0.0000000   0.0000000
 NQMom=    0.0000000   0.0000000   0.0000000   0.0000000   0.0000000   0.0000000   0.0000000   0.0000000   0.0000000   0.0000000
 NMagM=    0.0000000   2.7928460   2.7928460   2.7928460   0.0000000   0.0000000   2.7928460   2.7928460   0.0000000   2.7928460
 AtZNuc=   6.0000000   1.0000000   1.0000000   1.0000000   6.0000000   6.0000000   1.0000000   1.0000000   6.0000000   1.0000000

  Atom        41          42          43          44          45          46          47          48          49          50
 IAtWgt=          12           1           1           1          12           1           1          12           1           1
 AtmWgt=  12.0000000   1.0078250   1.0078250   1.0078250  12.0000000   1.0078250   1.0078250  12.0000000   1.0078250   1.0078250
 NucSpn=           0           1           1           1           0           1           1           0           1           1
 AtZEff=   0.0000000   0.0000000   0.0000000   0.0000000   0.0000000   0.0000000   0.0000000   0.0000000   0.0000000   0.0000000
 NQMom=    0.0000000   0.0000000   0.0000000   0.0000000   0.0000000   0.0000000   0.0000000   0.0000000   0.0000000   0.0000000
 NMagM=    0.0000000   2.7928460   2.7928460   2.7928460   0.0000000   2.7928460   2.7928460   0.0000000   2.7928460   2.7928460
 AtZNuc=   6.0000000   1.0000000   1.0000000   1.0000000   6.0000000   1.0000000   1.0000000   6.0000000   1.0000000   1.0000000

  Atom        51          52          53          54          55          56          57          58          59          60
 IAtWgt=          12           1           1          12           1          12           1           1           1          12
 AtmWgt=  12.0000000   1.0078250   1.0078250  12.0000000   1.0078250  12.0000000   1.0078250   1.0078250   1.0078250  12.0000000
 NucSpn=           0           1           1           0           1           0           1           1           1           0
 AtZEff=   0.0000000   0.0000000   0.0000000   0.0000000   0.0000000   0.0000000   0.0000000   0.0000000   0.0000000   0.0000000
 NQMom=    0.0000000   0.0000000   0.0000000   0.0000000   0.0000000   0.0000000   0.0000000   0.0000000   0.0000000   0.0000000
 NMagM=    0.0000000   2.7928460   2.7928460   0.0000000   2.7928460   0.0000000   2.7928460   2.7928460   2.7928460   0.0000000
 AtZNuc=   6.0000000   1.0000000   1.0000000   6.0000000   1.0000000   6.0000000   1.0000000   1.0000000   1.0000000   6.0000000

  Atom        61          62          63          64          65          66          67          68          69          70
 IAtWgt=           1           1          12           1           1          12           1          12           1           1
 AtmWgt=   1.0078250   1.0078250  12.0000000   1.0078250   1.0078250  12.0000000   1.0078250  12.0000000   1.0078250   1.0078250
 NucSpn=           1           1           0           1           1           0           1           0           1           1
 AtZEff=   0.0000000   0.0000000   0.0000000   0.0000000   0.0000000   0.0000000   0.0000000   0.0000000   0.0000000   0.0000000
 NQMom=    0.0000000   0.0000000   0.0000000   0.0000000   0.0000000   0.0000000   0.0000000   0.0000000   0.0000000   0.0000000
 NMagM=    2.7928460   2.7928460   0.0000000   2.7928460   2.7928460   0.0000000   2.7928460   0.0000000   2.7928460   2.7928460
 AtZNuc=   1.0000000   1.0000000   6.0000000   1.0000000   1.0000000   6.0000000   1.0000000   6.0000000   1.0000000   1.0000000

  Atom        71          72          73          74          75
 IAtWgt=           1          12           1           1           1
 AtmWgt=   1.0078250  12.0000000   1.0078250   1.0078250   1.0078250
 NucSpn=           1           0           1           1           1
 AtZEff=   0.0000000   0.0000000   0.0000000   0.0000000   0.0000000
 NQMom=    0.0000000   0.0000000   0.0000000   0.0000000   0.0000000
 NMagM=    2.7928460   0.0000000   2.7928460   2.7928460   2.7928460
 AtZNuc=   1.0000000   6.0000000   1.0000000   1.0000000   1.0000000
 Leave Link  101 at Thu May 18 12:59:20 2017, MaxMem=    33554432 cpu:         1.0
 (Enter /home/michal/g09/l202.exe)
 Symmetry turned off by external request.
 Stoichiometry    C27H46O2
 Framework group  C1[X(C27H46O2)]
 Deg. of freedom   219
 Full point group                 C1      NOp   1
                          Input orientation:                          
 ---------------------------------------------------------------------
 Center     Atomic      Atomic             Coordinates (Angstroms)
 Number     Number       Type             X           Y           Z
 ---------------------------------------------------------------------
      1          8           0        6.703077    0.902412    0.000000
      2          1           0        7.052312    0.000000    0.000000
      3          8           0        9.780745    0.339258   -6.445807
      4          1           0        9.905471   -0.618383   -6.505221
      5          6           0        2.427182    0.525608   -1.549141
      6          6           0        3.790838    1.153956   -1.139440
      7          1           0        3.758570    2.183703   -1.536047
      8          6           0        5.031244    0.510531   -1.784735
      9          1           0        5.119330   -0.534763   -1.453570
     10          6           0        4.893251    0.552070   -3.332520
     11          1           0        4.930932    1.619745   -3.604913
     12          6           0        1.453331    1.418754   -0.704892
     13          1           0        1.434940    2.395196   -1.211397
     14          6           0        2.316654    0.662629   -3.080174
     15          1           0        2.263625    1.730940   -3.335390
     16          1           0        1.398473    0.205731   -3.463037
     17          6           0        6.100095   -0.114901   -4.080423
     18          6           0        3.706300    1.277136    0.390961
     19          1           0        4.377158    2.044494    0.784136
     20          1           0        4.004548    0.339409    0.871552
     21          6           0        3.518411    0.022841   -3.801440
     22          1           0        3.472568   -1.062711   -3.662723
     23          1           0        3.407120    0.193940   -4.877917
     24          6           0        2.208407    1.592629    0.653272
     25          1           0        1.796422    0.911963    1.407828
     26          1           0        2.073007    2.604713    1.048263
     27          6           0        6.323278    1.230269   -1.351407
     28          1           0        6.129229    2.311286   -1.303910
     29          6           0       -0.017760    0.972650   -0.513217
     30          1           0        0.000000    0.000000    0.000000
     31          6           0        2.307600   -0.955502   -1.123506
     32          1           0        3.108393   -1.573753   -1.537654
     33          1           0        2.339838   -1.072485   -0.036270
     34          1           0        1.359962   -1.381489   -1.469995
     35          6           0        7.420862    0.356742   -3.462255
     36          6           0        6.072825    0.336874   -5.574227
     37          1           0        5.919621    1.424577   -5.601128
     38          1           0        5.207886   -0.110856   -6.074824
     39          6           0        7.482005    0.976594   -2.274578
     40          1           0        8.444841    1.320476   -1.896724
     41          6           0        6.038311   -1.664154   -4.006161
     42          1           0        5.200301   -2.058309   -4.589213
     43          1           0        6.948943   -2.122081   -4.401073
     44          1           0        5.927229   -2.007395   -2.973030
     45          6           0        8.687640    0.104264   -4.258055
     46          1           0        9.544443    0.574919   -3.766034
     47          1           0        8.896735   -0.977320   -4.290932
     48          6           0        7.342520    0.009268   -6.375134
     49          1           0        7.469489   -1.079721   -6.467108
     50          1           0        7.253120    0.401226   -7.394654
     51          6           0       -0.799985    1.923982    0.431835
     52          1           0       -1.795531    1.485679    0.592385
     53          1           0       -0.318100    1.934745    1.417367
     54          6           0        8.583951    0.600515   -5.707856
     55          1           0        8.504283    1.694451   -5.704910
     56          6           0       -0.788062    0.777978   -1.832951
     57          1           0       -0.709458    1.654272   -2.486125
     58          1           0       -1.852761    0.608420   -1.632849
     59          1           0       -0.423760   -0.084742   -2.396510
     60          6           0       -0.979067    3.375574   -0.043842
     61          1           0        0.003677    3.843855   -0.177928
     62          1           0       -1.463643    3.384470   -1.027627
     63          6           0       -1.812108    4.204330    0.947948
     64          1           0       -1.323362    4.169069    1.932464
     65          1           0       -2.789046    3.716535    1.078580
     66          6           0       -2.055590    5.686730    0.580377
     67          1           0       -2.662768    6.103651    1.397583
     68          6           0       -2.868856    5.850891   -0.714390
     69          1           0       -2.304228    5.515440   -1.591995
     70          1           0       -3.132591    6.901986   -0.878495
     71          1           0       -3.800971    5.274834   -0.676114
     72          6           0       -0.754963    6.505116    0.522856
     73          1           0       -0.116280    6.191822   -0.311094
     74          1           0       -0.970722    7.570914    0.385709
     75          1           0       -0.174824    6.398208    1.447015
 ---------------------------------------------------------------------
 Rotational constants (GHZ):      0.3312063      0.0606343      0.0603461
 Leave Link  202 at Thu May 18 12:59:20 2017, MaxMem=    33554432 cpu:         0.0
 (Enter /home/michal/g09/l301.exe)
 Standard basis: 6-31G(d) (6D, 7F)
 Ernie: Thresh=  0.10000D-02 Tol=  0.10000D-05 Strict=F.
 AO basis set in the form of general basis input (Overlap normalization):
      1 0
 S   6 1.00       0.000000000000
      0.5484671660D+04  0.1831074430D-02
      0.8252349460D+03  0.1395017220D-01
      0.1880469580D+03  0.6844507810D-01
      0.5296450000D+02  0.2327143360D+00
      0.1689757040D+02  0.4701928980D+00
      0.5799635340D+01  0.3585208530D+00
 SP   3 1.00       0.000000000000
      0.1553961625D+02 -0.1107775495D+00  0.7087426823D-01
      0.3599933586D+01 -0.1480262627D+00  0.3397528391D+00
      0.1013761750D+01  0.1130767015D+01  0.7271585773D+00
 SP   1 1.00       0.000000000000
      0.2700058226D+00  0.1000000000D+01  0.1000000000D+01
 D   1 1.00       0.000000000000
      0.8000000000D+00  0.1000000000D+01
 ****
      2 0
 S   3 1.00       0.000000000000
      0.1873113696D+02  0.3349460434D-01
      0.2825394365D+01  0.2347269535D+00
      0.6401216923D+00  0.8137573261D+00
 S   1 1.00       0.000000000000
      0.1612777588D+00  0.1000000000D+01
 ****
      3 0
 S   6 1.00       0.000000000000
      0.5484671660D+04  0.1831074430D-02
      0.8252349460D+03  0.1395017220D-01
      0.1880469580D+03  0.6844507810D-01
      0.5296450000D+02  0.2327143360D+00
      0.1689757040D+02  0.4701928980D+00
      0.5799635340D+01  0.3585208530D+00
 SP   3 1.00       0.000000000000
      0.1553961625D+02 -0.1107775495D+00  0.7087426823D-01
      0.3599933586D+01 -0.1480262627D+00  0.3397528391D+00
      0.1013761750D+01  0.1130767015D+01  0.7271585773D+00
 SP   1 1.00       0.000000000000
      0.2700058226D+00  0.1000000000D+01  0.1000000000D+01
 D   1 1.00       0.000000000000
      0.8000000000D+00  0.1000000000D+01
 ****
      4 0
 S   3 1.00       0.000000000000
      0.1873113696D+02  0.3349460434D-01
      0.2825394365D+01  0.2347269535D+00
      0.6401216923D+00  0.8137573261D+00
 S   1 1.00       0.000000000000
      0.1612777588D+00  0.1000000000D+01
 ****
      5 0
 S   6 1.00       0.000000000000
      0.3047524880D+04  0.1834737132D-02
      0.4573695180D+03  0.1403732281D-01
      0.1039486850D+03  0.6884262226D-01
      0.2921015530D+02  0.2321844432D+00
      0.9286662960D+01  0.4679413484D+00
      0.3163926960D+01  0.3623119853D+00
 SP   3 1.00       0.000000000000
      0.7868272350D+01 -0.1193324198D+00  0.6899906659D-01
      0.1881288540D+01 -0.1608541517D+00  0.3164239610D+00
      0.5442492580D+00  0.1143456438D+01  0.7443082909D+00
 SP   1 1.00       0.000000000000
      0.1687144782D+00  0.1000000000D+01  0.1000000000D+01
 D   1 1.00       0.000000000000
      0.8000000000D+00  0.1000000000D+01
 ****
      6 0
 S   6 1.00       0.000000000000
      0.3047524880D+04  0.1834737132D-02
      0.4573695180D+03  0.1403732281D-01
      0.1039486850D+03  0.6884262226D-01
      0.2921015530D+02  0.2321844432D+00
      0.9286662960D+01  0.4679413484D+00
      0.3163926960D+01  0.3623119853D+00
 SP   3 1.00       0.000000000000
      0.7868272350D+01 -0.1193324198D+00  0.6899906659D-01
      0.1881288540D+01 -0.1608541517D+00  0.3164239610D+00
      0.5442492580D+00  0.1143456438D+01  0.7443082909D+00
 SP   1 1.00       0.000000000000
      0.1687144782D+00  0.1000000000D+01  0.1000000000D+01
 D   1 1.00       0.000000000000
      0.8000000000D+00  0.1000000000D+01
 ****
      7 0
 S   3 1.00       0.000000000000
      0.1873113696D+02  0.3349460434D-01
      0.2825394365D+01  0.2347269535D+00
      0.6401216923D+00  0.8137573261D+00
 S   1 1.00       0.000000000000
      0.1612777588D+00  0.1000000000D+01
 ****
      8 0
 S   6 1.00       0.000000000000
      0.3047524880D+04  0.1834737132D-02
      0.4573695180D+03  0.1403732281D-01
      0.1039486850D+03  0.6884262226D-01
      0.2921015530D+02  0.2321844432D+00
      0.9286662960D+01  0.4679413484D+00
      0.3163926960D+01  0.3623119853D+00
 SP   3 1.00       0.000000000000
      0.7868272350D+01 -0.1193324198D+00  0.6899906659D-01
      0.1881288540D+01 -0.1608541517D+00  0.3164239610D+00
      0.5442492580D+00  0.1143456438D+01  0.7443082909D+00
 SP   1 1.00       0.000000000000
      0.1687144782D+00  0.1000000000D+01  0.1000000000D+01
 D   1 1.00       0.000000000000
      0.8000000000D+00  0.1000000000D+01
 ****
      9 0
 S   3 1.00       0.000000000000
      0.1873113696D+02  0.3349460434D-01
      0.2825394365D+01  0.2347269535D+00
      0.6401216923D+00  0.8137573261D+00
 S   1 1.00       0.000000000000
      0.1612777588D+00  0.1000000000D+01
 ****
     10 0
 S   6 1.00       0.000000000000
      0.3047524880D+04  0.1834737132D-02
      0.4573695180D+03  0.1403732281D-01
      0.1039486850D+03  0.6884262226D-01
      0.2921015530D+02  0.2321844432D+00
      0.9286662960D+01  0.4679413484D+00
      0.3163926960D+01  0.3623119853D+00
 SP   3 1.00       0.000000000000
      0.7868272350D+01 -0.1193324198D+00  0.6899906659D-01
      0.1881288540D+01 -0.1608541517D+00  0.3164239610D+00
      0.5442492580D+00  0.1143456438D+01  0.7443082909D+00
 SP   1 1.00       0.000000000000
      0.1687144782D+00  0.1000000000D+01  0.1000000000D+01
 D   1 1.00       0.000000000000
      0.8000000000D+00  0.1000000000D+01
 ****
     11 0
 S   3 1.00       0.000000000000
      0.1873113696D+02  0.3349460434D-01
      0.2825394365D+01  0.2347269535D+00
      0.6401216923D+00  0.8137573261D+00
 S   1 1.00       0.000000000000
      0.1612777588D+00  0.1000000000D+01
 ****
     12 0
 S   6 1.00       0.000000000000
      0.3047524880D+04  0.1834737132D-02
      0.4573695180D+03  0.1403732281D-01
      0.1039486850D+03  0.6884262226D-01
      0.2921015530D+02  0.2321844432D+00
      0.9286662960D+01  0.4679413484D+00
      0.3163926960D+01  0.3623119853D+00
 SP   3 1.00       0.000000000000
      0.7868272350D+01 -0.1193324198D+00  0.6899906659D-01
      0.1881288540D+01 -0.1608541517D+00  0.3164239610D+00
      0.5442492580D+00  0.1143456438D+01  0.7443082909D+00
 SP   1 1.00       0.000000000000
      0.1687144782D+00  0.1000000000D+01  0.1000000000D+01
 D   1 1.00       0.000000000000
      0.8000000000D+00  0.1000000000D+01
 ****
     13 0
 S   3 1.00       0.000000000000
      0.1873113696D+02  0.3349460434D-01
      0.2825394365D+01  0.2347269535D+00
      0.6401216923D+00  0.8137573261D+00
 S   1 1.00       0.000000000000
      0.1612777588D+00  0.1000000000D+01
 ****
     14 0
 S   6 1.00       0.000000000000
      0.3047524880D+04  0.1834737132D-02
      0.4573695180D+03  0.1403732281D-01
      0.1039486850D+03  0.6884262226D-01
      0.2921015530D+02  0.2321844432D+00
      0.9286662960D+01  0.4679413484D+00
      0.3163926960D+01  0.3623119853D+00
 SP   3 1.00       0.000000000000
      0.7868272350D+01 -0.1193324198D+00  0.6899906659D-01
      0.1881288540D+01 -0.1608541517D+00  0.3164239610D+00
      0.5442492580D+00  0.1143456438D+01  0.7443082909D+00
 SP   1 1.00       0.000000000000
      0.1687144782D+00  0.1000000000D+01  0.1000000000D+01
 D   1 1.00       0.000000000000
      0.8000000000D+00  0.1000000000D+01
 ****
     15 0
 S   3 1.00       0.000000000000
      0.1873113696D+02  0.3349460434D-01
      0.2825394365D+01  0.2347269535D+00
      0.6401216923D+00  0.8137573261D+00
 S   1 1.00       0.000000000000
      0.1612777588D+00  0.1000000000D+01
 ****
     16 0
 S   3 1.00       0.000000000000
      0.1873113696D+02  0.3349460434D-01
      0.2825394365D+01  0.2347269535D+00
      0.6401216923D+00  0.8137573261D+00
 S   1 1.00       0.000000000000
      0.1612777588D+00  0.1000000000D+01
 ****
     17 0
 S   6 1.00       0.000000000000
      0.3047524880D+04  0.1834737132D-02
      0.4573695180D+03  0.1403732281D-01
      0.1039486850D+03  0.6884262226D-01
      0.2921015530D+02  0.2321844432D+00
      0.9286662960D+01  0.4679413484D+00
      0.3163926960D+01  0.3623119853D+00
 SP   3 1.00       0.000000000000
      0.7868272350D+01 -0.1193324198D+00  0.6899906659D-01
      0.1881288540D+01 -0.1608541517D+00  0.3164239610D+00
      0.5442492580D+00  0.1143456438D+01  0.7443082909D+00
 SP   1 1.00       0.000000000000
      0.1687144782D+00  0.1000000000D+01  0.1000000000D+01
 D   1 1.00       0.000000000000
      0.8000000000D+00  0.1000000000D+01
 ****
     18 0
 S   6 1.00       0.000000000000
      0.3047524880D+04  0.1834737132D-02
      0.4573695180D+03  0.1403732281D-01
      0.1039486850D+03  0.6884262226D-01
      0.2921015530D+02  0.2321844432D+00
      0.9286662960D+01  0.4679413484D+00
      0.3163926960D+01  0.3623119853D+00
 SP   3 1.00       0.000000000000
      0.7868272350D+01 -0.1193324198D+00  0.6899906659D-01
      0.1881288540D+01 -0.1608541517D+00  0.3164239610D+00
      0.5442492580D+00  0.1143456438D+01  0.7443082909D+00
 SP   1 1.00       0.000000000000
      0.1687144782D+00  0.1000000000D+01  0.1000000000D+01
 D   1 1.00       0.000000000000
      0.8000000000D+00  0.1000000000D+01
 ****
     19 0
 S   3 1.00       0.000000000000
      0.1873113696D+02  0.3349460434D-01
      0.2825394365D+01  0.2347269535D+00
      0.6401216923D+00  0.8137573261D+00
 S   1 1.00       0.000000000000
      0.1612777588D+00  0.1000000000D+01
 ****
     20 0
 S   3 1.00       0.000000000000
      0.1873113696D+02  0.3349460434D-01
      0.2825394365D+01  0.2347269535D+00
      0.6401216923D+00  0.8137573261D+00
 S   1 1.00       0.000000000000
      0.1612777588D+00  0.1000000000D+01
 ****
     21 0
 S   6 1.00       0.000000000000
      0.3047524880D+04  0.1834737132D-02
      0.4573695180D+03  0.1403732281D-01
      0.1039486850D+03  0.6884262226D-01
      0.2921015530D+02  0.2321844432D+00
      0.9286662960D+01  0.4679413484D+00
      0.3163926960D+01  0.3623119853D+00
 SP   3 1.00       0.000000000000
      0.7868272350D+01 -0.1193324198D+00  0.6899906659D-01
      0.1881288540D+01 -0.1608541517D+00  0.3164239610D+00
      0.5442492580D+00  0.1143456438D+01  0.7443082909D+00
 SP   1 1.00       0.000000000000
      0.1687144782D+00  0.1000000000D+01  0.1000000000D+01
 D   1 1.00       0.000000000000
      0.8000000000D+00  0.1000000000D+01
 ****
     22 0
 S   3 1.00       0.000000000000
      0.1873113696D+02  0.3349460434D-01
      0.2825394365D+01  0.2347269535D+00
      0.6401216923D+00  0.8137573261D+00
 S   1 1.00       0.000000000000
      0.1612777588D+00  0.1000000000D+01
 ****
     23 0
 S   3 1.00       0.000000000000
      0.1873113696D+02  0.3349460434D-01
      0.2825394365D+01  0.2347269535D+00
      0.6401216923D+00  0.8137573261D+00
 S   1 1.00       0.000000000000
      0.1612777588D+00  0.1000000000D+01
 ****
     24 0
 S   6 1.00       0.000000000000
      0.3047524880D+04  0.1834737132D-02
      0.4573695180D+03  0.1403732281D-01
      0.1039486850D+03  0.6884262226D-01
      0.2921015530D+02  0.2321844432D+00
      0.9286662960D+01  0.4679413484D+00
      0.3163926960D+01  0.3623119853D+00
 SP   3 1.00       0.000000000000
      0.7868272350D+01 -0.1193324198D+00  0.6899906659D-01
      0.1881288540D+01 -0.1608541517D+00  0.3164239610D+00
      0.5442492580D+00  0.1143456438D+01  0.7443082909D+00
 SP   1 1.00       0.000000000000
      0.1687144782D+00  0.1000000000D+01  0.1000000000D+01
 D   1 1.00       0.000000000000
      0.8000000000D+00  0.1000000000D+01
 ****
     25 0
 S   3 1.00       0.000000000000
      0.1873113696D+02  0.3349460434D-01
      0.2825394365D+01  0.2347269535D+00
      0.6401216923D+00  0.8137573261D+00
 S   1 1.00       0.000000000000
      0.1612777588D+00  0.1000000000D+01
 ****
     26 0
 S   3 1.00       0.000000000000
      0.1873113696D+02  0.3349460434D-01
      0.2825394365D+01  0.2347269535D+00
      0.6401216923D+00  0.8137573261D+00
 S   1 1.00       0.000000000000
      0.1612777588D+00  0.1000000000D+01
 ****
     27 0
 S   6 1.00       0.000000000000
      0.3047524880D+04  0.1834737132D-02
      0.4573695180D+03  0.1403732281D-01
      0.1039486850D+03  0.6884262226D-01
      0.2921015530D+02  0.2321844432D+00
      0.9286662960D+01  0.4679413484D+00
      0.3163926960D+01  0.3623119853D+00
 SP   3 1.00       0.000000000000
      0.7868272350D+01 -0.1193324198D+00  0.6899906659D-01
      0.1881288540D+01 -0.1608541517D+00  0.3164239610D+00
      0.5442492580D+00  0.1143456438D+01  0.7443082909D+00
 SP   1 1.00       0.000000000000
      0.1687144782D+00  0.1000000000D+01  0.1000000000D+01
 D   1 1.00       0.000000000000
      0.8000000000D+00  0.1000000000D+01
 ****
     28 0
 S   3 1.00       0.000000000000
      0.1873113696D+02  0.3349460434D-01
      0.2825394365D+01  0.2347269535D+00
      0.6401216923D+00  0.8137573261D+00
 S   1 1.00       0.000000000000
      0.1612777588D+00  0.1000000000D+01
 ****
     29 0
 S   6 1.00       0.000000000000
      0.3047524880D+04  0.1834737132D-02
      0.4573695180D+03  0.1403732281D-01
      0.1039486850D+03  0.6884262226D-01
      0.2921015530D+02  0.2321844432D+00
      0.9286662960D+01  0.4679413484D+00
      0.3163926960D+01  0.3623119853D+00
 SP   3 1.00       0.000000000000
      0.7868272350D+01 -0.1193324198D+00  0.6899906659D-01
      0.1881288540D+01 -0.1608541517D+00  0.3164239610D+00
      0.5442492580D+00  0.1143456438D+01  0.7443082909D+00
 SP   1 1.00       0.000000000000
      0.1687144782D+00  0.1000000000D+01  0.1000000000D+01
 D   1 1.00       0.000000000000
      0.8000000000D+00  0.1000000000D+01
 ****
     30 0
 S   3 1.00       0.000000000000
      0.1873113696D+02  0.3349460434D-01
      0.2825394365D+01  0.2347269535D+00
      0.6401216923D+00  0.8137573261D+00
 S   1 1.00       0.000000000000
      0.1612777588D+00  0.1000000000D+01
 ****
     31 0
 S   6 1.00       0.000000000000
      0.3047524880D+04  0.1834737132D-02
      0.4573695180D+03  0.1403732281D-01
      0.1039486850D+03  0.6884262226D-01
      0.2921015530D+02  0.2321844432D+00
      0.9286662960D+01  0.4679413484D+00
      0.3163926960D+01  0.3623119853D+00
 SP   3 1.00       0.000000000000
      0.7868272350D+01 -0.1193324198D+00  0.6899906659D-01
      0.1881288540D+01 -0.1608541517D+00  0.3164239610D+00
      0.5442492580D+00  0.1143456438D+01  0.7443082909D+00
 SP   1 1.00       0.000000000000
      0.1687144782D+00  0.1000000000D+01  0.1000000000D+01
 D   1 1.00       0.000000000000
      0.8000000000D+00  0.1000000000D+01
 ****
     32 0
 S   3 1.00       0.000000000000
      0.1873113696D+02  0.3349460434D-01
      0.2825394365D+01  0.2347269535D+00
      0.6401216923D+00  0.8137573261D+00
 S   1 1.00       0.000000000000
      0.1612777588D+00  0.1000000000D+01
 ****
     33 0
 S   3 1.00       0.000000000000
      0.1873113696D+02  0.3349460434D-01
      0.2825394365D+01  0.2347269535D+00
      0.6401216923D+00  0.8137573261D+00
 S   1 1.00       0.000000000000
      0.1612777588D+00  0.1000000000D+01
 ****
     34 0
 S   3 1.00       0.000000000000
      0.1873113696D+02  0.3349460434D-01
      0.2825394365D+01  0.2347269535D+00
      0.6401216923D+00  0.8137573261D+00
 S   1 1.00       0.000000000000
      0.1612777588D+00  0.1000000000D+01
 ****
     35 0
 S   6 1.00       0.000000000000
      0.3047524880D+04  0.1834737132D-02
      0.4573695180D+03  0.1403732281D-01
      0.1039486850D+03  0.6884262226D-01
      0.2921015530D+02  0.2321844432D+00
      0.9286662960D+01  0.4679413484D+00
      0.3163926960D+01  0.3623119853D+00
 SP   3 1.00       0.000000000000
      0.7868272350D+01 -0.1193324198D+00  0.6899906659D-01
      0.1881288540D+01 -0.1608541517D+00  0.3164239610D+00
      0.5442492580D+00  0.1143456438D+01  0.7443082909D+00
 SP   1 1.00       0.000000000000
      0.1687144782D+00  0.1000000000D+01  0.1000000000D+01
 D   1 1.00       0.000000000000
      0.8000000000D+00  0.1000000000D+01
 ****
     36 0
 S   6 1.00       0.000000000000
      0.3047524880D+04  0.1834737132D-02
      0.4573695180D+03  0.1403732281D-01
      0.1039486850D+03  0.6884262226D-01
      0.2921015530D+02  0.2321844432D+00
      0.9286662960D+01  0.4679413484D+00
      0.3163926960D+01  0.3623119853D+00
 SP   3 1.00       0.000000000000
      0.7868272350D+01 -0.1193324198D+00  0.6899906659D-01
      0.1881288540D+01 -0.1608541517D+00  0.3164239610D+00
      0.5442492580D+00  0.1143456438D+01  0.7443082909D+00
 SP   1 1.00       0.000000000000
      0.1687144782D+00  0.1000000000D+01  0.1000000000D+01
 D   1 1.00       0.000000000000
      0.8000000000D+00  0.1000000000D+01
 ****
     37 0
 S   3 1.00       0.000000000000
      0.1873113696D+02  0.3349460434D-01
      0.2825394365D+01  0.2347269535D+00
      0.6401216923D+00  0.8137573261D+00
 S   1 1.00       0.000000000000
      0.1612777588D+00  0.1000000000D+01
 ****
     38 0
 S   3 1.00       0.000000000000
      0.1873113696D+02  0.3349460434D-01
      0.2825394365D+01  0.2347269535D+00
      0.6401216923D+00  0.8137573261D+00
 S   1 1.00       0.000000000000
      0.1612777588D+00  0.1000000000D+01
 ****
     39 0
 S   6 1.00       0.000000000000
      0.3047524880D+04  0.1834737132D-02
      0.4573695180D+03  0.1403732281D-01
      0.1039486850D+03  0.6884262226D-01
      0.2921015530D+02  0.2321844432D+00
      0.9286662960D+01  0.4679413484D+00
      0.3163926960D+01  0.3623119853D+00
 SP   3 1.00       0.000000000000
      0.7868272350D+01 -0.1193324198D+00  0.6899906659D-01
      0.1881288540D+01 -0.1608541517D+00  0.3164239610D+00
      0.5442492580D+00  0.1143456438D+01  0.7443082909D+00
 SP   1 1.00       0.000000000000
      0.1687144782D+00  0.1000000000D+01  0.1000000000D+01
 D   1 1.00       0.000000000000
      0.8000000000D+00  0.1000000000D+01
 ****
     40 0
 S   3 1.00       0.000000000000
      0.1873113696D+02  0.3349460434D-01
      0.2825394365D+01  0.2347269535D+00
      0.6401216923D+00  0.8137573261D+00
 S   1 1.00       0.000000000000
      0.1612777588D+00  0.1000000000D+01
 ****
     41 0
 S   6 1.00       0.000000000000
      0.3047524880D+04  0.1834737132D-02
      0.4573695180D+03  0.1403732281D-01
      0.1039486850D+03  0.6884262226D-01
      0.2921015530D+02  0.2321844432D+00
      0.9286662960D+01  0.4679413484D+00
      0.3163926960D+01  0.3623119853D+00
 SP   3 1.00       0.000000000000
      0.7868272350D+01 -0.1193324198D+00  0.6899906659D-01
      0.1881288540D+01 -0.1608541517D+00  0.3164239610D+00
      0.5442492580D+00  0.1143456438D+01  0.7443082909D+00
 SP   1 1.00       0.000000000000
      0.1687144782D+00  0.1000000000D+01  0.1000000000D+01
 D   1 1.00       0.000000000000
      0.8000000000D+00  0.1000000000D+01
 ****
     42 0
 S   3 1.00       0.000000000000
      0.1873113696D+02  0.3349460434D-01
      0.2825394365D+01  0.2347269535D+00
      0.6401216923D+00  0.8137573261D+00
 S   1 1.00       0.000000000000
      0.1612777588D+00  0.1000000000D+01
 ****
     43 0
 S   3 1.00       0.000000000000
      0.1873113696D+02  0.3349460434D-01
      0.2825394365D+01  0.2347269535D+00
      0.6401216923D+00  0.8137573261D+00
 S   1 1.00       0.000000000000
      0.1612777588D+00  0.1000000000D+01
 ****
     44 0
 S   3 1.00       0.000000000000
      0.1873113696D+02  0.3349460434D-01
      0.2825394365D+01  0.2347269535D+00
      0.6401216923D+00  0.8137573261D+00
 S   1 1.00       0.000000000000
      0.1612777588D+00  0.1000000000D+01
 ****
     45 0
 S   6 1.00       0.000000000000
      0.3047524880D+04  0.1834737132D-02
      0.4573695180D+03  0.1403732281D-01
      0.1039486850D+03  0.6884262226D-01
      0.2921015530D+02  0.2321844432D+00
      0.9286662960D+01  0.4679413484D+00
      0.3163926960D+01  0.3623119853D+00
 SP   3 1.00       0.000000000000
      0.7868272350D+01 -0.1193324198D+00  0.6899906659D-01
      0.1881288540D+01 -0.1608541517D+00  0.3164239610D+00
      0.5442492580D+00  0.1143456438D+01  0.7443082909D+00
 SP   1 1.00       0.000000000000
      0.1687144782D+00  0.1000000000D+01  0.1000000000D+01
 D   1 1.00       0.000000000000
      0.8000000000D+00  0.1000000000D+01
 ****
     46 0
 S   3 1.00       0.000000000000
      0.1873113696D+02  0.3349460434D-01
      0.2825394365D+01  0.2347269535D+00
      0.6401216923D+00  0.8137573261D+00
 S   1 1.00       0.000000000000
      0.1612777588D+00  0.1000000000D+01
 ****
     47 0
 S   3 1.00       0.000000000000
      0.1873113696D+02  0.3349460434D-01
      0.2825394365D+01  0.2347269535D+00
      0.6401216923D+00  0.8137573261D+00
 S   1 1.00       0.000000000000
      0.1612777588D+00  0.1000000000D+01
 ****
     48 0
 S   6 1.00       0.000000000000
      0.3047524880D+04  0.1834737132D-02
      0.4573695180D+03  0.1403732281D-01
      0.1039486850D+03  0.6884262226D-01
      0.2921015530D+02  0.2321844432D+00
      0.9286662960D+01  0.4679413484D+00
      0.3163926960D+01  0.3623119853D+00
 SP   3 1.00       0.000000000000
      0.7868272350D+01 -0.1193324198D+00  0.6899906659D-01
      0.1881288540D+01 -0.1608541517D+00  0.3164239610D+00
      0.5442492580D+00  0.1143456438D+01  0.7443082909D+00
 SP   1 1.00       0.000000000000
      0.1687144782D+00  0.1000000000D+01  0.1000000000D+01
 D   1 1.00       0.000000000000
      0.8000000000D+00  0.1000000000D+01
 ****
     49 0
 S   3 1.00       0.000000000000
      0.1873113696D+02  0.3349460434D-01
      0.2825394365D+01  0.2347269535D+00
      0.6401216923D+00  0.8137573261D+00
 S   1 1.00       0.000000000000
      0.1612777588D+00  0.1000000000D+01
 ****
     50 0
 S   3 1.00       0.000000000000
      0.1873113696D+02  0.3349460434D-01
      0.2825394365D+01  0.2347269535D+00
      0.6401216923D+00  0.8137573261D+00
 S   1 1.00       0.000000000000
      0.1612777588D+00  0.1000000000D+01
 ****
     51 0
 S   6 1.00       0.000000000000
      0.3047524880D+04  0.1834737132D-02
      0.4573695180D+03  0.1403732281D-01
      0.1039486850D+03  0.6884262226D-01
      0.2921015530D+02  0.2321844432D+00
      0.9286662960D+01  0.4679413484D+00
      0.3163926960D+01  0.3623119853D+00
 SP   3 1.00       0.000000000000
      0.7868272350D+01 -0.1193324198D+00  0.6899906659D-01
      0.1881288540D+01 -0.1608541517D+00  0.3164239610D+00
      0.5442492580D+00  0.1143456438D+01  0.7443082909D+00
 SP   1 1.00       0.000000000000
      0.1687144782D+00  0.1000000000D+01  0.1000000000D+01
 D   1 1.00       0.000000000000
      0.8000000000D+00  0.1000000000D+01
 ****
     52 0
 S   3 1.00       0.000000000000
      0.1873113696D+02  0.3349460434D-01
      0.2825394365D+01  0.2347269535D+00
      0.6401216923D+00  0.8137573261D+00
 S   1 1.00       0.000000000000
      0.1612777588D+00  0.1000000000D+01
 ****
     53 0
 S   3 1.00       0.000000000000
      0.1873113696D+02  0.3349460434D-01
      0.2825394365D+01  0.2347269535D+00
      0.6401216923D+00  0.8137573261D+00
 S   1 1.00       0.000000000000
      0.1612777588D+00  0.1000000000D+01
 ****
     54 0
 S   6 1.00       0.000000000000
      0.3047524880D+04  0.1834737132D-02
      0.4573695180D+03  0.1403732281D-01
      0.1039486850D+03  0.6884262226D-01
      0.2921015530D+02  0.2321844432D+00
      0.9286662960D+01  0.4679413484D+00
      0.3163926960D+01  0.3623119853D+00
 SP   3 1.00       0.000000000000
      0.7868272350D+01 -0.1193324198D+00  0.6899906659D-01
      0.1881288540D+01 -0.1608541517D+00  0.3164239610D+00
      0.5442492580D+00  0.1143456438D+01  0.7443082909D+00
 SP   1 1.00       0.000000000000
      0.1687144782D+00  0.1000000000D+01  0.1000000000D+01
 D   1 1.00       0.000000000000
      0.8000000000D+00  0.1000000000D+01
 ****
     55 0
 S   3 1.00       0.000000000000
      0.1873113696D+02  0.3349460434D-01
      0.2825394365D+01  0.2347269535D+00
      0.6401216923D+00  0.8137573261D+00
 S   1 1.00       0.000000000000
      0.1612777588D+00  0.1000000000D+01
 ****
     56 0
 S   6 1.00       0.000000000000
      0.3047524880D+04  0.1834737132D-02
      0.4573695180D+03  0.1403732281D-01
      0.1039486850D+03  0.6884262226D-01
      0.2921015530D+02  0.2321844432D+00
      0.9286662960D+01  0.4679413484D+00
      0.3163926960D+01  0.3623119853D+00
 SP   3 1.00       0.000000000000
      0.7868272350D+01 -0.1193324198D+00  0.6899906659D-01
      0.1881288540D+01 -0.1608541517D+00  0.3164239610D+00
      0.5442492580D+00  0.1143456438D+01  0.7443082909D+00
 SP   1 1.00       0.000000000000
      0.1687144782D+00  0.1000000000D+01  0.1000000000D+01
 D   1 1.00       0.000000000000
      0.8000000000D+00  0.1000000000D+01
 ****
     57 0
 S   3 1.00       0.000000000000
      0.1873113696D+02  0.3349460434D-01
      0.2825394365D+01  0.2347269535D+00
      0.6401216923D+00  0.8137573261D+00
 S   1 1.00       0.000000000000
      0.1612777588D+00  0.1000000000D+01
 ****
     58 0
 S   3 1.00       0.000000000000
      0.1873113696D+02  0.3349460434D-01
      0.2825394365D+01  0.2347269535D+00
      0.6401216923D+00  0.8137573261D+00
 S   1 1.00       0.000000000000
      0.1612777588D+00  0.1000000000D+01
 ****
     59 0
 S   3 1.00       0.000000000000
      0.1873113696D+02  0.3349460434D-01
      0.2825394365D+01  0.2347269535D+00
      0.6401216923D+00  0.8137573261D+00
 S   1 1.00       0.000000000000
      0.1612777588D+00  0.1000000000D+01
 ****
     60 0
 S   6 1.00       0.000000000000
      0.3047524880D+04  0.1834737132D-02
      0.4573695180D+03  0.1403732281D-01
      0.1039486850D+03  0.6884262226D-01
      0.2921015530D+02  0.2321844432D+00
      0.9286662960D+01  0.4679413484D+00
      0.3163926960D+01  0.3623119853D+00
 SP   3 1.00       0.000000000000
      0.7868272350D+01 -0.1193324198D+00  0.6899906659D-01
      0.1881288540D+01 -0.1608541517D+00  0.3164239610D+00
      0.5442492580D+00  0.1143456438D+01  0.7443082909D+00
 SP   1 1.00       0.000000000000
      0.1687144782D+00  0.1000000000D+01  0.1000000000D+01
 D   1 1.00       0.000000000000
      0.8000000000D+00  0.1000000000D+01
 ****
     61 0
 S   3 1.00       0.000000000000
      0.1873113696D+02  0.3349460434D-01
      0.2825394365D+01  0.2347269535D+00
      0.6401216923D+00  0.8137573261D+00
 S   1 1.00       0.000000000000
      0.1612777588D+00  0.1000000000D+01
 ****
     62 0
 S   3 1.00       0.000000000000
      0.1873113696D+02  0.3349460434D-01
      0.2825394365D+01  0.2347269535D+00
      0.6401216923D+00  0.8137573261D+00
 S   1 1.00       0.000000000000
      0.1612777588D+00  0.1000000000D+01
 ****
     63 0
 S   6 1.00       0.000000000000
      0.3047524880D+04  0.1834737132D-02
      0.4573695180D+03  0.1403732281D-01
      0.1039486850D+03  0.6884262226D-01
      0.2921015530D+02  0.2321844432D+00
      0.9286662960D+01  0.4679413484D+00
      0.3163926960D+01  0.3623119853D+00
 SP   3 1.00       0.000000000000
      0.7868272350D+01 -0.1193324198D+00  0.6899906659D-01
      0.1881288540D+01 -0.1608541517D+00  0.3164239610D+00
      0.5442492580D+00  0.1143456438D+01  0.7443082909D+00
 SP   1 1.00       0.000000000000
      0.1687144782D+00  0.1000000000D+01  0.1000000000D+01
 D   1 1.00       0.000000000000
      0.8000000000D+00  0.1000000000D+01
 ****
     64 0
 S   3 1.00       0.000000000000
      0.1873113696D+02  0.3349460434D-01
      0.2825394365D+01  0.2347269535D+00
      0.6401216923D+00  0.8137573261D+00
 S   1 1.00       0.000000000000
      0.1612777588D+00  0.1000000000D+01
 ****
     65 0
 S   3 1.00       0.000000000000
      0.1873113696D+02  0.3349460434D-01
      0.2825394365D+01  0.2347269535D+00
      0.6401216923D+00  0.8137573261D+00
 S   1 1.00       0.000000000000
      0.1612777588D+00  0.1000000000D+01
 ****
     66 0
 S   6 1.00       0.000000000000
      0.3047524880D+04  0.1834737132D-02
      0.4573695180D+03  0.1403732281D-01
      0.1039486850D+03  0.6884262226D-01
      0.2921015530D+02  0.2321844432D+00
      0.9286662960D+01  0.4679413484D+00
      0.3163926960D+01  0.3623119853D+00
 SP   3 1.00       0.000000000000
      0.7868272350D+01 -0.1193324198D+00  0.6899906659D-01
      0.1881288540D+01 -0.1608541517D+00  0.3164239610D+00
      0.5442492580D+00  0.1143456438D+01  0.7443082909D+00
 SP   1 1.00       0.000000000000
      0.1687144782D+00  0.1000000000D+01  0.1000000000D+01
 D   1 1.00       0.000000000000
      0.8000000000D+00  0.1000000000D+01
 ****
     67 0
 S   3 1.00       0.000000000000
      0.1873113696D+02  0.3349460434D-01
      0.2825394365D+01  0.2347269535D+00
      0.6401216923D+00  0.8137573261D+00
 S   1 1.00       0.000000000000
      0.1612777588D+00  0.1000000000D+01
 ****
     68 0
 S   6 1.00       0.000000000000
      0.3047524880D+04  0.1834737132D-02
      0.4573695180D+03  0.1403732281D-01
      0.1039486850D+03  0.6884262226D-01
      0.2921015530D+02  0.2321844432D+00
      0.9286662960D+01  0.4679413484D+00
      0.3163926960D+01  0.3623119853D+00
 SP   3 1.00       0.000000000000
      0.7868272350D+01 -0.1193324198D+00  0.6899906659D-01
      0.1881288540D+01 -0.1608541517D+00  0.3164239610D+00
      0.5442492580D+00  0.1143456438D+01  0.7443082909D+00
 SP   1 1.00       0.000000000000
      0.1687144782D+00  0.1000000000D+01  0.1000000000D+01
 D   1 1.00       0.000000000000
      0.8000000000D+00  0.1000000000D+01
 ****
     69 0
 S   3 1.00       0.000000000000
      0.1873113696D+02  0.3349460434D-01
      0.2825394365D+01  0.2347269535D+00
      0.6401216923D+00  0.8137573261D+00
 S   1 1.00       0.000000000000
      0.1612777588D+00  0.1000000000D+01
 ****
     70 0
 S   3 1.00       0.000000000000
      0.1873113696D+02  0.3349460434D-01
      0.2825394365D+01  0.2347269535D+00
      0.6401216923D+00  0.8137573261D+00
 S   1 1.00       0.000000000000
      0.1612777588D+00  0.1000000000D+01
 ****
     71 0
 S   3 1.00       0.000000000000
      0.1873113696D+02  0.3349460434D-01
      0.2825394365D+01  0.2347269535D+00
      0.6401216923D+00  0.8137573261D+00
 S   1 1.00       0.000000000000
      0.1612777588D+00  0.1000000000D+01
 ****
     72 0
 S   6 1.00       0.000000000000
      0.3047524880D+04  0.1834737132D-02
      0.4573695180D+03  0.1403732281D-01
      0.1039486850D+03  0.6884262226D-01
      0.2921015530D+02  0.2321844432D+00
      0.9286662960D+01  0.4679413484D+00
      0.3163926960D+01  0.3623119853D+00
 SP   3 1.00       0.000000000000
      0.7868272350D+01 -0.1193324198D+00  0.6899906659D-01
      0.1881288540D+01 -0.1608541517D+00  0.3164239610D+00
      0.5442492580D+00  0.1143456438D+01  0.7443082909D+00
 SP   1 1.00       0.000000000000
      0.1687144782D+00  0.1000000000D+01  0.1000000000D+01
 D   1 1.00       0.000000000000
      0.8000000000D+00  0.1000000000D+01
 ****
     73 0
 S   3 1.00       0.000000000000
      0.1873113696D+02  0.3349460434D-01
      0.2825394365D+01  0.2347269535D+00
      0.6401216923D+00  0.8137573261D+00
 S   1 1.00       0.000000000000
      0.1612777588D+00  0.1000000000D+01
 ****
     74 0
 S   3 1.00       0.000000000000
      0.1873113696D+02  0.3349460434D-01
      0.2825394365D+01  0.2347269535D+00
      0.6401216923D+00  0.8137573261D+00
 S   1 1.00       0.000000000000
      0.1612777588D+00  0.1000000000D+01
 ****
     75 0
 S   3 1.00       0.000000000000
      0.1873113696D+02  0.3349460434D-01
      0.2825394365D+01  0.2347269535D+00
      0.6401216923D+00  0.8137573261D+00
 S   1 1.00       0.000000000000
      0.1612777588D+00  0.1000000000D+01
 ****

 AO basis set (Overlap normalization):
 Atom O1       Shell     1 S   6     bf    1 -     1         12.666980609124          1.705310613064          0.000000000000
      0.5484671660D+04  0.1831074430D-02
      0.8252349460D+03  0.1395017220D-01
      0.1880469580D+03  0.6844507810D-01
      0.5296450000D+02  0.2327143360D+00
      0.1689757040D+02  0.4701928980D+00
      0.5799635340D+01  0.3585208530D+00
 Atom O1       Shell     2 SP   3    bf    2 -     5         12.666980609124          1.705310613064          0.000000000000
      0.1553961625D+02 -0.1107775495D+00  0.7087426823D-01
      0.3599933586D+01 -0.1480262627D+00  0.3397528391D+00
      0.1013761750D+01  0.1130767015D+01  0.7271585773D+00
 Atom O1       Shell     3 SP   1    bf    6 -     9         12.666980609124          1.705310613064          0.000000000000
      0.2700058226D+00  0.1000000000D+01  0.1000000000D+01
 Atom O1       Shell     4 D   1     bf   10 -    15         12.666980609124          1.705310613064          0.000000000000
      0.8000000000D+00  0.1000000000D+01
 Atom H2       Shell     5 S   3     bf   16 -    16         13.326939039553          0.000000000000          0.000000000000
      0.1873113696D+02  0.3349460434D-01
      0.2825394365D+01  0.2347269535D+00
      0.6401216923D+00  0.8137573261D+00
 Atom H2       Shell     6 S   1     bf   17 -    17         13.326939039553          0.000000000000          0.000000000000
      0.1612777588D+00  0.1000000000D+01
 Atom O3       Shell     7 S   6     bf   18 -    18         18.482930011406          0.641104349343        -12.180810256691
      0.5484671660D+04  0.1831074430D-02
      0.8252349460D+03  0.1395017220D-01
      0.1880469580D+03  0.6844507810D-01
      0.5296450000D+02  0.2327143360D+00
      0.1689757040D+02  0.4701928980D+00
      0.5799635340D+01  0.3585208530D+00
 Atom O3       Shell     8 SP   3    bf   19 -    22         18.482930011406          0.641104349343        -12.180810256691
      0.1553961625D+02 -0.1107775495D+00  0.7087426823D-01
      0.3599933586D+01 -0.1480262627D+00  0.3397528391D+00
      0.1013761750D+01  0.1130767015D+01  0.7271585773D+00
 Atom O3       Shell     9 SP   1    bf   23 -    26         18.482930011406          0.641104349343        -12.180810256691
      0.2700058226D+00  0.1000000000D+01  0.1000000000D+01
 Atom O3       Shell    10 D   1     bf   27 -    32         18.482930011406          0.641104349343        -12.180810256691
      0.8000000000D+00  0.1000000000D+01
 Atom H4       Shell    11 S   3     bf   33 -    33         18.718626708042         -1.168574401849        -12.293086161691
      0.1873113696D+02  0.3349460434D-01
      0.2825394365D+01  0.2347269535D+00
      0.6401216923D+00  0.8137573261D+00
 Atom H4       Shell    12 S   1     bf   34 -    34         18.718626708042         -1.168574401849        -12.293086161691
      0.1612777588D+00  0.1000000000D+01
 Atom C5       Shell    13 S   6     bf   35 -    35          4.586709632615          0.993255891350         -2.927451758793
      0.3047524880D+04  0.1834737132D-02
      0.4573695180D+03  0.1403732281D-01
      0.1039486850D+03  0.6884262226D-01
      0.2921015530D+02  0.2321844432D+00
      0.9286662960D+01  0.4679413484D+00
      0.3163926960D+01  0.3623119853D+00
 Atom C5       Shell    14 SP   3    bf   36 -    39          4.586709632615          0.993255891350         -2.927451758793
      0.7868272350D+01 -0.1193324198D+00  0.6899906659D-01
      0.1881288540D+01 -0.1608541517D+00  0.3164239610D+00
      0.5442492580D+00  0.1143456438D+01  0.7443082909D+00
 Atom C5       Shell    15 SP   1    bf   40 -    43          4.586709632615          0.993255891350         -2.927451758793
      0.1687144782D+00  0.1000000000D+01  0.1000000000D+01
 Atom C5       Shell    16 D   1     bf   44 -    49          4.586709632615          0.993255891350         -2.927451758793
      0.8000000000D+00  0.1000000000D+01
 Atom C6       Shell    17 S   6     bf   50 -    50          7.163646144362          2.180661130654         -2.153229299191
      0.3047524880D+04  0.1834737132D-02
      0.4573695180D+03  0.1403732281D-01
      0.1039486850D+03  0.6884262226D-01
      0.2921015530D+02  0.2321844432D+00
      0.9286662960D+01  0.4679413484D+00
      0.3163926960D+01  0.3623119853D+00
 Atom C6       Shell    18 SP   3    bf   51 -    54          7.163646144362          2.180661130654         -2.153229299191
      0.7868272350D+01 -0.1193324198D+00  0.6899906659D-01
      0.1881288540D+01 -0.1608541517D+00  0.3164239610D+00
      0.5442492580D+00  0.1143456438D+01  0.7443082909D+00
 Atom C6       Shell    19 SP   1    bf   55 -    58          7.163646144362          2.180661130654         -2.153229299191
      0.1687144782D+00  0.1000000000D+01  0.1000000000D+01
 Atom C6       Shell    20 D   1     bf   59 -    64          7.163646144362          2.180661130654         -2.153229299191
      0.8000000000D+00  0.1000000000D+01
 Atom H7       Shell    21 S   3     bf   65 -    65          7.102668688273          4.126601097992         -2.902708667467
      0.1873113696D+02  0.3349460434D-01
      0.2825394365D+01  0.2347269535D+00
      0.6401216923D+00  0.8137573261D+00
 Atom H7       Shell    22 S   1     bf   66 -    66          7.102668688273          4.126601097992         -2.902708667467
      0.1612777588D+00  0.1000000000D+01
 Atom C8       Shell    23 S   6     bf   67 -    67          9.507672738601          0.964763413300         -3.372660520954
      0.3047524880D+04  0.1834737132D-02
      0.4573695180D+03  0.1403732281D-01
      0.1039486850D+03  0.6884262226D-01
      0.2921015530D+02  0.2321844432D+00
      0.9286662960D+01  0.4679413484D+00
      0.3163926960D+01  0.3623119853D+00
 Atom C8       Shell    24 SP   3    bf   68 -    71          9.507672738601          0.964763413300         -3.372660520954
      0.7868272350D+01 -0.1193324198D+00  0.6899906659D-01
      0.1881288540D+01 -0.1608541517D+00  0.3164239610D+00
      0.5442492580D+00  0.1143456438D+01  0.7443082909D+00
 Atom C8       Shell    25 SP   1    bf   72 -    75          9.507672738601          0.964763413300         -3.372660520954
      0.1687144782D+00  0.1000000000D+01  0.1000000000D+01
 Atom C8       Shell    26 D   1     bf   76 -    81          9.507672738601          0.964763413300         -3.372660520954
      0.8000000000D+00  0.1000000000D+01
 Atom H9       Shell    27 S   3     bf   82 -    82          9.674131570482         -1.010554992391         -2.746849007109
      0.1873113696D+02  0.3349460434D-01
      0.2825394365D+01  0.2347269535D+00
      0.6401216923D+00  0.8137573261D+00
 Atom H9       Shell    28 S   1     bf   83 -    83          9.674131570482         -1.010554992391         -2.746849007109
      0.1612777588D+00  0.1000000000D+01
 Atom C10      Shell    29 S   6     bf   84 -    84          9.246904232777          1.043261465230         -6.297550623693
      0.3047524880D+04  0.1834737132D-02
      0.4573695180D+03  0.1403732281D-01
      0.1039486850D+03  0.6884262226D-01
      0.2921015530D+02  0.2321844432D+00
      0.9286662960D+01  0.4679413484D+00
      0.3163926960D+01  0.3623119853D+00
 Atom C10      Shell    30 SP   3    bf   85 -    88          9.246904232777          1.043261465230         -6.297550623693
      0.7868272350D+01 -0.1193324198D+00  0.6899906659D-01
      0.1881288540D+01 -0.1608541517D+00  0.3164239610D+00
      0.5442492580D+00  0.1143456438D+01  0.7443082909D+00
 Atom C10      Shell    31 SP   1    bf   89 -    92          9.246904232777          1.043261465230         -6.297550623693
      0.1687144782D+00  0.1000000000D+01  0.1000000000D+01
 Atom C10      Shell    32 D   1     bf   93 -    98          9.246904232777          1.043261465230         -6.297550623693
      0.8000000000D+00  0.1000000000D+01
 Atom H11      Shell    33 S   3     bf   99 -    99          9.318111116574          3.060873604734         -6.812298019420
      0.1873113696D+02  0.3349460434D-01
      0.2825394365D+01  0.2347269535D+00
      0.6401216923D+00  0.8137573261D+00
 Atom H11      Shell    34 S   1     bf  100 -   100          9.318111116574          3.060873604734         -6.812298019420
      0.1612777588D+00  0.1000000000D+01
 Atom C12      Shell    35 S   6     bf  101 -   101          2.746397324768          2.681056661114         -1.332052455317
      0.3047524880D+04  0.1834737132D-02
      0.4573695180D+03  0.1403732281D-01
      0.1039486850D+03  0.6884262226D-01
      0.2921015530D+02  0.2321844432D+00
      0.9286662960D+01  0.4679413484D+00
      0.3163926960D+01  0.3623119853D+00
 Atom C12      Shell    36 SP   3    bf  102 -   105          2.746397324768          2.681056661114         -1.332052455317
      0.7868272350D+01 -0.1193324198D+00  0.6899906659D-01
      0.1881288540D+01 -0.1608541517D+00  0.3164239610D+00
      0.5442492580D+00  0.1143456438D+01  0.7443082909D+00
 Atom C12      Shell    37 SP   1    bf  106 -   109          2.746397324768          2.681056661114         -1.332052455317
      0.1687144782D+00  0.1000000000D+01  0.1000000000D+01
 Atom C12      Shell    38 D   1     bf  110 -   115          2.746397324768          2.681056661114         -1.332052455317
      0.8000000000D+00  0.1000000000D+01
 Atom H13      Shell    39 S   3     bf  116 -   116          2.711642785643          4.526264795837         -2.289208832761
      0.1873113696D+02  0.3349460434D-01
      0.2825394365D+01  0.2347269535D+00
      0.6401216923D+00  0.8137573261D+00
 Atom H13      Shell    40 S   1     bf  117 -   117          2.711642785643          4.526264795837         -2.289208832761
      0.1612777588D+00  0.1000000000D+01
 Atom C14      Shell    41 S   6     bf  118 -   118          4.377840981044          1.252187356605         -5.820684451258
      0.3047524880D+04  0.1834737132D-02
      0.4573695180D+03  0.1403732281D-01
      0.1039486850D+03  0.6884262226D-01
      0.2921015530D+02  0.2321844432D+00
      0.9286662960D+01  0.4679413484D+00
      0.3163926960D+01  0.3623119853D+00
 Atom C14      Shell    42 SP   3    bf  119 -   122          4.377840981044          1.252187356605         -5.820684451258
      0.7868272350D+01 -0.1193324198D+00  0.6899906659D-01
      0.1881288540D+01 -0.1608541517D+00  0.3164239610D+00
      0.5442492580D+00  0.1143456438D+01  0.7443082909D+00
 Atom C14      Shell    43 SP   1    bf  123 -   126          4.377840981044          1.252187356605         -5.820684451258
      0.1687144782D+00  0.1000000000D+01  0.1000000000D+01
 Atom C14      Shell    44 D   1     bf  127 -   132          4.377840981044          1.252187356605         -5.820684451258
      0.8000000000D+00  0.1000000000D+01
 Atom H15      Shell    45 S   3     bf  133 -   133          4.277631166375          3.271002382382         -6.302973249523
      0.1873113696D+02  0.3349460434D-01
      0.2825394365D+01  0.2347269535D+00
      0.6401216923D+00  0.8137573261D+00
 Atom H15      Shell    46 S   1     bf  134 -   134          4.277631166375          3.271002382382         -6.302973249523
      0.1612777588D+00  0.1000000000D+01
 Atom H16      Shell    47 S   3     bf  135 -   135          2.642730199447          0.388774528949         -6.544192425118
      0.1873113696D+02  0.3349460434D-01
      0.2825394365D+01  0.2347269535D+00
      0.6401216923D+00  0.8137573261D+00
 Atom H16      Shell    48 S   1     bf  136 -   136          2.642730199447          0.388774528949         -6.544192425118
      0.1612777588D+00  0.1000000000D+01
 Atom C17      Shell    49 S   6     bf  137 -   137         11.527508235386         -0.217131384600         -7.710881938533
      0.3047524880D+04  0.1834737132D-02
      0.4573695180D+03  0.1403732281D-01
      0.1039486850D+03  0.6884262226D-01
      0.2921015530D+02  0.2321844432D+00
      0.9286662960D+01  0.4679413484D+00
      0.3163926960D+01  0.3623119853D+00
 Atom C17      Shell    50 SP   3    bf  138 -   141         11.527508235386         -0.217131384600         -7.710881938533
      0.7868272350D+01 -0.1193324198D+00  0.6899906659D-01
      0.1881288540D+01 -0.1608541517D+00  0.3164239610D+00
      0.5442492580D+00  0.1143456438D+01  0.7443082909D+00
 Atom C17      Shell    51 SP   1    bf  142 -   145         11.527508235386         -0.217131384600         -7.710881938533
      0.1687144782D+00  0.1000000000D+01  0.1000000000D+01
 Atom C17      Shell    52 D   1     bf  146 -   151         11.527508235386         -0.217131384600         -7.710881938533
      0.8000000000D+00  0.1000000000D+01
 Atom C18      Shell    53 S   6     bf  152 -   152          7.003891418293          2.413438162620          0.738809842249
      0.3047524880D+04  0.1834737132D-02
      0.4573695180D+03  0.1403732281D-01
      0.1039486850D+03  0.6884262226D-01
      0.2921015530D+02  0.2321844432D+00
      0.9286662960D+01  0.4679413484D+00
      0.3163926960D+01  0.3623119853D+00
 Atom C18      Shell    54 SP   3    bf  153 -   156          7.003891418293          2.413438162620          0.738809842249
      0.7868272350D+01 -0.1193324198D+00  0.6899906659D-01
      0.1881288540D+01 -0.1608541517D+00  0.3164239610D+00
      0.5442492580D+00  0.1143456438D+01  0.7443082909D+00
 Atom C18      Shell    55 SP   1    bf  157 -   160          7.003891418293          2.413438162620          0.738809842249
      0.1687144782D+00  0.1000000000D+01  0.1000000000D+01
 Atom C18      Shell    56 D   1     bf  161 -   166          7.003891418293          2.413438162620          0.738809842249
      0.8000000000D+00  0.1000000000D+01
 Atom H19      Shell    57 S   3     bf  167 -   167          8.271630597363          3.863534382835          1.481801459457
      0.1873113696D+02  0.3349460434D-01
      0.2825394365D+01  0.2347269535D+00
      0.6401216923D+00  0.8137573261D+00
 Atom H19      Shell    58 S   1     bf  168 -   168          8.271630597363          3.863534382835          1.481801459457
      0.1612777588D+00  0.1000000000D+01
 Atom H20      Shell    59 S   3     bf  169 -   169          7.567498231207          0.641389282249          1.646993759089
      0.1873113696D+02  0.3349460434D-01
      0.2825394365D+01  0.2347269535D+00
      0.6401216923D+00  0.8137573261D+00
 Atom H20      Shell    60 S   1     bf  170 -   170          7.567498231207          0.641389282249          1.646993759089
      0.1612777588D+00  0.1000000000D+01
 Atom C21      Shell    61 S   6     bf  171 -   171          6.648833477494          0.043162913348         -7.183681172001
      0.3047524880D+04  0.1834737132D-02
      0.4573695180D+03  0.1403732281D-01
      0.1039486850D+03  0.6884262226D-01
      0.2921015530D+02  0.2321844432D+00
      0.9286662960D+01  0.4679413484D+00
      0.3163926960D+01  0.3623119853D+00
 Atom C21      Shell    62 SP   3    bf  172 -   175          6.648833477494          0.043162913348         -7.183681172001
      0.7868272350D+01 -0.1193324198D+00  0.6899906659D-01
      0.1881288540D+01 -0.1608541517D+00  0.3164239610D+00
      0.5442492580D+00  0.1143456438D+01  0.7443082909D+00
 Atom C21      Shell    63 SP   1    bf  176 -   179          6.648833477494          0.043162913348         -7.183681172001
      0.1687144782D+00  0.1000000000D+01  0.1000000000D+01
 Atom C21      Shell    64 D   1     bf  180 -   185          6.648833477494          0.043162913348         -7.183681172001
      0.8000000000D+00  0.1000000000D+01
 Atom H22      Shell    65 S   3     bf  186 -   186          6.562201949802         -2.008232049206         -6.921542576936
      0.1873113696D+02  0.3349460434D-01
      0.2825394365D+01  0.2347269535D+00
      0.6401216923D+00  0.8137573261D+00
 Atom H22      Shell    66 S   1     bf  187 -   187          6.562201949802         -2.008232049206         -6.921542576936
      0.1612777588D+00  0.1000000000D+01
 Atom H23      Shell    67 S   3     bf  188 -   188          6.438523701877          0.366492654732         -9.217926302981
      0.1873113696D+02  0.3349460434D-01
      0.2825394365D+01  0.2347269535D+00
      0.6401216923D+00  0.8137573261D+00
 Atom H23      Shell    68 S   1     bf  189 -   189          6.438523701877          0.366492654732         -9.217926302981
      0.1612777588D+00  0.1000000000D+01
 Atom C24      Shell    69 S   6     bf  190 -   190          4.173284419948          3.009632036579          1.234505945070
      0.3047524880D+04  0.1834737132D-02
      0.4573695180D+03  0.1403732281D-01
      0.1039486850D+03  0.6884262226D-01
      0.2921015530D+02  0.2321844432D+00
      0.9286662960D+01  0.4679413484D+00
      0.3163926960D+01  0.3623119853D+00
 Atom C24      Shell    70 SP   3    bf  191 -   194          4.173284419948          3.009632036579          1.234505945070
      0.7868272350D+01 -0.1193324198D+00  0.6899906659D-01
      0.1881288540D+01 -0.1608541517D+00  0.3164239610D+00
      0.5442492580D+00  0.1143456438D+01  0.7443082909D+00
 Atom C24      Shell    71 SP   1    bf  195 -   198          4.173284419948          3.009632036579          1.234505945070
      0.1687144782D+00  0.1000000000D+01  0.1000000000D+01
 Atom C24      Shell    72 D   1     bf  199 -   204          4.173284419948          3.009632036579          1.234505945070
      0.8000000000D+00  0.1000000000D+01
 Atom H25      Shell    73 S   3     bf  205 -   205          3.394746506159          1.723360067660          2.660408719701
      0.1873113696D+02  0.3349460434D-01
      0.2825394365D+01  0.2347269535D+00
      0.6401216923D+00  0.8137573261D+00
 Atom H25      Shell    74 S   1     bf  206 -   206          3.394746506159          1.723360067660          2.660408719701
      0.1612777588D+00  0.1000000000D+01
 Atom H26      Shell    75 S   3     bf  207 -   207          3.917414802356          4.922194810582          1.980929947443
      0.1873113696D+02  0.3349460434D-01
      0.2825394365D+01  0.2347269535D+00
      0.6401216923D+00  0.8137573261D+00
 Atom H26      Shell    76 S   1     bf  208 -   208          3.917414802356          4.922194810582          1.980929947443
      0.1612777588D+00  0.1000000000D+01
 Atom C27      Shell    77 S   6     bf  209 -   209         11.949263512026          2.324871555368         -2.553789010681
      0.3047524880D+04  0.1834737132D-02
      0.4573695180D+03  0.1403732281D-01
      0.1039486850D+03  0.6884262226D-01
      0.2921015530D+02  0.2321844432D+00
      0.9286662960D+01  0.4679413484D+00
      0.3163926960D+01  0.3623119853D+00
 Atom C27      Shell    78 SP   3    bf  210 -   213         11.949263512026          2.324871555368         -2.553789010681
      0.7868272350D+01 -0.1193324198D+00  0.6899906659D-01
      0.1881288540D+01 -0.1608541517D+00  0.3164239610D+00
      0.5442492580D+00  0.1143456438D+01  0.7443082909D+00
 Atom C27      Shell    79 SP   1    bf  214 -   217         11.949263512026          2.324871555368         -2.553789010681
      0.1687144782D+00  0.1000000000D+01  0.1000000000D+01
 Atom C27      Shell    80 D   1     bf  218 -   223         11.949263512026          2.324871555368         -2.553789010681
      0.8000000000D+00  0.1000000000D+01
 Atom H28      Shell    81 S   3     bf  224 -   224         11.582563497645          4.367697271314         -2.464032896417
      0.1873113696D+02  0.3349460434D-01
      0.2825394365D+01  0.2347269535D+00
      0.6401216923D+00  0.8137573261D+00
 Atom H28      Shell    82 S   1     bf  225 -   225         11.582563497645          4.367697271314         -2.464032896417
      0.1612777588D+00  0.1000000000D+01
 Atom C29      Shell    83 S   6     bf  226 -   226         -0.033560931408          1.838043030220         -0.969839161001
      0.3047524880D+04  0.1834737132D-02
      0.4573695180D+03  0.1403732281D-01
      0.1039486850D+03  0.6884262226D-01
      0.2921015530D+02  0.2321844432D+00
      0.9286662960D+01  0.4679413484D+00
      0.3163926960D+01  0.3623119853D+00
 Atom C29      Shell    84 SP   3    bf  227 -   230         -0.033560931408          1.838043030220         -0.969839161001
      0.7868272350D+01 -0.1193324198D+00  0.6899906659D-01
      0.1881288540D+01 -0.1608541517D+00  0.3164239610D+00
      0.5442492580D+00  0.1143456438D+01  0.7443082909D+00
 Atom C29      Shell    85 SP   1    bf  231 -   234         -0.033560931408          1.838043030220         -0.969839161001
      0.1687144782D+00  0.1000000000D+01  0.1000000000D+01
 Atom C29      Shell    86 D   1     bf  235 -   240         -0.033560931408          1.838043030220         -0.969839161001
      0.8000000000D+00  0.1000000000D+01
 Atom H30      Shell    87 S   3     bf  241 -   241          0.000000000000          0.000000000000          0.000000000000
      0.1873113696D+02  0.3349460434D-01
      0.2825394365D+01  0.2347269535D+00
      0.6401216923D+00  0.8137573261D+00
 Atom H30      Shell    88 S   1     bf  242 -   242          0.000000000000          0.000000000000          0.000000000000
      0.1612777588D+00  0.1000000000D+01
 Atom C31      Shell    89 S   6     bf  243 -   243          4.360731098281         -1.805637704137         -2.123117722688
      0.3047524880D+04  0.1834737132D-02
      0.4573695180D+03  0.1403732281D-01
      0.1039486850D+03  0.6884262226D-01
      0.2921015530D+02  0.2321844432D+00
      0.9286662960D+01  0.4679413484D+00
      0.3163926960D+01  0.3623119853D+00
 Atom C31      Shell    90 SP   3    bf  244 -   247          4.360731098281         -1.805637704137         -2.123117722688
      0.7868272350D+01 -0.1193324198D+00  0.6899906659D-01
      0.1881288540D+01 -0.1608541517D+00  0.3164239610D+00
      0.5442492580D+00  0.1143456438D+01  0.7443082909D+00
 Atom C31      Shell    91 SP   1    bf  248 -   251          4.360731098281         -1.805637704137         -2.123117722688
      0.1687144782D+00  0.1000000000D+01  0.1000000000D+01
 Atom C31      Shell    92 D   1     bf  252 -   257          4.360731098281         -1.805637704137         -2.123117722688
      0.8000000000D+00  0.1000000000D+01
 Atom H32      Shell    93 S   3     bf  258 -   258          5.874011143228         -2.973962189704         -2.905744739266
      0.1873113696D+02  0.3349460434D-01
      0.2825394365D+01  0.2347269535D+00
      0.6401216923D+00  0.8137573261D+00
 Atom H32      Shell    94 S   1     bf  259 -   259          5.874011143228         -2.973962189704         -2.905744739266
      0.1612777588D+00  0.1000000000D+01
 Atom H33      Shell    95 S   3     bf  260 -   260          4.421653147600         -2.026703838696         -0.068540858169
      0.1873113696D+02  0.3349460434D-01
      0.2825394365D+01  0.2347269535D+00
      0.6401216923D+00  0.8137573261D+00
 Atom H33      Shell    96 S   1     bf  261 -   261          4.421653147600         -2.026703838696         -0.068540858169
      0.1612777588D+00  0.1000000000D+01
 Atom H34      Shell    97 S   3     bf  262 -   262          2.569954786268         -2.610636224642         -2.777887229718
      0.1873113696D+02  0.3349460434D-01
      0.2825394365D+01  0.2347269535D+00
      0.6401216923D+00  0.8137573261D+00
 Atom H34      Shell    98 S   1     bf  263 -   263          2.569954786268         -2.610636224642         -2.777887229718
      0.1612777588D+00  0.1000000000D+01
 Atom C35      Shell    99 S   6     bf  264 -   264         14.023396301917          0.674144717892         -6.542713393166
      0.3047524880D+04  0.1834737132D-02
      0.4573695180D+03  0.1403732281D-01
      0.1039486850D+03  0.6884262226D-01
      0.2921015530D+02  0.2321844432D+00
      0.9286662960D+01  0.4679413484D+00
      0.3163926960D+01  0.3623119853D+00
 Atom C35      Shell   100 SP   3    bf  265 -   268         14.023396301917          0.674144717892         -6.542713393166
      0.7868272350D+01 -0.1193324198D+00  0.6899906659D-01
      0.1881288540D+01 -0.1608541517D+00  0.3164239610D+00
      0.5442492580D+00  0.1143456438D+01  0.7443082909D+00
 Atom C35      Shell   101 SP   1    bf  269 -   272         14.023396301917          0.674144717892         -6.542713393166
      0.1687144782D+00  0.1000000000D+01  0.1000000000D+01
 Atom C35      Shell   102 D   1     bf  273 -   278         14.023396301917          0.674144717892         -6.542713393166
      0.8000000000D+00  0.1000000000D+01
 Atom C36      Shell   103 S   6     bf  279 -   279         11.475975233667          0.636600319386        -10.533762092386
      0.3047524880D+04  0.1834737132D-02
      0.4573695180D+03  0.1403732281D-01
      0.1039486850D+03  0.6884262226D-01
      0.2921015530D+02  0.2321844432D+00
      0.9286662960D+01  0.4679413484D+00
      0.3163926960D+01  0.3623119853D+00
 Atom C36      Shell   104 SP   3    bf  280 -   283         11.475975233667          0.636600319386        -10.533762092386
      0.7868272350D+01 -0.1193324198D+00  0.6899906659D-01
      0.1881288540D+01 -0.1608541517D+00  0.3164239610D+00
      0.5442492580D+00  0.1143456438D+01  0.7443082909D+00
 Atom C36      Shell   105 SP   1    bf  284 -   287         11.475975233667          0.636600319386        -10.533762092386
      0.1687144782D+00  0.1000000000D+01  0.1000000000D+01
 Atom C36      Shell   106 D   1     bf  288 -   293         11.475975233667          0.636600319386        -10.533762092386
      0.8000000000D+00  0.1000000000D+01
 Atom H37      Shell   107 S   3     bf  294 -   294         11.186462991807          2.692059856085        -10.584597010374
      0.1873113696D+02  0.3349460434D-01
      0.2825394365D+01  0.2347269535D+00
      0.6401216923D+00  0.8137573261D+00
 Atom H37      Shell   108 S   1     bf  295 -   295         11.186462991807          2.692059856085        -10.584597010374
      0.1612777588D+00  0.1000000000D+01
 Atom H38      Shell   109 S   3     bf  296 -   296          9.841478573645         -0.209488028208        -11.479754402474
      0.1873113696D+02  0.3349460434D-01
      0.2825394365D+01  0.2347269535D+00
      0.6401216923D+00  0.8137573261D+00
 Atom H38      Shell   110 S   1     bf  297 -   297          9.841478573645         -0.209488028208        -11.479754402474
      0.1612777588D+00  0.1000000000D+01
 Atom C39      Shell   111 S   6     bf  298 -   298         14.138939675682          1.845495751040         -4.298328561921
      0.3047524880D+04  0.1834737132D-02
[...]
 1555 Fit       0.000256
 1556 Fit      -0.000129
 1557 Fit       0.001678
 1558 Fit       0.002559
 1559 Fit      -0.000096
 1560 Fit       0.001683
 1561 Fit       0.002349
 1562 Fit       0.001876
 1563 Fit      -0.001101
 1564 Fit       0.000656
 1565 Fit       0.000993
 1566 Fit       0.000013
 1567 Fit      -0.001918
 1568 Fit      -0.001375
 1569 Fit      -0.001618
 1570 Fit      -0.002506
 1571 Fit      -0.001367
 1572 Fit      -0.003473
 1573 Fit      -0.002779
 1574 Fit      -0.003641
 1575 Fit      -0.003615
 1576 Fit      -0.003034
 1577 Fit      -0.000463
 1578 Fit      -0.002372
 1579 Fit       0.001995
 1580 Fit       0.001839
 1581 Fit      -0.000354
 1582 Fit      -0.002311
 1583 Fit       0.003978
 1584 Fit       0.002484
 1585 Fit       0.000031
 1586 Fit      -0.001724
 1587 Fit       0.003306
 1588 Fit       0.001744
 1589 Fit      -0.001669
 1590 Fit      -0.001208
 1591 Fit       0.000299
 1592 Fit       0.000625
 1593 Fit      -0.000927
 1594 Fit       0.000959
 1595 Fit       0.001904
 1596 Fit       0.002114
 1597 Fit      -0.002554
 1598 Fit      -0.000231
 1599 Fit       0.001329
 1600 Fit       0.002227
 1601 Fit      -0.001621
 1602 Fit      -0.000375
 1603 Fit       0.000862
 1604 Fit       0.001008
 1605 Fit      -0.000061
 1606 Fit      -0.000850
 1607 Fit      -0.000188
 1608 Fit       0.001559
 1609 Fit      -0.000029
 1610 Fit      -0.000865
 1611 Fit      -0.002003
 1612 Fit       0.000575
 1613 Fit      -0.001828
 1614 Fit      -0.002735
 1615 Fit      -0.000775
 1616 Fit      -0.020135
 1617 Fit      -0.017390
 1618 Fit      -0.023831
 1619 Fit      -0.024412
 1620 Fit      -0.013895
 1621 Fit      -0.010381
 1622 Fit      -0.014062
 1623 Fit      -0.021479
 1624 Fit      -0.024667
 1625 Fit      -0.024151
 1626 Fit      -0.003999
 1627 Fit      -0.010050
 1628 Fit      -0.017844
 1629 Fit      -0.021553
 1630 Fit      -0.021397
 1631 Fit      -0.018318
 1632 Fit      -0.014343
 1633 Fit      -0.014901
 1634 Fit      -0.001764
 1635 Fit       0.001980
 1636 Fit      -0.002291
 1637 Fit       0.003610
 1638 Fit       0.009996
 1639 Fit       0.011039
 1640 Fit       0.007116
 1641 Fit       0.001419
 1642 Fit       0.010333
 1643 Fit       0.015130
 1644 Fit       0.016285
 1645 Fit       0.014410
 1646 Fit       0.009592
 1647 Fit       0.018669
 1648 Fit       0.017645
 1649 Fit       0.014705
 1650 Fit       0.009840
 1651 Fit      -0.014718
 1652 Fit      -0.020182
 1653 Fit      -0.019965
 1654 Fit      -0.003865
 1655 Fit      -0.016143
 1656 Fit      -0.022642
 1657 Fit      -0.024407
 1658 Fit      -0.021623
 1659 Fit      -0.005070
 1660 Fit      -0.016407
 1661 Fit      -0.023540
 1662 Fit      -0.025500
 1663 Fit      -0.022582
 1664 Fit      -0.015788
 1665 Fit      -0.004498
 1666 Fit      -0.016540
 1667 Fit      -0.023159
 1668 Fit      -0.024398
 1669 Fit      -0.020788
 1670 Fit      -0.013908
 1671 Fit      -0.005706
 1672 Fit      -0.016413
 1673 Fit      -0.021279
 1674 Fit      -0.017031
 1675 Fit      -0.005178
 1676 Fit      -0.006758
 1677 Fit      -0.014811
 1678 Fit       0.009099
 1679 Fit       0.025150
 1680 Fit       0.021615
 1681 Fit       0.016093
 1682 Fit       0.007466
 1683 Fit       0.022209
 1684 Fit       0.019981
 1685 Fit       0.015165
 1686 Fit       0.007002
 1687 Fit       0.016438
 1688 Fit       0.013904
 1689 Fit       0.006776
 1690 Fit       0.006401
 1691 Fit       0.005462
 1692 Fit       0.001313
 1693 Fit       0.001855
 1694 Fit       0.003542
 1695 Fit       0.003641
 1696 Fit       0.005105
 1697 Fit       0.007802
 1698 Fit       0.014258
 1699 Fit       0.004869
 1700 Fit       0.002627
 1701 Fit       0.004848
 1702 Fit       0.005537
 1703 Fit       0.006419
 1704 Fit       0.005864
 1705 Fit       0.003734
 1706 Fit       0.004681
 1707 Fit       0.003763
 1708 Fit       0.001951
 1709 Fit       0.005004
 1710 Fit       0.004858
 1711 Fit       0.004153
 1712 Fit       0.003381
 1713 Fit       0.005026
 1714 Fit       0.003985
 1715 Fit       0.002838
 1716 Fit       0.001311
 1717 Fit       0.004647
 1718 Fit       0.003216
 1719 Fit       0.005548
 1720 Fit       0.000927
 1721 Fit       0.001423
 1722 Fit       0.003334
 1723 Fit       0.004854
 1724 Fit       0.005040
 1725 Fit       0.003206
 1726 Fit       0.004440
 1727 Fit      -0.008014
 1728 Fit      -0.012149
 1729 Fit      -0.009691
 1730 Fit      -0.021355
 1731 Fit      -0.015752
 1732 Fit      -0.010105
 1733 Fit      -0.007434
 1734 Fit      -0.016540
 1735 Fit      -0.008675
 1736 Fit      -0.005383
 1737 Fit      -0.010953
 1738 Fit      -0.005431
 1739 Fit      -0.003172
 1740 Fit      -0.003121
 1741 Fit      -0.001629
 1742 Fit      -0.007017
 1743 Fit      -0.011428
 1744 Fit      -0.002486
 1745 Fit      -0.004839
 1746 Fit       0.001467
 1747 Fit       0.000636
 1748 Fit      -0.001102
 1749 Fit      -0.006929
 1750 Fit       0.002748
 1751 Fit       0.002856
 1752 Fit       0.004839
 1753 Fit       0.008704
 1754 Fit       0.005889
 1755 Fit       0.007576
 1756 Fit       0.006122
 1757 Fit       0.005497
 1758 Fit       0.004836
 1759 Fit       0.004685
 1760 Fit       0.005243
 1761 Fit       0.006156
 1762 Fit       0.008498
 1763 Fit       0.006589
 1764 Fit       0.006709
 1765 Fit       0.008266
 1766 Fit      -0.006831
 1767 Fit      -0.005396
 1768 Fit      -0.003343
 1769 Fit      -0.002224
 1770 Fit      -0.004751
 1771 Fit      -0.002342
 1772 Fit      -0.000623
 1773 Fit      -0.000125
 1774 Fit      -0.001612
 1775 Fit       0.001016
 1776 Fit       0.001360
 1777 Fit       0.000088
 1778 Fit      -0.003376
 1779 Fit      -0.001512
 1780 Fit      -0.005226
 1781 Fit      -0.002188
 1782 Fit      -0.000292
 1783 Fit      -0.002664
 1784 Fit      -0.000728
 1785 Fit      -0.001496
 1786 Fit       0.000051
 1787 Fit       0.001141
 1788 Fit      -0.010196
 1789 Fit      -0.005820
 1790 Fit      -0.005271
 1791 Fit      -0.002532
 1792 Fit      -0.000405
 1793 Fit      -0.001961
 1794 Fit       0.000308
 1795 Fit       0.002361
 1796 Fit      -0.000016
 1797 Fit       0.003368
 1798 Fit       0.000433
 1799 Fit       0.000699
 1800 Fit       0.001472
 1801 Fit       0.000606
 1802 Fit       0.001053
 1803 Fit       0.001506
 1804 Fit       0.001031
 1805 Fit       0.000546
 1806 Fit       0.000830
 1807 Fit       0.001873
 1808 Fit       0.003687
 1809 Fit       0.000908
 1810 Fit       0.001750
 1811 Fit       0.001922
 1812 Fit       0.003539
 1813 Fit       0.003891
 1814 Fit       0.007156
 1815 Fit       0.004742
 1816 Fit       0.008228
 1817 Fit       0.003679
 1818 Fit       0.006264
 1819 Fit       0.006156
 1820 Fit       0.002445
 1821 Fit       0.002308
 1822 Fit       0.001694
 1823 Fit       0.001868
 1824 Fit       0.002342
 1825 Fit       0.002611
 1826 Fit       0.001176
 1827 Fit       0.002337
 1828 Fit       0.002336
 1829 Fit       0.001531
 1830 Fit       0.003610
 1831 Fit       0.002838
 1832 Fit       0.004828
 1833 Fit       0.003952
 1834 Fit       0.005450
 1835 Fit       0.007210
 1836 Fit       0.005333
 1837 Fit       0.004847
 1838 Fit       0.004526
 1839 Fit       0.005919
 1840 Fit       0.004879
 1841 Fit       0.005367
 1842 Fit       0.005618
 1843 Fit       0.005635
 1844 Fit       0.004303
 1845 Fit       0.004739
 1846 Fit       0.004912
 1847 Fit       0.004722
 1848 Fit       0.009972
 1849 Fit       0.005809
 1850 Fit       0.007506
 1851 Fit       0.008439
 1852 Fit       0.008798
 1853 Fit       0.008754
 1854 Fit       0.005935
 1855 Fit       0.007088
 1856 Fit       0.007546
 1857 Fit      -0.007288
 1858 Fit       0.008060
 1859 Fit      -0.003045
 1860 Fit      -0.002680
 1861 Fit      -0.003174
 1862 Fit      -0.001835
 1863 Fit      -0.008562
 1864 Fit      -0.000417
 1865 Fit      -0.003019
 1866 Fit      -0.006917
 1867 Fit       0.001741
 1868 Fit       0.002768
 1869 Fit       0.001025
 1870 Fit      -0.001170
 1871 Fit      -0.003320
 1872 Fit       0.003610
 1873 Fit       0.002133
 1874 Fit      -0.000438
 1875 Fit      -0.002547
 1876 Fit       0.008155
 1877 Fit       0.008402
 1878 Fit       0.006601
 1879 Fit       0.005931
 1880 Fit       0.006298
 1881 Fit       0.007803
 1882 Fit       0.006274
 1883 Fit       0.006778
 1884 Fit       0.007305
 1885 Fit       0.007287
 1886 Fit       0.006307
 1887 Fit       0.008303
 1888 Fit       0.007824
 1889 Fit       0.007090
 1890 Fit       0.008878
 1891 Fit       0.008483
 1892 Fit       0.007942
 1893 Fit       0.009017
 1894 Fit       0.009284
 1895 Fit       0.009604
 1896 Fit       0.008418
 1897 Fit       0.011004
 1898 Fit       0.009966
 1899 Fit       0.013641
 1900 Fit       0.009547
 1901 Fit       0.013476
 1902 Fit       0.011983
 1903 Fit       0.013573
 1904 Fit       0.011429
 1905 Fit       0.009422
 1906 Fit       0.009114
 1907 Fit       0.009600
 1908 Fit       0.010569
 1909 Fit       0.007518
 1910 Fit       0.007100
 1911 Fit       0.007315
 1912 Fit       0.005045
 1913 Fit       0.003739
 1914 Fit       0.002129
 1915 Fit       0.002366
 1916 Fit       0.002393
 1917 Fit       0.003062
 1918 Fit      -0.000992
 1919 Fit      -0.001649
 1920 Fit      -0.001224
 1921 Fit      -0.000710
 1922 Fit       0.001041
 1923 Fit      -0.008837
 1924 Fit      -0.010041
 1925 Fit      -0.007876
 1926 Fit      -0.003106
 1927 Fit       0.005789
 1928 Fit       0.009392
 1929 Fit       0.008658
 1930 Fit       0.006241
 1931 Fit       0.012576
 1932 Fit       0.010873
 1933 Fit       0.007615
 1934 Fit       0.017397
 1935 Fit       0.016707
 1936 Fit       0.013761
 1937 Fit       0.005649
 1938 Fit       0.006204
 1939 Fit       0.024217
 1940 Fit       0.009528
 1941 Fit       0.011270
 1942 Fit       0.014553
 1943 Fit       0.021004
 1944 Fit       0.007992
 1945 Fit       0.009624
 1946 Fit       0.012374
 1947 Fit       0.006142
 1948 Fit       0.007060
 1949 Fit      -0.001583
 1950 Fit       0.002974
 1951 Fit       0.004771
 1952 Fit      -0.013879
 1953 Fit      -0.004339
 1954 Fit       0.001301
 1955 Fit       0.003903
 1956 Fit       0.005118
 1957 Fit       0.005660
 1958 Fit       0.005249
 1959 Fit      -0.003702
 1960 Fit      -0.001682
 1961 Fit       0.002421
 1962 Fit       0.003981
 1963 Fit       0.003511
 1964 Fit       0.000966
 1965 Fit       0.001475
 1966 Fit      -0.001526
 1967 Fit      -0.002170
 1968 Fit      -0.001966
 1969 Fit       0.000111
 1970 Fit      -0.000104
 1971 Fit      -0.000847
 1972 Fit       0.001560
 1973 Fit       0.001489
 1974 Fit       0.001115
 1975 Fit       0.000399
 1976 Fit       0.002045
 1977 Fit       0.002352
 1978 Fit      -0.000706
 1979 Fit      -0.001145
 1980 Fit      -0.000258
 1981 Fit      -0.001917
 1982 Fit      -0.001251
 1983 Fit      -0.000479
 1984 Fit      -0.000876
 1985 Fit      -0.006544
 1986 Fit      -0.002086
 1987 Fit      -0.001209
 1988 Fit      -0.005964
 1989 Fit      -0.001602
 1990 Fit       0.001324
 1991 Fit       0.004272
 1992 Fit      -0.009871
 1993 Fit      -0.003152
 1994 Fit       0.001033
 1995 Fit       0.004669
 1996 Fit      -0.009101
 1997 Fit      -0.001947
 1998 Fit       0.002672
 1999 Fit       0.000527
 2000 Fit       0.000914
 2001 Fit       0.000144
 2002 Fit      -0.000341
 2003 Fit      -0.000281
 2004 Fit      -0.000835
 2005 Fit      -0.000776
 2006 Fit       0.000242
 2007 Fit      -0.000341
 2008 Fit       0.000947
 2009 Fit       0.000721
 2010 Fit       0.003132
 2011 Fit       0.000210
 2012 Fit       0.003101
 2013 Fit       0.002970
 2014 Fit       0.001808
 2015 Fit       0.000002
 2016 Fit       0.001991
 2017 Fit       0.001721
 2018 Fit       0.000239
 2019 Fit       0.000981
 2020 Fit       0.002525
 2021 Fit       0.001579
 2022 Fit       0.001707
 2023 Fit       0.002289
 2024 Fit       0.002119
 2025 Fit       0.001341
 2026 Fit       0.000413
 2027 Fit       0.000880
 2028 Fit       0.001534
 2029 Fit       0.001486
 2030 Fit       0.000822
 2031 Fit       0.000015
 2032 Fit       0.000381
 2033 Fit       0.000004
 2034 Fit       0.002967
 2035 Fit       0.001321
 2036 Fit       0.003713
 2037 Fit       0.001939
 2038 Fit       0.004413
 2039 Fit       0.003107
 2040 Fit       0.002555
 2041 Fit       0.003861
 2042 Fit       0.002913
 2043 Fit       0.000511
 2044 Fit       0.000252
 2045 Fit       0.003393
 2046 Fit       0.001644
 2047 Fit      -0.001324
 2048 Fit      -0.003258
 2049 Fit      -0.000274
 2050 Fit       0.000323
 2051 Fit       0.000386
 2052 Fit      -0.000430
 2053 Fit      -0.001351
 2054 Fit      -0.001366
 2055 Fit      -0.000359
 2056 Fit       0.000363
 2057 Fit      -0.002434
 2058 Fit       0.000048
 2059 Fit      -0.001603
 2060 Fit      -0.002278
 2061 Fit      -0.000234
 2062 Fit       0.000045
 2063 Fit      -0.000422
 2064 Fit       0.000533
 2065 Fit       0.001142
 2066 Fit       0.001276
 2067 Fit       0.001058
 2068 Fit       0.001885
 2069 Fit       0.001950
 2070 Fit       0.001514
 2071 Fit      -0.000217
 2072 Fit      -0.000245
 2073 Fit      -0.000351
 2074 Fit       0.000266
 2075 Fit       0.000148
 2076 Fit      -0.000930
 2077 Fit       0.000033
 2078 Fit       0.000521
 2079 Fit       0.000474
 2080 Fit       0.000034
 2081 Fit       0.000222
 2082 Fit       0.000312
 2083 Fit       0.000117
 2084 Fit       0.000012
 2085 Fit       0.000093
 2086 Fit      -0.000950
 2087 Fit      -0.000897
 2088 Fit      -0.001355
 2089 Fit      -0.002074
 2090 Fit      -0.001957
 2091 Fit      -0.001633
 2092 Fit      -0.002250
 2093 Fit      -0.001837
 2094 Fit      -0.001254
 2095 Fit      -0.001917
 2096 Fit      -0.001903
 2097 Fit       0.002416
 2098 Fit       0.000609
 2099 Fit      -0.001167
 2100 Fit      -0.000555
 2101 Fit       0.003205
 2102 Fit       0.001937
 2103 Fit       0.000206
 2104 Fit      -0.001061
 2105 Fit      -0.000917
 2106 Fit       0.000689
 2107 Fit       0.002332
 2108 Fit       0.000777
 2109 Fit       0.001180
 2110 Fit       0.000259
 2111 Fit       0.002100
 2112 Fit       0.001563
 2113 Fit       0.000750
 2114 Fit      -0.000597
 2115 Fit       0.001267
 2116 Fit       0.001363
 2117 Fit       0.000709
 2118 Fit      -0.000604
 2119 Fit      -0.000193
 2120 Fit       0.000446
 2121 Fit      -0.000059
 2122 Fit      -0.001440
 2123 Fit      -0.001399
 2124 Fit      -0.001115
 2125 Fit      -0.000136
 2126 Fit       0.001124
 2127 Fit      -0.000771
 2128 Fit       0.000715
 2129 Fit       0.001709
 2130 Fit       0.002087
 2131 Fit      -0.001109
 2132 Fit       0.000379
 2133 Fit       0.001315
 2134 Fit       0.001488
 2135 Fit       0.000941
 2136 Fit      -0.001245
 2137 Fit      -0.000002
 2138 Fit       0.000310
 2139 Fit      -0.000197
 2140 Fit      -0.001088
 2141 Fit      -0.001863
 2142 Fit      -0.001042
 2143 Fit      -0.002562
 2144 Fit      -0.002212
 2145 Fit      -0.002846
 2146 Fit      -0.002970
 2147 Fit      -0.000989
 2148 Fit      -0.002613
 2149 Fit      -0.002791
 2150 Fit      -0.002256
 2151 Fit      -0.001807
 2152 Fit      -0.001457
 2153 Fit       0.000504
 2154 Fit       0.000505
 2155 Fit      -0.001090
 2156 Fit       0.002511
 2157 Fit       0.001869
 2158 Fit       0.000086
 2159 Fit      -0.001389
 2160 Fit       0.003577
 2161 Fit       0.002096
 2162 Fit       0.000237
 2163 Fit      -0.001009
 2164 Fit       0.002905
 2165 Fit       0.001580
 2166 Fit      -0.001524
 2167 Fit      -0.000410
 2168 Fit      -0.000043
 2169 Fit      -0.001515
 2170 Fit      -0.000035
 2171 Fit       0.000871
 2172 Fit       0.001177
 2173 Fit       0.001026
 2174 Fit      -0.001140
 2175 Fit       0.000337
 2176 Fit       0.001286
 2177 Fit       0.001850
 2178 Fit      -0.000557
 2179 Fit       0.000607
 2180 Fit      -0.001503
 2181 Fit      -0.000789
 2182 Fit       0.000424
 2183 Fit       0.000452
 2184 Fit      -0.000222
 2185 Fit      -0.000628
 2186 Fit      -0.000150
 2187 Fit       0.000956
 2188 Fit      -0.000187
 2189 Fit      -0.000726
 2190 Fit      -0.001418
 2191 Fit      -0.001919
 2192 Fit       0.000289
 2193 Fit      -0.001245
 2194 Fit      -0.001806
 2195 Fit      -0.002435
 2196 Fit      -0.000506
 -----------------------------------------------------------------
 Leave Link  602 at Thu May 18 13:00:15 2017, MaxMem=    33554432 cpu:         3.3
 (Enter /home/michal/g09/l9999.exe)

 Test job not archived.
 1\1\GINC-LINUX\SP\RHF\6-31G(d)\C27H46O2\MICHAL\18-May-2017\0\\#P HF/6-
 31G* SCF(Conver=6) NoSymm Test Pop=mk IOp(6/33=2) GFInput GFPrint\\MEP
  - Input generated by R.E.D.-III.x MOLECULE\\0,1\O,0,6.70307744,0.9024
 1151,0.\H,0,7.0523124,0.,0.\O,0,9.78074531,0.33925781,-6.44580717\H,0,
 9.90547063,-0.61838294,-6.50522102\C,0,2.4271822,0.52560838,-1.5491407
 5\C,0,3.79083827,1.15395617,-1.13943987\H,0,3.75857039,2.18370325,-1.5
 3604727\C,0,5.03124372,0.51053081,-1.78473508\H,0,5.11932994,-0.534762
 67,-1.45356989\C,0,4.89325097,0.55207019,-3.33252026\H,0,4.93093203,1.
 61974455,-3.60491285\C,0,1.45333087,1.41875408,-0.7048918\H,0,1.434939
 56,2.39519617,-1.21139714\C,0,2.31665367,0.66262901,-3.08017355\H,0,2.
 26362492,1.73093991,-3.33538979\H,0,1.39847259,0.20573062,-3.46303748\
 C,0,6.10009463,-0.11490098,-4.08042298\C,0,3.70629971,1.27713647,0.390
 96133\H,0,4.37715839,2.04449434,0.78413556\H,0,4.00454759,0.33940859,0
 .87155156\C,0,3.51841114,0.02284083,-3.80144035\H,0,3.47256771,-1.0627
 1063,-3.66272258\H,0,3.40712,0.19393956,-4.87791651\C,0,2.208407,1.592
 62868,0.65327241\H,0,1.79642248,0.91196287,1.40782766\H,0,2.07300663,2
 .60471331,1.04826298\C,0,6.32327791,1.23026904,-1.35140694\H,0,6.12922
 862,2.31128585,-1.30391005\C,0,-0.01775968,0.97265048,-0.51321678\H,0,
 0.,0.,0.\C,0,2.30759951,-0.95550232,-1.12350551\H,0,3.10839282,-1.5737
 5301,-1.53765389\H,0,2.33983807,-1.07248548,-0.03627026\H,0,1.3599615,
 -1.38148919,-1.46999461\C,0,7.42086171,0.35674202,-3.46225481\C,0,6.07
 282454,0.33687438,-5.57422682\H,0,5.91962126,1.42457672,-5.6011275\H,0
 ,5.20788616,-0.11085629,-6.07482439\C,0,7.48200463,0.97659429,-2.27457
 751\H,0,8.44484058,1.32047564,-1.89672375\C,0,6.03831128,-1.6641542,-4
 .00616137\H,0,5.20030121,-2.05830902,-4.58921295\H,0,6.94894263,-2.122
 08144,-4.40107262\H,0,5.92722897,-2.00739542,-2.97302964\C,0,8.6876400
 4,0.10426373,-4.25805494\H,0,9.54444316,0.57491925,-3.76603397\H,0,8.8
 9673503,-0.97731985,-4.29093226\C,0,7.34252041,0.00926779,-6.37513445\
 H,0,7.46948906,-1.07972054,-6.46710787\H,0,7.25311995,0.40122619,-7.39
 465437\C,0,-0.79998495,1.92398171,0.43183474\H,0,-1.79553117,1.4856794
 1,0.59238528\H,0,-0.31810048,1.93474452,1.41736733\C,0,8.5839513,0.600
 515,-5.7078556\H,0,8.50428288,1.69445081,-5.70491033\C,0,-0.78806224,0
 .77797752,-1.83295081\H,0,-0.70945784,1.65427246,-2.48612524\H,0,-1.85
 276088,0.60841999,-1.63284919\H,0,-0.42376002,-0.0847424,-2.39650967\C
 ,0,-0.97906651,3.37557441,-0.04384178\H,0,0.00367748,3.84385482,-0.177
 92848\H,0,-1.46364345,3.38446961,-1.02762677\C,0,-1.81210798,4.2043302
 2,0.94794767\H,0,-1.32336183,4.16906855,1.93246401\H,0,-2.78904649,3.7
 1653517,1.07857965\C,0,-2.05559047,5.68672962,0.58037729\H,0,-2.662768
 42,6.10365056,1.3975832\C,0,-2.86885601,5.85089111,-0.7143899\H,0,-2.3
 0422838,5.51543963,-1.59199523\H,0,-3.13259063,6.90198584,-0.8784952\H
 ,0,-3.80097108,5.27483436,-0.67611417\C,0,-0.75496319,6.50511568,0.522
 85625\H,0,-0.11627967,6.19182203,-0.31109359\H,0,-0.97072189,7.5709137
 7,0.38570876\H,0,-0.17482432,6.39820776,1.44701472\\Version=EM64L-G09R
 evD.01\HF=-1198.9270388\RMSD=4.885e-07\Dipole=-0.4751482,-0.9069696,-0
 .3362459\Quadrupole=-9.7055025,7.2850471,2.4204554,-15.6168377,2.66798
 55,5.7876311\PG=C01 [X(C27H46O2)]\\@


 Where a calculator on the ENIAC is equipped with 18,000
 vacuum tubes and weighs 30 tons, computers inthe future
 may  have only 1,000 vacuum tubes and weigh only 1 1/2 tons.
              ---Popular Mechanics, March 1949
 Job cpu time:       0 days  0 hours 11 minutes  3.9 seconds.
 File lengths (MBytes):  RWF=    150 Int=      0 D2E=      0 Chk=     11 Scr=      1
 Normal termination of Gaussian 09 at Thu May 18 13:00:16 2017.
