 Entering Gaussian System, Link 0=/home/michal/g09/g09
 Input=JOB2-gau_m1-14-3.com
 Output=JOB2-gau_m1-14-3.log
 Initial command:
 /home/michal/g09/l1.exe "/home/michal/gauss_scratch/Gau-25739.inp" -scrdir="/home/michal/gauss_scratch/"
 Entering Link 1 = /home/michal/g09/l1.exe PID=     25740.
  
 Copyright (c) 1988,1990,1992,1993,1995,1998,2003,2009,2013,
            Gaussian, Inc.  All Rights Reserved.
  
 This is part of the Gaussian(R) 09 program.  It is based on
 the Gaussian(R) 03 system (copyright 2003, Gaussian, Inc.),
 the Gaussian(R) 98 system (copyright 1998, Gaussian, Inc.),
 the Gaussian(R) 94 system (copyright 1995, Gaussian, Inc.),
 the Gaussian 92(TM) system (copyright 1992, Gaussian, Inc.),
 the Gaussian 90(TM) system (copyright 1990, Gaussian, Inc.),
 the Gaussian 88(TM) system (copyright 1988, Gaussian, Inc.),
 the Gaussian 86(TM) system (copyright 1986, Carnegie Mellon
 University), and the Gaussian 82(TM) system (copyright 1983,
 Carnegie Mellon University). Gaussian is a federally registered
 trademark of Gaussian, Inc.
  
 This software contains proprietary and confidential information,
 including trade secrets, belonging to Gaussian, Inc.
  
 This software is provided under written license and may be
 used, copied, transmitted, or stored only in accord with that
 written license.
  
 The following legend is applicable only to US Government
 contracts under FAR:
  
                    RESTRICTED RIGHTS LEGEND
  
 Use, reproduction and disclosure by the US Government is
 subject to restrictions as set forth in subparagraphs (a)
 and (c) of the Commercial Computer Software - Restricted
 Rights clause in FAR 52.227-19.
  
 Gaussian, Inc.
 340 Quinnipiac St., Bldg. 40, Wallingford CT 06492
  
  
 ---------------------------------------------------------------
 Warning -- This program may not be used in any manner that
 competes with the business of Gaussian, Inc. or will provide
 assistance to any competitor of Gaussian, Inc.  The licensee
 of this program is prohibited from giving any competitor of
 Gaussian, Inc. access to this program.  By using this program,
 the user acknowledges that Gaussian, Inc. is engaged in the
 business of creating and licensing software in the field of
 computational chemistry and represents and warrants to the
 licensee that it is not a competitor of Gaussian, Inc. and that
 it will not use this program in any manner prohibited above.
 ---------------------------------------------------------------
  

 Cite this work as:
 Gaussian 09, Revision D.01,
 M. J. Frisch, G. W. Trucks, H. B. Schlegel, G. E. Scuseria, 
 M. A. Robb, J. R. Cheeseman, G. Scalmani, V. Barone, B. Mennucci, 
 G. A. Petersson, H. Nakatsuji, M. Caricato, X. Li, H. P. Hratchian, 
 A. F. Izmaylov, J. Bloino, G. Zheng, J. L. Sonnenberg, M. Hada, 
 M. Ehara, K. Toyota, R. Fukuda, J. Hasegawa, M. Ishida, T. Nakajima, 
 Y. Honda, O. Kitao, H. Nakai, T. Vreven, J. A. Montgomery, Jr., 
 J. E. Peralta, F. Ogliaro, M. Bearpark, J. J. Heyd, E. Brothers, 
 K. N. Kudin, V. N. Staroverov, T. Keith, R. Kobayashi, J. Normand, 
 K. Raghavachari, A. Rendell, J. C. Burant, S. S. Iyengar, J. Tomasi, 
 M. Cossi, N. Rega, J. M. Millam, M. Klene, J. E. Knox, J. B. Cross, 
 V. Bakken, C. Adamo, J. Jaramillo, R. Gomperts, R. E. Stratmann, 
 O. Yazyev, A. J. Austin, R. Cammi, C. Pomelli, J. W. Ochterski, 
 R. L. Martin, K. Morokuma, V. G. Zakrzewski, G. A. Voth, 
 P. Salvador, J. J. Dannenberg, S. Dapprich, A. D. Daniels, 
 O. Farkas, J. B. Foresman, J. V. Ortiz, J. Cioslowski, 
 and D. J. Fox, Gaussian, Inc., Wallingford CT, 2013.
 
 ******************************************
 Gaussian 09:  EM64L-G09RevD.01 24-Apr-2013
                18-May-2017 
 ******************************************
 %Mem=256MB
 %NProc=12
 Will use up to   12 processors via shared memory.
 ----------------------------------------------------------------------
 #P HF/6-31G* SCF(Conver=6) NoSymm Test Pop=mk IOp(6/33=2) GFInput GFPr
 int
 ----------------------------------------------------------------------
 1/38=1/1;
 2/12=2,15=1,17=6,18=5,40=1/2;
 3/5=1,6=6,7=1,11=9,16=1,24=110,25=1,30=1/1,2,3;
 4//1;
 5/5=2,6=6,38=5/2;
 6/7=2,8=2,9=2,10=2,15=8,20=1,28=1,33=2/1,2;
 99/5=1,9=1/99;
 Leave Link    1 at Thu May 18 13:11:32 2017, MaxMem=    33554432 cpu:         0.9
 (Enter /home/michal/g09/l101.exe)
 ----------------------------------------------
 MEP - Input generated by R.E.D.-III.x MOLECULE
 ----------------------------------------------
 Symbolic Z-matrix:
 Charge =  0 Multiplicity = 1
 O                     6.10079   3.75615   0. 
 H                     5.68731   4.00917  -0.83745 
 O                     0.        0.        0. 
 H                    -0.26652   0.0833   -0.92639 
 C                     8.77378   0.19281  -1.01166 
 C                     7.94741   1.23127  -0.19457 
 H                     7.90139   0.81911   0.82806 
 C                     6.47913   1.39068  -0.62782 
 H                     6.43476   1.79356  -1.65015 
 C                     5.77001   0.00689  -0.58679 
 H                     5.74022  -0.27906   0.47762 
 C                     10.14585   0.32591  -0.26411 
 H                     9.95322  -0.10151   0.72945 
 C                     8.06096  -1.16463  -0.86959 
 H                     8.10483  -1.48301   0.18145 
 H                     8.56444  -1.9429   -1.45514 
 C                     4.27157   0.06529  -1.04762 
 C                     8.86357   2.46758  -0.12486 
 H                     8.62598   3.11261   0.72416 
 H                     8.74295   3.08725  -1.01976 
 C                     6.58855  -1.08485  -1.31539 
 H                     6.55756  -0.91307  -2.3966 
 H                     6.12234  -2.06265  -1.15146 
 C                     10.29438   1.86486  -0.04545 
 H                     10.94623   2.31347  -0.80209 
 H                     10.76848   2.06428   0.92209 
 C                     5.73552   2.39012   0.27961 
 H                     6.07038   2.24648   1.31678 
 C                     11.46589  -0.35113  -0.73493 
 H                     12.20897   0.        0. 
 C                     8.87464   0.58746  -2.50356 
 H                     7.89445   0.80033  -2.93838 
 H                     9.49274   1.47576  -2.65512 
 H                     9.31467  -0.22451  -3.0898 
 C                     3.56917   1.25718  -0.38811 
 C                     3.55438  -1.24027  -0.58085 
 H                     3.81665  -1.41861   0.47114 
 H                     3.94408  -2.09295  -1.14677 
 C                     4.24062   2.24692   0.21851 
 H                     3.68893   3.05371   0.70101 
 C                     4.14878   0.20171  -2.58896 
 H                     4.47971  -0.70907  -3.09739 
 H                     3.11553   0.38424  -2.89551 
 H                     4.74792   1.03805  -2.96194 
 C                     2.05288   1.27891  -0.43249 
 H                     1.66858   2.11795   0.15574 
 H                     1.71321   1.43744  -1.46888 
 C                     2.02244  -1.21697  -0.6982 
 H                     1.71834  -1.15214  -1.75351 
 H                     1.60321  -2.15145  -0.30831 
 C                     11.47482  -1.89558  -0.6398 
 H                     10.72349  -2.31458  -1.32236 
 H                     12.44557  -2.24168  -1.02322 
 C                     1.42822  -0.03329   0.06459 
 H                     1.6456   -0.1485    1.13348 
 C                     12.00917   0.07009  -2.11551 
 H                     11.47057  -0.41501  -2.93481 
 H                     13.06105  -0.22531  -2.20164 
 H                     11.96135   1.15069  -2.27777 
 C                     11.28281  -2.49058   0.76403 
 H                     12.00437  -2.02224   1.44731 
 H                     10.28721  -2.23921   1.14616 
 C                     11.46631  -4.01711   0.77742 
 H                     12.46818  -4.25372   0.39086 
 H                     10.75555  -4.46226   0.06595 
 C                     11.29354  -4.72395   2.14207 
 H                     11.46556  -5.7936    1.95095 
 C                     9.86832  -4.59053   2.70397 
 H                     9.63785  -3.55538   2.98119 
 H                     9.74521  -5.20395   3.60386 
 H                     9.11895  -4.91629   1.97288 
 C                     12.33905  -4.27671   3.17724 
 H                     12.19571  -3.23036   3.47063 
 H                     12.27065  -4.88321   4.08756 
 H                     13.35782  -4.37751   2.78477 
 
 NAtoms=     75 NQM=       75 NQMF=       0 NMMI=      0 NMMIF=      0
                NMic=       0 NMicF=      0.
                    Isotopes and Nuclear Properties:
 (Nuclear quadrupole moments (NQMom) in fm**2, nuclear magnetic moments (NMagM)
  in nuclear magnetons)

  Atom         1           2           3           4           5           6           7           8           9          10
 IAtWgt=          16           1          16           1          12          12           1          12           1          12
 AtmWgt=  15.9949146   1.0078250  15.9949146   1.0078250  12.0000000  12.0000000   1.0078250  12.0000000   1.0078250  12.0000000
 NucSpn=           0           1           0           1           0           0           1           0           1           0
 AtZEff=   0.0000000   0.0000000   0.0000000   0.0000000   0.0000000   0.0000000   0.0000000   0.0000000   0.0000000   0.0000000
 NQMom=    0.0000000   0.0000000   0.0000000   0.0000000   0.0000000   0.0000000   0.0000000   0.0000000   0.0000000   0.0000000
 NMagM=    0.0000000   2.7928460   0.0000000   2.7928460   0.0000000   0.0000000   2.7928460   0.0000000   2.7928460   0.0000000
 AtZNuc=   8.0000000   1.0000000   8.0000000   1.0000000   6.0000000   6.0000000   1.0000000   6.0000000   1.0000000   6.0000000

  Atom        11          12          13          14          15          16          17          18          19          20
 IAtWgt=           1          12           1          12           1           1          12          12           1           1
 AtmWgt=   1.0078250  12.0000000   1.0078250  12.0000000   1.0078250   1.0078250  12.0000000  12.0000000   1.0078250   1.0078250
 NucSpn=           1           0           1           0           1           1           0           0           1           1
 AtZEff=   0.0000000   0.0000000   0.0000000   0.0000000   0.0000000   0.0000000   0.0000000   0.0000000   0.0000000   0.0000000
 NQMom=    0.0000000   0.0000000   0.0000000   0.0000000   0.0000000   0.0000000   0.0000000   0.0000000   0.0000000   0.0000000
 NMagM=    2.7928460   0.0000000   2.7928460   0.0000000   2.7928460   2.7928460   0.0000000   0.0000000   2.7928460   2.7928460
 AtZNuc=   1.0000000   6.0000000   1.0000000   6.0000000   1.0000000   1.0000000   6.0000000   6.0000000   1.0000000   1.0000000

  Atom        21          22          23          24          25          26          27          28          29          30
 IAtWgt=          12           1           1          12           1           1          12           1          12           1
 AtmWgt=  12.0000000   1.0078250   1.0078250  12.0000000   1.0078250   1.0078250  12.0000000   1.0078250  12.0000000   1.0078250
 NucSpn=           0           1           1           0           1           1           0           1           0           1
 AtZEff=   0.0000000   0.0000000   0.0000000   0.0000000   0.0000000   0.0000000   0.0000000   0.0000000   0.0000000   0.0000000
 NQMom=    0.0000000   0.0000000   0.0000000   0.0000000   0.0000000   0.0000000   0.0000000   0.0000000   0.0000000   0.0000000
 NMagM=    0.0000000   2.7928460   2.7928460   0.0000000   2.7928460   2.7928460   0.0000000   2.7928460   0.0000000   2.7928460
 AtZNuc=   6.0000000   1.0000000   1.0000000   6.0000000   1.0000000   1.0000000   6.0000000   1.0000000   6.0000000   1.0000000

  Atom        31          32          33          34          35          36          37          38          39          40
 IAtWgt=          12           1           1           1          12          12           1           1          12           1
 AtmWgt=  12.0000000   1.0078250   1.0078250   1.0078250  12.0000000  12.0000000   1.0078250   1.0078250  12.0000000   1.0078250
 NucSpn=           0           1           1           1           0           0           1           1           0           1
 AtZEff=   0.0000000   0.0000000   0.0000000   0.0000000   0.0000000   0.0000000   0.0000000   0.0000000   0.0000000   0.0000000
 NQMom=    0.0000000   0.0000000   0.0000000   0.0000000   0.0000000   0.0000000   0.0000000   0.0000000   0.0000000   0.0000000
 NMagM=    0.0000000   2.7928460   2.7928460   2.7928460   0.0000000   0.0000000   2.7928460   2.7928460   0.0000000   2.7928460
 AtZNuc=   6.0000000   1.0000000   1.0000000   1.0000000   6.0000000   6.0000000   1.0000000   1.0000000   6.0000000   1.0000000

  Atom        41          42          43          44          45          46          47          48          49          50
 IAtWgt=          12           1           1           1          12           1           1          12           1           1
 AtmWgt=  12.0000000   1.0078250   1.0078250   1.0078250  12.0000000   1.0078250   1.0078250  12.0000000   1.0078250   1.0078250
 NucSpn=           0           1           1           1           0           1           1           0           1           1
 AtZEff=   0.0000000   0.0000000   0.0000000   0.0000000   0.0000000   0.0000000   0.0000000   0.0000000   0.0000000   0.0000000
 NQMom=    0.0000000   0.0000000   0.0000000   0.0000000   0.0000000   0.0000000   0.0000000   0.0000000   0.0000000   0.0000000
 NMagM=    0.0000000   2.7928460   2.7928460   2.7928460   0.0000000   2.7928460   2.7928460   0.0000000   2.7928460   2.7928460
 AtZNuc=   6.0000000   1.0000000   1.0000000   1.0000000   6.0000000   1.0000000   1.0000000   6.0000000   1.0000000   1.0000000

  Atom        51          52          53          54          55          56          57          58          59          60
 IAtWgt=          12           1           1          12           1          12           1           1           1          12
 AtmWgt=  12.0000000   1.0078250   1.0078250  12.0000000   1.0078250  12.0000000   1.0078250   1.0078250   1.0078250  12.0000000
 NucSpn=           0           1           1           0           1           0           1           1           1           0
 AtZEff=   0.0000000   0.0000000   0.0000000   0.0000000   0.0000000   0.0000000   0.0000000   0.0000000   0.0000000   0.0000000
 NQMom=    0.0000000   0.0000000   0.0000000   0.0000000   0.0000000   0.0000000   0.0000000   0.0000000   0.0000000   0.0000000
 NMagM=    0.0000000   2.7928460   2.7928460   0.0000000   2.7928460   0.0000000   2.7928460   2.7928460   2.7928460   0.0000000
 AtZNuc=   6.0000000   1.0000000   1.0000000   6.0000000   1.0000000   6.0000000   1.0000000   1.0000000   1.0000000   6.0000000

  Atom        61          62          63          64          65          66          67          68          69          70
 IAtWgt=           1           1          12           1           1          12           1          12           1           1
 AtmWgt=   1.0078250   1.0078250  12.0000000   1.0078250   1.0078250  12.0000000   1.0078250  12.0000000   1.0078250   1.0078250
 NucSpn=           1           1           0           1           1           0           1           0           1           1
 AtZEff=   0.0000000   0.0000000   0.0000000   0.0000000   0.0000000   0.0000000   0.0000000   0.0000000   0.0000000   0.0000000
 NQMom=    0.0000000   0.0000000   0.0000000   0.0000000   0.0000000   0.0000000   0.0000000   0.0000000   0.0000000   0.0000000
 NMagM=    2.7928460   2.7928460   0.0000000   2.7928460   2.7928460   0.0000000   2.7928460   0.0000000   2.7928460   2.7928460
 AtZNuc=   1.0000000   1.0000000   6.0000000   1.0000000   1.0000000   6.0000000   1.0000000   6.0000000   1.0000000   1.0000000

  Atom        71          72          73          74          75
 IAtWgt=           1          12           1           1           1
 AtmWgt=   1.0078250  12.0000000   1.0078250   1.0078250   1.0078250
 NucSpn=           1           0           1           1           1
 AtZEff=   0.0000000   0.0000000   0.0000000   0.0000000   0.0000000
 NQMom=    0.0000000   0.0000000   0.0000000   0.0000000   0.0000000
 NMagM=    2.7928460   0.0000000   2.7928460   2.7928460   2.7928460
 AtZNuc=   1.0000000   6.0000000   1.0000000   1.0000000   1.0000000
 Leave Link  101 at Thu May 18 13:11:33 2017, MaxMem=    33554432 cpu:         1.0
 (Enter /home/michal/g09/l202.exe)
 Symmetry turned off by external request.
 Stoichiometry    C27H46O2
 Framework group  C1[X(C27H46O2)]
 Deg. of freedom   219
 Full point group                 C1      NOp   1
                          Input orientation:                          
 ---------------------------------------------------------------------
 Center     Atomic      Atomic             Coordinates (Angstroms)
 Number     Number       Type             X           Y           Z
 ---------------------------------------------------------------------
      1          8           0        6.100794    3.756147    0.000000
      2          1           0        5.687311    4.009172   -0.837448
      3          8           0        0.000000    0.000000    0.000000
      4          1           0       -0.266521    0.083301   -0.926387
      5          6           0        8.773777    0.192812   -1.011661
      6          6           0        7.947410    1.231268   -0.194571
      7          1           0        7.901390    0.819109    0.828062
      8          6           0        6.479127    1.390681   -0.627816
      9          1           0        6.434755    1.793561   -1.650151
     10          6           0        5.770007    0.006894   -0.586788
     11          1           0        5.740222   -0.279062    0.477624
     12          6           0       10.145846    0.325905   -0.264112
     13          1           0        9.953225   -0.101507    0.729450
     14          6           0        8.060957   -1.164626   -0.869591
     15          1           0        8.104826   -1.483007    0.181454
     16          1           0        8.564444   -1.942901   -1.455142
     17          6           0        4.271567    0.065288   -1.047622
     18          6           0        8.863571    2.467575   -0.124856
     19          1           0        8.625978    3.112607    0.724159
     20          1           0        8.742955    3.087253   -1.019760
     21          6           0        6.588550   -1.084852   -1.315394
     22          1           0        6.557558   -0.913075   -2.396602
     23          1           0        6.122338   -2.062654   -1.151462
     24          6           0       10.294382    1.864857   -0.045447
     25          1           0       10.946228    2.313474   -0.802085
     26          1           0       10.768477    2.064279    0.922088
     27          6           0        5.735523    2.390115    0.279611
     28          1           0        6.070380    2.246483    1.316781
     29          6           0       11.465886   -0.351125   -0.734925
     30          1           0       12.208970    0.000000    0.000000
     31          6           0        8.874640    0.587459   -2.503560
     32          1           0        7.894447    0.800331   -2.938376
     33          1           0        9.492738    1.475765   -2.655123
     34          1           0        9.314674   -0.224511   -3.089801
     35          6           0        3.569167    1.257180   -0.388111
     36          6           0        3.554381   -1.240272   -0.580846
     37          1           0        3.816649   -1.418612    0.471140
     38          1           0        3.944077   -2.092950   -1.146766
     39          6           0        4.240621    2.246922    0.218511
     40          1           0        3.688931    3.053707    0.701011
     41          6           0        4.148780    0.201709   -2.588957
     42          1           0        4.479708   -0.709073   -3.097387
     43          1           0        3.115533    0.384239   -2.895509
     44          1           0        4.747920    1.038047   -2.961943
     45          6           0        2.052878    1.278905   -0.432490
     46          1           0        1.668576    2.117955    0.155741
     47          1           0        1.713205    1.437442   -1.468881
     48          6           0        2.022443   -1.216967   -0.698203
     49          1           0        1.718341   -1.152137   -1.753509
     50          1           0        1.603210   -2.151451   -0.308308
     51          6           0       11.474824   -1.895581   -0.639797
     52          1           0       10.723491   -2.314578   -1.322358
     53          1           0       12.445574   -2.241678   -1.023219
     54          6           0        1.428221   -0.033289    0.064592
     55          1           0        1.645602   -0.148503    1.133481
     56          6           0       12.009165    0.070092   -2.115513
     57          1           0       11.470570   -0.415013   -2.934812
     58          1           0       13.061047   -0.225308   -2.201637
     59          1           0       11.961351    1.150689   -2.277767
     60          6           0       11.282812   -2.490578    0.764031
     61          1           0       12.004369   -2.022242    1.447313
     62          1           0       10.287212   -2.239206    1.146157
     63          6           0       11.466311   -4.017115    0.777421
     64          1           0       12.468185   -4.253723    0.390862
     65          1           0       10.755549   -4.462257    0.065953
     66          6           0       11.293538   -4.723953    2.142070
     67          1           0       11.465563   -5.793603    1.950949
     68          6           0        9.868320   -4.590531    2.703970
     69          1           0        9.637849   -3.555377    2.981186
     70          1           0        9.745206   -5.203948    3.603855
     71          1           0        9.118951   -4.916289    1.972879
     72          6           0       12.339048   -4.276705    3.177239
     73          1           0       12.195714   -3.230364    3.470635
     74          1           0       12.270652   -4.883206    4.087560
     75          1           0       13.357822   -4.377508    2.784775
 ---------------------------------------------------------------------
 Rotational constants (GHZ):      0.2360528      0.0794142      0.0671486
 Leave Link  202 at Thu May 18 13:11:33 2017, MaxMem=    33554432 cpu:         0.0
 (Enter /home/michal/g09/l301.exe)
 Standard basis: 6-31G(d) (6D, 7F)
 Ernie: Thresh=  0.10000D-02 Tol=  0.10000D-05 Strict=F.
 AO basis set in the form of general basis input (Overlap normalization):
      1 0
 S   6 1.00       0.000000000000
      0.5484671660D+04  0.1831074430D-02
      0.8252349460D+03  0.1395017220D-01
      0.1880469580D+03  0.6844507810D-01
      0.5296450000D+02  0.2327143360D+00
      0.1689757040D+02  0.4701928980D+00
      0.5799635340D+01  0.3585208530D+00
 SP   3 1.00       0.000000000000
      0.1553961625D+02 -0.1107775495D+00  0.7087426823D-01
      0.3599933586D+01 -0.1480262627D+00  0.3397528391D+00
      0.1013761750D+01  0.1130767015D+01  0.7271585773D+00
 SP   1 1.00       0.000000000000
      0.2700058226D+00  0.1000000000D+01  0.1000000000D+01
 D   1 1.00       0.000000000000
      0.8000000000D+00  0.1000000000D+01
 ****
      2 0
 S   3 1.00       0.000000000000
      0.1873113696D+02  0.3349460434D-01
      0.2825394365D+01  0.2347269535D+00
      0.6401216923D+00  0.8137573261D+00
 S   1 1.00       0.000000000000
      0.1612777588D+00  0.1000000000D+01
 ****
      3 0
 S   6 1.00       0.000000000000
      0.5484671660D+04  0.1831074430D-02
      0.8252349460D+03  0.1395017220D-01
      0.1880469580D+03  0.6844507810D-01
      0.5296450000D+02  0.2327143360D+00
      0.1689757040D+02  0.4701928980D+00
      0.5799635340D+01  0.3585208530D+00
 SP   3 1.00       0.000000000000
      0.1553961625D+02 -0.1107775495D+00  0.7087426823D-01
      0.3599933586D+01 -0.1480262627D+00  0.3397528391D+00
      0.1013761750D+01  0.1130767015D+01  0.7271585773D+00
 SP   1 1.00       0.000000000000
      0.2700058226D+00  0.1000000000D+01  0.1000000000D+01
 D   1 1.00       0.000000000000
      0.8000000000D+00  0.1000000000D+01
 ****
      4 0
 S   3 1.00       0.000000000000
      0.1873113696D+02  0.3349460434D-01
      0.2825394365D+01  0.2347269535D+00
      0.6401216923D+00  0.8137573261D+00
 S   1 1.00       0.000000000000
      0.1612777588D+00  0.1000000000D+01
 ****
      5 0
 S   6 1.00       0.000000000000
      0.3047524880D+04  0.1834737132D-02
      0.4573695180D+03  0.1403732281D-01
      0.1039486850D+03  0.6884262226D-01
      0.2921015530D+02  0.2321844432D+00
      0.9286662960D+01  0.4679413484D+00
      0.3163926960D+01  0.3623119853D+00
 SP   3 1.00       0.000000000000
      0.7868272350D+01 -0.1193324198D+00  0.6899906659D-01
      0.1881288540D+01 -0.1608541517D+00  0.3164239610D+00
      0.5442492580D+00  0.1143456438D+01  0.7443082909D+00
 SP   1 1.00       0.000000000000
      0.1687144782D+00  0.1000000000D+01  0.1000000000D+01
 D   1 1.00       0.000000000000
      0.8000000000D+00  0.1000000000D+01
 ****
      6 0
 S   6 1.00       0.000000000000
      0.3047524880D+04  0.1834737132D-02
      0.4573695180D+03  0.1403732281D-01
      0.1039486850D+03  0.6884262226D-01
      0.2921015530D+02  0.2321844432D+00
      0.9286662960D+01  0.4679413484D+00
      0.3163926960D+01  0.3623119853D+00
 SP   3 1.00       0.000000000000
      0.7868272350D+01 -0.1193324198D+00  0.6899906659D-01
      0.1881288540D+01 -0.1608541517D+00  0.3164239610D+00
      0.5442492580D+00  0.1143456438D+01  0.7443082909D+00
 SP   1 1.00       0.000000000000
      0.1687144782D+00  0.1000000000D+01  0.1000000000D+01
 D   1 1.00       0.000000000000
      0.8000000000D+00  0.1000000000D+01
 ****
      7 0
 S   3 1.00       0.000000000000
      0.1873113696D+02  0.3349460434D-01
      0.2825394365D+01  0.2347269535D+00
      0.6401216923D+00  0.8137573261D+00
 S   1 1.00       0.000000000000
      0.1612777588D+00  0.1000000000D+01
 ****
      8 0
 S   6 1.00       0.000000000000
      0.3047524880D+04  0.1834737132D-02
      0.4573695180D+03  0.1403732281D-01
      0.1039486850D+03  0.6884262226D-01
      0.2921015530D+02  0.2321844432D+00
      0.9286662960D+01  0.4679413484D+00
      0.3163926960D+01  0.3623119853D+00
 SP   3 1.00       0.000000000000
      0.7868272350D+01 -0.1193324198D+00  0.6899906659D-01
      0.1881288540D+01 -0.1608541517D+00  0.3164239610D+00
      0.5442492580D+00  0.1143456438D+01  0.7443082909D+00
 SP   1 1.00       0.000000000000
      0.1687144782D+00  0.1000000000D+01  0.1000000000D+01
 D   1 1.00       0.000000000000
      0.8000000000D+00  0.1000000000D+01
 ****
      9 0
 S   3 1.00       0.000000000000
      0.1873113696D+02  0.3349460434D-01
      0.2825394365D+01  0.2347269535D+00
      0.6401216923D+00  0.8137573261D+00
 S   1 1.00       0.000000000000
      0.1612777588D+00  0.1000000000D+01
 ****
     10 0
 S   6 1.00       0.000000000000
      0.3047524880D+04  0.1834737132D-02
      0.4573695180D+03  0.1403732281D-01
      0.1039486850D+03  0.6884262226D-01
      0.2921015530D+02  0.2321844432D+00
      0.9286662960D+01  0.4679413484D+00
      0.3163926960D+01  0.3623119853D+00
 SP   3 1.00       0.000000000000
      0.7868272350D+01 -0.1193324198D+00  0.6899906659D-01
      0.1881288540D+01 -0.1608541517D+00  0.3164239610D+00
      0.5442492580D+00  0.1143456438D+01  0.7443082909D+00
 SP   1 1.00       0.000000000000
      0.1687144782D+00  0.1000000000D+01  0.1000000000D+01
 D   1 1.00       0.000000000000
      0.8000000000D+00  0.1000000000D+01
 ****
     11 0
 S   3 1.00       0.000000000000
      0.1873113696D+02  0.3349460434D-01
      0.2825394365D+01  0.2347269535D+00
      0.6401216923D+00  0.8137573261D+00
 S   1 1.00       0.000000000000
      0.1612777588D+00  0.1000000000D+01
 ****
     12 0
 S   6 1.00       0.000000000000
      0.3047524880D+04  0.1834737132D-02
      0.4573695180D+03  0.1403732281D-01
      0.1039486850D+03  0.6884262226D-01
      0.2921015530D+02  0.2321844432D+00
      0.9286662960D+01  0.4679413484D+00
      0.3163926960D+01  0.3623119853D+00
 SP   3 1.00       0.000000000000
      0.7868272350D+01 -0.1193324198D+00  0.6899906659D-01
      0.1881288540D+01 -0.1608541517D+00  0.3164239610D+00
      0.5442492580D+00  0.1143456438D+01  0.7443082909D+00
 SP   1 1.00       0.000000000000
      0.1687144782D+00  0.1000000000D+01  0.1000000000D+01
 D   1 1.00       0.000000000000
      0.8000000000D+00  0.1000000000D+01
 ****
     13 0
 S   3 1.00       0.000000000000
      0.1873113696D+02  0.3349460434D-01
      0.2825394365D+01  0.2347269535D+00
      0.6401216923D+00  0.8137573261D+00
 S   1 1.00       0.000000000000
      0.1612777588D+00  0.1000000000D+01
 ****
     14 0
 S   6 1.00       0.000000000000
      0.3047524880D+04  0.1834737132D-02
      0.4573695180D+03  0.1403732281D-01
      0.1039486850D+03  0.6884262226D-01
      0.2921015530D+02  0.2321844432D+00
      0.9286662960D+01  0.4679413484D+00
      0.3163926960D+01  0.3623119853D+00
 SP   3 1.00       0.000000000000
      0.7868272350D+01 -0.1193324198D+00  0.6899906659D-01
      0.1881288540D+01 -0.1608541517D+00  0.3164239610D+00
      0.5442492580D+00  0.1143456438D+01  0.7443082909D+00
 SP   1 1.00       0.000000000000
      0.1687144782D+00  0.1000000000D+01  0.1000000000D+01
 D   1 1.00       0.000000000000
      0.8000000000D+00  0.1000000000D+01
 ****
     15 0
 S   3 1.00       0.000000000000
      0.1873113696D+02  0.3349460434D-01
      0.2825394365D+01  0.2347269535D+00
      0.6401216923D+00  0.8137573261D+00
 S   1 1.00       0.000000000000
      0.1612777588D+00  0.1000000000D+01
 ****
     16 0
 S   3 1.00       0.000000000000
      0.1873113696D+02  0.3349460434D-01
      0.2825394365D+01  0.2347269535D+00
      0.6401216923D+00  0.8137573261D+00
 S   1 1.00       0.000000000000
      0.1612777588D+00  0.1000000000D+01
 ****
     17 0
 S   6 1.00       0.000000000000
      0.3047524880D+04  0.1834737132D-02
      0.4573695180D+03  0.1403732281D-01
      0.1039486850D+03  0.6884262226D-01
      0.2921015530D+02  0.2321844432D+00
      0.9286662960D+01  0.4679413484D+00
      0.3163926960D+01  0.3623119853D+00
 SP   3 1.00       0.000000000000
      0.7868272350D+01 -0.1193324198D+00  0.6899906659D-01
      0.1881288540D+01 -0.1608541517D+00  0.3164239610D+00
      0.5442492580D+00  0.1143456438D+01  0.7443082909D+00
 SP   1 1.00       0.000000000000
      0.1687144782D+00  0.1000000000D+01  0.1000000000D+01
 D   1 1.00       0.000000000000
      0.8000000000D+00  0.1000000000D+01
 ****
     18 0
 S   6 1.00       0.000000000000
      0.3047524880D+04  0.1834737132D-02
      0.4573695180D+03  0.1403732281D-01
      0.1039486850D+03  0.6884262226D-01
      0.2921015530D+02  0.2321844432D+00
      0.9286662960D+01  0.4679413484D+00
      0.3163926960D+01  0.3623119853D+00
 SP   3 1.00       0.000000000000
      0.7868272350D+01 -0.1193324198D+00  0.6899906659D-01
      0.1881288540D+01 -0.1608541517D+00  0.3164239610D+00
      0.5442492580D+00  0.1143456438D+01  0.7443082909D+00
 SP   1 1.00       0.000000000000
      0.1687144782D+00  0.1000000000D+01  0.1000000000D+01
 D   1 1.00       0.000000000000
      0.8000000000D+00  0.1000000000D+01
 ****
     19 0
 S   3 1.00       0.000000000000
      0.1873113696D+02  0.3349460434D-01
      0.2825394365D+01  0.2347269535D+00
      0.6401216923D+00  0.8137573261D+00
 S   1 1.00       0.000000000000
      0.1612777588D+00  0.1000000000D+01
 ****
     20 0
 S   3 1.00       0.000000000000
      0.1873113696D+02  0.3349460434D-01
      0.2825394365D+01  0.2347269535D+00
      0.6401216923D+00  0.8137573261D+00
 S   1 1.00       0.000000000000
      0.1612777588D+00  0.1000000000D+01
 ****
     21 0
 S   6 1.00       0.000000000000
      0.3047524880D+04  0.1834737132D-02
      0.4573695180D+03  0.1403732281D-01
      0.1039486850D+03  0.6884262226D-01
      0.2921015530D+02  0.2321844432D+00
      0.9286662960D+01  0.4679413484D+00
      0.3163926960D+01  0.3623119853D+00
 SP   3 1.00       0.000000000000
      0.7868272350D+01 -0.1193324198D+00  0.6899906659D-01
      0.1881288540D+01 -0.1608541517D+00  0.3164239610D+00
      0.5442492580D+00  0.1143456438D+01  0.7443082909D+00
 SP   1 1.00       0.000000000000
      0.1687144782D+00  0.1000000000D+01  0.1000000000D+01
 D   1 1.00       0.000000000000
      0.8000000000D+00  0.1000000000D+01
 ****
     22 0
 S   3 1.00       0.000000000000
      0.1873113696D+02  0.3349460434D-01
      0.2825394365D+01  0.2347269535D+00
      0.6401216923D+00  0.8137573261D+00
 S   1 1.00       0.000000000000
      0.1612777588D+00  0.1000000000D+01
 ****
     23 0
 S   3 1.00       0.000000000000
      0.1873113696D+02  0.3349460434D-01
      0.2825394365D+01  0.2347269535D+00
      0.6401216923D+00  0.8137573261D+00
 S   1 1.00       0.000000000000
      0.1612777588D+00  0.1000000000D+01
 ****
     24 0
 S   6 1.00       0.000000000000
      0.3047524880D+04  0.1834737132D-02
      0.4573695180D+03  0.1403732281D-01
      0.1039486850D+03  0.6884262226D-01
      0.2921015530D+02  0.2321844432D+00
      0.9286662960D+01  0.4679413484D+00
      0.3163926960D+01  0.3623119853D+00
 SP   3 1.00       0.000000000000
      0.7868272350D+01 -0.1193324198D+00  0.6899906659D-01
      0.1881288540D+01 -0.1608541517D+00  0.3164239610D+00
      0.5442492580D+00  0.1143456438D+01  0.7443082909D+00
 SP   1 1.00       0.000000000000
      0.1687144782D+00  0.1000000000D+01  0.1000000000D+01
 D   1 1.00       0.000000000000
      0.8000000000D+00  0.1000000000D+01
 ****
     25 0
 S   3 1.00       0.000000000000
      0.1873113696D+02  0.3349460434D-01
      0.2825394365D+01  0.2347269535D+00
      0.6401216923D+00  0.8137573261D+00
 S   1 1.00       0.000000000000
      0.1612777588D+00  0.1000000000D+01
 ****
     26 0
 S   3 1.00       0.000000000000
      0.1873113696D+02  0.3349460434D-01
      0.2825394365D+01  0.2347269535D+00
      0.6401216923D+00  0.8137573261D+00
 S   1 1.00       0.000000000000
      0.1612777588D+00  0.1000000000D+01
 ****
     27 0
 S   6 1.00       0.000000000000
      0.3047524880D+04  0.1834737132D-02
      0.4573695180D+03  0.1403732281D-01
      0.1039486850D+03  0.6884262226D-01
      0.2921015530D+02  0.2321844432D+00
      0.9286662960D+01  0.4679413484D+00
      0.3163926960D+01  0.3623119853D+00
 SP   3 1.00       0.000000000000
      0.7868272350D+01 -0.1193324198D+00  0.6899906659D-01
      0.1881288540D+01 -0.1608541517D+00  0.3164239610D+00
      0.5442492580D+00  0.1143456438D+01  0.7443082909D+00
 SP   1 1.00       0.000000000000
      0.1687144782D+00  0.1000000000D+01  0.1000000000D+01
 D   1 1.00       0.000000000000
      0.8000000000D+00  0.1000000000D+01
 ****
     28 0
 S   3 1.00       0.000000000000
      0.1873113696D+02  0.3349460434D-01
      0.2825394365D+01  0.2347269535D+00
      0.6401216923D+00  0.8137573261D+00
 S   1 1.00       0.000000000000
      0.1612777588D+00  0.1000000000D+01
 ****
     29 0
 S   6 1.00       0.000000000000
      0.3047524880D+04  0.1834737132D-02
      0.4573695180D+03  0.1403732281D-01
      0.1039486850D+03  0.6884262226D-01
      0.2921015530D+02  0.2321844432D+00
      0.9286662960D+01  0.4679413484D+00
      0.3163926960D+01  0.3623119853D+00
 SP   3 1.00       0.000000000000
      0.7868272350D+01 -0.1193324198D+00  0.6899906659D-01
      0.1881288540D+01 -0.1608541517D+00  0.3164239610D+00
      0.5442492580D+00  0.1143456438D+01  0.7443082909D+00
 SP   1 1.00       0.000000000000
      0.1687144782D+00  0.1000000000D+01  0.1000000000D+01
 D   1 1.00       0.000000000000
      0.8000000000D+00  0.1000000000D+01
 ****
     30 0
 S   3 1.00       0.000000000000
      0.1873113696D+02  0.3349460434D-01
      0.2825394365D+01  0.2347269535D+00
      0.6401216923D+00  0.8137573261D+00
 S   1 1.00       0.000000000000
      0.1612777588D+00  0.1000000000D+01
 ****
     31 0
 S   6 1.00       0.000000000000
      0.3047524880D+04  0.1834737132D-02
      0.4573695180D+03  0.1403732281D-01
      0.1039486850D+03  0.6884262226D-01
      0.2921015530D+02  0.2321844432D+00
      0.9286662960D+01  0.4679413484D+00
      0.3163926960D+01  0.3623119853D+00
 SP   3 1.00       0.000000000000
      0.7868272350D+01 -0.1193324198D+00  0.6899906659D-01
      0.1881288540D+01 -0.1608541517D+00  0.3164239610D+00
      0.5442492580D+00  0.1143456438D+01  0.7443082909D+00
 SP   1 1.00       0.000000000000
      0.1687144782D+00  0.1000000000D+01  0.1000000000D+01
 D   1 1.00       0.000000000000
      0.8000000000D+00  0.1000000000D+01
 ****
     32 0
 S   3 1.00       0.000000000000
      0.1873113696D+02  0.3349460434D-01
      0.2825394365D+01  0.2347269535D+00
      0.6401216923D+00  0.8137573261D+00
 S   1 1.00       0.000000000000
      0.1612777588D+00  0.1000000000D+01
 ****
     33 0
 S   3 1.00       0.000000000000
      0.1873113696D+02  0.3349460434D-01
      0.2825394365D+01  0.2347269535D+00
      0.6401216923D+00  0.8137573261D+00
 S   1 1.00       0.000000000000
      0.1612777588D+00  0.1000000000D+01
 ****
     34 0
 S   3 1.00       0.000000000000
      0.1873113696D+02  0.3349460434D-01
      0.2825394365D+01  0.2347269535D+00
      0.6401216923D+00  0.8137573261D+00
 S   1 1.00       0.000000000000
      0.1612777588D+00  0.1000000000D+01
 ****
     35 0
 S   6 1.00       0.000000000000
      0.3047524880D+04  0.1834737132D-02
      0.4573695180D+03  0.1403732281D-01
      0.1039486850D+03  0.6884262226D-01
      0.2921015530D+02  0.2321844432D+00
      0.9286662960D+01  0.4679413484D+00
      0.3163926960D+01  0.3623119853D+00
 SP   3 1.00       0.000000000000
      0.7868272350D+01 -0.1193324198D+00  0.6899906659D-01
      0.1881288540D+01 -0.1608541517D+00  0.3164239610D+00
      0.5442492580D+00  0.1143456438D+01  0.7443082909D+00
 SP   1 1.00       0.000000000000
      0.1687144782D+00  0.1000000000D+01  0.1000000000D+01
 D   1 1.00       0.000000000000
      0.8000000000D+00  0.1000000000D+01
 ****
     36 0
 S   6 1.00       0.000000000000
      0.3047524880D+04  0.1834737132D-02
      0.4573695180D+03  0.1403732281D-01
      0.1039486850D+03  0.6884262226D-01
      0.2921015530D+02  0.2321844432D+00
      0.9286662960D+01  0.4679413484D+00
      0.3163926960D+01  0.3623119853D+00
 SP   3 1.00       0.000000000000
      0.7868272350D+01 -0.1193324198D+00  0.6899906659D-01
      0.1881288540D+01 -0.1608541517D+00  0.3164239610D+00
      0.5442492580D+00  0.1143456438D+01  0.7443082909D+00
 SP   1 1.00       0.000000000000
      0.1687144782D+00  0.1000000000D+01  0.1000000000D+01
 D   1 1.00       0.000000000000
      0.8000000000D+00  0.1000000000D+01
 ****
     37 0
 S   3 1.00       0.000000000000
      0.1873113696D+02  0.3349460434D-01
      0.2825394365D+01  0.2347269535D+00
      0.6401216923D+00  0.8137573261D+00
 S   1 1.00       0.000000000000
      0.1612777588D+00  0.1000000000D+01
 ****
     38 0
 S   3 1.00       0.000000000000
      0.1873113696D+02  0.3349460434D-01
      0.2825394365D+01  0.2347269535D+00
      0.6401216923D+00  0.8137573261D+00
 S   1 1.00       0.000000000000
      0.1612777588D+00  0.1000000000D+01
 ****
     39 0
 S   6 1.00       0.000000000000
      0.3047524880D+04  0.1834737132D-02
      0.4573695180D+03  0.1403732281D-01
      0.1039486850D+03  0.6884262226D-01
      0.2921015530D+02  0.2321844432D+00
      0.9286662960D+01  0.4679413484D+00
      0.3163926960D+01  0.3623119853D+00
 SP   3 1.00       0.000000000000
      0.7868272350D+01 -0.1193324198D+00  0.6899906659D-01
      0.1881288540D+01 -0.1608541517D+00  0.3164239610D+00
      0.5442492580D+00  0.1143456438D+01  0.7443082909D+00
 SP   1 1.00       0.000000000000
      0.1687144782D+00  0.1000000000D+01  0.1000000000D+01
 D   1 1.00       0.000000000000
      0.8000000000D+00  0.1000000000D+01
 ****
     40 0
 S   3 1.00       0.000000000000
      0.1873113696D+02  0.3349460434D-01
      0.2825394365D+01  0.2347269535D+00
      0.6401216923D+00  0.8137573261D+00
 S   1 1.00       0.000000000000
      0.1612777588D+00  0.1000000000D+01
 ****
     41 0
 S   6 1.00       0.000000000000
      0.3047524880D+04  0.1834737132D-02
      0.4573695180D+03  0.1403732281D-01
      0.1039486850D+03  0.6884262226D-01
      0.2921015530D+02  0.2321844432D+00
      0.9286662960D+01  0.4679413484D+00
      0.3163926960D+01  0.3623119853D+00
 SP   3 1.00       0.000000000000
      0.7868272350D+01 -0.1193324198D+00  0.6899906659D-01
      0.1881288540D+01 -0.1608541517D+00  0.3164239610D+00
      0.5442492580D+00  0.1143456438D+01  0.7443082909D+00
 SP   1 1.00       0.000000000000
      0.1687144782D+00  0.1000000000D+01  0.1000000000D+01
 D   1 1.00       0.000000000000
      0.8000000000D+00  0.1000000000D+01
 ****
     42 0
 S   3 1.00       0.000000000000
      0.1873113696D+02  0.3349460434D-01
      0.2825394365D+01  0.2347269535D+00
      0.6401216923D+00  0.8137573261D+00
 S   1 1.00       0.000000000000
      0.1612777588D+00  0.1000000000D+01
 ****
     43 0
 S   3 1.00       0.000000000000
      0.1873113696D+02  0.3349460434D-01
      0.2825394365D+01  0.2347269535D+00
      0.6401216923D+00  0.8137573261D+00
 S   1 1.00       0.000000000000
      0.1612777588D+00  0.1000000000D+01
 ****
     44 0
 S   3 1.00       0.000000000000
      0.1873113696D+02  0.3349460434D-01
      0.2825394365D+01  0.2347269535D+00
      0.6401216923D+00  0.8137573261D+00
 S   1 1.00       0.000000000000
      0.1612777588D+00  0.1000000000D+01
 ****
     45 0
 S   6 1.00       0.000000000000
      0.3047524880D+04  0.1834737132D-02
      0.4573695180D+03  0.1403732281D-01
      0.1039486850D+03  0.6884262226D-01
      0.2921015530D+02  0.2321844432D+00
      0.9286662960D+01  0.4679413484D+00
      0.3163926960D+01  0.3623119853D+00
 SP   3 1.00       0.000000000000
      0.7868272350D+01 -0.1193324198D+00  0.6899906659D-01
      0.1881288540D+01 -0.1608541517D+00  0.3164239610D+00
      0.5442492580D+00  0.1143456438D+01  0.7443082909D+00
 SP   1 1.00       0.000000000000
      0.1687144782D+00  0.1000000000D+01  0.1000000000D+01
 D   1 1.00       0.000000000000
      0.8000000000D+00  0.1000000000D+01
 ****
     46 0
 S   3 1.00       0.000000000000
      0.1873113696D+02  0.3349460434D-01
      0.2825394365D+01  0.2347269535D+00
      0.6401216923D+00  0.8137573261D+00
 S   1 1.00       0.000000000000
      0.1612777588D+00  0.1000000000D+01
 ****
     47 0
 S   3 1.00       0.000000000000
      0.1873113696D+02  0.3349460434D-01
      0.2825394365D+01  0.2347269535D+00
      0.6401216923D+00  0.8137573261D+00
 S   1 1.00       0.000000000000
      0.1612777588D+00  0.1000000000D+01
 ****
     48 0
 S   6 1.00       0.000000000000
      0.3047524880D+04  0.1834737132D-02
      0.4573695180D+03  0.1403732281D-01
      0.1039486850D+03  0.6884262226D-01
      0.2921015530D+02  0.2321844432D+00
      0.9286662960D+01  0.4679413484D+00
      0.3163926960D+01  0.3623119853D+00
 SP   3 1.00       0.000000000000
      0.7868272350D+01 -0.1193324198D+00  0.6899906659D-01
      0.1881288540D+01 -0.1608541517D+00  0.3164239610D+00
      0.5442492580D+00  0.1143456438D+01  0.7443082909D+00
 SP   1 1.00       0.000000000000
      0.1687144782D+00  0.1000000000D+01  0.1000000000D+01
 D   1 1.00       0.000000000000
      0.8000000000D+00  0.1000000000D+01
 ****
     49 0
 S   3 1.00       0.000000000000
      0.1873113696D+02  0.3349460434D-01
      0.2825394365D+01  0.2347269535D+00
      0.6401216923D+00  0.8137573261D+00
 S   1 1.00       0.000000000000
      0.1612777588D+00  0.1000000000D+01
 ****
     50 0
 S   3 1.00       0.000000000000
      0.1873113696D+02  0.3349460434D-01
      0.2825394365D+01  0.2347269535D+00
      0.6401216923D+00  0.8137573261D+00
 S   1 1.00       0.000000000000
      0.1612777588D+00  0.1000000000D+01
 ****
     51 0
 S   6 1.00       0.000000000000
      0.3047524880D+04  0.1834737132D-02
      0.4573695180D+03  0.1403732281D-01
      0.1039486850D+03  0.6884262226D-01
      0.2921015530D+02  0.2321844432D+00
      0.9286662960D+01  0.4679413484D+00
      0.3163926960D+01  0.3623119853D+00
 SP   3 1.00       0.000000000000
      0.7868272350D+01 -0.1193324198D+00  0.6899906659D-01
      0.1881288540D+01 -0.1608541517D+00  0.3164239610D+00
      0.5442492580D+00  0.1143456438D+01  0.7443082909D+00
 SP   1 1.00       0.000000000000
      0.1687144782D+00  0.1000000000D+01  0.1000000000D+01
 D   1 1.00       0.000000000000
      0.8000000000D+00  0.1000000000D+01
 ****
     52 0
 S   3 1.00       0.000000000000
      0.1873113696D+02  0.3349460434D-01
      0.2825394365D+01  0.2347269535D+00
      0.6401216923D+00  0.8137573261D+00
 S   1 1.00       0.000000000000
      0.1612777588D+00  0.1000000000D+01
 ****
     53 0
 S   3 1.00       0.000000000000
      0.1873113696D+02  0.3349460434D-01
      0.2825394365D+01  0.2347269535D+00
      0.6401216923D+00  0.8137573261D+00
 S   1 1.00       0.000000000000
      0.1612777588D+00  0.1000000000D+01
 ****
     54 0
 S   6 1.00       0.000000000000
      0.3047524880D+04  0.1834737132D-02
      0.4573695180D+03  0.1403732281D-01
      0.1039486850D+03  0.6884262226D-01
      0.2921015530D+02  0.2321844432D+00
      0.9286662960D+01  0.4679413484D+00
      0.3163926960D+01  0.3623119853D+00
 SP   3 1.00       0.000000000000
      0.7868272350D+01 -0.1193324198D+00  0.6899906659D-01
      0.1881288540D+01 -0.1608541517D+00  0.3164239610D+00
      0.5442492580D+00  0.1143456438D+01  0.7443082909D+00
 SP   1 1.00       0.000000000000
      0.1687144782D+00  0.1000000000D+01  0.1000000000D+01
 D   1 1.00       0.000000000000
      0.8000000000D+00  0.1000000000D+01
 ****
     55 0
 S   3 1.00       0.000000000000
      0.1873113696D+02  0.3349460434D-01
      0.2825394365D+01  0.2347269535D+00
      0.6401216923D+00  0.8137573261D+00
 S   1 1.00       0.000000000000
      0.1612777588D+00  0.1000000000D+01
 ****
     56 0
 S   6 1.00       0.000000000000
      0.3047524880D+04  0.1834737132D-02
      0.4573695180D+03  0.1403732281D-01
      0.1039486850D+03  0.6884262226D-01
      0.2921015530D+02  0.2321844432D+00
      0.9286662960D+01  0.4679413484D+00
      0.3163926960D+01  0.3623119853D+00
 SP   3 1.00       0.000000000000
      0.7868272350D+01 -0.1193324198D+00  0.6899906659D-01
      0.1881288540D+01 -0.1608541517D+00  0.3164239610D+00
      0.5442492580D+00  0.1143456438D+01  0.7443082909D+00
 SP   1 1.00       0.000000000000
      0.1687144782D+00  0.1000000000D+01  0.1000000000D+01
 D   1 1.00       0.000000000000
      0.8000000000D+00  0.1000000000D+01
 ****
     57 0
 S   3 1.00       0.000000000000
      0.1873113696D+02  0.3349460434D-01
      0.2825394365D+01  0.2347269535D+00
      0.6401216923D+00  0.8137573261D+00
 S   1 1.00       0.000000000000
      0.1612777588D+00  0.1000000000D+01
 ****
     58 0
 S   3 1.00       0.000000000000
      0.1873113696D+02  0.3349460434D-01
      0.2825394365D+01  0.2347269535D+00
      0.6401216923D+00  0.8137573261D+00
 S   1 1.00       0.000000000000
      0.1612777588D+00  0.1000000000D+01
 ****
     59 0
 S   3 1.00       0.000000000000
      0.1873113696D+02  0.3349460434D-01
      0.2825394365D+01  0.2347269535D+00
      0.6401216923D+00  0.8137573261D+00
 S   1 1.00       0.000000000000
      0.1612777588D+00  0.1000000000D+01
 ****
     60 0
 S   6 1.00       0.000000000000
      0.3047524880D+04  0.1834737132D-02
      0.4573695180D+03  0.1403732281D-01
      0.1039486850D+03  0.6884262226D-01
      0.2921015530D+02  0.2321844432D+00
      0.9286662960D+01  0.4679413484D+00
      0.3163926960D+01  0.3623119853D+00
 SP   3 1.00       0.000000000000
      0.7868272350D+01 -0.1193324198D+00  0.6899906659D-01
      0.1881288540D+01 -0.1608541517D+00  0.3164239610D+00
      0.5442492580D+00  0.1143456438D+01  0.7443082909D+00
 SP   1 1.00       0.000000000000
      0.1687144782D+00  0.1000000000D+01  0.1000000000D+01
 D   1 1.00       0.000000000000
      0.8000000000D+00  0.1000000000D+01
 ****
     61 0
 S   3 1.00       0.000000000000
      0.1873113696D+02  0.3349460434D-01
      0.2825394365D+01  0.2347269535D+00
      0.6401216923D+00  0.8137573261D+00
 S   1 1.00       0.000000000000
      0.1612777588D+00  0.1000000000D+01
 ****
     62 0
 S   3 1.00       0.000000000000
      0.1873113696D+02  0.3349460434D-01
      0.2825394365D+01  0.2347269535D+00
      0.6401216923D+00  0.8137573261D+00
 S   1 1.00       0.000000000000
      0.1612777588D+00  0.1000000000D+01
 ****
     63 0
 S   6 1.00       0.000000000000
      0.3047524880D+04  0.1834737132D-02
      0.4573695180D+03  0.1403732281D-01
      0.1039486850D+03  0.6884262226D-01
      0.2921015530D+02  0.2321844432D+00
      0.9286662960D+01  0.4679413484D+00
      0.3163926960D+01  0.3623119853D+00
 SP   3 1.00       0.000000000000
      0.7868272350D+01 -0.1193324198D+00  0.6899906659D-01
      0.1881288540D+01 -0.1608541517D+00  0.3164239610D+00
      0.5442492580D+00  0.1143456438D+01  0.7443082909D+00
 SP   1 1.00       0.000000000000
      0.1687144782D+00  0.1000000000D+01  0.1000000000D+01
 D   1 1.00       0.000000000000
      0.8000000000D+00  0.1000000000D+01
 ****
     64 0
 S   3 1.00       0.000000000000
      0.1873113696D+02  0.3349460434D-01
      0.2825394365D+01  0.2347269535D+00
      0.6401216923D+00  0.8137573261D+00
 S   1 1.00       0.000000000000
      0.1612777588D+00  0.1000000000D+01
 ****
     65 0
 S   3 1.00       0.000000000000
      0.1873113696D+02  0.3349460434D-01
      0.2825394365D+01  0.2347269535D+00
      0.6401216923D+00  0.8137573261D+00
 S   1 1.00       0.000000000000
      0.1612777588D+00  0.1000000000D+01
 ****
     66 0
 S   6 1.00       0.000000000000
      0.3047524880D+04  0.1834737132D-02
      0.4573695180D+03  0.1403732281D-01
      0.1039486850D+03  0.6884262226D-01
      0.2921015530D+02  0.2321844432D+00
      0.9286662960D+01  0.4679413484D+00
      0.3163926960D+01  0.3623119853D+00
 SP   3 1.00       0.000000000000
      0.7868272350D+01 -0.1193324198D+00  0.6899906659D-01
      0.1881288540D+01 -0.1608541517D+00  0.3164239610D+00
      0.5442492580D+00  0.1143456438D+01  0.7443082909D+00
 SP   1 1.00       0.000000000000
      0.1687144782D+00  0.1000000000D+01  0.1000000000D+01
 D   1 1.00       0.000000000000
      0.8000000000D+00  0.1000000000D+01
 ****
     67 0
 S   3 1.00       0.000000000000
      0.1873113696D+02  0.3349460434D-01
      0.2825394365D+01  0.2347269535D+00
      0.6401216923D+00  0.8137573261D+00
 S   1 1.00       0.000000000000
      0.1612777588D+00  0.1000000000D+01
 ****
     68 0
 S   6 1.00       0.000000000000
      0.3047524880D+04  0.1834737132D-02
      0.4573695180D+03  0.1403732281D-01
      0.1039486850D+03  0.6884262226D-01
      0.2921015530D+02  0.2321844432D+00
      0.9286662960D+01  0.4679413484D+00
      0.3163926960D+01  0.3623119853D+00
 SP   3 1.00       0.000000000000
      0.7868272350D+01 -0.1193324198D+00  0.6899906659D-01
      0.1881288540D+01 -0.1608541517D+00  0.3164239610D+00
      0.5442492580D+00  0.1143456438D+01  0.7443082909D+00
 SP   1 1.00       0.000000000000
      0.1687144782D+00  0.1000000000D+01  0.1000000000D+01
 D   1 1.00       0.000000000000
      0.8000000000D+00  0.1000000000D+01
 ****
     69 0
 S   3 1.00       0.000000000000
      0.1873113696D+02  0.3349460434D-01
      0.2825394365D+01  0.2347269535D+00
      0.6401216923D+00  0.8137573261D+00
 S   1 1.00       0.000000000000
      0.1612777588D+00  0.1000000000D+01
 ****
     70 0
 S   3 1.00       0.000000000000
      0.1873113696D+02  0.3349460434D-01
      0.2825394365D+01  0.2347269535D+00
      0.6401216923D+00  0.8137573261D+00
 S   1 1.00       0.000000000000
      0.1612777588D+00  0.1000000000D+01
 ****
     71 0
 S   3 1.00       0.000000000000
      0.1873113696D+02  0.3349460434D-01
      0.2825394365D+01  0.2347269535D+00
      0.6401216923D+00  0.8137573261D+00
 S   1 1.00       0.000000000000
      0.1612777588D+00  0.1000000000D+01
 ****
     72 0
 S   6 1.00       0.000000000000
      0.3047524880D+04  0.1834737132D-02
      0.4573695180D+03  0.1403732281D-01
      0.1039486850D+03  0.6884262226D-01
      0.2921015530D+02  0.2321844432D+00
      0.9286662960D+01  0.4679413484D+00
      0.3163926960D+01  0.3623119853D+00
 SP   3 1.00       0.000000000000
      0.7868272350D+01 -0.1193324198D+00  0.6899906659D-01
      0.1881288540D+01 -0.1608541517D+00  0.3164239610D+00
      0.5442492580D+00  0.1143456438D+01  0.7443082909D+00
 SP   1 1.00       0.000000000000
      0.1687144782D+00  0.1000000000D+01  0.1000000000D+01
 D   1 1.00       0.000000000000
      0.8000000000D+00  0.1000000000D+01
 ****
     73 0
 S   3 1.00       0.000000000000
      0.1873113696D+02  0.3349460434D-01
      0.2825394365D+01  0.2347269535D+00
      0.6401216923D+00  0.8137573261D+00
 S   1 1.00       0.000000000000
      0.1612777588D+00  0.1000000000D+01
 ****
     74 0
 S   3 1.00       0.000000000000
      0.1873113696D+02  0.3349460434D-01
      0.2825394365D+01  0.2347269535D+00
      0.6401216923D+00  0.8137573261D+00
 S   1 1.00       0.000000000000
      0.1612777588D+00  0.1000000000D+01
 ****
     75 0
 S   3 1.00       0.000000000000
      0.1873113696D+02  0.3349460434D-01
      0.2825394365D+01  0.2347269535D+00
      0.6401216923D+00  0.8137573261D+00
 S   1 1.00       0.000000000000
      0.1612777588D+00  0.1000000000D+01
 ****

 AO basis set (Overlap normalization):
 Atom O1       Shell     1 S   6     bf    1 -     1         11.528828983878          7.098089333833          0.000000000000
      0.5484671660D+04  0.1831074430D-02
      0.8252349460D+03  0.1395017220D-01
      0.1880469580D+03  0.6844507810D-01
      0.5296450000D+02  0.2327143360D+00
      0.1689757040D+02  0.4701928980D+00
      0.5799635340D+01  0.3585208530D+00
 Atom O1       Shell     2 SP   3    bf    2 -     5         11.528828983878          7.098089333833          0.000000000000
      0.1553961625D+02 -0.1107775495D+00  0.7087426823D-01
      0.3599933586D+01 -0.1480262627D+00  0.3397528391D+00
      0.1013761750D+01  0.1130767015D+01  0.7271585773D+00
 Atom O1       Shell     3 SP   1    bf    6 -     9         11.528828983878          7.098089333833          0.000000000000
      0.2700058226D+00  0.1000000000D+01  0.1000000000D+01
 Atom O1       Shell     4 D   1     bf   10 -    15         11.528828983878          7.098089333833          0.000000000000
      0.8000000000D+00  0.1000000000D+01
 Atom H2       Shell     5 S   3     bf   16 -    16         10.747459976884          7.576236173668         -1.582547162663
      0.1873113696D+02  0.3349460434D-01
      0.2825394365D+01  0.2347269535D+00
      0.6401216923D+00  0.8137573261D+00
 Atom H2       Shell     6 S   1     bf   17 -    17         10.747459976884          7.576236173668         -1.582547162663
      0.1612777588D+00  0.1000000000D+01
 Atom O3       Shell     7 S   6     bf   18 -    18          0.000000000000          0.000000000000          0.000000000000
      0.5484671660D+04  0.1831074430D-02
      0.8252349460D+03  0.1395017220D-01
      0.1880469580D+03  0.6844507810D-01
      0.5296450000D+02  0.2327143360D+00
      0.1689757040D+02  0.4701928980D+00
      0.5799635340D+01  0.3585208530D+00
 Atom O3       Shell     8 SP   3    bf   19 -    22          0.000000000000          0.000000000000          0.000000000000
      0.1553961625D+02 -0.1107775495D+00  0.7087426823D-01
      0.3599933586D+01 -0.1480262627D+00  0.3397528391D+00
      0.1013761750D+01  0.1130767015D+01  0.7271585773D+00
 Atom O3       Shell     9 SP   1    bf   23 -    26          0.000000000000          0.000000000000          0.000000000000
      0.2700058226D+00  0.1000000000D+01  0.1000000000D+01
 Atom O3       Shell    10 D   1     bf   27 -    32          0.000000000000          0.000000000000          0.000000000000
      0.8000000000D+00  0.1000000000D+01
 Atom H4       Shell    11 S   3     bf   33 -    33         -0.503651755355          0.157416284465         -1.750616834894
      0.1873113696D+02  0.3349460434D-01
      0.2825394365D+01  0.2347269535D+00
      0.6401216923D+00  0.8137573261D+00
 Atom H4       Shell    12 S   1     bf   34 -    34         -0.503651755355          0.157416284465         -1.750616834894
      0.1612777588D+00  0.1000000000D+01
 Atom C5       Shell    13 S   6     bf   35 -    35         16.580034755045          0.364361894031         -1.911762021451
      0.3047524880D+04  0.1834737132D-02
      0.4573695180D+03  0.1403732281D-01
      0.1039486850D+03  0.6884262226D-01
      0.2921015530D+02  0.2321844432D+00
      0.9286662960D+01  0.4679413484D+00
      0.3163926960D+01  0.3623119853D+00
 Atom C5       Shell    14 SP   3    bf   36 -    39         16.580034755045          0.364361894031         -1.911762021451
      0.7868272350D+01 -0.1193324198D+00  0.6899906659D-01
      0.1881288540D+01 -0.1608541517D+00  0.3164239610D+00
      0.5442492580D+00  0.1143456438D+01  0.7443082909D+00
 Atom C5       Shell    15 SP   1    bf   40 -    43         16.580034755045          0.364361894031         -1.911762021451
      0.1687144782D+00  0.1000000000D+01  0.1000000000D+01
 Atom C5       Shell    16 D   1     bf   44 -    49         16.580034755045          0.364361894031         -1.911762021451
      0.8000000000D+00  0.1000000000D+01
 Atom C6       Shell    17 S   6     bf   50 -    50         15.018427534277          2.326759902001         -0.367685241998
      0.3047524880D+04  0.1834737132D-02
      0.4573695180D+03  0.1403732281D-01
      0.1039486850D+03  0.6884262226D-01
      0.2921015530D+02  0.2321844432D+00
      0.9286662960D+01  0.4679413484D+00
      0.3163926960D+01  0.3623119853D+00
 Atom C6       Shell    18 SP   3    bf   51 -    54         15.018427534277          2.326759902001         -0.367685241998
      0.7868272350D+01 -0.1193324198D+00  0.6899906659D-01
      0.1881288540D+01 -0.1608541517D+00  0.3164239610D+00
      0.5442492580D+00  0.1143456438D+01  0.7443082909D+00
 Atom C6       Shell    19 SP   1    bf   55 -    58         15.018427534277          2.326759902001         -0.367685241998
      0.1687144782D+00  0.1000000000D+01  0.1000000000D+01
 Atom C6       Shell    20 D   1     bf   59 -    64         15.018427534277          2.326759902001         -0.367685241998
      0.8000000000D+00  0.1000000000D+01
 Atom H7       Shell    21 S   3     bf   65 -    65         14.931462356539          1.547892042030          1.564810117591
      0.1873113696D+02  0.3349460434D-01
      0.2825394365D+01  0.2347269535D+00
      0.6401216923D+00  0.8137573261D+00
 Atom H7       Shell    22 S   1     bf   66 -    66         14.931462356539          1.547892042030          1.564810117591
      0.1612777588D+00  0.1000000000D+01
 Atom C8       Shell    23 S   6     bf   67 -    67         12.243776101514          2.628006190413         -1.186401038837
      0.3047524880D+04  0.1834737132D-02
      0.4573695180D+03  0.1403732281D-01
      0.1039486850D+03  0.6884262226D-01
      0.2921015530D+02  0.2321844432D+00
      0.9286662960D+01  0.4679413484D+00
      0.3163926960D+01  0.3623119853D+00
 Atom C8       Shell    24 SP   3    bf   68 -    71         12.243776101514          2.628006190413         -1.186401038837
      0.7868272350D+01 -0.1193324198D+00  0.6899906659D-01
      0.1881288540D+01 -0.1608541517D+00  0.3164239610D+00
      0.5442492580D+00  0.1143456438D+01  0.7443082909D+00
 Atom C8       Shell    25 SP   1    bf   72 -    75         12.243776101514          2.628006190413         -1.186401038837
      0.1687144782D+00  0.1000000000D+01  0.1000000000D+01
 Atom C8       Shell    26 D   1     bf   76 -    81         12.243776101514          2.628006190413         -1.186401038837
      0.8000000000D+00  0.1000000000D+01
 Atom H9       Shell    27 S   3     bf   82 -    82         12.159925362518          3.389339111522         -3.118332541942
      0.1873113696D+02  0.3349460434D-01
      0.2825394365D+01  0.2347269535D+00
      0.6401216923D+00  0.8137573261D+00
 Atom H9       Shell    28 S   1     bf   83 -    83         12.159925362518          3.389339111522         -3.118332541942
      0.1612777588D+00  0.1000000000D+01
 Atom C10      Shell    29 S   6     bf   84 -    84         10.903732334532          0.013027545193         -1.108868825934
      0.3047524880D+04  0.1834737132D-02
      0.4573695180D+03  0.1403732281D-01
      0.1039486850D+03  0.6884262226D-01
      0.2921015530D+02  0.2321844432D+00
      0.9286662960D+01  0.4679413484D+00
      0.3163926960D+01  0.3623119853D+00
 Atom C10      Shell    30 SP   3    bf   85 -    88         10.903732334532          0.013027545193         -1.108868825934
      0.7868272350D+01 -0.1193324198D+00  0.6899906659D-01
      0.1881288540D+01 -0.1608541517D+00  0.3164239610D+00
      0.5442492580D+00  0.1143456438D+01  0.7443082909D+00
 Atom C10      Shell    31 SP   1    bf   89 -    92         10.903732334532          0.013027545193         -1.108868825934
      0.1687144782D+00  0.1000000000D+01  0.1000000000D+01
 Atom C10      Shell    32 D   1     bf   93 -    98         10.903732334532          0.013027545193         -1.108868825934
      0.8000000000D+00  0.1000000000D+01
 Atom H11      Shell    33 S   3     bf   99 -    99         10.847447332992         -0.527350716301          0.902578554493
      0.1873113696D+02  0.3349460434D-01
      0.2825394365D+01  0.2347269535D+00
      0.6401216923D+00  0.8137573261D+00
 Atom H11      Shell    34 S   1     bf  100 -   100         10.847447332992         -0.527350716301          0.902578554493
      0.1612777588D+00  0.1000000000D+01
 Atom C12      Shell    35 S   6     bf  101 -   101         19.172870742173          0.615871384311         -0.499098705902
      0.3047524880D+04  0.1834737132D-02
      0.4573695180D+03  0.1403732281D-01
      0.1039486850D+03  0.6884262226D-01
      0.2921015530D+02  0.2321844432D+00
      0.9286662960D+01  0.4679413484D+00
      0.3163926960D+01  0.3623119853D+00
 Atom C12      Shell    36 SP   3    bf  102 -   105         19.172870742173          0.615871384311         -0.499098705902
      0.7868272350D+01 -0.1193324198D+00  0.6899906659D-01
      0.1881288540D+01 -0.1608541517D+00  0.3164239610D+00
      0.5442492580D+00  0.1143456438D+01  0.7443082909D+00
 Atom C12      Shell    37 SP   1    bf  106 -   109         19.172870742173          0.615871384311         -0.499098705902
      0.1687144782D+00  0.1000000000D+01  0.1000000000D+01
 Atom C12      Shell    38 D   1     bf  110 -   115         19.172870742173          0.615871384311         -0.499098705902
      0.8000000000D+00  0.1000000000D+01
 Atom H13      Shell    39 S   3     bf  116 -   116         18.808869086635         -0.191821035283          1.378461540216
      0.1873113696D+02  0.3349460434D-01
      0.2825394365D+01  0.2347269535D+00
      0.6401216923D+00  0.8137573261D+00
 Atom H13      Shell    40 S   1     bf  117 -   117         18.808869086635         -0.191821035283          1.378461540216
      0.1612777588D+00  0.1000000000D+01
 Atom C14      Shell    41 S   6     bf  118 -   118         15.233000891098         -2.200824697464         -1.643288100629
      0.3047524880D+04  0.1834737132D-02
      0.4573695180D+03  0.1403732281D-01
      0.1039486850D+03  0.6884262226D-01
      0.2921015530D+02  0.2321844432D+00
      0.9286662960D+01  0.4679413484D+00
      0.3163926960D+01  0.3623119853D+00
 Atom C14      Shell    42 SP   3    bf  119 -   122         15.233000891098         -2.200824697464         -1.643288100629
      0.7868272350D+01 -0.1193324198D+00  0.6899906659D-01
      0.1881288540D+01 -0.1608541517D+00  0.3164239610D+00
      0.5442492580D+00  0.1143456438D+01  0.7443082909D+00
 Atom C14      Shell    43 SP   1    bf  123 -   126         15.233000891098         -2.200824697464         -1.643288100629
      0.1687144782D+00  0.1000000000D+01  0.1000000000D+01
 Atom C14      Shell    44 D   1     bf  127 -   132         15.233000891098         -2.200824697464         -1.643288100629
      0.8000000000D+00  0.1000000000D+01
 Atom H15      Shell    45 S   3     bf  133 -   133         15.315902326171         -2.802476799693          0.342898951532
      0.1873113696D+02  0.3349460434D-01
      0.2825394365D+01  0.2347269535D+00
      0.6401216923D+00  0.8137573261D+00
 Atom H15      Shell    46 S   1     bf  134 -   134         15.315902326171         -2.802476799693          0.342898951532
      0.1612777588D+00  0.1000000000D+01
 Atom H16      Shell    47 S   3     bf  135 -   135         16.184454282943         -3.671550037419         -2.749819240850
      0.1873113696D+02  0.3349460434D-01
      0.2825394365D+01  0.2347269535D+00
      0.6401216923D+00  0.8137573261D+00
 Atom H16      Shell    48 S   1     bf  136 -   136         16.184454282943         -3.671550037419         -2.749819240850
      0.1612777588D+00  0.1000000000D+01
 Atom C17      Shell    49 S   6     bf  137 -   137          8.072090918998          0.123376250791         -1.979718954245
      0.3047524880D+04  0.1834737132D-02
      0.4573695180D+03  0.1403732281D-01
      0.1039486850D+03  0.6884262226D-01
      0.2921015530D+02  0.2321844432D+00
      0.9286662960D+01  0.4679413484D+00
      0.3163926960D+01  0.3623119853D+00
 Atom C17      Shell    50 SP   3    bf  138 -   141          8.072090918998          0.123376250791         -1.979718954245
      0.7868272350D+01 -0.1193324198D+00  0.6899906659D-01
      0.1881288540D+01 -0.1608541517D+00  0.3164239610D+00
      0.5442492580D+00  0.1143456438D+01  0.7443082909D+00
 Atom C17      Shell    51 SP   1    bf  142 -   145          8.072090918998          0.123376250791         -1.979718954245
      0.1687144782D+00  0.1000000000D+01  0.1000000000D+01
 Atom C17      Shell    52 D   1     bf  146 -   151          8.072090918998          0.123376250791         -1.979718954245
      0.8000000000D+00  0.1000000000D+01
 Atom C18      Shell    53 S   6     bf  152 -   152         16.749721730490          4.663041491479         -0.235943910609
      0.3047524880D+04  0.1834737132D-02
      0.4573695180D+03  0.1403732281D-01
      0.1039486850D+03  0.6884262226D-01
      0.2921015530D+02  0.2321844432D+00
      0.9286662960D+01  0.4679413484D+00
      0.3163926960D+01  0.3623119853D+00
 Atom C18      Shell    54 SP   3    bf  153 -   156         16.749721730490          4.663041491479         -0.235943910609
      0.7868272350D+01 -0.1193324198D+00  0.6899906659D-01
      0.1881288540D+01 -0.1608541517D+00  0.3164239610D+00
      0.5442492580D+00  0.1143456438D+01  0.7443082909D+00
 Atom C18      Shell    55 SP   1    bf  157 -   160         16.749721730490          4.663041491479         -0.235943910609
      0.1687144782D+00  0.1000000000D+01  0.1000000000D+01
 Atom C18      Shell    56 D   1     bf  161 -   166         16.749721730490          4.663041491479         -0.235943910609
      0.8000000000D+00  0.1000000000D+01
 Atom H19      Shell    57 S   3     bf  167 -   167         16.300736445139          5.881974127899          1.368462696890
      0.1873113696D+02  0.3349460434D-01
      0.2825394365D+01  0.2347269535D+00
      0.6401216923D+00  0.8137573261D+00
 Atom H19      Shell    58 S   1     bf  168 -   168         16.300736445139          5.881974127899          1.368462696890
      0.1612777588D+00  0.1000000000D+01
 Atom H20      Shell    59 S   3     bf  169 -   169         16.521790315376          5.834063145361         -1.927067177963
      0.1873113696D+02  0.3349460434D-01
      0.2825394365D+01  0.2347269535D+00
      0.6401216923D+00  0.8137573261D+00
 Atom H20      Shell    60 S   1     bf  170 -   170         16.521790315376          5.834063145361         -1.927067177963
      0.1612777588D+00  0.1000000000D+01
 Atom C21      Shell    61 S   6     bf  171 -   171         12.450554489214         -2.050073666042         -2.485734568019
      0.3047524880D+04  0.1834737132D-02
      0.4573695180D+03  0.1403732281D-01
      0.1039486850D+03  0.6884262226D-01
      0.2921015530D+02  0.2321844432D+00
      0.9286662960D+01  0.4679413484D+00
      0.3163926960D+01  0.3623119853D+00
 Atom C21      Shell    62 SP   3    bf  172 -   175         12.450554489214         -2.050073666042         -2.485734568019
      0.7868272350D+01 -0.1193324198D+00  0.6899906659D-01
      0.1881288540D+01 -0.1608541517D+00  0.3164239610D+00
      0.5442492580D+00  0.1143456438D+01  0.7443082909D+00
 Atom C21      Shell    63 SP   1    bf  176 -   179         12.450554489214         -2.050073666042         -2.485734568019
      0.1687144782D+00  0.1000000000D+01  0.1000000000D+01
 Atom C21      Shell    64 D   1     bf  180 -   185         12.450554489214         -2.050073666042         -2.485734568019
      0.8000000000D+00  0.1000000000D+01
 Atom H22      Shell    65 S   3     bf  186 -   186         12.391988304774         -1.725461348634         -4.528921524012
      0.1873113696D+02  0.3349460434D-01
      0.2825394365D+01  0.2347269535D+00
      0.6401216923D+00  0.8137573261D+00
 Atom H22      Shell    66 S   1     bf  187 -   187         12.391988304774         -1.725461348634         -4.528921524012
      0.1612777588D+00  0.1000000000D+01
 Atom H23      Shell    67 S   3     bf  188 -   188         11.569542018473         -3.897851941689         -2.175948701699
      0.1873113696D+02  0.3349460434D-01
      0.2825394365D+01  0.2347269535D+00
      0.6401216923D+00  0.8137573261D+00
 Atom H23      Shell    68 S   1     bf  189 -   189         11.569542018473         -3.897851941689         -2.175948701699
      0.1612777588D+00  0.1000000000D+01
 Atom C24      Shell    69 S   6     bf  190 -   190         19.453563329814          3.524068402282         -0.085881476493
      0.3047524880D+04  0.1834737132D-02
      0.4573695180D+03  0.1403732281D-01
      0.1039486850D+03  0.6884262226D-01
      0.2921015530D+02  0.2321844432D+00
      0.9286662960D+01  0.4679413484D+00
      0.3163926960D+01  0.3623119853D+00
 Atom C24      Shell    70 SP   3    bf  191 -   194         19.453563329814          3.524068402282         -0.085881476493
      0.7868272350D+01 -0.1193324198D+00  0.6899906659D-01
      0.1881288540D+01 -0.1608541517D+00  0.3164239610D+00
      0.5442492580D+00  0.1143456438D+01  0.7443082909D+00
 Atom C24      Shell    71 SP   1    bf  195 -   198         19.453563329814          3.524068402282         -0.085881476493
      0.1687144782D+00  0.1000000000D+01  0.1000000000D+01
 Atom C24      Shell    72 D   1     bf  199 -   204         19.453563329814          3.524068402282         -0.085881476493
      0.8000000000D+00  0.1000000000D+01
 Atom H25      Shell    73 S   3     bf  205 -   205         20.685372219953          4.371832861367         -1.515721552213
      0.1873113696D+02  0.3349460434D-01
      0.2825394365D+01  0.2347269535D+00
      0.6401216923D+00  0.8137573261D+00
 Atom H25      Shell    74 S   1     bf  206 -   206         20.685372219953          4.371832861367         -1.515721552213
      0.1612777588D+00  0.1000000000D+01
 Atom H26      Shell    75 S   3     bf  207 -   207         20.349472587251          3.900921461641          1.742493866009
      0.1873113696D+02  0.3349460434D-01
      0.2825394365D+01  0.2347269535D+00
      0.6401216923D+00  0.8137573261D+00
 Atom H26      Shell    76 S   1     bf  208 -   208         20.349472587251          3.900921461641          1.742493866009
      0.1612777588D+00  0.1000000000D+01
 Atom C27      Shell    77 S   6     bf  209 -   209         10.838568057915          4.516663380814          0.528388175948
      0.3047524880D+04  0.1834737132D-02
      0.4573695180D+03  0.1403732281D-01
      0.1039486850D+03  0.6884262226D-01
      0.2921015530D+02  0.2321844432D+00
      0.9286662960D+01  0.4679413484D+00
      0.3163926960D+01  0.3623119853D+00
 Atom C27      Shell    78 SP   3    bf  210 -   213         10.838568057915          4.516663380814          0.528388175948
      0.7868272350D+01 -0.1193324198D+00  0.6899906659D-01
      0.1881288540D+01 -0.1608541517D+00  0.3164239610D+00
      0.5442492580D+00  0.1143456438D+01  0.7443082909D+00
 Atom C27      Shell    79 SP   1    bf  214 -   217         10.838568057915          4.516663380814          0.528388175948
      0.1687144782D+00  0.1000000000D+01  0.1000000000D+01
 Atom C27      Shell    80 D   1     bf  218 -   223         10.838568057915          4.516663380814          0.528388175948
      0.8000000000D+00  0.1000000000D+01
 Atom H28      Shell    81 S   3     bf  224 -   224         11.471356365053          4.245238104615          2.488355750446
      0.1873113696D+02  0.3349460434D-01
      0.2825394365D+01  0.2347269535D+00
      0.6401216923D+00  0.8137573261D+00
 Atom H28      Shell    82 S   1     bf  225 -   225         11.471356365053          4.245238104615          2.488355750446
      0.1612777588D+00  0.1000000000D+01
 Atom C29      Shell    83 S   6     bf  226 -   226         21.667383938456         -0.663530409663         -1.388807734101
      0.3047524880D+04  0.1834737132D-02
      0.4573695180D+03  0.1403732281D-01
      0.1039486850D+03  0.6884262226D-01
      0.2921015530D+02  0.2321844432D+00
      0.9286662960D+01  0.4679413484D+00
      0.3163926960D+01  0.3623119853D+00
 Atom C29      Shell    84 SP   3    bf  227 -   230         21.667383938456         -0.663530409663         -1.388807734101
      0.7868272350D+01 -0.1193324198D+00  0.6899906659D-01
      0.1881288540D+01 -0.1608541517D+00  0.3164239610D+00
      0.5442492580D+00  0.1143456438D+01  0.7443082909D+00
 Atom C29      Shell    85 SP   1    bf  231 -   234         21.667383938456         -0.663530409663         -1.388807734101
      0.1687144782D+00  0.1000000000D+01  0.1000000000D+01
 Atom C29      Shell    86 D   1     bf  235 -   240         21.667383938456         -0.663530409663         -1.388807734101
      0.8000000000D+00  0.1000000000D+01
 Atom H30      Shell    87 S   3     bf  241 -   241         23.071609362261          0.000000000000          0.000000000000
      0.1873113696D+02  0.3349460434D-01
      0.2825394365D+01  0.2347269535D+00
      0.6401216923D+00  0.8137573261D+00
 Atom H30      Shell    88 S   1     bf  242 -   242         23.071609362261          0.000000000000          0.000000000000
      0.1612777588D+00  0.1000000000D+01
 Atom C31      Shell    89 S   6     bf  243 -   243         16.770638976774          1.110137323498         -4.731041982459
      0.3047524880D+04  0.1834737132D-02
      0.4573695180D+03  0.1403732281D-01
      0.1039486850D+03  0.6884262226D-01
      0.2921015530D+02  0.2321844432D+00
      0.9286662960D+01  0.4679413484D+00
      0.3163926960D+01  0.3623119853D+00
 Atom C31      Shell    90 SP   3    bf  244 -   247         16.770638976774          1.110137323498         -4.731041982459
      0.7868272350D+01 -0.1193324198D+00  0.6899906659D-01
      0.1881288540D+01 -0.1608541517D+00  0.3164239610D+00
      0.5442492580D+00  0.1143456438D+01  0.7443082909D+00
 Atom C31      Shell    91 SP   1    bf  248 -   251         16.770638976774          1.110137323498         -4.731041982459
      0.1687144782D+00  0.1000000000D+01  0.1000000000D+01
 Atom C31      Shell    92 D   1     bf  252 -   257         16.770638976774          1.110137323498         -4.731041982459
      0.8000000000D+00  0.1000000000D+01
 Atom H32      Shell    93 S   3     bf  258 -   258         14.918342176971          1.512406915885         -5.552725329629
      0.1873113696D+02  0.3349460434D-01
      0.2825394365D+01  0.2347269535D+00
      0.6401216923D+00  0.8137573261D+00
 Atom H32      Shell    94 S   1     bf  259 -   259         14.918342176971          1.512406915885         -5.552725329629
      0.1612777588D+00  0.1000000000D+01
 Atom H33      Shell    95 S   3     bf  260 -   260         17.938675222415          2.788791327450         -5.017455640379
      0.1873113696D+02  0.3349460434D-01
      0.2825394365D+01  0.2347269535D+00
      0.6401216923D+00  0.8137573261D+00
 Atom H33      Shell    96 S   1     bf  261 -   261         17.938675222415          2.788791327450         -5.017455640379
      0.1612777588D+00  0.1000000000D+01
 Atom H34      Shell    97 S   3     bf  262 -   262         17.602183746384         -0.424263377854         -5.838878299829
      0.1873113696D+02  0.3349460434D-01
      0.2825394365D+01  0.2347269535D+00
      0.6401216923D+00  0.8137573261D+00
 Atom H34      Shell    98 S   1     bf  263 -   263         17.602183746384         -0.424263377854         -5.838878299829
      0.1612777588D+00  0.1000000000D+01
 Atom C35      Shell    99 S   6     bf  264 -   264          6.744747831280          2.375726202097         -0.733422856653
      0.3047524880D+04  0.1834737132D-02
      0.4573695180D+03  0.1403732281D-01
      0.1039486850D+03  0.6884262226D-01
      0.2921015530D+02  0.2321844432D+00
      0.9286662960D+01  0.4679413484D+00
      0.3163926960D+01  0.3623119853D+00
 Atom C35      Shell   100 SP   3    bf  265 -   268          6.744747831280          2.375726202097         -0.733422856653
      0.7868272350D+01 -0.1193324198D+00  0.6899906659D-01
      0.1881288540D+01 -0.1608541517D+00  0.3164239610D+00
      0.5442492580D+00  0.1143456438D+01  0.7443082909D+00
 Atom C35      Shell   101 SP   1    bf  269 -   272          6.744747831280          2.375726202097         -0.733422856653
      0.1687144782D+00  0.1000000000D+01  0.1000000000D+01
 Atom C35      Shell   102 D   1     bf  273 -   278          6.744747831280          2.375726202097         -0.733422856653
      0.8000000000D+00  0.1000000000D+01
 Atom C36      Shell   103 S   6     bf  279 -   279          6.716805773761         -2.343774939410         -1.097639430745
      0.3047524880D+04  0.1834737132D-02
      0.4573695180D+03  0.1403732281D-01
      0.1039486850D+03  0.6884262226D-01
      0.2921015530D+02  0.2321844432D+00
      0.9286662960D+01  0.4679413484D+00
      0.3163926960D+01  0.3623119853D+00
 Atom C36      Shell   104 SP   3    bf  280 -   283          6.716805773761         -2.343774939410         -1.097639430745
      0.7868272350D+01 -0.1193324198D+00  0.6899906659D-01
      0.1881288540D+01 -0.1608541517D+00  0.3164239610D+00
      0.5442492580D+00  0.1143456438D+01  0.7443082909D+00
 Atom C36      Shell   105 SP   1    bf  284 -   287          6.716805773761         -2.343774939410         -1.097639430745
      0.1687144782D+00  0.1000000000D+01  0.1000000000D+01
 Atom C36      Shell   106 D   1     bf  288 -   293          6.716805773761         -2.343774939410         -1.097639430745
      0.8000000000D+00  0.1000000000D+01
 Atom H37      Shell   107 S   3     bf  294 -   294          7.212421582119         -2.680788149928          0.890324625385
      0.1873113696D+02  0.3349460434D-01
      0.2825394365D+01  0.2347269535D+00
      0.6401216923D+00  0.8137573261D+00
 Atom H37      Shell   108 S   1     bf  295 -   295          7.212421582119         -2.680788149928          0.890324625385
      0.1612777588D+00  0.1000000000D+01
 Atom H38      Shell   109 S   3     bf  296 -   296          7.453225981726         -3.955102952330         -2.167073508429
      0.1873113696D+02  0.3349460434D-01
      0.2825394365D+01  0.2347269535D+00
      0.6401216923D+00  0.8137573261D+00
 Atom H38      Shell   110 S   1     bf  297 -   297          7.453225981726         -3.955102952330         -2.167073508429
      0.1612777588D+00  0.1000000000D+01
 Atom C39      Shell   111 S   6     bf  298 -   298          8.013611548576          4.246068091230          0.412925758050
      0.3047524880D+04  0.1834737132D-02
[...]
 1560 Fit       0.001221
 1561 Fit      -0.000809
 1562 Fit       0.001597
 1563 Fit       0.002134
 1564 Fit       0.002293
 1565 Fit       0.001735
 1566 Fit       0.000679
 1567 Fit       0.004143
 1568 Fit       0.004426
 1569 Fit       0.003682
 1570 Fit       0.002463
 1571 Fit       0.002778
 1572 Fit       0.004842
 1573 Fit       0.004493
 1574 Fit      -0.002495
 1575 Fit      -0.002149
 1576 Fit      -0.002703
 1577 Fit      -0.002859
 1578 Fit      -0.002360
 1579 Fit      -0.001270
 1580 Fit      -0.000822
 1581 Fit      -0.000625
 1582 Fit       0.000019
 1583 Fit      -0.001150
 1584 Fit       0.001078
 1585 Fit       0.002110
 1586 Fit       0.001972
 1587 Fit      -0.001231
 1588 Fit       0.001370
 1589 Fit       0.002901
 1590 Fit       0.002667
 1591 Fit       0.000946
 1592 Fit      -0.000148
 1593 Fit      -0.001471
 1594 Fit      -0.001046
 1595 Fit       0.001119
 1596 Fit       0.002569
 1597 Fit       0.001755
 1598 Fit      -0.001995
 1599 Fit       0.003448
 1600 Fit       0.002613
 1601 Fit       0.001401
 1602 Fit      -0.000281
 1603 Fit       0.002073
 1604 Fit       0.000925
 1605 Fit      -0.000672
 1606 Fit      -0.000374
 1607 Fit      -0.001286
 1608 Fit      -0.000745
 1609 Fit       0.001811
 1610 Fit       0.000985
 1611 Fit      -0.000451
 1612 Fit       0.000381
 1613 Fit       0.001548
 1614 Fit       0.002916
 1615 Fit       0.002014
 1616 Fit       0.000636
 1617 Fit       0.001435
 1618 Fit       0.002615
 1619 Fit      -0.020511
 1620 Fit      -0.018471
 1621 Fit      -0.024702
 1622 Fit      -0.023807
 1623 Fit      -0.019942
 1624 Fit      -0.024829
 1625 Fit      -0.023685
 1626 Fit      -0.020659
 1627 Fit      -0.016272
 1628 Fit      -0.022272
 1629 Fit      -0.019459
 1630 Fit      -0.015370
 1631 Fit      -0.010666
 1632 Fit      -0.005793
 1633 Fit      -0.013821
 1634 Fit      -0.008284
 1635 Fit      -0.001406
 1636 Fit      -0.000546
 1637 Fit       0.004558
 1638 Fit       0.008072
 1639 Fit       0.009386
 1640 Fit       0.002539
 1641 Fit       0.006741
 1642 Fit       0.011057
 1643 Fit       0.013947
 1644 Fit       0.014335
 1645 Fit       0.011805
 1646 Fit       0.012974
 1647 Fit       0.016296
 1648 Fit       0.017598
 1649 Fit       0.017240
 1650 Fit      -0.020528
 1651 Fit      -0.023578
 1652 Fit      -0.020181
 1653 Fit      -0.014933
 1654 Fit      -0.021586
 1655 Fit      -0.024562
 1656 Fit      -0.025434
 1657 Fit      -0.024873
 1658 Fit      -0.021870
 1659 Fit      -0.014989
 1660 Fit      -0.018619
 1661 Fit      -0.020740
 1662 Fit      -0.021450
 1663 Fit      -0.021976
 1664 Fit      -0.022056
 1665 Fit      -0.020145
 1666 Fit      -0.009161
 1667 Fit      -0.011576
 1668 Fit      -0.012073
 1669 Fit      -0.012360
 1670 Fit      -0.013279
 1671 Fit      -0.014515
 1672 Fit      -0.014743
 1673 Fit      -0.012011
 1674 Fit      -0.002573
 1675 Fit      -0.003975
 1676 Fit       0.006483
 1677 Fit       0.005849
 1678 Fit       0.005668
 1679 Fit       0.005034
 1680 Fit       0.003623
 1681 Fit       0.001946
 1682 Fit       0.016775
 1683 Fit       0.015270
 1684 Fit       0.014542
 1685 Fit       0.013682
 1686 Fit       0.012833
 1687 Fit       0.013065
 1688 Fit       0.021364
 1689 Fit       0.019970
 1690 Fit       0.019864
 1691 Fit       0.023781
 1692 Fit       0.002723
 1693 Fit       0.001866
 1694 Fit       0.000011
 1695 Fit       0.004738
 1696 Fit       0.004099
 1697 Fit       0.007805
 1698 Fit       0.004884
 1699 Fit       0.003794
 1700 Fit       0.005829
 1701 Fit       0.005695
 1702 Fit       0.005958
 1703 Fit       0.002378
 1704 Fit       0.001233
 1705 Fit       0.001499
 1706 Fit       0.003938
 1707 Fit       0.003402
 1708 Fit       0.006029
 1709 Fit       0.005976
 1710 Fit       0.004508
 1711 Fit       0.004339
 1712 Fit       0.004157
 1713 Fit       0.005004
 1714 Fit       0.005125
 1715 Fit       0.005423
 1716 Fit       0.005600
 1717 Fit       0.005475
 1718 Fit       0.005955
 1719 Fit      -0.009730
 1720 Fit      -0.008146
 1721 Fit      -0.004175
 1722 Fit      -0.003497
 1723 Fit      -0.006194
 1724 Fit      -0.009180
 1725 Fit      -0.001213
 1726 Fit      -0.001863
 1727 Fit      -0.005901
 1728 Fit      -0.008712
 1729 Fit      -0.014122
 1730 Fit      -0.009130
 1731 Fit      -0.013191
 1732 Fit      -0.022989
 1733 Fit      -0.004644
 1734 Fit      -0.006722
 1735 Fit      -0.009098
 1736 Fit       0.000325
 1737 Fit      -0.001471
 1738 Fit      -0.001520
 1739 Fit       0.002619
 1740 Fit       0.001561
 1741 Fit       0.002608
 1742 Fit       0.005232
 1743 Fit       0.006283
 1744 Fit       0.005319
 1745 Fit       0.006674
 1746 Fit       0.005499
 1747 Fit       0.008217
 1748 Fit       0.006155
 1749 Fit       0.007097
 1750 Fit       0.005863
 1751 Fit       0.005930
 1752 Fit       0.004614
 1753 Fit       0.007133
 1754 Fit       0.005743
 1755 Fit       0.007700
 1756 Fit       0.006011
 1757 Fit       0.007118
 1758 Fit       0.005472
 1759 Fit      -0.003346
 1760 Fit      -0.004422
 1761 Fit      -0.005955
 1762 Fit      -0.002581
 1763 Fit      -0.002722
 1764 Fit      -0.003633
 1765 Fit      -0.000521
 1766 Fit      -0.001191
 1767 Fit      -0.002685
 1768 Fit       0.000785
 1769 Fit      -0.000158
 1770 Fit      -0.000386
 1771 Fit      -0.000009
 1772 Fit      -0.001315
 1773 Fit      -0.002349
 1774 Fit      -0.001181
 1775 Fit       0.000475
 1776 Fit       0.000603
 1777 Fit      -0.000313
 1778 Fit      -0.001442
 1779 Fit      -0.002945
 1780 Fit      -0.004668
 1781 Fit       0.000575
 1782 Fit      -0.001283
 1783 Fit      -0.002463
 1784 Fit      -0.003792
 1785 Fit      -0.005683
 1786 Fit      -0.000370
 1787 Fit      -0.000349
 1788 Fit      -0.004506
 1789 Fit      -0.004183
 1790 Fit      -0.001204
 1791 Fit       0.001566
 1792 Fit       0.002519
 1793 Fit      -0.013652
 1794 Fit      -0.014237
 1795 Fit       0.000603
 1796 Fit       0.004761
 1797 Fit       0.001484
 1798 Fit       0.000609
 1799 Fit       0.001090
 1800 Fit       0.000295
 1801 Fit       0.000714
 1802 Fit      -0.000116
 1803 Fit      -0.001385
 1804 Fit       0.001160
 1805 Fit       0.001636
 1806 Fit       0.004415
 1807 Fit       0.000378
 1808 Fit       0.000277
 1809 Fit       0.001677
 1810 Fit       0.002460
 1811 Fit       0.001101
 1812 Fit       0.006773
 1813 Fit       0.004602
 1814 Fit       0.008772
 1815 Fit       0.004739
 1816 Fit       0.006016
 1817 Fit       0.004420
 1818 Fit       0.002745
 1819 Fit       0.003178
 1820 Fit       0.002059
 1821 Fit       0.001467
 1822 Fit       0.002035
 1823 Fit       0.002010
 1824 Fit       0.000813
 1825 Fit       0.006088
 1826 Fit       0.004694
 1827 Fit       0.005045
 1828 Fit       0.005000
 1829 Fit       0.001938
 1830 Fit       0.003582
 1831 Fit       0.003652
 1832 Fit       0.002003
 1833 Fit       0.006974
 1834 Fit       0.004832
 1835 Fit       0.004939
 1836 Fit       0.005926
 1837 Fit       0.004196
 1838 Fit       0.004715
 1839 Fit       0.005331
 1840 Fit       0.004313
 1841 Fit       0.004664
 1842 Fit       0.005146
 1843 Fit       0.006023
 1844 Fit       0.004962
 1845 Fit       0.005615
 1846 Fit       0.006395
 1847 Fit       0.007109
 1848 Fit       0.007512
 1849 Fit       0.008365
 1850 Fit       0.008085
 1851 Fit       0.008687
 1852 Fit       0.009357
 1853 Fit       0.009691
 1854 Fit      -0.002672
 1855 Fit      -0.003095
 1856 Fit      -0.003155
 1857 Fit      -0.000782
 1858 Fit       0.005221
 1859 Fit       0.005235
 1860 Fit      -0.002746
 1861 Fit      -0.005362
 1862 Fit      -0.001613
 1863 Fit      -0.001105
 1864 Fit      -0.012223
 1865 Fit      -0.003406
 1866 Fit       0.000635
 1867 Fit       0.001594
 1868 Fit      -0.001978
 1869 Fit       0.002021
 1870 Fit       0.000471
 1871 Fit       0.003148
 1872 Fit       0.003731
 1873 Fit       0.008130
 1874 Fit       0.008650
 1875 Fit       0.006996
 1876 Fit       0.008008
 1877 Fit       0.006005
 1878 Fit       0.006299
 1879 Fit       0.006441
 1880 Fit       0.006982
 1881 Fit       0.006632
 1882 Fit       0.005887
 1883 Fit       0.009398
 1884 Fit       0.009709
 1885 Fit       0.009281
 1886 Fit       0.008380
 1887 Fit       0.008598
 1888 Fit       0.008450
 1889 Fit       0.006819
 1890 Fit       0.007470
 1891 Fit       0.007549
 1892 Fit       0.006472
 1893 Fit       0.009175
 1894 Fit       0.023063
 1895 Fit       0.008510
 1896 Fit       0.011289
 1897 Fit       0.014062
 1898 Fit       0.014218
 1899 Fit       0.011452
 1900 Fit       0.008576
 1901 Fit       0.010006
 1902 Fit       0.008412
 1903 Fit       0.015442
 1904 Fit       0.011719
 1905 Fit       0.009820
 1906 Fit       0.010518
 1907 Fit       0.009522
 1908 Fit       0.007176
 1909 Fit       0.007987
 1910 Fit       0.007257
 1911 Fit       0.000668
 1912 Fit       0.004897
 1913 Fit      -0.002157
 1914 Fit      -0.001369
 1915 Fit      -0.007290
 1916 Fit       0.002214
 1917 Fit      -0.001708
 1918 Fit      -0.009913
 1919 Fit       0.002739
 1920 Fit      -0.000230
 1921 Fit      -0.006631
 1922 Fit       0.003139
 1923 Fit       0.001317
 1924 Fit      -0.002504
 1925 Fit       0.005396
 1926 Fit       0.006450
 1927 Fit       0.010568
 1928 Fit       0.007921
 1929 Fit       0.008462
 1930 Fit       0.010509
 1931 Fit       0.016292
 1932 Fit       0.012587
 1933 Fit       0.017366
 1934 Fit       0.005385
 1935 Fit       0.004687
 1936 Fit       0.005756
 1937 Fit       0.008829
 1938 Fit       0.025605
 1939 Fit       0.022406
 1940 Fit       0.013795
 1941 Fit       0.008912
 1942 Fit       0.007771
 1943 Fit       0.008786
 1944 Fit       0.014672
 1945 Fit       0.010758
 1946 Fit       0.009914
 1947 Fit       0.012558
 1948 Fit      -0.000934
 1949 Fit       0.003187
 1950 Fit      -0.011936
 1951 Fit      -0.002036
 1952 Fit       0.002234
 1953 Fit       0.004212
 1954 Fit      -0.006903
 1955 Fit      -0.000150
 1956 Fit       0.003050
 1957 Fit       0.004704
 1958 Fit      -0.002170
 1959 Fit       0.001643
 1960 Fit       0.003905
 1961 Fit       0.005431
 1962 Fit       0.003504
 1963 Fit       0.004841
 1964 Fit      -0.001624
 1965 Fit      -0.000674
 1966 Fit       0.005423
 1967 Fit       0.002487
 1968 Fit      -0.000302
 1969 Fit       0.004153
 1970 Fit       0.001154
 1971 Fit       0.001402
 1972 Fit       0.001969
 1973 Fit       0.001693
 1974 Fit       0.002445
 1975 Fit       0.002242
 1976 Fit       0.001544
 1977 Fit       0.002063
 1978 Fit       0.000061
 1979 Fit       0.001116
 1980 Fit      -0.000519
 1981 Fit      -0.001575
 1982 Fit       0.001376
 1983 Fit      -0.001112
 1984 Fit      -0.004810
 1985 Fit      -0.007636
 1986 Fit      -0.003425
 1987 Fit       0.001271
 1988 Fit       0.002573
 1989 Fit      -0.002249
 1990 Fit      -0.003687
 1991 Fit      -0.011671
 1992 Fit      -0.009536
 1993 Fit      -0.001289
 1994 Fit       0.003659
 1995 Fit      -0.001116
 1996 Fit      -0.002085
 1997 Fit      -0.001915
 1998 Fit      -0.001789
 1999 Fit      -0.001192
 2000 Fit      -0.002101
 2001 Fit      -0.001441
 2002 Fit      -0.001854
 2003 Fit      -0.001792
 2004 Fit      -0.001180
 2005 Fit       0.002673
 2006 Fit       0.000276
 2007 Fit      -0.000941
 2008 Fit      -0.001175
 2009 Fit      -0.000022
 2010 Fit       0.002985
 2011 Fit       0.000835
 2012 Fit       0.000932
 2013 Fit       0.000995
 2014 Fit      -0.000501
 2015 Fit       0.001898
 2016 Fit       0.001256
 2017 Fit      -0.000108
 2018 Fit       0.002033
 2019 Fit       0.001016
 2020 Fit      -0.000235
 2021 Fit      -0.001762
 2022 Fit       0.001414
 2023 Fit       0.001568
 2024 Fit       0.000117
 2025 Fit      -0.001102
 2026 Fit      -0.000393
 2027 Fit       0.000402
 2028 Fit      -0.001277
 2029 Fit      -0.000403
 2030 Fit      -0.001614
 2031 Fit       0.000064
 2032 Fit       0.001614
 2033 Fit      -0.001201
 2034 Fit       0.000558
 2035 Fit       0.001885
 2036 Fit      -0.000729
 2037 Fit      -0.000009
 2038 Fit       0.001576
 2039 Fit       0.001664
 2040 Fit       0.001232
 2041 Fit       0.000769
 2042 Fit       0.001406
 2043 Fit       0.001186
 2044 Fit      -0.000354
 2045 Fit      -0.000916
 2046 Fit      -0.001257
 2047 Fit       0.001936
 2048 Fit       0.001560
 2049 Fit       0.002438
 2050 Fit       0.002356
 2051 Fit       0.000434
 2052 Fit       0.001363
 2053 Fit       0.002146
 2054 Fit       0.002022
 2055 Fit       0.000330
 2056 Fit       0.001399
 2057 Fit      -0.000263
 2058 Fit       0.004098
 2059 Fit       0.004382
 2060 Fit       0.003228
 2061 Fit       0.001827
 2062 Fit       0.000457
 2063 Fit       0.004367
 2064 Fit       0.003287
 2065 Fit       0.001698
 2066 Fit      -0.000126
 2067 Fit       0.004059
 2068 Fit       0.002402
 2069 Fit       0.000218
 2070 Fit       0.001430
 2071 Fit       0.001037
 2072 Fit       0.000699
 2073 Fit       0.001516
 2074 Fit       0.001572
 2075 Fit       0.001028
 2076 Fit       0.001278
 2077 Fit       0.001726
 2078 Fit       0.001761
 2079 Fit       0.001385
 2080 Fit       0.000996
 2081 Fit       0.001608
 2082 Fit       0.001551
 2083 Fit       0.001316
 2084 Fit       0.000902
 2085 Fit      -0.001373
 2086 Fit      -0.000967
 2087 Fit      -0.000877
 2088 Fit      -0.000654
 2089 Fit      -0.000744
 2090 Fit       0.000196
 2091 Fit      -0.000196
 2092 Fit      -0.000346
 2093 Fit      -0.000278
 2094 Fit       0.002753
 2095 Fit       0.000227
 2096 Fit       0.001229
 2097 Fit      -0.000114
 2098 Fit       0.000326
 2099 Fit       0.001937
 2100 Fit       0.002306
 2101 Fit       0.001922
 2102 Fit       0.000406
 2103 Fit       0.003076
 2104 Fit       0.004136
 2105 Fit       0.003909
 2106 Fit       0.002325
 2107 Fit       0.003819
 2108 Fit       0.001215
 2109 Fit      -0.000355
 2110 Fit      -0.000250
 2111 Fit       0.000802
 2112 Fit       0.001923
 2113 Fit       0.002392
 2114 Fit      -0.000466
 2115 Fit       0.000568
 2116 Fit       0.001523
 2117 Fit       0.002182
 2118 Fit       0.002604
 2119 Fit      -0.000059
 2120 Fit       0.000698
 2121 Fit       0.001307
 2122 Fit       0.001747
 2123 Fit       0.002096
 2124 Fit       0.001196
 2125 Fit       0.000973
 2126 Fit       0.000431
 2127 Fit       0.003244
 2128 Fit       0.003324
 2129 Fit       0.002953
 2130 Fit       0.002240
 2131 Fit       0.001405
 2132 Fit       0.004303
 2133 Fit       0.004371
 2134 Fit       0.003660
 2135 Fit       0.002717
 2136 Fit       0.004535
 2137 Fit       0.004216
 2138 Fit      -0.001721
 2139 Fit      -0.001424
 2140 Fit      -0.001890
 2141 Fit      -0.002106
 2142 Fit      -0.001702
 2143 Fit      -0.001928
 2144 Fit      -0.001452
 2145 Fit      -0.001490
 2146 Fit      -0.001100
 2147 Fit      -0.000533
 2148 Fit      -0.000849
 2149 Fit      -0.000013
 2150 Fit      -0.000806
 2151 Fit      -0.000338
 2152 Fit      -0.001119
 2153 Fit       0.000420
 2154 Fit       0.001191
 2155 Fit       0.001112
 2156 Fit       0.000489
 2157 Fit       0.001719
 2158 Fit       0.002130
 2159 Fit       0.002447
 2160 Fit       0.000637
 2161 Fit      -0.000084
 2162 Fit      -0.000973
 2163 Fit      -0.000627
 2164 Fit       0.000864
 2165 Fit       0.001862
 2166 Fit       0.001265
 2167 Fit      -0.001228
 2168 Fit       0.002713
 2169 Fit       0.002174
 2170 Fit       0.001276
 2171 Fit       0.000047
 2172 Fit       0.001948
 2173 Fit       0.001033
 2174 Fit      -0.000106
 2175 Fit      -0.000981
 2176 Fit      -0.001123
 2177 Fit       0.000696
 2178 Fit       0.000150
 2179 Fit      -0.000751
 2180 Fit      -0.000146
 2181 Fit       0.000562
 2182 Fit       0.001889
 2183 Fit       0.001356
 2184 Fit       0.000497
 2185 Fit       0.001071
 2186 Fit       0.001762
 2187 Fit       0.002537
 2188 Fit       0.001949
 2189 Fit       0.001570
 2190 Fit       0.002345
 -----------------------------------------------------------------
 Leave Link  602 at Thu May 18 13:12:29 2017, MaxMem=    33554432 cpu:         3.3
 (Enter /home/michal/g09/l9999.exe)

 Test job not archived.
 1\1\GINC-LINUX\SP\RHF\6-31G(d)\C27H46O2\MICHAL\18-May-2017\0\\#P HF/6-
 31G* SCF(Conver=6) NoSymm Test Pop=mk IOp(6/33=2) GFInput GFPrint\\MEP
  - Input generated by R.E.D.-III.x MOLECULE\\0,1\O,0,6.10079354,3.7561
 471,0.\H,0,5.68731087,4.00917151,-0.83744789\O,0,0.,0.,0.\H,0,-0.26652
 103,0.08330111,-0.92638653\C,0,8.77377651,0.19281201,-1.01166089\C,0,7
 .94740956,1.23126831,-0.19457065\H,0,7.90138957,0.81910919,0.82806185\
 C,0,6.47912726,1.39068098,-0.62781639\H,0,6.43475536,1.79356101,-1.650
 15051\C,0,5.77000664,0.00689388,-0.58678811\H,0,5.7402219,-0.27906198,
 0.477624\C,0,10.14584622,0.3259051,-0.26411166\H,0,9.95322484,-0.10150
 732,0.72945043\C,0,8.06095689,-1.16462627,-0.86959061\H,0,8.10482644,-
 1.48300685,0.18145431\H,0,8.56444434,-1.9429006,-1.45514167\C,0,4.2715
 6654,0.0652879,-1.04762215\C,0,8.86357099,2.46757528,-0.12485614\H,0,8
 .62597821,3.11260665,0.72415927\H,0,8.74295488,3.08725325,-1.01976003\
 C,0,6.58854967,-1.08485226,-1.31539408\H,0,6.55755778,-0.91307482,-2.3
 9660205\H,0,6.12233795,-2.06265441,-1.15146246\C,0,10.29438234,1.86485
 668,-0.04544652\H,0,10.94622753,2.31347431,-0.8020853\H,0,10.7684771,2
 .06427873,0.92208804\C,0,5.73552319,2.39011532,0.27961098\H,0,6.070380
 34,2.24648325,1.31678115\C,0,11.46588575,-0.35112517,-0.7349254\H,0,12
 .20896984,0.,0.\C,0,8.87463992,0.58745937,-2.50355959\H,0,7.89444667,0
 .80033127,-2.93837569\H,0,9.49273808,1.47576481,-2.65512317\H,0,9.3146
 7446,-0.22451051,-3.08980132\C,0,3.56916683,1.25718016,-0.38811066\C,0
 ,3.55438053,-1.24027228,-0.58084577\H,0,3.81664912,-1.41861199,0.47113
 95\H,0,3.94407732,-2.09295034,-1.14676591\C,0,4.24062059,2.24692246,0.
 2185109\H,0,3.68893102,3.05370715,0.70101101\C,0,4.14878019,0.20170873
 ,-2.58895714\H,0,4.47970776,-0.70907333,-3.09738735\H,0,3.11553291,0.3
 8423875,-2.89550884\H,0,4.74791991,1.03804678,-2.96194269\C,0,2.052877
 89,1.2789054,-0.43248965\H,0,1.66857648,2.11795465,0.15574056\H,0,1.71
 32053,1.43744235,-1.46888092\C,0,2.02244289,-1.21696708,-0.69820316\H,
 0,1.7183407,-1.15213651,-1.75350938\H,0,1.60320995,-2.15145109,-0.3083
 0753\C,0,11.47482366,-1.89558089,-0.6397972\H,0,10.723491,-2.31457802,
 -1.3223578\H,0,12.44557366,-2.24167797,-1.02321896\C,0,1.42822142,-0.0
 3328925,0.06459236\H,0,1.64560197,-0.14850263,1.13348138\C,0,12.009165
 04,0.07009194,-2.11551348\H,0,11.47057046,-0.41501284,-2.9348123\H,0,1
 3.06104735,-0.22530809,-2.20163663\H,0,11.96135126,1.15068939,-2.27776
 721\C,0,11.28281182,-2.49057808,0.76403089\H,0,12.00436866,-2.0222418,
 1.44731268\H,0,10.28721174,-2.23920579,1.1461568\C,0,11.46631061,-4.01
 71147,0.7774214\H,0,12.46818477,-4.25372277,0.39086244\H,0,10.75554941
 ,-4.46225699,0.06595289\C,0,11.29353775,-4.7239533,2.14206969\H,0,11.4
 6556295,-5.79360262,1.95094927\C,0,9.86831998,-4.5905309,2.70396958\H,
 0,9.63784893,-3.55537705,2.98118559\H,0,9.74520614,-5.20394845,3.60385
 513\H,0,9.11895056,-4.91628927,1.97287876\C,0,12.3390477,-4.27670506,3
 .17723936\H,0,12.19571399,-3.23036419,3.47063487\H,0,12.27065223,-4.88
 320619,4.08756043\H,0,13.35782188,-4.37750767,2.78477481\\Version=EM64
 L-G09RevD.01\HF=-1198.9212711\RMSD=5.170e-07\Dipole=0.0797168,-0.53023
 67,-0.931619\Quadrupole=-3.8201669,-1.339078,5.1592449,-9.0765467,-2.5
 278737,-2.9661732\PG=C01 [X(C27H46O2)]\\@


 LET US LEARN TO DREAM, GENTLEMEN, THEN PERHAPS WE SHALL
 DISCOVER THE TRUTH;  BUT LET US BEWARE OF PUBLISHING
 OUR DREAMS ABROAD BEFORE THEY HAVE BEEN SCRUTINIZED
 BY OUR VIGILANT INTELLECT ... LET US ALWAYS ALLOW
 THE FRUIT TO HANG UNTIL IT IS RIPE.  UNRIPE FRUIT
 BRINGS EVEN THE GROWER BUT LITTLE PROFIT; IT DAMAGES
 THE HEALTH OF THOSE WHO CONSUME IT; IT ENDANGERS
 PARTICULARLY THE YOUTH WHO CANNOT YET DISTINGUISH
 BETWEEN RIPE AND UNRIPE FRUIT.

                                  -- KEKULE, 1890
 Job cpu time:       0 days  0 hours 11 minutes 17.9 seconds.
 File lengths (MBytes):  RWF=    150 Int=      0 D2E=      0 Chk=     11 Scr=      1
 Normal termination of Gaussian 09 at Thu May 18 13:12:29 2017.
