 Entering Gaussian System, Link 0=/home/michal/g09/g09
 Input=JOB2-gau_m1-21-4.com
 Output=JOB2-gau_m1-21-4.log
 Initial command:
 /home/michal/g09/l1.exe "/home/michal/gauss_scratch/Gau-29392.inp" -scrdir="/home/michal/gauss_scratch/"
 Entering Link 1 = /home/michal/g09/l1.exe PID=     29393.
  
 Copyright (c) 1988,1990,1992,1993,1995,1998,2003,2009,2013,
            Gaussian, Inc.  All Rights Reserved.
  
 This is part of the Gaussian(R) 09 program.  It is based on
 the Gaussian(R) 03 system (copyright 2003, Gaussian, Inc.),
 the Gaussian(R) 98 system (copyright 1998, Gaussian, Inc.),
 the Gaussian(R) 94 system (copyright 1995, Gaussian, Inc.),
 the Gaussian 92(TM) system (copyright 1992, Gaussian, Inc.),
 the Gaussian 90(TM) system (copyright 1990, Gaussian, Inc.),
 the Gaussian 88(TM) system (copyright 1988, Gaussian, Inc.),
 the Gaussian 86(TM) system (copyright 1986, Carnegie Mellon
 University), and the Gaussian 82(TM) system (copyright 1983,
 Carnegie Mellon University). Gaussian is a federally registered
 trademark of Gaussian, Inc.
  
 This software contains proprietary and confidential information,
 including trade secrets, belonging to Gaussian, Inc.
  
 This software is provided under written license and may be
 used, copied, transmitted, or stored only in accord with that
 written license.
  
 The following legend is applicable only to US Government
 contracts under FAR:
  
                    RESTRICTED RIGHTS LEGEND
  
 Use, reproduction and disclosure by the US Government is
 subject to restrictions as set forth in subparagraphs (a)
 and (c) of the Commercial Computer Software - Restricted
 Rights clause in FAR 52.227-19.
  
 Gaussian, Inc.
 340 Quinnipiac St., Bldg. 40, Wallingford CT 06492
  
  
 ---------------------------------------------------------------
 Warning -- This program may not be used in any manner that
 competes with the business of Gaussian, Inc. or will provide
 assistance to any competitor of Gaussian, Inc.  The licensee
 of this program is prohibited from giving any competitor of
 Gaussian, Inc. access to this program.  By using this program,
 the user acknowledges that Gaussian, Inc. is engaged in the
 business of creating and licensing software in the field of
 computational chemistry and represents and warrants to the
 licensee that it is not a competitor of Gaussian, Inc. and that
 it will not use this program in any manner prohibited above.
 ---------------------------------------------------------------
  

 Cite this work as:
 Gaussian 09, Revision D.01,
 M. J. Frisch, G. W. Trucks, H. B. Schlegel, G. E. Scuseria, 
 M. A. Robb, J. R. Cheeseman, G. Scalmani, V. Barone, B. Mennucci, 
 G. A. Petersson, H. Nakatsuji, M. Caricato, X. Li, H. P. Hratchian, 
 A. F. Izmaylov, J. Bloino, G. Zheng, J. L. Sonnenberg, M. Hada, 
 M. Ehara, K. Toyota, R. Fukuda, J. Hasegawa, M. Ishida, T. Nakajima, 
 Y. Honda, O. Kitao, H. Nakai, T. Vreven, J. A. Montgomery, Jr., 
 J. E. Peralta, F. Ogliaro, M. Bearpark, J. J. Heyd, E. Brothers, 
 K. N. Kudin, V. N. Staroverov, T. Keith, R. Kobayashi, J. Normand, 
 K. Raghavachari, A. Rendell, J. C. Burant, S. S. Iyengar, J. Tomasi, 
 M. Cossi, N. Rega, J. M. Millam, M. Klene, J. E. Knox, J. B. Cross, 
 V. Bakken, C. Adamo, J. Jaramillo, R. Gomperts, R. E. Stratmann, 
 O. Yazyev, A. J. Austin, R. Cammi, C. Pomelli, J. W. Ochterski, 
 R. L. Martin, K. Morokuma, V. G. Zakrzewski, G. A. Voth, 
 P. Salvador, J. J. Dannenberg, S. Dapprich, A. D. Daniels, 
 O. Farkas, J. B. Foresman, J. V. Ortiz, J. Cioslowski, 
 and D. J. Fox, Gaussian, Inc., Wallingford CT, 2013.
 
 ******************************************
 Gaussian 09:  EM64L-G09RevD.01 24-Apr-2013
                18-May-2017 
 ******************************************
 %Mem=256MB
 %NProc=12
 Will use up to   12 processors via shared memory.
 ----------------------------------------------------------------------
 #P HF/6-31G* SCF(Conver=6) NoSymm Test Pop=mk IOp(6/33=2) GFInput GFPr
 int
 ----------------------------------------------------------------------
 1/38=1/1;
 2/12=2,15=1,17=6,18=5,40=1/2;
 3/5=1,6=6,7=1,11=9,16=1,24=110,25=1,30=1/1,2,3;
 4//1;
 5/5=2,6=6,38=5/2;
 6/7=2,8=2,9=2,10=2,15=8,20=1,28=1,33=2/1,2;
 99/5=1,9=1/99;
 Leave Link    1 at Thu May 18 13:38:48 2017, MaxMem=    33554432 cpu:         0.6
 (Enter /home/michal/g09/l101.exe)
 ----------------------------------------------
 MEP - Input generated by R.E.D.-III.x MOLECULE
 ----------------------------------------------
 Symbolic Z-matrix:
 Charge =  0 Multiplicity = 1
 O                     0.        0.        0. 
 H                    -0.22963   0.13699   0.92995 
 O                    -3.05423   6.48061   0. 
 H                    -3.05542   6.68077   0.94662 
 C                     4.27194   1.55363  -0.41523 
 C                     2.84236   1.06753  -0.79383 
 H                     2.73633   1.30569  -1.86666 
 C                     1.68793   1.81006  -0.09704 
 H                     1.7399    1.63704   0.98802 
 C                     1.80091   3.33354  -0.38273 
 H                     1.62308   3.44665  -1.46492 
 C                     5.13525   0.58087  -1.29298 
 H                     5.04405   0.94632  -2.32841 
 C                     4.34373   3.04798  -0.78789 
 H                     4.25337   3.1425   -1.87976 
 H                     5.30786   3.48941  -0.51723 
 C                     0.68154   4.18052   0.31745 
 C                     2.92837  -0.46341  -0.69728 
 H                     2.15752  -0.96338  -1.28815 
 H                     2.78017  -0.79404   0.33622 
 C                     3.22687   3.8636   -0.10927 
 H                     3.41396   3.88321   0.96985 
 H                     3.30341   4.90303  -0.44727 
 C                     4.36531  -0.77986  -1.19107 
 H                     4.87666  -1.45693  -0.49604 
 H                     4.34647  -1.29032  -2.15878 
 C                     0.31887   1.28461  -0.57127 
 H                     0.37218   1.07528  -1.64915 
 C                     6.65263   0.43019  -1.00732 
 H                     6.76263   0.        0. 
 C                     4.58496   1.34573   1.08452 
 H                     3.86195   1.84632   1.73393 
 H                     4.58481   0.28662   1.35846 
 H                     5.57312   1.74631   1.33339 
 C                    -0.68158   3.50945   0.11665 
 C                     0.63277   5.59094  -0.3494 
 H                     0.64351   5.45568  -1.43977 
 H                     1.54264   6.14541  -0.09655 
 C                    -0.8081    2.24411  -0.30928 
 H                    -1.80273   1.827    -0.46682 
 C                     0.94399   4.33522   1.83955 
 H                     1.81837   4.96465   2.03155 
 H                     0.09533   4.79919   2.34891 
 H                     1.11199   3.36331   2.3136 
 C                    -1.91456   4.34311   0.4107 
 H                    -2.81896   3.79351   0.13192 
 H                    -1.98326   4.53634   1.49357 
 C                    -0.59312   6.441     0.01857 
 H                    -0.57934   6.69307   1.08939 
 H                    -0.56708   7.39102  -0.52717 
 C                     7.28632  -0.57323  -2.00329 
 H                     6.65393  -1.46556  -2.0709 
 H                     7.28292  -0.1224   -3.0078 
 C                    -1.89262   5.70323  -0.30244 
 H                    -1.95472   5.53848  -1.38504 
 C                     7.41575   1.7664   -1.03965 
 H                     7.26351   2.2812   -1.99675 
 H                     8.49157   1.61113  -0.91546 
 H                     7.09922   2.44345  -0.24316 
 C                     8.7117   -1.03662  -1.65905 
 H                     9.3977   -0.18205  -1.65854 
 H                     8.71449  -1.43743  -0.6362 
 C                     9.22628  -2.10368  -2.6392 
 H                     9.18088  -1.69409  -3.6588 
 H                     8.53307  -2.95715  -2.62559 
 C                     10.65725  -2.63714  -2.39478 
 H                     10.83775  -3.38517  -3.18102 
 C                     10.79782  -3.35925  -1.04448 
 H                     10.69409  -2.66552  -0.20218 
 H                     11.7817  -3.8342   -0.95684 
 H                     10.03807  -4.14129  -0.92916 
 C                     11.73198  -1.54879  -2.55372 
 H                     11.66136  -0.79167  -1.76423 
 H                     12.73698  -1.9828   -2.50011 
 H                     11.64092  -1.03581  -3.51843 
 
 NAtoms=     75 NQM=       75 NQMF=       0 NMMI=      0 NMMIF=      0
                NMic=       0 NMicF=      0.
                    Isotopes and Nuclear Properties:
 (Nuclear quadrupole moments (NQMom) in fm**2, nuclear magnetic moments (NMagM)
  in nuclear magnetons)

  Atom         1           2           3           4           5           6           7           8           9          10
 IAtWgt=          16           1          16           1          12          12           1          12           1          12
 AtmWgt=  15.9949146   1.0078250  15.9949146   1.0078250  12.0000000  12.0000000   1.0078250  12.0000000   1.0078250  12.0000000
 NucSpn=           0           1           0           1           0           0           1           0           1           0
 AtZEff=   0.0000000   0.0000000   0.0000000   0.0000000   0.0000000   0.0000000   0.0000000   0.0000000   0.0000000   0.0000000
 NQMom=    0.0000000   0.0000000   0.0000000   0.0000000   0.0000000   0.0000000   0.0000000   0.0000000   0.0000000   0.0000000
 NMagM=    0.0000000   2.7928460   0.0000000   2.7928460   0.0000000   0.0000000   2.7928460   0.0000000   2.7928460   0.0000000
 AtZNuc=   8.0000000   1.0000000   8.0000000   1.0000000   6.0000000   6.0000000   1.0000000   6.0000000   1.0000000   6.0000000

  Atom        11          12          13          14          15          16          17          18          19          20
 IAtWgt=           1          12           1          12           1           1          12          12           1           1
 AtmWgt=   1.0078250  12.0000000   1.0078250  12.0000000   1.0078250   1.0078250  12.0000000  12.0000000   1.0078250   1.0078250
 NucSpn=           1           0           1           0           1           1           0           0           1           1
 AtZEff=   0.0000000   0.0000000   0.0000000   0.0000000   0.0000000   0.0000000   0.0000000   0.0000000   0.0000000   0.0000000
 NQMom=    0.0000000   0.0000000   0.0000000   0.0000000   0.0000000   0.0000000   0.0000000   0.0000000   0.0000000   0.0000000
 NMagM=    2.7928460   0.0000000   2.7928460   0.0000000   2.7928460   2.7928460   0.0000000   0.0000000   2.7928460   2.7928460
 AtZNuc=   1.0000000   6.0000000   1.0000000   6.0000000   1.0000000   1.0000000   6.0000000   6.0000000   1.0000000   1.0000000

  Atom        21          22          23          24          25          26          27          28          29          30
 IAtWgt=          12           1           1          12           1           1          12           1          12           1
 AtmWgt=  12.0000000   1.0078250   1.0078250  12.0000000   1.0078250   1.0078250  12.0000000   1.0078250  12.0000000   1.0078250
 NucSpn=           0           1           1           0           1           1           0           1           0           1
 AtZEff=   0.0000000   0.0000000   0.0000000   0.0000000   0.0000000   0.0000000   0.0000000   0.0000000   0.0000000   0.0000000
 NQMom=    0.0000000   0.0000000   0.0000000   0.0000000   0.0000000   0.0000000   0.0000000   0.0000000   0.0000000   0.0000000
 NMagM=    0.0000000   2.7928460   2.7928460   0.0000000   2.7928460   2.7928460   0.0000000   2.7928460   0.0000000   2.7928460
 AtZNuc=   6.0000000   1.0000000   1.0000000   6.0000000   1.0000000   1.0000000   6.0000000   1.0000000   6.0000000   1.0000000

  Atom        31          32          33          34          35          36          37          38          39          40
 IAtWgt=          12           1           1           1          12          12           1           1          12           1
 AtmWgt=  12.0000000   1.0078250   1.0078250   1.0078250  12.0000000  12.0000000   1.0078250   1.0078250  12.0000000   1.0078250
 NucSpn=           0           1           1           1           0           0           1           1           0           1
 AtZEff=   0.0000000   0.0000000   0.0000000   0.0000000   0.0000000   0.0000000   0.0000000   0.0000000   0.0000000   0.0000000
 NQMom=    0.0000000   0.0000000   0.0000000   0.0000000   0.0000000   0.0000000   0.0000000   0.0000000   0.0000000   0.0000000
 NMagM=    0.0000000   2.7928460   2.7928460   2.7928460   0.0000000   0.0000000   2.7928460   2.7928460   0.0000000   2.7928460
 AtZNuc=   6.0000000   1.0000000   1.0000000   1.0000000   6.0000000   6.0000000   1.0000000   1.0000000   6.0000000   1.0000000

  Atom        41          42          43          44          45          46          47          48          49          50
 IAtWgt=          12           1           1           1          12           1           1          12           1           1
 AtmWgt=  12.0000000   1.0078250   1.0078250   1.0078250  12.0000000   1.0078250   1.0078250  12.0000000   1.0078250   1.0078250
 NucSpn=           0           1           1           1           0           1           1           0           1           1
 AtZEff=   0.0000000   0.0000000   0.0000000   0.0000000   0.0000000   0.0000000   0.0000000   0.0000000   0.0000000   0.0000000
 NQMom=    0.0000000   0.0000000   0.0000000   0.0000000   0.0000000   0.0000000   0.0000000   0.0000000   0.0000000   0.0000000
 NMagM=    0.0000000   2.7928460   2.7928460   2.7928460   0.0000000   2.7928460   2.7928460   0.0000000   2.7928460   2.7928460
 AtZNuc=   6.0000000   1.0000000   1.0000000   1.0000000   6.0000000   1.0000000   1.0000000   6.0000000   1.0000000   1.0000000

  Atom        51          52          53          54          55          56          57          58          59          60
 IAtWgt=          12           1           1          12           1          12           1           1           1          12
 AtmWgt=  12.0000000   1.0078250   1.0078250  12.0000000   1.0078250  12.0000000   1.0078250   1.0078250   1.0078250  12.0000000
 NucSpn=           0           1           1           0           1           0           1           1           1           0
 AtZEff=   0.0000000   0.0000000   0.0000000   0.0000000   0.0000000   0.0000000   0.0000000   0.0000000   0.0000000   0.0000000
 NQMom=    0.0000000   0.0000000   0.0000000   0.0000000   0.0000000   0.0000000   0.0000000   0.0000000   0.0000000   0.0000000
 NMagM=    0.0000000   2.7928460   2.7928460   0.0000000   2.7928460   0.0000000   2.7928460   2.7928460   2.7928460   0.0000000
 AtZNuc=   6.0000000   1.0000000   1.0000000   6.0000000   1.0000000   6.0000000   1.0000000   1.0000000   1.0000000   6.0000000

  Atom        61          62          63          64          65          66          67          68          69          70
 IAtWgt=           1           1          12           1           1          12           1          12           1           1
 AtmWgt=   1.0078250   1.0078250  12.0000000   1.0078250   1.0078250  12.0000000   1.0078250  12.0000000   1.0078250   1.0078250
 NucSpn=           1           1           0           1           1           0           1           0           1           1
 AtZEff=   0.0000000   0.0000000   0.0000000   0.0000000   0.0000000   0.0000000   0.0000000   0.0000000   0.0000000   0.0000000
 NQMom=    0.0000000   0.0000000   0.0000000   0.0000000   0.0000000   0.0000000   0.0000000   0.0000000   0.0000000   0.0000000
 NMagM=    2.7928460   2.7928460   0.0000000   2.7928460   2.7928460   0.0000000   2.7928460   0.0000000   2.7928460   2.7928460
 AtZNuc=   1.0000000   1.0000000   6.0000000   1.0000000   1.0000000   6.0000000   1.0000000   6.0000000   1.0000000   1.0000000

  Atom        71          72          73          74          75
 IAtWgt=           1          12           1           1           1
 AtmWgt=   1.0078250  12.0000000   1.0078250   1.0078250   1.0078250
 NucSpn=           1           0           1           1           1
 AtZEff=   0.0000000   0.0000000   0.0000000   0.0000000   0.0000000
 NQMom=    0.0000000   0.0000000   0.0000000   0.0000000   0.0000000
 NMagM=    2.7928460   0.0000000   2.7928460   2.7928460   2.7928460
 AtZNuc=   1.0000000   6.0000000   1.0000000   1.0000000   1.0000000
 Leave Link  101 at Thu May 18 13:38:48 2017, MaxMem=    33554432 cpu:         1.0
 (Enter /home/michal/g09/l202.exe)
 Symmetry turned off by external request.
 Stoichiometry    C27H46O2
 Framework group  C1[X(C27H46O2)]
 Deg. of freedom   219
 Full point group                 C1      NOp   1
                          Input orientation:                          
 ---------------------------------------------------------------------
 Center     Atomic      Atomic             Coordinates (Angstroms)
 Number     Number       Type             X           Y           Z
 ---------------------------------------------------------------------
      1          8           0        0.000000    0.000000    0.000000
      2          1           0       -0.229632    0.136987    0.929948
      3          8           0       -3.054229    6.480612    0.000000
      4          1           0       -3.055420    6.680769    0.946621
      5          6           0        4.271945    1.553630   -0.415233
      6          6           0        2.842359    1.067534   -0.793828
      7          1           0        2.736328    1.305693   -1.866664
      8          6           0        1.687933    1.810059   -0.097038
      9          1           0        1.739899    1.637041    0.988021
     10          6           0        1.800907    3.333544   -0.382727
     11          1           0        1.623079    3.446654   -1.464918
     12          6           0        5.135255    0.580874   -1.292980
     13          1           0        5.044046    0.946322   -2.328410
     14          6           0        4.343730    3.047981   -0.787893
     15          1           0        4.253366    3.142505   -1.879757
     16          1           0        5.307863    3.489409   -0.517229
     17          6           0        0.681539    4.180515    0.317455
     18          6           0        2.928368   -0.463409   -0.697279
     19          1           0        2.157516   -0.963382   -1.288148
     20          1           0        2.780168   -0.794035    0.336222
     21          6           0        3.226870    3.863604   -0.109271
     22          1           0        3.413963    3.883214    0.969853
     23          1           0        3.303413    4.903028   -0.447267
     24          6           0        4.365310   -0.779862   -1.191067
     25          1           0        4.876659   -1.456927   -0.496045
     26          1           0        4.346466   -1.290322   -2.158775
     27          6           0        0.318870    1.284609   -0.571269
     28          1           0        0.372181    1.075283   -1.649145
     29          6           0        6.652628    0.430191   -1.007323
     30          1           0        6.762630    0.000000    0.000000
     31          6           0        4.584957    1.345735    1.084522
     32          1           0        3.861953    1.846320    1.733925
     33          1           0        4.584813    0.286616    1.358460
     34          1           0        5.573122    1.746309    1.333386
     35          6           0       -0.681585    3.509448    0.116650
     36          6           0        0.632774    5.590945   -0.349401
     37          1           0        0.643509    5.455684   -1.439767
     38          1           0        1.542638    6.145409   -0.096547
     39          6           0       -0.808100    2.244107   -0.309282
     40          1           0       -1.802728    1.826997   -0.466822
     41          6           0        0.943985    4.335218    1.839550
     42          1           0        1.818372    4.964649    2.031554
     43          1           0        0.095330    4.799186    2.348911
     44          1           0        1.111995    3.363311    2.313596
     45          6           0       -1.914563    4.343109    0.410701
     46          1           0       -2.818962    3.793507    0.131920
     47          1           0       -1.983260    4.536337    1.493568
     48          6           0       -0.593118    6.441000    0.018569
     49          1           0       -0.579343    6.693066    1.089390
     50          1           0       -0.567085    7.391018   -0.527167
     51          6           0        7.286321   -0.573231   -2.003287
     52          1           0        6.653927   -1.465557   -2.070905
     53          1           0        7.282916   -0.122403   -3.007797
     54          6           0       -1.892616    5.703234   -0.302437
     55          1           0       -1.954717    5.538479   -1.385038
     56          6           0        7.415753    1.766402   -1.039649
     57          1           0        7.263513    2.281198   -1.996751
     58          1           0        8.491575    1.611130   -0.915464
     59          1           0        7.099216    2.443451   -0.243162
     60          6           0        8.711700   -1.036624   -1.659047
     61          1           0        9.397695   -0.182048   -1.658538
     62          1           0        8.714492   -1.437428   -0.636202
     63          6           0        9.226283   -2.103681   -2.639203
     64          1           0        9.180883   -1.694093   -3.658800
     65          1           0        8.533074   -2.957152   -2.625587
     66          6           0       10.657247   -2.637138   -2.394779
     67          1           0       10.837753   -3.385167   -3.181020
     68          6           0       10.797822   -3.359248   -1.044476
     69          1           0       10.694092   -2.665523   -0.202176
     70          1           0       11.781704   -3.834203   -0.956845
     71          1           0       10.038065   -4.141285   -0.929155
     72          6           0       11.731976   -1.548787   -2.553719
     73          1           0       11.661364   -0.791673   -1.764234
     74          1           0       12.736978   -1.982797   -2.500107
     75          1           0       11.640918   -1.035813   -3.518433
 ---------------------------------------------------------------------
 Rotational constants (GHZ):      0.5029766      0.0522020      0.0493572
 Leave Link  202 at Thu May 18 13:38:48 2017, MaxMem=    33554432 cpu:         0.0
 (Enter /home/michal/g09/l301.exe)
 Standard basis: 6-31G(d) (6D, 7F)
 Ernie: Thresh=  0.10000D-02 Tol=  0.10000D-05 Strict=F.
 AO basis set in the form of general basis input (Overlap normalization):
      1 0
 S   6 1.00       0.000000000000
      0.5484671660D+04  0.1831074430D-02
      0.8252349460D+03  0.1395017220D-01
      0.1880469580D+03  0.6844507810D-01
      0.5296450000D+02  0.2327143360D+00
      0.1689757040D+02  0.4701928980D+00
      0.5799635340D+01  0.3585208530D+00
 SP   3 1.00       0.000000000000
      0.1553961625D+02 -0.1107775495D+00  0.7087426823D-01
      0.3599933586D+01 -0.1480262627D+00  0.3397528391D+00
      0.1013761750D+01  0.1130767015D+01  0.7271585773D+00
 SP   1 1.00       0.000000000000
      0.2700058226D+00  0.1000000000D+01  0.1000000000D+01
 D   1 1.00       0.000000000000
      0.8000000000D+00  0.1000000000D+01
 ****
      2 0
 S   3 1.00       0.000000000000
      0.1873113696D+02  0.3349460434D-01
      0.2825394365D+01  0.2347269535D+00
      0.6401216923D+00  0.8137573261D+00
 S   1 1.00       0.000000000000
      0.1612777588D+00  0.1000000000D+01
 ****
      3 0
 S   6 1.00       0.000000000000
      0.5484671660D+04  0.1831074430D-02
      0.8252349460D+03  0.1395017220D-01
      0.1880469580D+03  0.6844507810D-01
      0.5296450000D+02  0.2327143360D+00
      0.1689757040D+02  0.4701928980D+00
      0.5799635340D+01  0.3585208530D+00
 SP   3 1.00       0.000000000000
      0.1553961625D+02 -0.1107775495D+00  0.7087426823D-01
      0.3599933586D+01 -0.1480262627D+00  0.3397528391D+00
      0.1013761750D+01  0.1130767015D+01  0.7271585773D+00
 SP   1 1.00       0.000000000000
      0.2700058226D+00  0.1000000000D+01  0.1000000000D+01
 D   1 1.00       0.000000000000
      0.8000000000D+00  0.1000000000D+01
 ****
      4 0
 S   3 1.00       0.000000000000
      0.1873113696D+02  0.3349460434D-01
      0.2825394365D+01  0.2347269535D+00
      0.6401216923D+00  0.8137573261D+00
 S   1 1.00       0.000000000000
      0.1612777588D+00  0.1000000000D+01
 ****
      5 0
 S   6 1.00       0.000000000000
      0.3047524880D+04  0.1834737132D-02
      0.4573695180D+03  0.1403732281D-01
      0.1039486850D+03  0.6884262226D-01
      0.2921015530D+02  0.2321844432D+00
      0.9286662960D+01  0.4679413484D+00
      0.3163926960D+01  0.3623119853D+00
 SP   3 1.00       0.000000000000
      0.7868272350D+01 -0.1193324198D+00  0.6899906659D-01
      0.1881288540D+01 -0.1608541517D+00  0.3164239610D+00
      0.5442492580D+00  0.1143456438D+01  0.7443082909D+00
 SP   1 1.00       0.000000000000
      0.1687144782D+00  0.1000000000D+01  0.1000000000D+01
 D   1 1.00       0.000000000000
      0.8000000000D+00  0.1000000000D+01
 ****
      6 0
 S   6 1.00       0.000000000000
      0.3047524880D+04  0.1834737132D-02
      0.4573695180D+03  0.1403732281D-01
      0.1039486850D+03  0.6884262226D-01
      0.2921015530D+02  0.2321844432D+00
      0.9286662960D+01  0.4679413484D+00
      0.3163926960D+01  0.3623119853D+00
 SP   3 1.00       0.000000000000
      0.7868272350D+01 -0.1193324198D+00  0.6899906659D-01
      0.1881288540D+01 -0.1608541517D+00  0.3164239610D+00
      0.5442492580D+00  0.1143456438D+01  0.7443082909D+00
 SP   1 1.00       0.000000000000
      0.1687144782D+00  0.1000000000D+01  0.1000000000D+01
 D   1 1.00       0.000000000000
      0.8000000000D+00  0.1000000000D+01
 ****
      7 0
 S   3 1.00       0.000000000000
      0.1873113696D+02  0.3349460434D-01
      0.2825394365D+01  0.2347269535D+00
      0.6401216923D+00  0.8137573261D+00
 S   1 1.00       0.000000000000
      0.1612777588D+00  0.1000000000D+01
 ****
      8 0
 S   6 1.00       0.000000000000
      0.3047524880D+04  0.1834737132D-02
      0.4573695180D+03  0.1403732281D-01
      0.1039486850D+03  0.6884262226D-01
      0.2921015530D+02  0.2321844432D+00
      0.9286662960D+01  0.4679413484D+00
      0.3163926960D+01  0.3623119853D+00
 SP   3 1.00       0.000000000000
      0.7868272350D+01 -0.1193324198D+00  0.6899906659D-01
      0.1881288540D+01 -0.1608541517D+00  0.3164239610D+00
      0.5442492580D+00  0.1143456438D+01  0.7443082909D+00
 SP   1 1.00       0.000000000000
      0.1687144782D+00  0.1000000000D+01  0.1000000000D+01
 D   1 1.00       0.000000000000
      0.8000000000D+00  0.1000000000D+01
 ****
      9 0
 S   3 1.00       0.000000000000
      0.1873113696D+02  0.3349460434D-01
      0.2825394365D+01  0.2347269535D+00
      0.6401216923D+00  0.8137573261D+00
 S   1 1.00       0.000000000000
      0.1612777588D+00  0.1000000000D+01
 ****
     10 0
 S   6 1.00       0.000000000000
      0.3047524880D+04  0.1834737132D-02
      0.4573695180D+03  0.1403732281D-01
      0.1039486850D+03  0.6884262226D-01
      0.2921015530D+02  0.2321844432D+00
      0.9286662960D+01  0.4679413484D+00
      0.3163926960D+01  0.3623119853D+00
 SP   3 1.00       0.000000000000
      0.7868272350D+01 -0.1193324198D+00  0.6899906659D-01
      0.1881288540D+01 -0.1608541517D+00  0.3164239610D+00
      0.5442492580D+00  0.1143456438D+01  0.7443082909D+00
 SP   1 1.00       0.000000000000
      0.1687144782D+00  0.1000000000D+01  0.1000000000D+01
 D   1 1.00       0.000000000000
      0.8000000000D+00  0.1000000000D+01
 ****
     11 0
 S   3 1.00       0.000000000000
      0.1873113696D+02  0.3349460434D-01
      0.2825394365D+01  0.2347269535D+00
      0.6401216923D+00  0.8137573261D+00
 S   1 1.00       0.000000000000
      0.1612777588D+00  0.1000000000D+01
 ****
     12 0
 S   6 1.00       0.000000000000
      0.3047524880D+04  0.1834737132D-02
      0.4573695180D+03  0.1403732281D-01
      0.1039486850D+03  0.6884262226D-01
      0.2921015530D+02  0.2321844432D+00
      0.9286662960D+01  0.4679413484D+00
      0.3163926960D+01  0.3623119853D+00
 SP   3 1.00       0.000000000000
      0.7868272350D+01 -0.1193324198D+00  0.6899906659D-01
      0.1881288540D+01 -0.1608541517D+00  0.3164239610D+00
      0.5442492580D+00  0.1143456438D+01  0.7443082909D+00
 SP   1 1.00       0.000000000000
      0.1687144782D+00  0.1000000000D+01  0.1000000000D+01
 D   1 1.00       0.000000000000
      0.8000000000D+00  0.1000000000D+01
 ****
     13 0
 S   3 1.00       0.000000000000
      0.1873113696D+02  0.3349460434D-01
      0.2825394365D+01  0.2347269535D+00
      0.6401216923D+00  0.8137573261D+00
 S   1 1.00       0.000000000000
      0.1612777588D+00  0.1000000000D+01
 ****
     14 0
 S   6 1.00       0.000000000000
      0.3047524880D+04  0.1834737132D-02
      0.4573695180D+03  0.1403732281D-01
      0.1039486850D+03  0.6884262226D-01
      0.2921015530D+02  0.2321844432D+00
      0.9286662960D+01  0.4679413484D+00
      0.3163926960D+01  0.3623119853D+00
 SP   3 1.00       0.000000000000
      0.7868272350D+01 -0.1193324198D+00  0.6899906659D-01
      0.1881288540D+01 -0.1608541517D+00  0.3164239610D+00
      0.5442492580D+00  0.1143456438D+01  0.7443082909D+00
 SP   1 1.00       0.000000000000
      0.1687144782D+00  0.1000000000D+01  0.1000000000D+01
 D   1 1.00       0.000000000000
      0.8000000000D+00  0.1000000000D+01
 ****
     15 0
 S   3 1.00       0.000000000000
      0.1873113696D+02  0.3349460434D-01
      0.2825394365D+01  0.2347269535D+00
      0.6401216923D+00  0.8137573261D+00
 S   1 1.00       0.000000000000
      0.1612777588D+00  0.1000000000D+01
 ****
     16 0
 S   3 1.00       0.000000000000
      0.1873113696D+02  0.3349460434D-01
      0.2825394365D+01  0.2347269535D+00
      0.6401216923D+00  0.8137573261D+00
 S   1 1.00       0.000000000000
      0.1612777588D+00  0.1000000000D+01
 ****
     17 0
 S   6 1.00       0.000000000000
      0.3047524880D+04  0.1834737132D-02
      0.4573695180D+03  0.1403732281D-01
      0.1039486850D+03  0.6884262226D-01
      0.2921015530D+02  0.2321844432D+00
      0.9286662960D+01  0.4679413484D+00
      0.3163926960D+01  0.3623119853D+00
 SP   3 1.00       0.000000000000
      0.7868272350D+01 -0.1193324198D+00  0.6899906659D-01
      0.1881288540D+01 -0.1608541517D+00  0.3164239610D+00
      0.5442492580D+00  0.1143456438D+01  0.7443082909D+00
 SP   1 1.00       0.000000000000
      0.1687144782D+00  0.1000000000D+01  0.1000000000D+01
 D   1 1.00       0.000000000000
      0.8000000000D+00  0.1000000000D+01
 ****
     18 0
 S   6 1.00       0.000000000000
      0.3047524880D+04  0.1834737132D-02
      0.4573695180D+03  0.1403732281D-01
      0.1039486850D+03  0.6884262226D-01
      0.2921015530D+02  0.2321844432D+00
      0.9286662960D+01  0.4679413484D+00
      0.3163926960D+01  0.3623119853D+00
 SP   3 1.00       0.000000000000
      0.7868272350D+01 -0.1193324198D+00  0.6899906659D-01
      0.1881288540D+01 -0.1608541517D+00  0.3164239610D+00
      0.5442492580D+00  0.1143456438D+01  0.7443082909D+00
 SP   1 1.00       0.000000000000
      0.1687144782D+00  0.1000000000D+01  0.1000000000D+01
 D   1 1.00       0.000000000000
      0.8000000000D+00  0.1000000000D+01
 ****
     19 0
 S   3 1.00       0.000000000000
      0.1873113696D+02  0.3349460434D-01
      0.2825394365D+01  0.2347269535D+00
      0.6401216923D+00  0.8137573261D+00
 S   1 1.00       0.000000000000
      0.1612777588D+00  0.1000000000D+01
 ****
     20 0
 S   3 1.00       0.000000000000
      0.1873113696D+02  0.3349460434D-01
      0.2825394365D+01  0.2347269535D+00
      0.6401216923D+00  0.8137573261D+00
 S   1 1.00       0.000000000000
      0.1612777588D+00  0.1000000000D+01
 ****
     21 0
 S   6 1.00       0.000000000000
      0.3047524880D+04  0.1834737132D-02
      0.4573695180D+03  0.1403732281D-01
      0.1039486850D+03  0.6884262226D-01
      0.2921015530D+02  0.2321844432D+00
      0.9286662960D+01  0.4679413484D+00
      0.3163926960D+01  0.3623119853D+00
 SP   3 1.00       0.000000000000
      0.7868272350D+01 -0.1193324198D+00  0.6899906659D-01
      0.1881288540D+01 -0.1608541517D+00  0.3164239610D+00
      0.5442492580D+00  0.1143456438D+01  0.7443082909D+00
 SP   1 1.00       0.000000000000
      0.1687144782D+00  0.1000000000D+01  0.1000000000D+01
 D   1 1.00       0.000000000000
      0.8000000000D+00  0.1000000000D+01
 ****
     22 0
 S   3 1.00       0.000000000000
      0.1873113696D+02  0.3349460434D-01
      0.2825394365D+01  0.2347269535D+00
      0.6401216923D+00  0.8137573261D+00
 S   1 1.00       0.000000000000
      0.1612777588D+00  0.1000000000D+01
 ****
     23 0
 S   3 1.00       0.000000000000
      0.1873113696D+02  0.3349460434D-01
      0.2825394365D+01  0.2347269535D+00
      0.6401216923D+00  0.8137573261D+00
 S   1 1.00       0.000000000000
      0.1612777588D+00  0.1000000000D+01
 ****
     24 0
 S   6 1.00       0.000000000000
      0.3047524880D+04  0.1834737132D-02
      0.4573695180D+03  0.1403732281D-01
      0.1039486850D+03  0.6884262226D-01
      0.2921015530D+02  0.2321844432D+00
      0.9286662960D+01  0.4679413484D+00
      0.3163926960D+01  0.3623119853D+00
 SP   3 1.00       0.000000000000
      0.7868272350D+01 -0.1193324198D+00  0.6899906659D-01
      0.1881288540D+01 -0.1608541517D+00  0.3164239610D+00
      0.5442492580D+00  0.1143456438D+01  0.7443082909D+00
 SP   1 1.00       0.000000000000
      0.1687144782D+00  0.1000000000D+01  0.1000000000D+01
 D   1 1.00       0.000000000000
      0.8000000000D+00  0.1000000000D+01
 ****
     25 0
 S   3 1.00       0.000000000000
      0.1873113696D+02  0.3349460434D-01
      0.2825394365D+01  0.2347269535D+00
      0.6401216923D+00  0.8137573261D+00
 S   1 1.00       0.000000000000
      0.1612777588D+00  0.1000000000D+01
 ****
     26 0
 S   3 1.00       0.000000000000
      0.1873113696D+02  0.3349460434D-01
      0.2825394365D+01  0.2347269535D+00
      0.6401216923D+00  0.8137573261D+00
 S   1 1.00       0.000000000000
      0.1612777588D+00  0.1000000000D+01
 ****
     27 0
 S   6 1.00       0.000000000000
      0.3047524880D+04  0.1834737132D-02
      0.4573695180D+03  0.1403732281D-01
      0.1039486850D+03  0.6884262226D-01
      0.2921015530D+02  0.2321844432D+00
      0.9286662960D+01  0.4679413484D+00
      0.3163926960D+01  0.3623119853D+00
 SP   3 1.00       0.000000000000
      0.7868272350D+01 -0.1193324198D+00  0.6899906659D-01
      0.1881288540D+01 -0.1608541517D+00  0.3164239610D+00
      0.5442492580D+00  0.1143456438D+01  0.7443082909D+00
 SP   1 1.00       0.000000000000
      0.1687144782D+00  0.1000000000D+01  0.1000000000D+01
 D   1 1.00       0.000000000000
      0.8000000000D+00  0.1000000000D+01
 ****
     28 0
 S   3 1.00       0.000000000000
      0.1873113696D+02  0.3349460434D-01
      0.2825394365D+01  0.2347269535D+00
      0.6401216923D+00  0.8137573261D+00
 S   1 1.00       0.000000000000
      0.1612777588D+00  0.1000000000D+01
 ****
     29 0
 S   6 1.00       0.000000000000
      0.3047524880D+04  0.1834737132D-02
      0.4573695180D+03  0.1403732281D-01
      0.1039486850D+03  0.6884262226D-01
      0.2921015530D+02  0.2321844432D+00
      0.9286662960D+01  0.4679413484D+00
      0.3163926960D+01  0.3623119853D+00
 SP   3 1.00       0.000000000000
      0.7868272350D+01 -0.1193324198D+00  0.6899906659D-01
      0.1881288540D+01 -0.1608541517D+00  0.3164239610D+00
      0.5442492580D+00  0.1143456438D+01  0.7443082909D+00
 SP   1 1.00       0.000000000000
      0.1687144782D+00  0.1000000000D+01  0.1000000000D+01
 D   1 1.00       0.000000000000
      0.8000000000D+00  0.1000000000D+01
 ****
     30 0
 S   3 1.00       0.000000000000
      0.1873113696D+02  0.3349460434D-01
      0.2825394365D+01  0.2347269535D+00
      0.6401216923D+00  0.8137573261D+00
 S   1 1.00       0.000000000000
      0.1612777588D+00  0.1000000000D+01
 ****
     31 0
 S   6 1.00       0.000000000000
      0.3047524880D+04  0.1834737132D-02
      0.4573695180D+03  0.1403732281D-01
      0.1039486850D+03  0.6884262226D-01
      0.2921015530D+02  0.2321844432D+00
      0.9286662960D+01  0.4679413484D+00
      0.3163926960D+01  0.3623119853D+00
 SP   3 1.00       0.000000000000
      0.7868272350D+01 -0.1193324198D+00  0.6899906659D-01
      0.1881288540D+01 -0.1608541517D+00  0.3164239610D+00
      0.5442492580D+00  0.1143456438D+01  0.7443082909D+00
 SP   1 1.00       0.000000000000
      0.1687144782D+00  0.1000000000D+01  0.1000000000D+01
 D   1 1.00       0.000000000000
      0.8000000000D+00  0.1000000000D+01
 ****
     32 0
 S   3 1.00       0.000000000000
      0.1873113696D+02  0.3349460434D-01
      0.2825394365D+01  0.2347269535D+00
      0.6401216923D+00  0.8137573261D+00
 S   1 1.00       0.000000000000
      0.1612777588D+00  0.1000000000D+01
 ****
     33 0
 S   3 1.00       0.000000000000
      0.1873113696D+02  0.3349460434D-01
      0.2825394365D+01  0.2347269535D+00
      0.6401216923D+00  0.8137573261D+00
 S   1 1.00       0.000000000000
      0.1612777588D+00  0.1000000000D+01
 ****
     34 0
 S   3 1.00       0.000000000000
      0.1873113696D+02  0.3349460434D-01
      0.2825394365D+01  0.2347269535D+00
      0.6401216923D+00  0.8137573261D+00
 S   1 1.00       0.000000000000
      0.1612777588D+00  0.1000000000D+01
 ****
     35 0
 S   6 1.00       0.000000000000
      0.3047524880D+04  0.1834737132D-02
      0.4573695180D+03  0.1403732281D-01
      0.1039486850D+03  0.6884262226D-01
      0.2921015530D+02  0.2321844432D+00
      0.9286662960D+01  0.4679413484D+00
      0.3163926960D+01  0.3623119853D+00
 SP   3 1.00       0.000000000000
      0.7868272350D+01 -0.1193324198D+00  0.6899906659D-01
      0.1881288540D+01 -0.1608541517D+00  0.3164239610D+00
      0.5442492580D+00  0.1143456438D+01  0.7443082909D+00
 SP   1 1.00       0.000000000000
      0.1687144782D+00  0.1000000000D+01  0.1000000000D+01
 D   1 1.00       0.000000000000
      0.8000000000D+00  0.1000000000D+01
 ****
     36 0
 S   6 1.00       0.000000000000
      0.3047524880D+04  0.1834737132D-02
      0.4573695180D+03  0.1403732281D-01
      0.1039486850D+03  0.6884262226D-01
      0.2921015530D+02  0.2321844432D+00
      0.9286662960D+01  0.4679413484D+00
      0.3163926960D+01  0.3623119853D+00
 SP   3 1.00       0.000000000000
      0.7868272350D+01 -0.1193324198D+00  0.6899906659D-01
      0.1881288540D+01 -0.1608541517D+00  0.3164239610D+00
      0.5442492580D+00  0.1143456438D+01  0.7443082909D+00
 SP   1 1.00       0.000000000000
      0.1687144782D+00  0.1000000000D+01  0.1000000000D+01
 D   1 1.00       0.000000000000
      0.8000000000D+00  0.1000000000D+01
 ****
     37 0
 S   3 1.00       0.000000000000
      0.1873113696D+02  0.3349460434D-01
      0.2825394365D+01  0.2347269535D+00
      0.6401216923D+00  0.8137573261D+00
 S   1 1.00       0.000000000000
      0.1612777588D+00  0.1000000000D+01
 ****
     38 0
 S   3 1.00       0.000000000000
      0.1873113696D+02  0.3349460434D-01
      0.2825394365D+01  0.2347269535D+00
      0.6401216923D+00  0.8137573261D+00
 S   1 1.00       0.000000000000
      0.1612777588D+00  0.1000000000D+01
 ****
     39 0
 S   6 1.00       0.000000000000
      0.3047524880D+04  0.1834737132D-02
      0.4573695180D+03  0.1403732281D-01
      0.1039486850D+03  0.6884262226D-01
      0.2921015530D+02  0.2321844432D+00
      0.9286662960D+01  0.4679413484D+00
      0.3163926960D+01  0.3623119853D+00
 SP   3 1.00       0.000000000000
      0.7868272350D+01 -0.1193324198D+00  0.6899906659D-01
      0.1881288540D+01 -0.1608541517D+00  0.3164239610D+00
      0.5442492580D+00  0.1143456438D+01  0.7443082909D+00
 SP   1 1.00       0.000000000000
      0.1687144782D+00  0.1000000000D+01  0.1000000000D+01
 D   1 1.00       0.000000000000
      0.8000000000D+00  0.1000000000D+01
 ****
     40 0
 S   3 1.00       0.000000000000
      0.1873113696D+02  0.3349460434D-01
      0.2825394365D+01  0.2347269535D+00
      0.6401216923D+00  0.8137573261D+00
 S   1 1.00       0.000000000000
      0.1612777588D+00  0.1000000000D+01
 ****
     41 0
 S   6 1.00       0.000000000000
      0.3047524880D+04  0.1834737132D-02
      0.4573695180D+03  0.1403732281D-01
      0.1039486850D+03  0.6884262226D-01
      0.2921015530D+02  0.2321844432D+00
      0.9286662960D+01  0.4679413484D+00
      0.3163926960D+01  0.3623119853D+00
 SP   3 1.00       0.000000000000
      0.7868272350D+01 -0.1193324198D+00  0.6899906659D-01
      0.1881288540D+01 -0.1608541517D+00  0.3164239610D+00
      0.5442492580D+00  0.1143456438D+01  0.7443082909D+00
 SP   1 1.00       0.000000000000
      0.1687144782D+00  0.1000000000D+01  0.1000000000D+01
 D   1 1.00       0.000000000000
      0.8000000000D+00  0.1000000000D+01
 ****
     42 0
 S   3 1.00       0.000000000000
      0.1873113696D+02  0.3349460434D-01
      0.2825394365D+01  0.2347269535D+00
      0.6401216923D+00  0.8137573261D+00
 S   1 1.00       0.000000000000
      0.1612777588D+00  0.1000000000D+01
 ****
     43 0
 S   3 1.00       0.000000000000
      0.1873113696D+02  0.3349460434D-01
      0.2825394365D+01  0.2347269535D+00
      0.6401216923D+00  0.8137573261D+00
 S   1 1.00       0.000000000000
      0.1612777588D+00  0.1000000000D+01
 ****
     44 0
 S   3 1.00       0.000000000000
      0.1873113696D+02  0.3349460434D-01
      0.2825394365D+01  0.2347269535D+00
      0.6401216923D+00  0.8137573261D+00
 S   1 1.00       0.000000000000
      0.1612777588D+00  0.1000000000D+01
 ****
     45 0
 S   6 1.00       0.000000000000
      0.3047524880D+04  0.1834737132D-02
      0.4573695180D+03  0.1403732281D-01
      0.1039486850D+03  0.6884262226D-01
      0.2921015530D+02  0.2321844432D+00
      0.9286662960D+01  0.4679413484D+00
      0.3163926960D+01  0.3623119853D+00
 SP   3 1.00       0.000000000000
      0.7868272350D+01 -0.1193324198D+00  0.6899906659D-01
      0.1881288540D+01 -0.1608541517D+00  0.3164239610D+00
      0.5442492580D+00  0.1143456438D+01  0.7443082909D+00
 SP   1 1.00       0.000000000000
      0.1687144782D+00  0.1000000000D+01  0.1000000000D+01
 D   1 1.00       0.000000000000
      0.8000000000D+00  0.1000000000D+01
 ****
     46 0
 S   3 1.00       0.000000000000
      0.1873113696D+02  0.3349460434D-01
      0.2825394365D+01  0.2347269535D+00
      0.6401216923D+00  0.8137573261D+00
 S   1 1.00       0.000000000000
      0.1612777588D+00  0.1000000000D+01
 ****
     47 0
 S   3 1.00       0.000000000000
      0.1873113696D+02  0.3349460434D-01
      0.2825394365D+01  0.2347269535D+00
      0.6401216923D+00  0.8137573261D+00
 S   1 1.00       0.000000000000
      0.1612777588D+00  0.1000000000D+01
 ****
     48 0
 S   6 1.00       0.000000000000
      0.3047524880D+04  0.1834737132D-02
      0.4573695180D+03  0.1403732281D-01
      0.1039486850D+03  0.6884262226D-01
      0.2921015530D+02  0.2321844432D+00
      0.9286662960D+01  0.4679413484D+00
      0.3163926960D+01  0.3623119853D+00
 SP   3 1.00       0.000000000000
      0.7868272350D+01 -0.1193324198D+00  0.6899906659D-01
      0.1881288540D+01 -0.1608541517D+00  0.3164239610D+00
      0.5442492580D+00  0.1143456438D+01  0.7443082909D+00
 SP   1 1.00       0.000000000000
      0.1687144782D+00  0.1000000000D+01  0.1000000000D+01
 D   1 1.00       0.000000000000
      0.8000000000D+00  0.1000000000D+01
 ****
     49 0
 S   3 1.00       0.000000000000
      0.1873113696D+02  0.3349460434D-01
      0.2825394365D+01  0.2347269535D+00
      0.6401216923D+00  0.8137573261D+00
 S   1 1.00       0.000000000000
      0.1612777588D+00  0.1000000000D+01
 ****
     50 0
 S   3 1.00       0.000000000000
      0.1873113696D+02  0.3349460434D-01
      0.2825394365D+01  0.2347269535D+00
      0.6401216923D+00  0.8137573261D+00
 S   1 1.00       0.000000000000
      0.1612777588D+00  0.1000000000D+01
 ****
     51 0
 S   6 1.00       0.000000000000
      0.3047524880D+04  0.1834737132D-02
      0.4573695180D+03  0.1403732281D-01
      0.1039486850D+03  0.6884262226D-01
      0.2921015530D+02  0.2321844432D+00
      0.9286662960D+01  0.4679413484D+00
      0.3163926960D+01  0.3623119853D+00
 SP   3 1.00       0.000000000000
      0.7868272350D+01 -0.1193324198D+00  0.6899906659D-01
      0.1881288540D+01 -0.1608541517D+00  0.3164239610D+00
      0.5442492580D+00  0.1143456438D+01  0.7443082909D+00
 SP   1 1.00       0.000000000000
      0.1687144782D+00  0.1000000000D+01  0.1000000000D+01
 D   1 1.00       0.000000000000
      0.8000000000D+00  0.1000000000D+01
 ****
     52 0
 S   3 1.00       0.000000000000
      0.1873113696D+02  0.3349460434D-01
      0.2825394365D+01  0.2347269535D+00
      0.6401216923D+00  0.8137573261D+00
 S   1 1.00       0.000000000000
      0.1612777588D+00  0.1000000000D+01
 ****
     53 0
 S   3 1.00       0.000000000000
      0.1873113696D+02  0.3349460434D-01
      0.2825394365D+01  0.2347269535D+00
      0.6401216923D+00  0.8137573261D+00
 S   1 1.00       0.000000000000
      0.1612777588D+00  0.1000000000D+01
 ****
     54 0
 S   6 1.00       0.000000000000
      0.3047524880D+04  0.1834737132D-02
      0.4573695180D+03  0.1403732281D-01
      0.1039486850D+03  0.6884262226D-01
      0.2921015530D+02  0.2321844432D+00
      0.9286662960D+01  0.4679413484D+00
      0.3163926960D+01  0.3623119853D+00
 SP   3 1.00       0.000000000000
      0.7868272350D+01 -0.1193324198D+00  0.6899906659D-01
      0.1881288540D+01 -0.1608541517D+00  0.3164239610D+00
      0.5442492580D+00  0.1143456438D+01  0.7443082909D+00
 SP   1 1.00       0.000000000000
      0.1687144782D+00  0.1000000000D+01  0.1000000000D+01
 D   1 1.00       0.000000000000
      0.8000000000D+00  0.1000000000D+01
 ****
     55 0
 S   3 1.00       0.000000000000
      0.1873113696D+02  0.3349460434D-01
      0.2825394365D+01  0.2347269535D+00
      0.6401216923D+00  0.8137573261D+00
 S   1 1.00       0.000000000000
      0.1612777588D+00  0.1000000000D+01
 ****
     56 0
 S   6 1.00       0.000000000000
      0.3047524880D+04  0.1834737132D-02
      0.4573695180D+03  0.1403732281D-01
      0.1039486850D+03  0.6884262226D-01
      0.2921015530D+02  0.2321844432D+00
      0.9286662960D+01  0.4679413484D+00
      0.3163926960D+01  0.3623119853D+00
 SP   3 1.00       0.000000000000
      0.7868272350D+01 -0.1193324198D+00  0.6899906659D-01
      0.1881288540D+01 -0.1608541517D+00  0.3164239610D+00
      0.5442492580D+00  0.1143456438D+01  0.7443082909D+00
 SP   1 1.00       0.000000000000
      0.1687144782D+00  0.1000000000D+01  0.1000000000D+01
 D   1 1.00       0.000000000000
      0.8000000000D+00  0.1000000000D+01
 ****
     57 0
 S   3 1.00       0.000000000000
      0.1873113696D+02  0.3349460434D-01
      0.2825394365D+01  0.2347269535D+00
      0.6401216923D+00  0.8137573261D+00
 S   1 1.00       0.000000000000
      0.1612777588D+00  0.1000000000D+01
 ****
     58 0
 S   3 1.00       0.000000000000
      0.1873113696D+02  0.3349460434D-01
      0.2825394365D+01  0.2347269535D+00
      0.6401216923D+00  0.8137573261D+00
 S   1 1.00       0.000000000000
      0.1612777588D+00  0.1000000000D+01
 ****
     59 0
 S   3 1.00       0.000000000000
      0.1873113696D+02  0.3349460434D-01
      0.2825394365D+01  0.2347269535D+00
      0.6401216923D+00  0.8137573261D+00
 S   1 1.00       0.000000000000
      0.1612777588D+00  0.1000000000D+01
 ****
     60 0
 S   6 1.00       0.000000000000
      0.3047524880D+04  0.1834737132D-02
      0.4573695180D+03  0.1403732281D-01
      0.1039486850D+03  0.6884262226D-01
      0.2921015530D+02  0.2321844432D+00
      0.9286662960D+01  0.4679413484D+00
      0.3163926960D+01  0.3623119853D+00
 SP   3 1.00       0.000000000000
      0.7868272350D+01 -0.1193324198D+00  0.6899906659D-01
      0.1881288540D+01 -0.1608541517D+00  0.3164239610D+00
      0.5442492580D+00  0.1143456438D+01  0.7443082909D+00
 SP   1 1.00       0.000000000000
      0.1687144782D+00  0.1000000000D+01  0.1000000000D+01
 D   1 1.00       0.000000000000
      0.8000000000D+00  0.1000000000D+01
 ****
     61 0
 S   3 1.00       0.000000000000
      0.1873113696D+02  0.3349460434D-01
      0.2825394365D+01  0.2347269535D+00
      0.6401216923D+00  0.8137573261D+00
 S   1 1.00       0.000000000000
      0.1612777588D+00  0.1000000000D+01
 ****
     62 0
 S   3 1.00       0.000000000000
      0.1873113696D+02  0.3349460434D-01
      0.2825394365D+01  0.2347269535D+00
      0.6401216923D+00  0.8137573261D+00
 S   1 1.00       0.000000000000
      0.1612777588D+00  0.1000000000D+01
 ****
     63 0
 S   6 1.00       0.000000000000
      0.3047524880D+04  0.1834737132D-02
      0.4573695180D+03  0.1403732281D-01
      0.1039486850D+03  0.6884262226D-01
      0.2921015530D+02  0.2321844432D+00
      0.9286662960D+01  0.4679413484D+00
      0.3163926960D+01  0.3623119853D+00
 SP   3 1.00       0.000000000000
      0.7868272350D+01 -0.1193324198D+00  0.6899906659D-01
      0.1881288540D+01 -0.1608541517D+00  0.3164239610D+00
      0.5442492580D+00  0.1143456438D+01  0.7443082909D+00
 SP   1 1.00       0.000000000000
      0.1687144782D+00  0.1000000000D+01  0.1000000000D+01
 D   1 1.00       0.000000000000
      0.8000000000D+00  0.1000000000D+01
 ****
     64 0
 S   3 1.00       0.000000000000
      0.1873113696D+02  0.3349460434D-01
      0.2825394365D+01  0.2347269535D+00
      0.6401216923D+00  0.8137573261D+00
 S   1 1.00       0.000000000000
      0.1612777588D+00  0.1000000000D+01
 ****
     65 0
 S   3 1.00       0.000000000000
      0.1873113696D+02  0.3349460434D-01
      0.2825394365D+01  0.2347269535D+00
      0.6401216923D+00  0.8137573261D+00
 S   1 1.00       0.000000000000
      0.1612777588D+00  0.1000000000D+01
 ****
     66 0
 S   6 1.00       0.000000000000
      0.3047524880D+04  0.1834737132D-02
      0.4573695180D+03  0.1403732281D-01
      0.1039486850D+03  0.6884262226D-01
      0.2921015530D+02  0.2321844432D+00
      0.9286662960D+01  0.4679413484D+00
      0.3163926960D+01  0.3623119853D+00
 SP   3 1.00       0.000000000000
      0.7868272350D+01 -0.1193324198D+00  0.6899906659D-01
      0.1881288540D+01 -0.1608541517D+00  0.3164239610D+00
      0.5442492580D+00  0.1143456438D+01  0.7443082909D+00
 SP   1 1.00       0.000000000000
      0.1687144782D+00  0.1000000000D+01  0.1000000000D+01
 D   1 1.00       0.000000000000
      0.8000000000D+00  0.1000000000D+01
 ****
     67 0
 S   3 1.00       0.000000000000
      0.1873113696D+02  0.3349460434D-01
      0.2825394365D+01  0.2347269535D+00
      0.6401216923D+00  0.8137573261D+00
 S   1 1.00       0.000000000000
      0.1612777588D+00  0.1000000000D+01
 ****
     68 0
 S   6 1.00       0.000000000000
      0.3047524880D+04  0.1834737132D-02
      0.4573695180D+03  0.1403732281D-01
      0.1039486850D+03  0.6884262226D-01
      0.2921015530D+02  0.2321844432D+00
      0.9286662960D+01  0.4679413484D+00
      0.3163926960D+01  0.3623119853D+00
 SP   3 1.00       0.000000000000
      0.7868272350D+01 -0.1193324198D+00  0.6899906659D-01
      0.1881288540D+01 -0.1608541517D+00  0.3164239610D+00
      0.5442492580D+00  0.1143456438D+01  0.7443082909D+00
 SP   1 1.00       0.000000000000
      0.1687144782D+00  0.1000000000D+01  0.1000000000D+01
 D   1 1.00       0.000000000000
      0.8000000000D+00  0.1000000000D+01
 ****
     69 0
 S   3 1.00       0.000000000000
      0.1873113696D+02  0.3349460434D-01
      0.2825394365D+01  0.2347269535D+00
      0.6401216923D+00  0.8137573261D+00
 S   1 1.00       0.000000000000
      0.1612777588D+00  0.1000000000D+01
 ****
     70 0
 S   3 1.00       0.000000000000
      0.1873113696D+02  0.3349460434D-01
      0.2825394365D+01  0.2347269535D+00
      0.6401216923D+00  0.8137573261D+00
 S   1 1.00       0.000000000000
      0.1612777588D+00  0.1000000000D+01
 ****
     71 0
 S   3 1.00       0.000000000000
      0.1873113696D+02  0.3349460434D-01
      0.2825394365D+01  0.2347269535D+00
      0.6401216923D+00  0.8137573261D+00
 S   1 1.00       0.000000000000
      0.1612777588D+00  0.1000000000D+01
 ****
     72 0
 S   6 1.00       0.000000000000
      0.3047524880D+04  0.1834737132D-02
      0.4573695180D+03  0.1403732281D-01
      0.1039486850D+03  0.6884262226D-01
      0.2921015530D+02  0.2321844432D+00
      0.9286662960D+01  0.4679413484D+00
      0.3163926960D+01  0.3623119853D+00
 SP   3 1.00       0.000000000000
      0.7868272350D+01 -0.1193324198D+00  0.6899906659D-01
      0.1881288540D+01 -0.1608541517D+00  0.3164239610D+00
      0.5442492580D+00  0.1143456438D+01  0.7443082909D+00
 SP   1 1.00       0.000000000000
      0.1687144782D+00  0.1000000000D+01  0.1000000000D+01
 D   1 1.00       0.000000000000
      0.8000000000D+00  0.1000000000D+01
 ****
     73 0
 S   3 1.00       0.000000000000
      0.1873113696D+02  0.3349460434D-01
      0.2825394365D+01  0.2347269535D+00
      0.6401216923D+00  0.8137573261D+00
 S   1 1.00       0.000000000000
      0.1612777588D+00  0.1000000000D+01
 ****
     74 0
 S   3 1.00       0.000000000000
      0.1873113696D+02  0.3349460434D-01
      0.2825394365D+01  0.2347269535D+00
      0.6401216923D+00  0.8137573261D+00
 S   1 1.00       0.000000000000
      0.1612777588D+00  0.1000000000D+01
 ****
     75 0
 S   3 1.00       0.000000000000
      0.1873113696D+02  0.3349460434D-01
      0.2825394365D+01  0.2347269535D+00
      0.6401216923D+00  0.8137573261D+00
 S   1 1.00       0.000000000000
      0.1612777588D+00  0.1000000000D+01
 ****

 AO basis set (Overlap normalization):
 Atom O1       Shell     1 S   6     bf    1 -     1          0.000000000000          0.000000000000          0.000000000000
      0.5484671660D+04  0.1831074430D-02
      0.8252349460D+03  0.1395017220D-01
      0.1880469580D+03  0.6844507810D-01
      0.5296450000D+02  0.2327143360D+00
      0.1689757040D+02  0.4701928980D+00
      0.5799635340D+01  0.3585208530D+00
 Atom O1       Shell     2 SP   3    bf    2 -     5          0.000000000000          0.000000000000          0.000000000000
      0.1553961625D+02 -0.1107775495D+00  0.7087426823D-01
      0.3599933586D+01 -0.1480262627D+00  0.3397528391D+00
      0.1013761750D+01  0.1130767015D+01  0.7271585773D+00
 Atom O1       Shell     3 SP   1    bf    6 -     9          0.000000000000          0.000000000000          0.000000000000
      0.2700058226D+00  0.1000000000D+01  0.1000000000D+01
 Atom O1       Shell     4 D   1     bf   10 -    15          0.000000000000          0.000000000000          0.000000000000
      0.8000000000D+00  0.1000000000D+01
 Atom H2       Shell     5 S   3     bf   16 -    16         -0.433942252751          0.258868291711          1.757346697674
      0.1873113696D+02  0.3349460434D-01
      0.2825394365D+01  0.2347269535D+00
      0.6401216923D+00  0.8137573261D+00
 Atom H2       Shell     6 S   1     bf   17 -    17         -0.433942252751          0.258868291711          1.757346697674
      0.1612777588D+00  0.1000000000D+01
 Atom O3       Shell     7 S   6     bf   18 -    18         -5.771656338220         12.246581910184          0.000000000000
      0.5484671660D+04  0.1831074430D-02
      0.8252349460D+03  0.1395017220D-01
      0.1880469580D+03  0.6844507810D-01
      0.5296450000D+02  0.2327143360D+00
      0.1689757040D+02  0.4701928980D+00
      0.5799635340D+01  0.3585208530D+00
 Atom O3       Shell     8 SP   3    bf   19 -    22         -5.771656338220         12.246581910184          0.000000000000
      0.1553961625D+02 -0.1107775495D+00  0.7087426823D-01
      0.3599933586D+01 -0.1480262627D+00  0.3397528391D+00
      0.1013761750D+01  0.1130767015D+01  0.7271585773D+00
 Atom O3       Shell     9 SP   1    bf   23 -    26         -5.771656338220         12.246581910184          0.000000000000
      0.2700058226D+00  0.1000000000D+01  0.1000000000D+01
 Atom O3       Shell    10 D   1     bf   27 -    32         -5.771656338220         12.246581910184          0.000000000000
      0.8000000000D+00  0.1000000000D+01
 Atom H4       Shell    11 S   3     bf   33 -    33         -5.773907342195         12.624823578100          1.788854384947
      0.1873113696D+02  0.3349460434D-01
      0.2825394365D+01  0.2347269535D+00
      0.6401216923D+00  0.8137573261D+00
 Atom H4       Shell    12 S   1     bf   34 -    34         -5.773907342195         12.624823578100          1.788854384947
      0.1612777588D+00  0.1000000000D+01
 Atom C5       Shell    13 S   6     bf   35 -    35          8.072805802394          2.935934323664         -0.784676575747
      0.3047524880D+04  0.1834737132D-02
      0.4573695180D+03  0.1403732281D-01
      0.1039486850D+03  0.6884262226D-01
      0.2921015530D+02  0.2321844432D+00
      0.9286662960D+01  0.4679413484D+00
      0.3163926960D+01  0.3623119853D+00
 Atom C5       Shell    14 SP   3    bf   36 -    39          8.072805802394          2.935934323664         -0.784676575747
      0.7868272350D+01 -0.1193324198D+00  0.6899906659D-01
      0.1881288540D+01 -0.1608541517D+00  0.3164239610D+00
      0.5442492580D+00  0.1143456438D+01  0.7443082909D+00
 Atom C5       Shell    15 SP   1    bf   40 -    43          8.072805802394          2.935934323664         -0.784676575747
      0.1687144782D+00  0.1000000000D+01  0.1000000000D+01
 Atom C5       Shell    16 D   1     bf   44 -    49          8.072805802394          2.935934323664         -0.784676575747
      0.8000000000D+00  0.1000000000D+01
 Atom C6       Shell    17 S   6     bf   50 -    50          5.371280950617          2.017346122756         -1.500118140226
      0.3047524880D+04  0.1834737132D-02
      0.4573695180D+03  0.1403732281D-01
      0.1039486850D+03  0.6884262226D-01
      0.2921015530D+02  0.2321844432D+00
      0.9286662960D+01  0.4679413484D+00
      0.3163926960D+01  0.3623119853D+00
 Atom C6       Shell    18 SP   3    bf   51 -    54          5.371280950617          2.017346122756         -1.500118140226
      0.7868272350D+01 -0.1193324198D+00  0.6899906659D-01
      0.1881288540D+01 -0.1608541517D+00  0.3164239610D+00
      0.5442492580D+00  0.1143456438D+01  0.7443082909D+00
 Atom C6       Shell    19 SP   1    bf   55 -    58          5.371280950617          2.017346122756         -1.500118140226
      0.1687144782D+00  0.1000000000D+01  0.1000000000D+01
 Atom C6       Shell    20 D   1     bf   59 -    64          5.371280950617          2.017346122756         -1.500118140226
      0.8000000000D+00  0.1000000000D+01
 Atom H7       Shell    21 S   3     bf   65 -    65          5.170911399021          2.467401371044         -3.527484592494
      0.1873113696D+02  0.3349460434D-01
      0.2825394365D+01  0.2347269535D+00
      0.6401216923D+00  0.8137573261D+00
 Atom H7       Shell    22 S   1     bf   66 -    66          5.170911399021          2.467401371044         -3.527484592494
      0.1612777588D+00  0.1000000000D+01
 Atom C8       Shell    23 S   6     bf   67 -    67          3.189730174694          3.420515416420         -0.183374753154
      0.3047524880D+04  0.1834737132D-02
      0.4573695180D+03  0.1403732281D-01
      0.1039486850D+03  0.6884262226D-01
      0.2921015530D+02  0.2321844432D+00
      0.9286662960D+01  0.4679413484D+00
      0.3163926960D+01  0.3623119853D+00
 Atom C8       Shell    24 SP   3    bf   68 -    71          3.189730174694          3.420515416420         -0.183374753154
      0.7868272350D+01 -0.1193324198D+00  0.6899906659D-01
      0.1881288540D+01 -0.1608541517D+00  0.3164239610D+00
      0.5442492580D+00  0.1143456438D+01  0.7443082909D+00
 Atom C8       Shell    25 SP   1    bf   72 -    75          3.189730174694          3.420515416420         -0.183374753154
      0.1687144782D+00  0.1000000000D+01  0.1000000000D+01
 Atom C8       Shell    26 D   1     bf   76 -    81          3.189730174694          3.420515416420         -0.183374753154
      0.8000000000D+00  0.1000000000D+01
 Atom H9       Shell    27 S   3     bf   82 -    82          3.287933326978          3.093559517353          1.867088668903
      0.1873113696D+02  0.3349460434D-01
      0.2825394365D+01  0.2347269535D+00
      0.6401216923D+00  0.8137573261D+00
 Atom H9       Shell    28 S   1     bf   83 -    83          3.287933326978          3.093559517353          1.867088668903
      0.1612777588D+00  0.1000000000D+01
 Atom C10      Shell    29 S   6     bf   84 -    84          3.403221134180          6.299484720595         -0.723249402634
      0.3047524880D+04  0.1834737132D-02
      0.4573695180D+03  0.1403732281D-01
      0.1039486850D+03  0.6884262226D-01
      0.2921015530D+02  0.2321844432D+00
      0.9286662960D+01  0.4679413484D+00
      0.3163926960D+01  0.3623119853D+00
 Atom C10      Shell    30 SP   3    bf   85 -    88          3.403221134180          6.299484720595         -0.723249402634
      0.7868272350D+01 -0.1193324198D+00  0.6899906659D-01
      0.1881288540D+01 -0.1608541517D+00  0.3164239610D+00
      0.5442492580D+00  0.1143456438D+01  0.7443082909D+00
 Atom C10      Shell    31 SP   1    bf   89 -    92          3.403221134180          6.299484720595         -0.723249402634
      0.1687144782D+00  0.1000000000D+01  0.1000000000D+01
 Atom C10      Shell    32 D   1     bf   93 -    98          3.403221134180          6.299484720595         -0.723249402634
      0.8000000000D+00  0.1000000000D+01
 Atom H11      Shell    33 S   3     bf   99 -    99          3.067173951661          6.513231492308         -2.768294583025
      0.1873113696D+02  0.3349460434D-01
      0.2825394365D+01  0.2347269535D+00
      0.6401216923D+00  0.8137573261D+00
 Atom H11      Shell    34 S   1     bf  100 -   100          3.067173951661          6.513231492308         -2.768294583025
      0.1612777588D+00  0.1000000000D+01
 Atom C12      Shell    35 S   6     bf  101 -   101          9.704225440251          1.097692947789         -2.443378983470
      0.3047524880D+04  0.1834737132D-02
      0.4573695180D+03  0.1403732281D-01
      0.1039486850D+03  0.6884262226D-01
      0.2921015530D+02  0.2321844432D+00
      0.9286662960D+01  0.4679413484D+00
      0.3163926960D+01  0.3623119853D+00
 Atom C12      Shell    36 SP   3    bf  102 -   105          9.704225440251          1.097692947789         -2.443378983470
      0.7868272350D+01 -0.1193324198D+00  0.6899906659D-01
      0.1881288540D+01 -0.1608541517D+00  0.3164239610D+00
      0.5442492580D+00  0.1143456438D+01  0.7443082909D+00
 Atom C12      Shell    37 SP   1    bf  106 -   109          9.704225440251          1.097692947789         -2.443378983470
      0.1687144782D+00  0.1000000000D+01  0.1000000000D+01
 Atom C12      Shell    38 D   1     bf  110 -   115          9.704225440251          1.097692947789         -2.443378983470
      0.8000000000D+00  0.1000000000D+01
 Atom H13      Shell    39 S   3     bf  116 -   116          9.531865787342          1.788289337936         -4.400057905374
      0.1873113696D+02  0.3349460434D-01
      0.2825394365D+01  0.2347269535D+00
      0.6401216923D+00  0.8137573261D+00
 Atom H13      Shell    40 S   1     bf  117 -   117          9.531865787342          1.788289337936         -4.400057905374
      0.1612777588D+00  0.1000000000D+01
 Atom C14      Shell    41 S   6     bf  118 -   118          8.208459320412          5.759849556109         -1.488901160538
      0.3047524880D+04  0.1834737132D-02
      0.4573695180D+03  0.1403732281D-01
      0.1039486850D+03  0.6884262226D-01
      0.2921015530D+02  0.2321844432D+00
      0.9286662960D+01  0.4679413484D+00
      0.3163926960D+01  0.3623119853D+00
 Atom C14      Shell    42 SP   3    bf  119 -   122          8.208459320412          5.759849556109         -1.488901160538
      0.7868272350D+01 -0.1193324198D+00  0.6899906659D-01
      0.1881288540D+01 -0.1608541517D+00  0.3164239610D+00
      0.5442492580D+00  0.1143456438D+01  0.7443082909D+00
 Atom C14      Shell    43 SP   1    bf  123 -   126          8.208459320412          5.759849556109         -1.488901160538
      0.1687144782D+00  0.1000000000D+01  0.1000000000D+01
 Atom C14      Shell    44 D   1     bf  127 -   132          8.208459320412          5.759849556109         -1.488901160538
      0.8000000000D+00  0.1000000000D+01
 Atom H15      Shell    45 S   3     bf  133 -   133          8.037697657715          5.938473707840         -3.552225264971
      0.1873113696D+02  0.3349460434D-01
      0.2825394365D+01  0.2347269535D+00
      0.6401216923D+00  0.8137573261D+00
 Atom H15      Shell    46 S   1     bf  134 -   134          8.037697657715          5.938473707840         -3.552225264971
      0.1612777588D+00  0.1000000000D+01
 Atom H16      Shell    47 S   3     bf  135 -   135         10.030407553158          6.594027564599         -0.977421724904
      0.1873113696D+02  0.3349460434D-01
      0.2825394365D+01  0.2347269535D+00
      0.6401216923D+00  0.8137573261D+00
 Atom H16      Shell    48 S   1     bf  136 -   136         10.030407553158          6.594027564599         -0.977421724904
      0.1612777588D+00  0.1000000000D+01
 Atom C17      Shell    49 S   6     bf  137 -   137          1.287922285648          7.900028576701          0.599902726056
      0.3047524880D+04  0.1834737132D-02
      0.4573695180D+03  0.1403732281D-01
      0.1039486850D+03  0.6884262226D-01
      0.2921015530D+02  0.2321844432D+00
      0.9286662960D+01  0.4679413484D+00
      0.3163926960D+01  0.3623119853D+00
 Atom C17      Shell    50 SP   3    bf  138 -   141          1.287922285648          7.900028576701          0.599902726056
      0.7868272350D+01 -0.1193324198D+00  0.6899906659D-01
      0.1881288540D+01 -0.1608541517D+00  0.3164239610D+00
      0.5442492580D+00  0.1143456438D+01  0.7443082909D+00
 Atom C17      Shell    51 SP   1    bf  142 -   145          1.287922285648          7.900028576701          0.599902726056
      0.1687144782D+00  0.1000000000D+01  0.1000000000D+01
 Atom C17      Shell    52 D   1     bf  146 -   151          1.287922285648          7.900028576701          0.599902726056
      0.8000000000D+00  0.1000000000D+01
 Atom C18      Shell    53 S   6     bf  152 -   152          5.533812856005         -0.875715436110         -1.317666480493
      0.3047524880D+04  0.1834737132D-02
      0.4573695180D+03  0.1403732281D-01
      0.1039486850D+03  0.6884262226D-01
      0.2921015530D+02  0.2321844432D+00
      0.9286662960D+01  0.4679413484D+00
      0.3163926960D+01  0.3623119853D+00
 Atom C18      Shell    54 SP   3    bf  153 -   156          5.533812856005         -0.875715436110         -1.317666480493
      0.7868272350D+01 -0.1193324198D+00  0.6899906659D-01
      0.1881288540D+01 -0.1608541517D+00  0.3164239610D+00
      0.5442492580D+00  0.1143456438D+01  0.7443082909D+00
 Atom C18      Shell    55 SP   1    bf  157 -   160          5.533812856005         -0.875715436110         -1.317666480493
      0.1687144782D+00  0.1000000000D+01  0.1000000000D+01
 Atom C18      Shell    56 D   1     bf  161 -   166          5.533812856005         -0.875715436110         -1.317666480493
      0.8000000000D+00  0.1000000000D+01
 Atom H19      Shell    57 S   3     bf  167 -   167          4.077115198798         -1.820527933482         -2.434247864590
      0.1873113696D+02  0.3349460434D-01
      0.2825394365D+01  0.2347269535D+00
      0.6401216923D+00  0.8137573261D+00
 Atom H19      Shell    58 S   1     bf  168 -   168          4.077115198798         -1.820527933482         -2.434247864590
      0.1612777588D+00  0.1000000000D+01
 Atom H20      Shell    59 S   3     bf  169 -   169          5.253756803714         -1.500509200152          0.635366573885
      0.1873113696D+02  0.3349460434D-01
      0.2825394365D+01  0.2347269535D+00
      0.6401216923D+00  0.8137573261D+00
 Atom H20      Shell    60 S   1     bf  170 -   170          5.253756803714         -1.500509200152          0.635366573885
      0.1612777588D+00  0.1000000000D+01
 Atom C21      Shell    61 S   6     bf  171 -   171          6.097899659356          7.301153011284         -0.206493076849
      0.3047524880D+04  0.1834737132D-02
      0.4573695180D+03  0.1403732281D-01
      0.1039486850D+03  0.6884262226D-01
      0.2921015530D+02  0.2321844432D+00
      0.9286662960D+01  0.4679413484D+00
      0.3163926960D+01  0.3623119853D+00
 Atom C21      Shell    62 SP   3    bf  172 -   175          6.097899659356          7.301153011284         -0.206493076849
      0.7868272350D+01 -0.1193324198D+00  0.6899906659D-01
      0.1881288540D+01 -0.1608541517D+00  0.3164239610D+00
      0.5442492580D+00  0.1143456438D+01  0.7443082909D+00
 Atom C21      Shell    63 SP   1    bf  176 -   179          6.097899659356          7.301153011284         -0.206493076849
      0.1687144782D+00  0.1000000000D+01  0.1000000000D+01
 Atom C21      Shell    64 D   1     bf  180 -   185          6.097899659356          7.301153011284         -0.206493076849
      0.8000000000D+00  0.1000000000D+01
 Atom H22      Shell    65 S   3     bf  186 -   186          6.451455343469          7.338210994285          1.832757239459
      0.1873113696D+02  0.3349460434D-01
      0.2825394365D+01  0.2347269535D+00
      0.6401216923D+00  0.8137573261D+00
 Atom H22      Shell    66 S   1     bf  187 -   187          6.451455343469          7.338210994285          1.832757239459
      0.1612777588D+00  0.1000000000D+01
 Atom H23      Shell    67 S   3     bf  188 -   188          6.242546119479          9.265380992247         -0.845212138277
      0.1873113696D+02  0.3349460434D-01
      0.2825394365D+01  0.2347269535D+00
      0.6401216923D+00  0.8137573261D+00
 Atom H23      Shell    68 S   1     bf  189 -   189          6.242546119479          9.265380992247         -0.845212138277
      0.1612777588D+00  0.1000000000D+01
 Atom C24      Shell    69 S   6     bf  190 -   190          8.249239478078         -1.473725563650         -2.250790662685
      0.3047524880D+04  0.1834737132D-02
      0.4573695180D+03  0.1403732281D-01
      0.1039486850D+03  0.6884262226D-01
      0.2921015530D+02  0.2321844432D+00
      0.9286662960D+01  0.4679413484D+00
      0.3163926960D+01  0.3623119853D+00
 Atom C24      Shell    70 SP   3    bf  191 -   194          8.249239478078         -1.473725563650         -2.250790662685
      0.7868272350D+01 -0.1193324198D+00  0.6899906659D-01
      0.1881288540D+01 -0.1608541517D+00  0.3164239610D+00
      0.5442492580D+00  0.1143456438D+01  0.7443082909D+00
 Atom C24      Shell    71 SP   1    bf  195 -   198          8.249239478078         -1.473725563650         -2.250790662685
      0.1687144782D+00  0.1000000000D+01  0.1000000000D+01
 Atom C24      Shell    72 D   1     bf  199 -   204          8.249239478078         -1.473725563650         -2.250790662685
      0.8000000000D+00  0.1000000000D+01
 Atom H25      Shell    73 S   3     bf  205 -   205          9.215550369212         -2.753193214579         -0.937388953923
      0.1873113696D+02  0.3349460434D-01
      0.2825394365D+01  0.2347269535D+00
      0.6401216923D+00  0.8137573261D+00
 Atom H25      Shell    74 S   1     bf  206 -   206          9.215550369212         -2.753193214579         -0.937388953923
      0.1612777588D+00  0.1000000000D+01
 Atom H26      Shell    75 S   3     bf  207 -   207          8.213629932365         -2.438355222135         -4.079493570315
      0.1873113696D+02  0.3349460434D-01
      0.2825394365D+01  0.2347269535D+00
      0.6401216923D+00  0.8137573261D+00
 Atom H26      Shell    76 S   1     bf  208 -   208          8.213629932365         -2.438355222135         -4.079493570315
      0.1612777588D+00  0.1000000000D+01
 Atom C27      Shell    77 S   6     bf  209 -   209          0.602576329486          2.427559141148         -1.079542317255
      0.3047524880D+04  0.1834737132D-02
      0.4573695180D+03  0.1403732281D-01
      0.1039486850D+03  0.6884262226D-01
      0.2921015530D+02  0.2321844432D+00
      0.9286662960D+01  0.4679413484D+00
      0.3163926960D+01  0.3623119853D+00
 Atom C27      Shell    78 SP   3    bf  210 -   213          0.602576329486          2.427559141148         -1.079542317255
      0.7868272350D+01 -0.1193324198D+00  0.6899906659D-01
      0.1881288540D+01 -0.1608541517D+00  0.3164239610D+00
      0.5442492580D+00  0.1143456438D+01  0.7443082909D+00
 Atom C27      Shell    79 SP   1    bf  214 -   217          0.602576329486          2.427559141148         -1.079542317255
      0.1687144782D+00  0.1000000000D+01  0.1000000000D+01
 Atom C27      Shell    80 D   1     bf  218 -   223          0.602576329486          2.427559141148         -1.079542317255
      0.8000000000D+00  0.1000000000D+01
 Atom H28      Shell    81 S   3     bf  224 -   224          0.703319519357          2.031990933368         -3.116433102616
      0.1873113696D+02  0.3349460434D-01
      0.2825394365D+01  0.2347269535D+00
      0.6401216923D+00  0.8137573261D+00
 Atom H28      Shell    82 S   1     bf  225 -   225          0.703319519357          2.031990933368         -3.116433102616
      0.1612777588D+00  0.1000000000D+01
 Atom C29      Shell    83 S   6     bf  226 -   226         12.571644549330          0.812942324455         -1.903563917055
      0.3047524880D+04  0.1834737132D-02
      0.4573695180D+03  0.1403732281D-01
      0.1039486850D+03  0.6884262226D-01
      0.2921015530D+02  0.2321844432D+00
      0.9286662960D+01  0.4679413484D+00
      0.3163926960D+01  0.3623119853D+00
 Atom C29      Shell    84 SP   3    bf  227 -   230         12.571644549330          0.812942324455         -1.903563917055
      0.7868272350D+01 -0.1193324198D+00  0.6899906659D-01
      0.1881288540D+01 -0.1608541517D+00  0.3164239610D+00
      0.5442492580D+00  0.1143456438D+01  0.7443082909D+00
 Atom C29      Shell    85 SP   1    bf  231 -   234         12.571644549330          0.812942324455         -1.903563917055
      0.1687144782D+00  0.1000000000D+01  0.1000000000D+01
 Atom C29      Shell    86 D   1     bf  235 -   240         12.571644549330          0.812942324455         -1.903563917055
      0.8000000000D+00  0.1000000000D+01
 Atom H30      Shell    87 S   3     bf  241 -   241         12.779518316783          0.000000000000          0.000000000000
      0.1873113696D+02  0.3349460434D-01
      0.2825394365D+01  0.2347269535D+00
      0.6401216923D+00  0.8137573261D+00
 Atom H30      Shell    88 S   1     bf  242 -   242         12.779518316783          0.000000000000          0.000000000000
      0.1612777588D+00  0.1000000000D+01
 Atom C31      Shell    89 S   6     bf  243 -   243          8.664313420105          2.543070011624          2.049448676918
      0.3047524880D+04  0.1834737132D-02
      0.4573695180D+03  0.1403732281D-01
      0.1039486850D+03  0.6884262226D-01
      0.2921015530D+02  0.2321844432D+00
      0.9286662960D+01  0.4679413484D+00
      0.3163926960D+01  0.3623119853D+00
 Atom C31      Shell    90 SP   3    bf  244 -   247          8.664313420105          2.543070011624          2.049448676918
      0.7868272350D+01 -0.1193324198D+00  0.6899906659D-01
      0.1881288540D+01 -0.1608541517D+00  0.3164239610D+00
      0.5442492580D+00  0.1143456438D+01  0.7443082909D+00
 Atom C31      Shell    91 SP   1    bf  248 -   251          8.664313420105          2.543070011624          2.049448676918
      0.1687144782D+00  0.1000000000D+01  0.1000000000D+01
 Atom C31      Shell    92 D   1     bf  252 -   257          8.664313420105          2.543070011624          2.049448676918
      0.8000000000D+00  0.1000000000D+01
 Atom H32      Shell    93 S   3     bf  258 -   258          7.298032638802          3.489038586752          3.276643517245
      0.1873113696D+02  0.3349460434D-01
      0.2825394365D+01  0.2347269535D+00
      0.6401216923D+00  0.8137573261D+00
 Atom H32      Shell    94 S   1     bf  259 -   259          7.298032638802          3.489038586752          3.276643517245
      0.1612777588D+00  0.1000000000D+01
 Atom H33      Shell    95 S   3     bf  260 -   260          8.664040751521          0.541625480741          2.567117211302
      0.1873113696D+02  0.3349460434D-01
      0.2825394365D+01  0.2347269535D+00
      0.6401216923D+00  0.8137573261D+00
 Atom H33      Shell    96 S   1     bf  261 -   261          8.664040751521          0.541625480741          2.567117211302
      0.1612777588D+00  0.1000000000D+01
 Atom H34      Shell    97 S   3     bf  262 -   262         10.531673396989          3.300045016400          2.519734785164
      0.1873113696D+02  0.3349460434D-01
      0.2825394365D+01  0.2347269535D+00
      0.6401216923D+00  0.8137573261D+00
 Atom H34      Shell    98 S   1     bf  263 -   263         10.531673396989          3.300045016400          2.519734785164
      0.1612777588D+00  0.1000000000D+01
 Atom C35      Shell    99 S   6     bf  264 -   264         -1.288008513851          6.631895956651          0.220436477812
      0.3047524880D+04  0.1834737132D-02
      0.4573695180D+03  0.1403732281D-01
      0.1039486850D+03  0.6884262226D-01
      0.2921015530D+02  0.2321844432D+00
      0.9286662960D+01  0.4679413484D+00
      0.3163926960D+01  0.3623119853D+00
 Atom C35      Shell   100 SP   3    bf  265 -   268         -1.288008513851          6.631895956651          0.220436477812
      0.7868272350D+01 -0.1193324198D+00  0.6899906659D-01
      0.1881288540D+01 -0.1608541517D+00  0.3164239610D+00
      0.5442492580D+00  0.1143456438D+01  0.7443082909D+00
 Atom C35      Shell   101 SP   1    bf  269 -   272         -1.288008513851          6.631895956651          0.220436477812
      0.1687144782D+00  0.1000000000D+01  0.1000000000D+01
 Atom C35      Shell   102 D   1     bf  273 -   278         -1.288008513851          6.631895956651          0.220436477812
      0.8000000000D+00  0.1000000000D+01
 Atom C36      Shell   103 S   6     bf  279 -   279          1.195769072682         10.565354099239         -0.660272200556
      0.3047524880D+04  0.1834737132D-02
      0.4573695180D+03  0.1403732281D-01
      0.1039486850D+03  0.6884262226D-01
      0.2921015530D+02  0.2321844432D+00
      0.9286662960D+01  0.4679413484D+00
      0.3163926960D+01  0.3623119853D+00
 Atom C36      Shell   104 SP   3    bf  280 -   283          1.195769072682         10.565354099239         -0.660272200556
      0.7868272350D+01 -0.1193324198D+00  0.6899906659D-01
      0.1881288540D+01 -0.1608541517D+00  0.3164239610D+00
      0.5442492580D+00  0.1143456438D+01  0.7443082909D+00
 Atom C36      Shell   105 SP   1    bf  284 -   287          1.195769072682         10.565354099239         -0.660272200556
      0.1687144782D+00  0.1000000000D+01  0.1000000000D+01
 Atom C36      Shell   106 D   1     bf  288 -   293          1.195769072682         10.565354099239         -0.660272200556
      0.8000000000D+00  0.1000000000D+01
 Atom H37      Shell   107 S   3     bf  294 -   294          1.216055566177         10.309749515737         -2.720765589728
      0.1873113696D+02  0.3349460434D-01
      0.2825394365D+01  0.2347269535D+00
      0.6401216923D+00  0.8137573261D+00
 Atom H37      Shell   108 S   1     bf  295 -   295          1.216055566177         10.309749515737         -2.720765589728
      0.1612777588D+00  0.1000000000D+01
 Atom H38      Shell   109 S   3     bf  296 -   296          2.915162472908         11.613139228680         -0.182447842486
      0.1873113696D+02  0.3349460434D-01
      0.2825394365D+01  0.2347269535D+00
      0.6401216923D+00  0.8137573261D+00
 Atom H38      Shell   110 S   1     bf  297 -   297          2.915162472908         11.613139228680         -0.182447842486
      0.1612777588D+00  0.1000000000D+01
 Atom C39      Shell   111 S   6     bf  298 -   298         -1.527087423423          4.240748398782         -0.584458466804
      0.3047524880D+04  0.1834737132D-02
[...]
 1575 Fit       0.001471
 1576 Fit       0.000102
 1577 Fit       0.000162
 1578 Fit      -0.002340
 1579 Fit      -0.002449
 1580 Fit      -0.002900
 1581 Fit      -0.002163
 1582 Fit      -0.002708
 1583 Fit      -0.002492
 1584 Fit      -0.002320
 1585 Fit      -0.001135
 1586 Fit       0.001849
 1587 Fit      -0.000358
 1588 Fit       0.001987
 1589 Fit       0.002986
 1590 Fit      -0.002210
 1591 Fit      -0.000302
 1592 Fit       0.001724
 1593 Fit       0.003608
 1594 Fit      -0.000735
 1595 Fit       0.000999
 1596 Fit      -0.001075
 1597 Fit       0.000756
 1598 Fit      -0.001295
 1599 Fit       0.001953
 1600 Fit       0.001240
 1601 Fit      -0.000684
 1602 Fit       0.002392
 1603 Fit       0.002242
 1604 Fit       0.000297
 1605 Fit      -0.001673
 1606 Fit       0.000848
 1607 Fit       0.001150
 1608 Fit      -0.001612
 1609 Fit      -0.001139
 1610 Fit      -0.002043
 1611 Fit      -0.000926
 1612 Fit      -0.000134
 1613 Fit      -0.002012
 1614 Fit      -0.000769
 1615 Fit       0.000520
 1616 Fit       0.001379
 1617 Fit       0.001772
 1618 Fit       0.000202
 1619 Fit       0.001621
 1620 Fit       0.002467
 1621 Fit       0.002401
 1622 Fit       0.000862
 1623 Fit      -0.000213
 1624 Fit       0.001700
 1625 Fit      -0.003533
 1626 Fit      -0.001818
 1627 Fit      -0.007018
 1628 Fit      -0.011076
 1629 Fit      -0.014043
 1630 Fit      -0.015600
 1631 Fit      -0.010423
 1632 Fit      -0.016048
 1633 Fit      -0.019466
 1634 Fit      -0.021571
 1635 Fit      -0.022678
 1636 Fit      -0.015409
 1637 Fit      -0.021542
 1638 Fit      -0.024405
 1639 Fit      -0.025071
 1640 Fit      -0.019785
 1641 Fit      -0.022903
 1642 Fit      -0.021953
 1643 Fit       0.016809
 1644 Fit       0.015272
 1645 Fit       0.018586
 1646 Fit       0.016911
 1647 Fit       0.015449
 1648 Fit       0.013076
 1649 Fit       0.012163
 1650 Fit       0.011849
 1651 Fit       0.010164
 1652 Fit       0.007211
 1653 Fit       0.004445
 1654 Fit       0.003107
 1655 Fit       0.005004
 1656 Fit       0.004583
 1657 Fit       0.000612
 1658 Fit      -0.003605
 1659 Fit       0.002566
 1660 Fit      -0.002688
 1661 Fit      -0.005228
 1662 Fit      -0.007818
 1663 Fit      -0.009340
 1664 Fit      -0.008062
 1665 Fit      -0.010734
 1666 Fit      -0.013672
 1667 Fit      -0.015606
 1668 Fit      -0.017258
 1669 Fit      -0.018630
 1670 Fit      -0.018905
 1671 Fit      -0.016630
 1672 Fit      -0.019309
 1673 Fit      -0.022217
 1674 Fit      -0.023765
 1675 Fit      -0.024399
 1676 Fit      -0.023401
 1677 Fit      -0.019190
 1678 Fit      -0.019764
 1679 Fit      -0.023859
 1680 Fit      -0.025275
 1681 Fit      -0.024396
 1682 Fit      -0.020326
 1683 Fit      -0.020058
 1684 Fit      -0.019924
 1685 Fit       0.022333
 1686 Fit       0.025296
 1687 Fit       0.021654
 1688 Fit       0.018756
 1689 Fit       0.017384
 1690 Fit       0.019271
 1691 Fit       0.016647
 1692 Fit       0.014025
 1693 Fit       0.011955
 1694 Fit       0.010164
 1695 Fit       0.009220
 1696 Fit       0.010543
 1697 Fit       0.006514
 1698 Fit       0.004120
 1699 Fit       0.002021
 1700 Fit      -0.000246
 1701 Fit       0.004247
 1702 Fit       0.004337
 1703 Fit       0.003047
 1704 Fit       0.000890
 1705 Fit       0.001031
 1706 Fit       0.002685
 1707 Fit       0.014148
 1708 Fit       0.008799
 1709 Fit       0.005752
 1710 Fit       0.005983
 1711 Fit       0.004220
 1712 Fit       0.005066
 1713 Fit       0.005228
 1714 Fit       0.002534
 1715 Fit       0.002904
 1716 Fit       0.001841
 1717 Fit       0.000387
 1718 Fit       0.001603
 1719 Fit       0.001011
 1720 Fit       0.002519
 1721 Fit       0.001829
 1722 Fit       0.002563
 1723 Fit       0.003898
 1724 Fit       0.005218
 1725 Fit       0.003109
 1726 Fit       0.003301
 1727 Fit       0.004269
 1728 Fit       0.004717
 1729 Fit       0.004171
 1730 Fit       0.003879
 1731 Fit       0.005379
 1732 Fit       0.005671
 1733 Fit       0.005047
 1734 Fit       0.004155
 1735 Fit       0.004426
 1736 Fit       0.002577
 1737 Fit       0.003347
 1738 Fit       0.001427
 1739 Fit      -0.011183
 1740 Fit      -0.007240
 1741 Fit      -0.021310
 1742 Fit      -0.013058
 1743 Fit      -0.014745
 1744 Fit      -0.009825
 1745 Fit      -0.007724
 1746 Fit      -0.011900
 1747 Fit      -0.009265
 1748 Fit      -0.006560
 1749 Fit      -0.004503
 1750 Fit      -0.004889
 1751 Fit      -0.002500
 1752 Fit       0.002931
 1753 Fit       0.004093
 1754 Fit       0.000276
 1755 Fit       0.001487
 1756 Fit      -0.005857
 1757 Fit      -0.003478
 1758 Fit      -0.000762
 1759 Fit      -0.014727
 1760 Fit      -0.008423
 1761 Fit      -0.004753
 1762 Fit       0.005152
 1763 Fit       0.005324
 1764 Fit       0.007532
 1765 Fit       0.004727
 1766 Fit       0.006383
 1767 Fit       0.006054
 1768 Fit       0.007859
 1769 Fit       0.007503
 1770 Fit       0.004686
 1771 Fit       0.006080
 1772 Fit       0.008489
 1773 Fit       0.003993
 1774 Fit       0.005674
 1775 Fit       0.007475
 1776 Fit       0.003838
 1777 Fit       0.005654
 1778 Fit       0.006418
 1779 Fit       0.004702
 1780 Fit       0.005610
 1781 Fit      -0.006254
 1782 Fit      -0.005779
 1783 Fit      -0.003614
 1784 Fit       0.000934
 1785 Fit       0.002070
 1786 Fit      -0.000846
 1787 Fit       0.000917
 1788 Fit       0.001945
 1789 Fit      -0.003049
 1790 Fit      -0.000743
 1791 Fit       0.000665
 1792 Fit      -0.001734
 1793 Fit      -0.005079
 1794 Fit      -0.003470
 1795 Fit      -0.001921
 1796 Fit      -0.002934
 1797 Fit      -0.002571
 1798 Fit      -0.001567
 1799 Fit      -0.000838
 1800 Fit      -0.001496
 1801 Fit      -0.000365
 1802 Fit      -0.000041
 1803 Fit      -0.000890
 1804 Fit      -0.000845
 1805 Fit      -0.000659
 1806 Fit      -0.000352
 1807 Fit      -0.004441
 1808 Fit      -0.007972
 1809 Fit      -0.008042
 1810 Fit       0.004053
 1811 Fit       0.001656
 1812 Fit      -0.000604
 1813 Fit      -0.002037
 1814 Fit      -0.000244
 1815 Fit       0.001519
 1816 Fit       0.001566
 1817 Fit       0.001953
 1818 Fit       0.000978
 1819 Fit       0.002435
 1820 Fit       0.002244
 1821 Fit       0.001983
 1822 Fit       0.001000
 1823 Fit       0.002208
 1824 Fit       0.002037
 1825 Fit       0.000884
 1826 Fit       0.003133
 1827 Fit       0.002930
 1828 Fit       0.000540
 1829 Fit       0.004553
 1830 Fit       0.004398
 1831 Fit       0.004381
 1832 Fit       0.007069
 1833 Fit       0.007837
 1834 Fit       0.004437
 1835 Fit       0.005266
 1836 Fit       0.005916
 1837 Fit       0.002177
 1838 Fit       0.001590
 1839 Fit       0.002480
 1840 Fit       0.002395
 1841 Fit       0.002308
 1842 Fit       0.001468
 1843 Fit       0.002671
 1844 Fit       0.002742
 1845 Fit       0.001970
 1846 Fit       0.002648
 1847 Fit       0.002702
 1848 Fit       0.003790
 1849 Fit       0.004103
 1850 Fit       0.001452
 1851 Fit       0.005385
 1852 Fit       0.005255
 1853 Fit       0.005728
 1854 Fit       0.005056
 1855 Fit       0.004650
 1856 Fit       0.004488
 1857 Fit       0.001556
 1858 Fit       0.005699
 1859 Fit       0.004996
 1860 Fit       0.004642
 1861 Fit       0.004819
 1862 Fit       0.004817
 1863 Fit       0.006214
 1864 Fit       0.005276
 1865 Fit       0.009707
 1866 Fit       0.008837
 1867 Fit       0.009028
 1868 Fit       0.008353
 1869 Fit       0.007458
 1870 Fit       0.007440
 1871 Fit       0.006608
 1872 Fit       0.006890
 1873 Fit       0.005832
 1874 Fit       0.004126
 1875 Fit      -0.002885
 1876 Fit       0.000180
 1877 Fit      -0.002898
 1878 Fit      -0.003147
 1879 Fit       0.003349
 1880 Fit       0.001722
 1881 Fit       0.001545
 1882 Fit      -0.003228
 1883 Fit       0.002326
 1884 Fit       0.000210
 1885 Fit      -0.005081
 1886 Fit       0.000038
 1887 Fit      -0.000518
 1888 Fit      -0.004170
 1889 Fit      -0.012133
 1890 Fit      -0.002094
 1891 Fit      -0.003853
 1892 Fit       0.006373
 1893 Fit       0.005865
 1894 Fit       0.006282
 1895 Fit       0.007166
 1896 Fit       0.006355
 1897 Fit       0.010191
 1898 Fit       0.008055
 1899 Fit       0.006563
 1900 Fit       0.006928
 1901 Fit       0.007581
 1902 Fit       0.007872
 1903 Fit       0.007983
 1904 Fit       0.008196
 1905 Fit       0.007448
 1906 Fit       0.008357
 1907 Fit       0.008823
 1908 Fit       0.008941
 1909 Fit       0.009454
 1910 Fit       0.009952
 1911 Fit       0.008126
 1912 Fit       0.008057
 1913 Fit       0.010931
 1914 Fit       0.010910
 1915 Fit       0.008308
 1916 Fit       0.012417
 1917 Fit       0.016217
 1918 Fit       0.016518
 1919 Fit       0.009062
 1920 Fit       0.006945
 1921 Fit       0.006779
 1922 Fit       0.008703
 1923 Fit       0.008384
 1924 Fit       0.007354
 1925 Fit       0.010902
 1926 Fit       0.012152
 1927 Fit       0.010504
 1928 Fit       0.008890
 1929 Fit       0.005604
 1930 Fit       0.003533
 1931 Fit       0.002370
 1932 Fit       0.003659
 1933 Fit       0.001856
 1934 Fit       0.003286
 1935 Fit      -0.003188
 1936 Fit       0.001116
 1937 Fit       0.003356
 1938 Fit      -0.005806
 1939 Fit       0.000042
 1940 Fit       0.003297
 1941 Fit      -0.011172
 1942 Fit      -0.002561
 1943 Fit       0.001593
 1944 Fit      -0.004008
 1945 Fit      -0.000763
 1946 Fit       0.013495
 1947 Fit       0.017523
 1948 Fit       0.012208
 1949 Fit       0.009724
 1950 Fit       0.013274
 1951 Fit       0.007757
 1952 Fit       0.006443
 1953 Fit       0.006661
 1954 Fit       0.007307
 1955 Fit       0.011941
 1956 Fit       0.015690
 1957 Fit       0.021826
 1958 Fit       0.009321
 1959 Fit       0.009127
 1960 Fit       0.010798
 1961 Fit       0.017719
 1962 Fit       0.007046
 1963 Fit       0.006168
 1964 Fit       0.006670
 1965 Fit       0.005028
 1966 Fit       0.003326
 1967 Fit       0.000415
 1968 Fit      -0.006165
 1969 Fit       0.006088
 1970 Fit       0.004734
 1971 Fit       0.002915
 1972 Fit      -0.000645
 1973 Fit      -0.008578
 1974 Fit       0.004838
 1975 Fit       0.003355
 1976 Fit       0.000142
 1977 Fit      -0.006454
 1978 Fit       0.002937
 1979 Fit      -0.000861
 1980 Fit       0.002682
 1981 Fit      -0.001639
 1982 Fit       0.000383
 1983 Fit      -0.000058
 1984 Fit      -0.000010
 1985 Fit      -0.002319
 1986 Fit       0.001088
 1987 Fit       0.001470
 1988 Fit       0.002217
 1989 Fit       0.002088
 1990 Fit      -0.001167
 1991 Fit       0.001493
 1992 Fit       0.001410
 1993 Fit       0.000135
 1994 Fit      -0.001081
 1995 Fit       0.000664
 1996 Fit      -0.008891
 1997 Fit       0.000603
 1998 Fit      -0.007300
 1999 Fit      -0.013686
 2000 Fit      -0.013213
 2001 Fit      -0.007696
 2002 Fit      -0.002815
 2003 Fit      -0.001793
 2004 Fit      -0.001148
 2005 Fit       0.004041
 2006 Fit       0.001086
 2007 Fit      -0.003721
 2008 Fit      -0.003868
 2009 Fit      -0.000708
 2010 Fit       0.001983
 2011 Fit       0.000464
 2012 Fit       0.001131
 2013 Fit       0.000689
 2014 Fit       0.000473
 2015 Fit       0.000317
 2016 Fit      -0.000259
 2017 Fit      -0.000011
 2018 Fit      -0.000716
 2019 Fit      -0.000656
 2020 Fit       0.000233
 2021 Fit      -0.000452
 2022 Fit      -0.000780
 2023 Fit      -0.000331
 2024 Fit      -0.000358
 2025 Fit       0.000536
 2026 Fit       0.000849
 2027 Fit      -0.000260
 2028 Fit       0.000320
 2029 Fit       0.001210
 2030 Fit       0.001862
 2031 Fit       0.002194
 2032 Fit       0.001140
 2033 Fit       0.001846
 2034 Fit       0.002554
 2035 Fit       0.002787
 2036 Fit       0.002233
 2037 Fit       0.000899
 2038 Fit       0.002113
 2039 Fit       0.001193
 2040 Fit       0.001595
 2041 Fit       0.003293
 2042 Fit       0.001844
 2043 Fit       0.000352
 2044 Fit       0.001526
 2045 Fit      -0.000133
 2046 Fit       0.000182
 2047 Fit       0.002466
 2048 Fit       0.004349
 2049 Fit       0.001625
 2050 Fit       0.003674
 2051 Fit       0.005848
 2052 Fit       0.001165
 2053 Fit       0.003349
 2054 Fit       0.001341
 2055 Fit       0.000519
 2056 Fit       0.001762
 2057 Fit       0.000517
 2058 Fit       0.000421
 2059 Fit       0.002012
 2060 Fit       0.001414
 2061 Fit       0.001737
 2062 Fit       0.001503
 2063 Fit       0.001245
 2064 Fit       0.000077
 2065 Fit       0.000562
 2066 Fit      -0.002790
 2067 Fit      -0.002412
 2068 Fit      -0.001554
 2069 Fit       0.000835
 2070 Fit       0.001895
 2071 Fit       0.001523
 2072 Fit      -0.002189
 2073 Fit       0.001138
 2074 Fit       0.001620
 2075 Fit       0.001082
 2076 Fit      -0.000185
 2077 Fit      -0.000728
 2078 Fit       0.000009
 2079 Fit       0.000691
 2080 Fit       0.001000
 2081 Fit       0.000467
 2082 Fit       0.000846
 2083 Fit       0.001342
 2084 Fit      -0.000229
 2085 Fit       0.000229
 2086 Fit       0.000426
 2087 Fit       0.000183
 2088 Fit      -0.001689
 2089 Fit      -0.000888
 2090 Fit      -0.000648
 2091 Fit      -0.002121
 2092 Fit      -0.000142
 2093 Fit       0.000068
 2094 Fit       0.000243
 2095 Fit       0.000453
 2096 Fit       0.000528
 2097 Fit      -0.000233
 2098 Fit       0.000469
 2099 Fit       0.000695
 2100 Fit       0.000459
 2101 Fit       0.000017
 2102 Fit      -0.000619
 2103 Fit       0.000169
 2104 Fit       0.000538
 2105 Fit       0.000162
 2106 Fit      -0.001925
 2107 Fit      -0.002192
 2108 Fit      -0.001704
 2109 Fit      -0.000946
 2110 Fit      -0.002145
 2111 Fit      -0.002274
 2112 Fit      -0.001679
 2113 Fit      -0.002012
 2114 Fit      -0.001790
 2115 Fit      -0.001554
 2116 Fit      -0.000863
 2117 Fit      -0.000926
 2118 Fit       0.000385
 2119 Fit      -0.000394
 2120 Fit       0.001175
 2121 Fit       0.001786
 2122 Fit       0.000786
 2123 Fit      -0.001005
 2124 Fit      -0.001468
 2125 Fit      -0.001452
 2126 Fit       0.000010
 2127 Fit       0.001549
 2128 Fit       0.002049
 2129 Fit      -0.000061
 2130 Fit      -0.001410
 2131 Fit      -0.001707
 2132 Fit       0.000026
 2133 Fit      -0.001212
 2134 Fit      -0.000742
 2135 Fit       0.000203
 2136 Fit       0.001204
 2137 Fit       0.000062
 2138 Fit      -0.000747
 2139 Fit       0.000642
 2140 Fit       0.001349
 2141 Fit       0.002158
 2142 Fit      -0.000534
 2143 Fit       0.000888
 2144 Fit       0.001754
 2145 Fit       0.000123
 2146 Fit       0.001301
 2147 Fit      -0.001031
 2148 Fit      -0.001159
 2149 Fit      -0.000056
 2150 Fit       0.000278
 2151 Fit       0.000284
 2152 Fit      -0.000575
 2153 Fit       0.000728
 2154 Fit       0.001133
 2155 Fit       0.001024
 2156 Fit       0.000220
 2157 Fit      -0.001155
 2158 Fit       0.001562
 2159 Fit       0.001170
 2160 Fit       0.000310
 2161 Fit      -0.001033
 2162 Fit       0.000861
 2163 Fit      -0.000115
 2164 Fit      -0.001571
 2165 Fit      -0.001611
 2166 Fit      -0.001926
 2167 Fit      -0.002133
 2168 Fit      -0.001706
 2169 Fit      -0.000913
 2170 Fit       0.000025
 2171 Fit      -0.001866
 2172 Fit      -0.001509
 2173 Fit      -0.001202
 2174 Fit      -0.000581
 2175 Fit      -0.000069
 2176 Fit       0.001601
 2177 Fit       0.002365
 2178 Fit      -0.001331
 2179 Fit       0.000084
 2180 Fit       0.001608
 2181 Fit       0.003024
 2182 Fit      -0.001441
 2183 Fit      -0.000090
 2184 Fit       0.001307
 2185 Fit       0.003181
 2186 Fit      -0.000306
 2187 Fit       0.001113
 2188 Fit      -0.001190
 2189 Fit       0.000196
 2190 Fit      -0.001188
 2191 Fit       0.001187
 2192 Fit       0.000835
 2193 Fit      -0.000526
 2194 Fit       0.002174
 2195 Fit       0.001681
 2196 Fit       0.000657
 2197 Fit      -0.000678
 2198 Fit       0.001160
 2199 Fit       0.001528
 2200 Fit       0.001402
 2201 Fit      -0.000244
 2202 Fit      -0.001563
 2203 Fit       0.000280
 2204 Fit       0.000391
 2205 Fit      -0.001037
 2206 Fit      -0.000186
 2207 Fit       0.000416
 2208 Fit       0.000675
 2209 Fit      -0.001106
 2210 Fit      -0.000250
 2211 Fit       0.000688
 2212 Fit       0.001364
 2213 Fit       0.001761
 2214 Fit       0.000291
 2215 Fit       0.001252
 2216 Fit       0.001904
 2217 Fit       0.001853
 2218 Fit       0.000780
 2219 Fit       0.000046
 2220 Fit       0.001278
 -----------------------------------------------------------------
 Leave Link  602 at Thu May 18 13:39:42 2017, MaxMem=    33554432 cpu:         3.3
 (Enter /home/michal/g09/l9999.exe)

 Test job not archived.
 1\1\GINC-LINUX\SP\RHF\6-31G(d)\C27H46O2\MICHAL\18-May-2017\0\\#P HF/6-
 31G* SCF(Conver=6) NoSymm Test Pop=mk IOp(6/33=2) GFInput GFPrint\\MEP
  - Input generated by R.E.D.-III.x MOLECULE\\0,1\O,0,0.,0.,0.\H,0,-0.2
 2963235,0.1369872,0.92994782\O,0,-3.05422899,6.48061203,0.\H,0,-3.0554
 2017,6.6807689,0.94662097\C,0,4.27194484,1.55362953,-0.41523296\C,0,2.
 84235946,1.06753359,-0.79382833\H,0,2.73632846,1.30569257,-1.86666445\
 C,0,1.68793251,1.8100588,-0.09703774\H,0,1.73989938,1.63704119,0.98802
 077\C,0,1.80090706,3.33354374,-0.3827271\H,0,1.62307855,3.44665366,-1.
 4649184\C,0,5.13525493,0.58087409,-1.29298047\H,0,5.04404613,0.9463219
 6,-2.32841036\C,0,4.34372959,3.04798111,-0.78789256\H,0,4.25336641,3.1
 4250494,-1.87975665\H,0,5.30786307,3.4894091,-0.5172293\C,0,0.68153912
 ,4.18051507,0.31745485\C,0,2.92836764,-0.46340865,-0.69727907\H,0,2.15
 751644,-0.96338189,-1.28814849\H,0,2.78016836,-0.79403527,0.33622151\C
 ,0,3.22686952,3.86360377,-0.10927143\H,0,3.41396313,3.88321401,0.96985
 336\H,0,3.30341313,4.90302845,-0.447267\C,0,4.36530952,-0.77986198,-1.
 19106712\H,0,4.87665922,-1.4569271,-0.49604487\H,0,4.34646576,-1.29032
 201,-2.15877502\C,0,0.31886966,1.28460897,-0.57126919\H,0,0.37218066,1
 .07528329,-1.64914537\C,0,6.65262777,0.43019055,-1.00732264\H,0,6.7626
 2983,0.,0.\C,0,4.58495719,1.34573469,1.08452153\H,0,3.86195254,1.84631
 97,1.73392507\H,0,4.5848129,0.28661586,1.35845992\H,0,5.57312153,1.746
 30861,1.33338622\C,0,-0.68158475,3.50944819,0.11664996\C,0,0.63277374,
 5.59094459,-0.349401\H,0,0.64350889,5.45568447,-1.43976714\H,0,1.54263
 754,6.1454086,-0.09654724\C,0,-0.80809986,2.2441074,-0.3092821\H,0,-1.
 80272799,1.82699687,-0.46682184\C,0,0.94398526,4.33521832,1.83955024\H
 ,0,1.81837174,4.96464921,2.03155384\H,0,0.09533016,4.79918626,2.348911
 31\H,0,1.11199466,3.36331065,2.31359594\C,0,-1.91456317,4.3431091,0.41
 070052\H,0,-2.81896159,3.79350681,0.13191951\H,0,-1.98326009,4.5363365
 2,1.49356795\C,0,-0.59311759,6.44099976,0.01856875\H,0,-0.57934341,6.6
 9306589,1.08938982\H,0,-0.56708452,7.39101803,-0.52716738\C,0,7.286321
 11,-0.5732313,-2.00328716\H,0,6.65392665,-1.46555699,-2.07090479\H,0,7
 .2829155,-0.12240273,-3.00779704\C,0,-1.89261585,5.70323363,-0.3024365
 6\H,0,-1.95471662,5.53847923,-1.38503797\C,0,7.41575325,1.7664017,-1.0
 3964904\H,0,7.26351255,2.28119799,-1.99675121\H,0,8.4915748,1.61113002
 ,-0.91546389\H,0,7.0992155,2.44345125,-0.24316165\C,0,8.71170013,-1.03
 662444,-1.65904661\H,0,9.39769544,-0.1820477,-1.65853827\H,0,8.7144919
 2,-1.43742835,-0.6362024\C,0,9.22628325,-2.10368093,-2.6392032\H,0,9.1
 8088284,-1.69409259,-3.65879968\H,0,8.5330738,-2.95715186,-2.62558735\
 C,0,10.65724739,-2.63713816,-2.39477881\H,0,10.83775317,-3.38516726,-3
 .18101977\C,0,10.79782204,-3.35924794,-1.0444764\H,0,10.69409207,-2.66
 552286,-0.20217571\H,0,11.78170445,-3.83420304,-0.9568449\H,0,10.03806
 503,-4.14128512,-0.92915525\C,0,11.7319757,-1.548787,-2.55371879\H,0,1
 1.66136412,-0.79167347,-1.76423443\H,0,12.73697801,-1.9827973,-2.50010
 72\H,0,11.64091823,-1.03581274,-3.51843288\\Version=EM64L-G09RevD.01\H
 F=-1198.9273872\RMSD=4.888e-07\Dipole=0.5688891,0.4616976,0.7470502\Qu
 adrupole=-4.3029175,-0.5405495,4.843467,7.3421434,-3.8301118,6.2924646
 \PG=C01 [X(C27H46O2)]\\@


 GOOD SENSE ABOUT TRIVIALITIES IS BETTER THAN NONSENSE
 ABOUT THINGS THAT MATTER

                                       -- MAX BEERBOHM
 Job cpu time:       0 days  0 hours 10 minutes 42.2 seconds.
 File lengths (MBytes):  RWF=    150 Int=      0 D2E=      0 Chk=     11 Scr=      1
 Normal termination of Gaussian 09 at Thu May 18 13:39:42 2017.
