 Entering Gaussian System, Link 0=/home/michal/g09/g09
 Input=JOB2-gau_m1-11-3.com
 Output=JOB2-gau_m1-11-3.log
 Initial command:
 /home/michal/g09/l1.exe "/home/michal/gauss_scratch/Gau-24225.inp" -scrdir="/home/michal/gauss_scratch/"
 Entering Link 1 = /home/michal/g09/l1.exe PID=     24226.
  
 Copyright (c) 1988,1990,1992,1993,1995,1998,2003,2009,2013,
            Gaussian, Inc.  All Rights Reserved.
  
 This is part of the Gaussian(R) 09 program.  It is based on
 the Gaussian(R) 03 system (copyright 2003, Gaussian, Inc.),
 the Gaussian(R) 98 system (copyright 1998, Gaussian, Inc.),
 the Gaussian(R) 94 system (copyright 1995, Gaussian, Inc.),
 the Gaussian 92(TM) system (copyright 1992, Gaussian, Inc.),
 the Gaussian 90(TM) system (copyright 1990, Gaussian, Inc.),
 the Gaussian 88(TM) system (copyright 1988, Gaussian, Inc.),
 the Gaussian 86(TM) system (copyright 1986, Carnegie Mellon
 University), and the Gaussian 82(TM) system (copyright 1983,
 Carnegie Mellon University). Gaussian is a federally registered
 trademark of Gaussian, Inc.
  
 This software contains proprietary and confidential information,
 including trade secrets, belonging to Gaussian, Inc.
  
 This software is provided under written license and may be
 used, copied, transmitted, or stored only in accord with that
 written license.
  
 The following legend is applicable only to US Government
 contracts under FAR:
  
                    RESTRICTED RIGHTS LEGEND
  
 Use, reproduction and disclosure by the US Government is
 subject to restrictions as set forth in subparagraphs (a)
 and (c) of the Commercial Computer Software - Restricted
 Rights clause in FAR 52.227-19.
  
 Gaussian, Inc.
 340 Quinnipiac St., Bldg. 40, Wallingford CT 06492
  
  
 ---------------------------------------------------------------
 Warning -- This program may not be used in any manner that
 competes with the business of Gaussian, Inc. or will provide
 assistance to any competitor of Gaussian, Inc.  The licensee
 of this program is prohibited from giving any competitor of
 Gaussian, Inc. access to this program.  By using this program,
 the user acknowledges that Gaussian, Inc. is engaged in the
 business of creating and licensing software in the field of
 computational chemistry and represents and warrants to the
 licensee that it is not a competitor of Gaussian, Inc. and that
 it will not use this program in any manner prohibited above.
 ---------------------------------------------------------------
  

 Cite this work as:
 Gaussian 09, Revision D.01,
 M. J. Frisch, G. W. Trucks, H. B. Schlegel, G. E. Scuseria, 
 M. A. Robb, J. R. Cheeseman, G. Scalmani, V. Barone, B. Mennucci, 
 G. A. Petersson, H. Nakatsuji, M. Caricato, X. Li, H. P. Hratchian, 
 A. F. Izmaylov, J. Bloino, G. Zheng, J. L. Sonnenberg, M. Hada, 
 M. Ehara, K. Toyota, R. Fukuda, J. Hasegawa, M. Ishida, T. Nakajima, 
 Y. Honda, O. Kitao, H. Nakai, T. Vreven, J. A. Montgomery, Jr., 
 J. E. Peralta, F. Ogliaro, M. Bearpark, J. J. Heyd, E. Brothers, 
 K. N. Kudin, V. N. Staroverov, T. Keith, R. Kobayashi, J. Normand, 
 K. Raghavachari, A. Rendell, J. C. Burant, S. S. Iyengar, J. Tomasi, 
 M. Cossi, N. Rega, J. M. Millam, M. Klene, J. E. Knox, J. B. Cross, 
 V. Bakken, C. Adamo, J. Jaramillo, R. Gomperts, R. E. Stratmann, 
 O. Yazyev, A. J. Austin, R. Cammi, C. Pomelli, J. W. Ochterski, 
 R. L. Martin, K. Morokuma, V. G. Zakrzewski, G. A. Voth, 
 P. Salvador, J. J. Dannenberg, S. Dapprich, A. D. Daniels, 
 O. Farkas, J. B. Foresman, J. V. Ortiz, J. Cioslowski, 
 and D. J. Fox, Gaussian, Inc., Wallingford CT, 2013.
 
 ******************************************
 Gaussian 09:  EM64L-G09RevD.01 24-Apr-2013
                18-May-2017 
 ******************************************
 %Mem=256MB
 %NProc=12
 Will use up to   12 processors via shared memory.
 ----------------------------------------------------------------------
 #P HF/6-31G* SCF(Conver=6) NoSymm Test Pop=mk IOp(6/33=2) GFInput GFPr
 int
 ----------------------------------------------------------------------
 1/38=1/1;
 2/12=2,15=1,17=6,18=5,40=1/2;
 3/5=1,6=6,7=1,11=9,16=1,24=110,25=1,30=1/1,2,3;
 4//1;
 5/5=2,6=6,38=5/2;
 6/7=2,8=2,9=2,10=2,15=8,20=1,28=1,33=2/1,2;
 99/5=1,9=1/99;
 Leave Link    1 at Thu May 18 13:00:16 2017, MaxMem=    33554432 cpu:         0.6
 (Enter /home/michal/g09/l101.exe)
 ----------------------------------------------
 MEP - Input generated by R.E.D.-III.x MOLECULE
 ----------------------------------------------
 Symbolic Z-matrix:
 Charge =  0 Multiplicity = 1
 O                     6.09791   3.76205   0. 
 H                     5.83256   3.77138  -0.93049 
 O                     0.        0.        0. 
 H                    -0.10906  -0.17042  -0.94616 
 C                     8.82552   0.12825   0.42512 
 C                     7.89453   1.31773   0.80012 
 H                     7.6735    1.17701   1.87253 
 C                     6.52294   1.32425   0.10177 
 H                     6.66183   1.43799  -0.98351 
 C                     5.78555  -0.01335   0.39072 
 H                     5.57336  -0.00713   1.47261 
 C                     10.07685   0.47687   1.30346 
 H                     9.78533   0.24278   2.33813 
 C                     8.07166  -1.16213   0.80153 
 H                     7.94461  -1.19017   1.89346 
 H                     8.64064  -2.05762   0.5318 
 C                     4.38621  -0.11373  -0.31102 
 C                     8.80332   2.55443   0.70454 
 H                     8.43745   3.38718   1.30965 
 H                     8.84589   2.9245   -0.32526 
 C                     6.69043  -1.23799   0.12314 
 H                     6.83642  -1.36195  -0.95532 
 H                     6.18625  -2.14852   0.4655 
 C                     10.18866   2.031     1.17239 
 H                     10.96726   2.29694   0.44752 
 H                     10.48963   2.48219   2.12345 
 C                     5.66208   2.51282   0.57228 
 H                     5.81887   2.66063   1.65028 
 C                     11.42301  -0.24002   1.03187 
 H                     11.71864   0.        0. 
 C                     9.20232   0.12287  -1.07393 
 H                     8.32405   0.08921  -1.72396 
 H                     9.77684   1.0106   -1.35442 
 H                     9.815    -0.7524   -1.31489 
 C                     3.61022   1.19333  -0.11492 
 C                     3.57423  -1.2671    0.35735 
 H                     3.65581  -1.15727   1.44757 
 H                     4.03374  -2.22907   0.10708 
 C                     4.19452   2.32394   0.30798 
 H                     3.58879   3.21697   0.46181 
 C                     4.52347  -0.39035  -1.83225 
 H                     4.91361  -1.39515  -2.02132 
 H                     3.55947  -0.31795  -2.3425 
 H                     5.19439   0.33179  -2.30754 
 C                     2.12251   1.16713  -0.41123 
 H                     1.66441   2.12221  -0.13614 
 H                     1.96122   1.03927  -1.49394 
 C                     2.08345  -1.3107   -0.01221 
 H                     1.95841  -1.5325   -1.08256 
 H                     1.58593  -2.11929   0.53525 
 C                     12.56816   0.30536   1.92697 
 H                     13.50008  -0.18127   1.60491 
 H                     12.70774   1.37509   1.72747 
 C                     1.39723   0.01781   0.30428 
 H                     1.43367   0.19271   1.38646 
 C                     11.34565  -1.77479   1.13885 
 H                     10.8954  -2.09724   2.08437 
 H                     12.34925  -2.21306   1.08342 
 H                     10.75658  -2.21273   0.32903 
 C                     12.41396   0.10409   3.44394 
 H                     11.50642   0.61152   3.79314 
 H                     12.27702  -0.96177   3.6628 
 C                     13.63078   0.63661   4.21867 
 H                     13.76541   1.70012   3.9733 
 H                     14.53214   0.12561   3.85009 
 C                     13.5889   0.4958    5.75825 
 H                     14.5331   0.92465   6.12551 
 C                     13.55074  -0.97088   6.21887 
 H                     12.60647  -1.45611   5.94605 
 H                     13.65017  -1.04011   7.30819 
 H                     14.36645  -1.55116   5.7716 
 C                     12.44803   1.30498   6.39726 
 H                     11.46532   0.89959   6.12989 
 H                     12.52181   1.28644   7.49065 
 H                     12.47525   2.35368   6.07859 
 
 NAtoms=     75 NQM=       75 NQMF=       0 NMMI=      0 NMMIF=      0
                NMic=       0 NMicF=      0.
                    Isotopes and Nuclear Properties:
 (Nuclear quadrupole moments (NQMom) in fm**2, nuclear magnetic moments (NMagM)
  in nuclear magnetons)

  Atom         1           2           3           4           5           6           7           8           9          10
 IAtWgt=          16           1          16           1          12          12           1          12           1          12
 AtmWgt=  15.9949146   1.0078250  15.9949146   1.0078250  12.0000000  12.0000000   1.0078250  12.0000000   1.0078250  12.0000000
 NucSpn=           0           1           0           1           0           0           1           0           1           0
 AtZEff=   0.0000000   0.0000000   0.0000000   0.0000000   0.0000000   0.0000000   0.0000000   0.0000000   0.0000000   0.0000000
 NQMom=    0.0000000   0.0000000   0.0000000   0.0000000   0.0000000   0.0000000   0.0000000   0.0000000   0.0000000   0.0000000
 NMagM=    0.0000000   2.7928460   0.0000000   2.7928460   0.0000000   0.0000000   2.7928460   0.0000000   2.7928460   0.0000000
 AtZNuc=   8.0000000   1.0000000   8.0000000   1.0000000   6.0000000   6.0000000   1.0000000   6.0000000   1.0000000   6.0000000

  Atom        11          12          13          14          15          16          17          18          19          20
 IAtWgt=           1          12           1          12           1           1          12          12           1           1
 AtmWgt=   1.0078250  12.0000000   1.0078250  12.0000000   1.0078250   1.0078250  12.0000000  12.0000000   1.0078250   1.0078250
 NucSpn=           1           0           1           0           1           1           0           0           1           1
 AtZEff=   0.0000000   0.0000000   0.0000000   0.0000000   0.0000000   0.0000000   0.0000000   0.0000000   0.0000000   0.0000000
 NQMom=    0.0000000   0.0000000   0.0000000   0.0000000   0.0000000   0.0000000   0.0000000   0.0000000   0.0000000   0.0000000
 NMagM=    2.7928460   0.0000000   2.7928460   0.0000000   2.7928460   2.7928460   0.0000000   0.0000000   2.7928460   2.7928460
 AtZNuc=   1.0000000   6.0000000   1.0000000   6.0000000   1.0000000   1.0000000   6.0000000   6.0000000   1.0000000   1.0000000

  Atom        21          22          23          24          25          26          27          28          29          30
 IAtWgt=          12           1           1          12           1           1          12           1          12           1
 AtmWgt=  12.0000000   1.0078250   1.0078250  12.0000000   1.0078250   1.0078250  12.0000000   1.0078250  12.0000000   1.0078250
 NucSpn=           0           1           1           0           1           1           0           1           0           1
 AtZEff=   0.0000000   0.0000000   0.0000000   0.0000000   0.0000000   0.0000000   0.0000000   0.0000000   0.0000000   0.0000000
 NQMom=    0.0000000   0.0000000   0.0000000   0.0000000   0.0000000   0.0000000   0.0000000   0.0000000   0.0000000   0.0000000
 NMagM=    0.0000000   2.7928460   2.7928460   0.0000000   2.7928460   2.7928460   0.0000000   2.7928460   0.0000000   2.7928460
 AtZNuc=   6.0000000   1.0000000   1.0000000   6.0000000   1.0000000   1.0000000   6.0000000   1.0000000   6.0000000   1.0000000

  Atom        31          32          33          34          35          36          37          38          39          40
 IAtWgt=          12           1           1           1          12          12           1           1          12           1
 AtmWgt=  12.0000000   1.0078250   1.0078250   1.0078250  12.0000000  12.0000000   1.0078250   1.0078250  12.0000000   1.0078250
 NucSpn=           0           1           1           1           0           0           1           1           0           1
 AtZEff=   0.0000000   0.0000000   0.0000000   0.0000000   0.0000000   0.0000000   0.0000000   0.0000000   0.0000000   0.0000000
 NQMom=    0.0000000   0.0000000   0.0000000   0.0000000   0.0000000   0.0000000   0.0000000   0.0000000   0.0000000   0.0000000
 NMagM=    0.0000000   2.7928460   2.7928460   2.7928460   0.0000000   0.0000000   2.7928460   2.7928460   0.0000000   2.7928460
 AtZNuc=   6.0000000   1.0000000   1.0000000   1.0000000   6.0000000   6.0000000   1.0000000   1.0000000   6.0000000   1.0000000

  Atom        41          42          43          44          45          46          47          48          49          50
 IAtWgt=          12           1           1           1          12           1           1          12           1           1
 AtmWgt=  12.0000000   1.0078250   1.0078250   1.0078250  12.0000000   1.0078250   1.0078250  12.0000000   1.0078250   1.0078250
 NucSpn=           0           1           1           1           0           1           1           0           1           1
 AtZEff=   0.0000000   0.0000000   0.0000000   0.0000000   0.0000000   0.0000000   0.0000000   0.0000000   0.0000000   0.0000000
 NQMom=    0.0000000   0.0000000   0.0000000   0.0000000   0.0000000   0.0000000   0.0000000   0.0000000   0.0000000   0.0000000
 NMagM=    0.0000000   2.7928460   2.7928460   2.7928460   0.0000000   2.7928460   2.7928460   0.0000000   2.7928460   2.7928460
 AtZNuc=   6.0000000   1.0000000   1.0000000   1.0000000   6.0000000   1.0000000   1.0000000   6.0000000   1.0000000   1.0000000

  Atom        51          52          53          54          55          56          57          58          59          60
 IAtWgt=          12           1           1          12           1          12           1           1           1          12
 AtmWgt=  12.0000000   1.0078250   1.0078250  12.0000000   1.0078250  12.0000000   1.0078250   1.0078250   1.0078250  12.0000000
 NucSpn=           0           1           1           0           1           0           1           1           1           0
 AtZEff=   0.0000000   0.0000000   0.0000000   0.0000000   0.0000000   0.0000000   0.0000000   0.0000000   0.0000000   0.0000000
 NQMom=    0.0000000   0.0000000   0.0000000   0.0000000   0.0000000   0.0000000   0.0000000   0.0000000   0.0000000   0.0000000
 NMagM=    0.0000000   2.7928460   2.7928460   0.0000000   2.7928460   0.0000000   2.7928460   2.7928460   2.7928460   0.0000000
 AtZNuc=   6.0000000   1.0000000   1.0000000   6.0000000   1.0000000   6.0000000   1.0000000   1.0000000   1.0000000   6.0000000

  Atom        61          62          63          64          65          66          67          68          69          70
 IAtWgt=           1           1          12           1           1          12           1          12           1           1
 AtmWgt=   1.0078250   1.0078250  12.0000000   1.0078250   1.0078250  12.0000000   1.0078250  12.0000000   1.0078250   1.0078250
 NucSpn=           1           1           0           1           1           0           1           0           1           1
 AtZEff=   0.0000000   0.0000000   0.0000000   0.0000000   0.0000000   0.0000000   0.0000000   0.0000000   0.0000000   0.0000000
 NQMom=    0.0000000   0.0000000   0.0000000   0.0000000   0.0000000   0.0000000   0.0000000   0.0000000   0.0000000   0.0000000
 NMagM=    2.7928460   2.7928460   0.0000000   2.7928460   2.7928460   0.0000000   2.7928460   0.0000000   2.7928460   2.7928460
 AtZNuc=   1.0000000   1.0000000   6.0000000   1.0000000   1.0000000   6.0000000   1.0000000   6.0000000   1.0000000   1.0000000

  Atom        71          72          73          74          75
 IAtWgt=           1          12           1           1           1
 AtmWgt=   1.0078250  12.0000000   1.0078250   1.0078250   1.0078250
 NucSpn=           1           0           1           1           1
 AtZEff=   0.0000000   0.0000000   0.0000000   0.0000000   0.0000000
 NQMom=    0.0000000   0.0000000   0.0000000   0.0000000   0.0000000
 NMagM=    2.7928460   0.0000000   2.7928460   2.7928460   2.7928460
 AtZNuc=   1.0000000   6.0000000   1.0000000   1.0000000   1.0000000
 Leave Link  101 at Thu May 18 13:00:16 2017, MaxMem=    33554432 cpu:         1.0
 (Enter /home/michal/g09/l202.exe)
 Symmetry turned off by external request.
 Stoichiometry    C27H46O2
 Framework group  C1[X(C27H46O2)]
 Deg. of freedom   219
 Full point group                 C1      NOp   1
                          Input orientation:                          
 ---------------------------------------------------------------------
 Center     Atomic      Atomic             Coordinates (Angstroms)
 Number     Number       Type             X           Y           Z
 ---------------------------------------------------------------------
      1          8           0        6.097915    3.762054    0.000000
      2          1           0        5.832557    3.771384   -0.930489
      3          8           0        0.000000    0.000000    0.000000
      4          1           0       -0.109056   -0.170417   -0.946164
      5          6           0        8.825519    0.128248    0.425116
      6          6           0        7.894533    1.317732    0.800117
      7          1           0        7.673500    1.177010    1.872525
      8          6           0        6.522936    1.324252    0.101771
      9          1           0        6.661834    1.437986   -0.983512
     10          6           0        5.785551   -0.013349    0.390724
     11          1           0        5.573363   -0.007126    1.472613
     12          6           0       10.076846    0.476873    1.303462
     13          1           0        9.785326    0.242778    2.338131
     14          6           0        8.071662   -1.162126    0.801532
     15          1           0        7.944613   -1.190172    1.893460
     16          1           0        8.640639   -2.057617    0.531796
     17          6           0        4.386208   -0.113729   -0.311020
     18          6           0        8.803319    2.554430    0.704542
     19          1           0        8.437448    3.387175    1.309645
     20          1           0        8.845886    2.924500   -0.325258
     21          6           0        6.690429   -1.237992    0.123141
     22          1           0        6.836420   -1.361949   -0.955324
     23          1           0        6.186250   -2.148517    0.465499
     24          6           0       10.188657    2.030997    1.172390
     25          1           0       10.967259    2.296943    0.447515
     26          1           0       10.489630    2.482188    2.123446
     27          6           0        5.662078    2.512821    0.572278
     28          1           0        5.818867    2.660630    1.650275
     29          6           0       11.423010   -0.240019    1.031867
     30          1           0       11.718639    0.000000    0.000000
     31          6           0        9.202325    0.122872   -1.073931
     32          1           0        8.324055    0.089207   -1.723955
     33          1           0        9.776835    1.010604   -1.354422
     34          1           0        9.815000   -0.752401   -1.314893
     35          6           0        3.610222    1.193327   -0.114922
     36          6           0        3.574227   -1.267097    0.357355
     37          1           0        3.655809   -1.157270    1.447572
     38          1           0        4.033741   -2.229067    0.107076
     39          6           0        4.194524    2.323935    0.307984
     40          1           0        3.588793    3.216968    0.461810
     41          6           0        4.523473   -0.390353   -1.832254
     42          1           0        4.913608   -1.395149   -2.021324
     43          1           0        3.559469   -0.317948   -2.342504
     44          1           0        5.194395    0.331786   -2.307539
     45          6           0        2.122511    1.167133   -0.411230
     46          1           0        1.664405    2.122212   -0.136136
     47          1           0        1.961221    1.039273   -1.493941
     48          6           0        2.083446   -1.310699   -0.012209
     49          1           0        1.958411   -1.532499   -1.082558
     50          1           0        1.585931   -2.119286    0.535250
     51          6           0       12.568162    0.305363    1.926974
     52          1           0       13.500075   -0.181265    1.604906
     53          1           0       12.707744    1.375091    1.727469
     54          6           0        1.397227    0.017806    0.304276
     55          1           0        1.433671    0.192710    1.386464
     56          6           0       11.345648   -1.774793    1.138854
     57          1           0       10.895397   -2.097242    2.084374
     58          1           0       12.349253   -2.213059    1.083416
     59          1           0       10.756582   -2.212735    0.329034
     60          6           0       12.413960    0.104094    3.443935
     61          1           0       11.506420    0.611518    3.793139
     62          1           0       12.277017   -0.961773    3.662801
     63          6           0       13.630781    0.636610    4.218670
     64          1           0       13.765410    1.700123    3.973305
     65          1           0       14.532140    0.125614    3.850088
     66          6           0       13.588902    0.495799    5.758253
     67          1           0       14.533104    0.924653    6.125515
     68          6           0       13.550744   -0.970879    6.218875
     69          1           0       12.606474   -1.456106    5.946049
     70          1           0       13.650170   -1.040114    7.308190
     71          1           0       14.366447   -1.551157    5.771604
     72          6           0       12.448026    1.304978    6.397258
     73          1           0       11.465319    0.899587    6.129888
     74          1           0       12.521812    1.286444    7.490646
     75          1           0       12.475250    2.353676    6.078588
 ---------------------------------------------------------------------
 Rotational constants (GHZ):      0.3312063      0.0606343      0.0603461
 Leave Link  202 at Thu May 18 13:00:16 2017, MaxMem=    33554432 cpu:         0.1
 (Enter /home/michal/g09/l301.exe)
 Standard basis: 6-31G(d) (6D, 7F)
 Ernie: Thresh=  0.10000D-02 Tol=  0.10000D-05 Strict=F.
 AO basis set in the form of general basis input (Overlap normalization):
      1 0
 S   6 1.00       0.000000000000
      0.5484671660D+04  0.1831074430D-02
      0.8252349460D+03  0.1395017220D-01
      0.1880469580D+03  0.6844507810D-01
      0.5296450000D+02  0.2327143360D+00
      0.1689757040D+02  0.4701928980D+00
      0.5799635340D+01  0.3585208530D+00
 SP   3 1.00       0.000000000000
      0.1553961625D+02 -0.1107775495D+00  0.7087426823D-01
      0.3599933586D+01 -0.1480262627D+00  0.3397528391D+00
      0.1013761750D+01  0.1130767015D+01  0.7271585773D+00
 SP   1 1.00       0.000000000000
      0.2700058226D+00  0.1000000000D+01  0.1000000000D+01
 D   1 1.00       0.000000000000
      0.8000000000D+00  0.1000000000D+01
 ****
      2 0
 S   3 1.00       0.000000000000
      0.1873113696D+02  0.3349460434D-01
      0.2825394365D+01  0.2347269535D+00
      0.6401216923D+00  0.8137573261D+00
 S   1 1.00       0.000000000000
      0.1612777588D+00  0.1000000000D+01
 ****
      3 0
 S   6 1.00       0.000000000000
      0.5484671660D+04  0.1831074430D-02
      0.8252349460D+03  0.1395017220D-01
      0.1880469580D+03  0.6844507810D-01
      0.5296450000D+02  0.2327143360D+00
      0.1689757040D+02  0.4701928980D+00
      0.5799635340D+01  0.3585208530D+00
 SP   3 1.00       0.000000000000
      0.1553961625D+02 -0.1107775495D+00  0.7087426823D-01
      0.3599933586D+01 -0.1480262627D+00  0.3397528391D+00
      0.1013761750D+01  0.1130767015D+01  0.7271585773D+00
 SP   1 1.00       0.000000000000
      0.2700058226D+00  0.1000000000D+01  0.1000000000D+01
 D   1 1.00       0.000000000000
      0.8000000000D+00  0.1000000000D+01
 ****
      4 0
 S   3 1.00       0.000000000000
      0.1873113696D+02  0.3349460434D-01
      0.2825394365D+01  0.2347269535D+00
      0.6401216923D+00  0.8137573261D+00
 S   1 1.00       0.000000000000
      0.1612777588D+00  0.1000000000D+01
 ****
      5 0
 S   6 1.00       0.000000000000
      0.3047524880D+04  0.1834737132D-02
      0.4573695180D+03  0.1403732281D-01
      0.1039486850D+03  0.6884262226D-01
      0.2921015530D+02  0.2321844432D+00
      0.9286662960D+01  0.4679413484D+00
      0.3163926960D+01  0.3623119853D+00
 SP   3 1.00       0.000000000000
      0.7868272350D+01 -0.1193324198D+00  0.6899906659D-01
      0.1881288540D+01 -0.1608541517D+00  0.3164239610D+00
      0.5442492580D+00  0.1143456438D+01  0.7443082909D+00
 SP   1 1.00       0.000000000000
      0.1687144782D+00  0.1000000000D+01  0.1000000000D+01
 D   1 1.00       0.000000000000
      0.8000000000D+00  0.1000000000D+01
 ****
      6 0
 S   6 1.00       0.000000000000
      0.3047524880D+04  0.1834737132D-02
      0.4573695180D+03  0.1403732281D-01
      0.1039486850D+03  0.6884262226D-01
      0.2921015530D+02  0.2321844432D+00
      0.9286662960D+01  0.4679413484D+00
      0.3163926960D+01  0.3623119853D+00
 SP   3 1.00       0.000000000000
      0.7868272350D+01 -0.1193324198D+00  0.6899906659D-01
      0.1881288540D+01 -0.1608541517D+00  0.3164239610D+00
      0.5442492580D+00  0.1143456438D+01  0.7443082909D+00
 SP   1 1.00       0.000000000000
      0.1687144782D+00  0.1000000000D+01  0.1000000000D+01
 D   1 1.00       0.000000000000
      0.8000000000D+00  0.1000000000D+01
 ****
      7 0
 S   3 1.00       0.000000000000
      0.1873113696D+02  0.3349460434D-01
      0.2825394365D+01  0.2347269535D+00
      0.6401216923D+00  0.8137573261D+00
 S   1 1.00       0.000000000000
      0.1612777588D+00  0.1000000000D+01
 ****
      8 0
 S   6 1.00       0.000000000000
      0.3047524880D+04  0.1834737132D-02
      0.4573695180D+03  0.1403732281D-01
      0.1039486850D+03  0.6884262226D-01
      0.2921015530D+02  0.2321844432D+00
      0.9286662960D+01  0.4679413484D+00
      0.3163926960D+01  0.3623119853D+00
 SP   3 1.00       0.000000000000
      0.7868272350D+01 -0.1193324198D+00  0.6899906659D-01
      0.1881288540D+01 -0.1608541517D+00  0.3164239610D+00
      0.5442492580D+00  0.1143456438D+01  0.7443082909D+00
 SP   1 1.00       0.000000000000
      0.1687144782D+00  0.1000000000D+01  0.1000000000D+01
 D   1 1.00       0.000000000000
      0.8000000000D+00  0.1000000000D+01
 ****
      9 0
 S   3 1.00       0.000000000000
      0.1873113696D+02  0.3349460434D-01
      0.2825394365D+01  0.2347269535D+00
      0.6401216923D+00  0.8137573261D+00
 S   1 1.00       0.000000000000
      0.1612777588D+00  0.1000000000D+01
 ****
     10 0
 S   6 1.00       0.000000000000
      0.3047524880D+04  0.1834737132D-02
      0.4573695180D+03  0.1403732281D-01
      0.1039486850D+03  0.6884262226D-01
      0.2921015530D+02  0.2321844432D+00
      0.9286662960D+01  0.4679413484D+00
      0.3163926960D+01  0.3623119853D+00
 SP   3 1.00       0.000000000000
      0.7868272350D+01 -0.1193324198D+00  0.6899906659D-01
      0.1881288540D+01 -0.1608541517D+00  0.3164239610D+00
      0.5442492580D+00  0.1143456438D+01  0.7443082909D+00
 SP   1 1.00       0.000000000000
      0.1687144782D+00  0.1000000000D+01  0.1000000000D+01
 D   1 1.00       0.000000000000
      0.8000000000D+00  0.1000000000D+01
 ****
     11 0
 S   3 1.00       0.000000000000
      0.1873113696D+02  0.3349460434D-01
      0.2825394365D+01  0.2347269535D+00
      0.6401216923D+00  0.8137573261D+00
 S   1 1.00       0.000000000000
      0.1612777588D+00  0.1000000000D+01
 ****
     12 0
 S   6 1.00       0.000000000000
      0.3047524880D+04  0.1834737132D-02
      0.4573695180D+03  0.1403732281D-01
      0.1039486850D+03  0.6884262226D-01
      0.2921015530D+02  0.2321844432D+00
      0.9286662960D+01  0.4679413484D+00
      0.3163926960D+01  0.3623119853D+00
 SP   3 1.00       0.000000000000
      0.7868272350D+01 -0.1193324198D+00  0.6899906659D-01
      0.1881288540D+01 -0.1608541517D+00  0.3164239610D+00
      0.5442492580D+00  0.1143456438D+01  0.7443082909D+00
 SP   1 1.00       0.000000000000
      0.1687144782D+00  0.1000000000D+01  0.1000000000D+01
 D   1 1.00       0.000000000000
      0.8000000000D+00  0.1000000000D+01
 ****
     13 0
 S   3 1.00       0.000000000000
      0.1873113696D+02  0.3349460434D-01
      0.2825394365D+01  0.2347269535D+00
      0.6401216923D+00  0.8137573261D+00
 S   1 1.00       0.000000000000
      0.1612777588D+00  0.1000000000D+01
 ****
     14 0
 S   6 1.00       0.000000000000
      0.3047524880D+04  0.1834737132D-02
      0.4573695180D+03  0.1403732281D-01
      0.1039486850D+03  0.6884262226D-01
      0.2921015530D+02  0.2321844432D+00
      0.9286662960D+01  0.4679413484D+00
      0.3163926960D+01  0.3623119853D+00
 SP   3 1.00       0.000000000000
      0.7868272350D+01 -0.1193324198D+00  0.6899906659D-01
      0.1881288540D+01 -0.1608541517D+00  0.3164239610D+00
      0.5442492580D+00  0.1143456438D+01  0.7443082909D+00
 SP   1 1.00       0.000000000000
      0.1687144782D+00  0.1000000000D+01  0.1000000000D+01
 D   1 1.00       0.000000000000
      0.8000000000D+00  0.1000000000D+01
 ****
     15 0
 S   3 1.00       0.000000000000
      0.1873113696D+02  0.3349460434D-01
      0.2825394365D+01  0.2347269535D+00
      0.6401216923D+00  0.8137573261D+00
 S   1 1.00       0.000000000000
      0.1612777588D+00  0.1000000000D+01
 ****
     16 0
 S   3 1.00       0.000000000000
      0.1873113696D+02  0.3349460434D-01
      0.2825394365D+01  0.2347269535D+00
      0.6401216923D+00  0.8137573261D+00
 S   1 1.00       0.000000000000
      0.1612777588D+00  0.1000000000D+01
 ****
     17 0
 S   6 1.00       0.000000000000
      0.3047524880D+04  0.1834737132D-02
      0.4573695180D+03  0.1403732281D-01
      0.1039486850D+03  0.6884262226D-01
      0.2921015530D+02  0.2321844432D+00
      0.9286662960D+01  0.4679413484D+00
      0.3163926960D+01  0.3623119853D+00
 SP   3 1.00       0.000000000000
      0.7868272350D+01 -0.1193324198D+00  0.6899906659D-01
      0.1881288540D+01 -0.1608541517D+00  0.3164239610D+00
      0.5442492580D+00  0.1143456438D+01  0.7443082909D+00
 SP   1 1.00       0.000000000000
      0.1687144782D+00  0.1000000000D+01  0.1000000000D+01
 D   1 1.00       0.000000000000
      0.8000000000D+00  0.1000000000D+01
 ****
     18 0
 S   6 1.00       0.000000000000
      0.3047524880D+04  0.1834737132D-02
      0.4573695180D+03  0.1403732281D-01
      0.1039486850D+03  0.6884262226D-01
      0.2921015530D+02  0.2321844432D+00
      0.9286662960D+01  0.4679413484D+00
      0.3163926960D+01  0.3623119853D+00
 SP   3 1.00       0.000000000000
      0.7868272350D+01 -0.1193324198D+00  0.6899906659D-01
      0.1881288540D+01 -0.1608541517D+00  0.3164239610D+00
      0.5442492580D+00  0.1143456438D+01  0.7443082909D+00
 SP   1 1.00       0.000000000000
      0.1687144782D+00  0.1000000000D+01  0.1000000000D+01
 D   1 1.00       0.000000000000
      0.8000000000D+00  0.1000000000D+01
 ****
     19 0
 S   3 1.00       0.000000000000
      0.1873113696D+02  0.3349460434D-01
      0.2825394365D+01  0.2347269535D+00
      0.6401216923D+00  0.8137573261D+00
 S   1 1.00       0.000000000000
      0.1612777588D+00  0.1000000000D+01
 ****
     20 0
 S   3 1.00       0.000000000000
      0.1873113696D+02  0.3349460434D-01
      0.2825394365D+01  0.2347269535D+00
      0.6401216923D+00  0.8137573261D+00
 S   1 1.00       0.000000000000
      0.1612777588D+00  0.1000000000D+01
 ****
     21 0
 S   6 1.00       0.000000000000
      0.3047524880D+04  0.1834737132D-02
      0.4573695180D+03  0.1403732281D-01
      0.1039486850D+03  0.6884262226D-01
      0.2921015530D+02  0.2321844432D+00
      0.9286662960D+01  0.4679413484D+00
      0.3163926960D+01  0.3623119853D+00
 SP   3 1.00       0.000000000000
      0.7868272350D+01 -0.1193324198D+00  0.6899906659D-01
      0.1881288540D+01 -0.1608541517D+00  0.3164239610D+00
      0.5442492580D+00  0.1143456438D+01  0.7443082909D+00
 SP   1 1.00       0.000000000000
      0.1687144782D+00  0.1000000000D+01  0.1000000000D+01
 D   1 1.00       0.000000000000
      0.8000000000D+00  0.1000000000D+01
 ****
     22 0
 S   3 1.00       0.000000000000
      0.1873113696D+02  0.3349460434D-01
      0.2825394365D+01  0.2347269535D+00
      0.6401216923D+00  0.8137573261D+00
 S   1 1.00       0.000000000000
      0.1612777588D+00  0.1000000000D+01
 ****
     23 0
 S   3 1.00       0.000000000000
      0.1873113696D+02  0.3349460434D-01
      0.2825394365D+01  0.2347269535D+00
      0.6401216923D+00  0.8137573261D+00
 S   1 1.00       0.000000000000
      0.1612777588D+00  0.1000000000D+01
 ****
     24 0
 S   6 1.00       0.000000000000
      0.3047524880D+04  0.1834737132D-02
      0.4573695180D+03  0.1403732281D-01
      0.1039486850D+03  0.6884262226D-01
      0.2921015530D+02  0.2321844432D+00
      0.9286662960D+01  0.4679413484D+00
      0.3163926960D+01  0.3623119853D+00
 SP   3 1.00       0.000000000000
      0.7868272350D+01 -0.1193324198D+00  0.6899906659D-01
      0.1881288540D+01 -0.1608541517D+00  0.3164239610D+00
      0.5442492580D+00  0.1143456438D+01  0.7443082909D+00
 SP   1 1.00       0.000000000000
      0.1687144782D+00  0.1000000000D+01  0.1000000000D+01
 D   1 1.00       0.000000000000
      0.8000000000D+00  0.1000000000D+01
 ****
     25 0
 S   3 1.00       0.000000000000
      0.1873113696D+02  0.3349460434D-01
      0.2825394365D+01  0.2347269535D+00
      0.6401216923D+00  0.8137573261D+00
 S   1 1.00       0.000000000000
      0.1612777588D+00  0.1000000000D+01
 ****
     26 0
 S   3 1.00       0.000000000000
      0.1873113696D+02  0.3349460434D-01
      0.2825394365D+01  0.2347269535D+00
      0.6401216923D+00  0.8137573261D+00
 S   1 1.00       0.000000000000
      0.1612777588D+00  0.1000000000D+01
 ****
     27 0
 S   6 1.00       0.000000000000
      0.3047524880D+04  0.1834737132D-02
      0.4573695180D+03  0.1403732281D-01
      0.1039486850D+03  0.6884262226D-01
      0.2921015530D+02  0.2321844432D+00
      0.9286662960D+01  0.4679413484D+00
      0.3163926960D+01  0.3623119853D+00
 SP   3 1.00       0.000000000000
      0.7868272350D+01 -0.1193324198D+00  0.6899906659D-01
      0.1881288540D+01 -0.1608541517D+00  0.3164239610D+00
      0.5442492580D+00  0.1143456438D+01  0.7443082909D+00
 SP   1 1.00       0.000000000000
      0.1687144782D+00  0.1000000000D+01  0.1000000000D+01
 D   1 1.00       0.000000000000
      0.8000000000D+00  0.1000000000D+01
 ****
     28 0
 S   3 1.00       0.000000000000
      0.1873113696D+02  0.3349460434D-01
      0.2825394365D+01  0.2347269535D+00
      0.6401216923D+00  0.8137573261D+00
 S   1 1.00       0.000000000000
      0.1612777588D+00  0.1000000000D+01
 ****
     29 0
 S   6 1.00       0.000000000000
      0.3047524880D+04  0.1834737132D-02
      0.4573695180D+03  0.1403732281D-01
      0.1039486850D+03  0.6884262226D-01
      0.2921015530D+02  0.2321844432D+00
      0.9286662960D+01  0.4679413484D+00
      0.3163926960D+01  0.3623119853D+00
 SP   3 1.00       0.000000000000
      0.7868272350D+01 -0.1193324198D+00  0.6899906659D-01
      0.1881288540D+01 -0.1608541517D+00  0.3164239610D+00
      0.5442492580D+00  0.1143456438D+01  0.7443082909D+00
 SP   1 1.00       0.000000000000
      0.1687144782D+00  0.1000000000D+01  0.1000000000D+01
 D   1 1.00       0.000000000000
      0.8000000000D+00  0.1000000000D+01
 ****
     30 0
 S   3 1.00       0.000000000000
      0.1873113696D+02  0.3349460434D-01
      0.2825394365D+01  0.2347269535D+00
      0.6401216923D+00  0.8137573261D+00
 S   1 1.00       0.000000000000
      0.1612777588D+00  0.1000000000D+01
 ****
     31 0
 S   6 1.00       0.000000000000
      0.3047524880D+04  0.1834737132D-02
      0.4573695180D+03  0.1403732281D-01
      0.1039486850D+03  0.6884262226D-01
      0.2921015530D+02  0.2321844432D+00
      0.9286662960D+01  0.4679413484D+00
      0.3163926960D+01  0.3623119853D+00
 SP   3 1.00       0.000000000000
      0.7868272350D+01 -0.1193324198D+00  0.6899906659D-01
      0.1881288540D+01 -0.1608541517D+00  0.3164239610D+00
      0.5442492580D+00  0.1143456438D+01  0.7443082909D+00
 SP   1 1.00       0.000000000000
      0.1687144782D+00  0.1000000000D+01  0.1000000000D+01
 D   1 1.00       0.000000000000
      0.8000000000D+00  0.1000000000D+01
 ****
     32 0
 S   3 1.00       0.000000000000
      0.1873113696D+02  0.3349460434D-01
      0.2825394365D+01  0.2347269535D+00
      0.6401216923D+00  0.8137573261D+00
 S   1 1.00       0.000000000000
      0.1612777588D+00  0.1000000000D+01
 ****
     33 0
 S   3 1.00       0.000000000000
      0.1873113696D+02  0.3349460434D-01
      0.2825394365D+01  0.2347269535D+00
      0.6401216923D+00  0.8137573261D+00
 S   1 1.00       0.000000000000
      0.1612777588D+00  0.1000000000D+01
 ****
     34 0
 S   3 1.00       0.000000000000
      0.1873113696D+02  0.3349460434D-01
      0.2825394365D+01  0.2347269535D+00
      0.6401216923D+00  0.8137573261D+00
 S   1 1.00       0.000000000000
      0.1612777588D+00  0.1000000000D+01
 ****
     35 0
 S   6 1.00       0.000000000000
      0.3047524880D+04  0.1834737132D-02
      0.4573695180D+03  0.1403732281D-01
      0.1039486850D+03  0.6884262226D-01
      0.2921015530D+02  0.2321844432D+00
      0.9286662960D+01  0.4679413484D+00
      0.3163926960D+01  0.3623119853D+00
 SP   3 1.00       0.000000000000
      0.7868272350D+01 -0.1193324198D+00  0.6899906659D-01
      0.1881288540D+01 -0.1608541517D+00  0.3164239610D+00
      0.5442492580D+00  0.1143456438D+01  0.7443082909D+00
 SP   1 1.00       0.000000000000
      0.1687144782D+00  0.1000000000D+01  0.1000000000D+01
 D   1 1.00       0.000000000000
      0.8000000000D+00  0.1000000000D+01
 ****
     36 0
 S   6 1.00       0.000000000000
      0.3047524880D+04  0.1834737132D-02
      0.4573695180D+03  0.1403732281D-01
      0.1039486850D+03  0.6884262226D-01
      0.2921015530D+02  0.2321844432D+00
      0.9286662960D+01  0.4679413484D+00
      0.3163926960D+01  0.3623119853D+00
 SP   3 1.00       0.000000000000
      0.7868272350D+01 -0.1193324198D+00  0.6899906659D-01
      0.1881288540D+01 -0.1608541517D+00  0.3164239610D+00
      0.5442492580D+00  0.1143456438D+01  0.7443082909D+00
 SP   1 1.00       0.000000000000
      0.1687144782D+00  0.1000000000D+01  0.1000000000D+01
 D   1 1.00       0.000000000000
      0.8000000000D+00  0.1000000000D+01
 ****
     37 0
 S   3 1.00       0.000000000000
      0.1873113696D+02  0.3349460434D-01
      0.2825394365D+01  0.2347269535D+00
      0.6401216923D+00  0.8137573261D+00
 S   1 1.00       0.000000000000
      0.1612777588D+00  0.1000000000D+01
 ****
     38 0
 S   3 1.00       0.000000000000
      0.1873113696D+02  0.3349460434D-01
      0.2825394365D+01  0.2347269535D+00
      0.6401216923D+00  0.8137573261D+00
 S   1 1.00       0.000000000000
      0.1612777588D+00  0.1000000000D+01
 ****
     39 0
 S   6 1.00       0.000000000000
      0.3047524880D+04  0.1834737132D-02
      0.4573695180D+03  0.1403732281D-01
      0.1039486850D+03  0.6884262226D-01
      0.2921015530D+02  0.2321844432D+00
      0.9286662960D+01  0.4679413484D+00
      0.3163926960D+01  0.3623119853D+00
 SP   3 1.00       0.000000000000
      0.7868272350D+01 -0.1193324198D+00  0.6899906659D-01
      0.1881288540D+01 -0.1608541517D+00  0.3164239610D+00
      0.5442492580D+00  0.1143456438D+01  0.7443082909D+00
 SP   1 1.00       0.000000000000
      0.1687144782D+00  0.1000000000D+01  0.1000000000D+01
 D   1 1.00       0.000000000000
      0.8000000000D+00  0.1000000000D+01
 ****
     40 0
 S   3 1.00       0.000000000000
      0.1873113696D+02  0.3349460434D-01
      0.2825394365D+01  0.2347269535D+00
      0.6401216923D+00  0.8137573261D+00
 S   1 1.00       0.000000000000
      0.1612777588D+00  0.1000000000D+01
 ****
     41 0
 S   6 1.00       0.000000000000
      0.3047524880D+04  0.1834737132D-02
      0.4573695180D+03  0.1403732281D-01
      0.1039486850D+03  0.6884262226D-01
      0.2921015530D+02  0.2321844432D+00
      0.9286662960D+01  0.4679413484D+00
      0.3163926960D+01  0.3623119853D+00
 SP   3 1.00       0.000000000000
      0.7868272350D+01 -0.1193324198D+00  0.6899906659D-01
      0.1881288540D+01 -0.1608541517D+00  0.3164239610D+00
      0.5442492580D+00  0.1143456438D+01  0.7443082909D+00
 SP   1 1.00       0.000000000000
      0.1687144782D+00  0.1000000000D+01  0.1000000000D+01
 D   1 1.00       0.000000000000
      0.8000000000D+00  0.1000000000D+01
 ****
     42 0
 S   3 1.00       0.000000000000
      0.1873113696D+02  0.3349460434D-01
      0.2825394365D+01  0.2347269535D+00
      0.6401216923D+00  0.8137573261D+00
 S   1 1.00       0.000000000000
      0.1612777588D+00  0.1000000000D+01
 ****
     43 0
 S   3 1.00       0.000000000000
      0.1873113696D+02  0.3349460434D-01
      0.2825394365D+01  0.2347269535D+00
      0.6401216923D+00  0.8137573261D+00
 S   1 1.00       0.000000000000
      0.1612777588D+00  0.1000000000D+01
 ****
     44 0
 S   3 1.00       0.000000000000
      0.1873113696D+02  0.3349460434D-01
      0.2825394365D+01  0.2347269535D+00
      0.6401216923D+00  0.8137573261D+00
 S   1 1.00       0.000000000000
      0.1612777588D+00  0.1000000000D+01
 ****
     45 0
 S   6 1.00       0.000000000000
      0.3047524880D+04  0.1834737132D-02
      0.4573695180D+03  0.1403732281D-01
      0.1039486850D+03  0.6884262226D-01
      0.2921015530D+02  0.2321844432D+00
      0.9286662960D+01  0.4679413484D+00
      0.3163926960D+01  0.3623119853D+00
 SP   3 1.00       0.000000000000
      0.7868272350D+01 -0.1193324198D+00  0.6899906659D-01
      0.1881288540D+01 -0.1608541517D+00  0.3164239610D+00
      0.5442492580D+00  0.1143456438D+01  0.7443082909D+00
 SP   1 1.00       0.000000000000
      0.1687144782D+00  0.1000000000D+01  0.1000000000D+01
 D   1 1.00       0.000000000000
      0.8000000000D+00  0.1000000000D+01
 ****
     46 0
 S   3 1.00       0.000000000000
      0.1873113696D+02  0.3349460434D-01
      0.2825394365D+01  0.2347269535D+00
      0.6401216923D+00  0.8137573261D+00
 S   1 1.00       0.000000000000
      0.1612777588D+00  0.1000000000D+01
 ****
     47 0
 S   3 1.00       0.000000000000
      0.1873113696D+02  0.3349460434D-01
      0.2825394365D+01  0.2347269535D+00
      0.6401216923D+00  0.8137573261D+00
 S   1 1.00       0.000000000000
      0.1612777588D+00  0.1000000000D+01
 ****
     48 0
 S   6 1.00       0.000000000000
      0.3047524880D+04  0.1834737132D-02
      0.4573695180D+03  0.1403732281D-01
      0.1039486850D+03  0.6884262226D-01
      0.2921015530D+02  0.2321844432D+00
      0.9286662960D+01  0.4679413484D+00
      0.3163926960D+01  0.3623119853D+00
 SP   3 1.00       0.000000000000
      0.7868272350D+01 -0.1193324198D+00  0.6899906659D-01
      0.1881288540D+01 -0.1608541517D+00  0.3164239610D+00
      0.5442492580D+00  0.1143456438D+01  0.7443082909D+00
 SP   1 1.00       0.000000000000
      0.1687144782D+00  0.1000000000D+01  0.1000000000D+01
 D   1 1.00       0.000000000000
      0.8000000000D+00  0.1000000000D+01
 ****
     49 0
 S   3 1.00       0.000000000000
      0.1873113696D+02  0.3349460434D-01
      0.2825394365D+01  0.2347269535D+00
      0.6401216923D+00  0.8137573261D+00
 S   1 1.00       0.000000000000
      0.1612777588D+00  0.1000000000D+01
 ****
     50 0
 S   3 1.00       0.000000000000
      0.1873113696D+02  0.3349460434D-01
      0.2825394365D+01  0.2347269535D+00
      0.6401216923D+00  0.8137573261D+00
 S   1 1.00       0.000000000000
      0.1612777588D+00  0.1000000000D+01
 ****
     51 0
 S   6 1.00       0.000000000000
      0.3047524880D+04  0.1834737132D-02
      0.4573695180D+03  0.1403732281D-01
      0.1039486850D+03  0.6884262226D-01
      0.2921015530D+02  0.2321844432D+00
      0.9286662960D+01  0.4679413484D+00
      0.3163926960D+01  0.3623119853D+00
 SP   3 1.00       0.000000000000
      0.7868272350D+01 -0.1193324198D+00  0.6899906659D-01
      0.1881288540D+01 -0.1608541517D+00  0.3164239610D+00
      0.5442492580D+00  0.1143456438D+01  0.7443082909D+00
 SP   1 1.00       0.000000000000
      0.1687144782D+00  0.1000000000D+01  0.1000000000D+01
 D   1 1.00       0.000000000000
      0.8000000000D+00  0.1000000000D+01
 ****
     52 0
 S   3 1.00       0.000000000000
      0.1873113696D+02  0.3349460434D-01
      0.2825394365D+01  0.2347269535D+00
      0.6401216923D+00  0.8137573261D+00
 S   1 1.00       0.000000000000
      0.1612777588D+00  0.1000000000D+01
 ****
     53 0
 S   3 1.00       0.000000000000
      0.1873113696D+02  0.3349460434D-01
      0.2825394365D+01  0.2347269535D+00
      0.6401216923D+00  0.8137573261D+00
 S   1 1.00       0.000000000000
      0.1612777588D+00  0.1000000000D+01
 ****
     54 0
 S   6 1.00       0.000000000000
      0.3047524880D+04  0.1834737132D-02
      0.4573695180D+03  0.1403732281D-01
      0.1039486850D+03  0.6884262226D-01
      0.2921015530D+02  0.2321844432D+00
      0.9286662960D+01  0.4679413484D+00
      0.3163926960D+01  0.3623119853D+00
 SP   3 1.00       0.000000000000
      0.7868272350D+01 -0.1193324198D+00  0.6899906659D-01
      0.1881288540D+01 -0.1608541517D+00  0.3164239610D+00
      0.5442492580D+00  0.1143456438D+01  0.7443082909D+00
 SP   1 1.00       0.000000000000
      0.1687144782D+00  0.1000000000D+01  0.1000000000D+01
 D   1 1.00       0.000000000000
      0.8000000000D+00  0.1000000000D+01
 ****
     55 0
 S   3 1.00       0.000000000000
      0.1873113696D+02  0.3349460434D-01
      0.2825394365D+01  0.2347269535D+00
      0.6401216923D+00  0.8137573261D+00
 S   1 1.00       0.000000000000
      0.1612777588D+00  0.1000000000D+01
 ****
     56 0
 S   6 1.00       0.000000000000
      0.3047524880D+04  0.1834737132D-02
      0.4573695180D+03  0.1403732281D-01
      0.1039486850D+03  0.6884262226D-01
      0.2921015530D+02  0.2321844432D+00
      0.9286662960D+01  0.4679413484D+00
      0.3163926960D+01  0.3623119853D+00
 SP   3 1.00       0.000000000000
      0.7868272350D+01 -0.1193324198D+00  0.6899906659D-01
      0.1881288540D+01 -0.1608541517D+00  0.3164239610D+00
      0.5442492580D+00  0.1143456438D+01  0.7443082909D+00
 SP   1 1.00       0.000000000000
      0.1687144782D+00  0.1000000000D+01  0.1000000000D+01
 D   1 1.00       0.000000000000
      0.8000000000D+00  0.1000000000D+01
 ****
     57 0
 S   3 1.00       0.000000000000
      0.1873113696D+02  0.3349460434D-01
      0.2825394365D+01  0.2347269535D+00
      0.6401216923D+00  0.8137573261D+00
 S   1 1.00       0.000000000000
      0.1612777588D+00  0.1000000000D+01
 ****
     58 0
 S   3 1.00       0.000000000000
      0.1873113696D+02  0.3349460434D-01
      0.2825394365D+01  0.2347269535D+00
      0.6401216923D+00  0.8137573261D+00
 S   1 1.00       0.000000000000
      0.1612777588D+00  0.1000000000D+01
 ****
     59 0
 S   3 1.00       0.000000000000
      0.1873113696D+02  0.3349460434D-01
      0.2825394365D+01  0.2347269535D+00
      0.6401216923D+00  0.8137573261D+00
 S   1 1.00       0.000000000000
      0.1612777588D+00  0.1000000000D+01
 ****
     60 0
 S   6 1.00       0.000000000000
      0.3047524880D+04  0.1834737132D-02
      0.4573695180D+03  0.1403732281D-01
      0.1039486850D+03  0.6884262226D-01
      0.2921015530D+02  0.2321844432D+00
      0.9286662960D+01  0.4679413484D+00
      0.3163926960D+01  0.3623119853D+00
 SP   3 1.00       0.000000000000
      0.7868272350D+01 -0.1193324198D+00  0.6899906659D-01
      0.1881288540D+01 -0.1608541517D+00  0.3164239610D+00
      0.5442492580D+00  0.1143456438D+01  0.7443082909D+00
 SP   1 1.00       0.000000000000
      0.1687144782D+00  0.1000000000D+01  0.1000000000D+01
 D   1 1.00       0.000000000000
      0.8000000000D+00  0.1000000000D+01
 ****
     61 0
 S   3 1.00       0.000000000000
      0.1873113696D+02  0.3349460434D-01
      0.2825394365D+01  0.2347269535D+00
      0.6401216923D+00  0.8137573261D+00
 S   1 1.00       0.000000000000
      0.1612777588D+00  0.1000000000D+01
 ****
     62 0
 S   3 1.00       0.000000000000
      0.1873113696D+02  0.3349460434D-01
      0.2825394365D+01  0.2347269535D+00
      0.6401216923D+00  0.8137573261D+00
 S   1 1.00       0.000000000000
      0.1612777588D+00  0.1000000000D+01
 ****
     63 0
 S   6 1.00       0.000000000000
      0.3047524880D+04  0.1834737132D-02
      0.4573695180D+03  0.1403732281D-01
      0.1039486850D+03  0.6884262226D-01
      0.2921015530D+02  0.2321844432D+00
      0.9286662960D+01  0.4679413484D+00
      0.3163926960D+01  0.3623119853D+00
 SP   3 1.00       0.000000000000
      0.7868272350D+01 -0.1193324198D+00  0.6899906659D-01
      0.1881288540D+01 -0.1608541517D+00  0.3164239610D+00
      0.5442492580D+00  0.1143456438D+01  0.7443082909D+00
 SP   1 1.00       0.000000000000
      0.1687144782D+00  0.1000000000D+01  0.1000000000D+01
 D   1 1.00       0.000000000000
      0.8000000000D+00  0.1000000000D+01
 ****
     64 0
 S   3 1.00       0.000000000000
      0.1873113696D+02  0.3349460434D-01
      0.2825394365D+01  0.2347269535D+00
      0.6401216923D+00  0.8137573261D+00
 S   1 1.00       0.000000000000
      0.1612777588D+00  0.1000000000D+01
 ****
     65 0
 S   3 1.00       0.000000000000
      0.1873113696D+02  0.3349460434D-01
      0.2825394365D+01  0.2347269535D+00
      0.6401216923D+00  0.8137573261D+00
 S   1 1.00       0.000000000000
      0.1612777588D+00  0.1000000000D+01
 ****
     66 0
 S   6 1.00       0.000000000000
      0.3047524880D+04  0.1834737132D-02
      0.4573695180D+03  0.1403732281D-01
      0.1039486850D+03  0.6884262226D-01
      0.2921015530D+02  0.2321844432D+00
      0.9286662960D+01  0.4679413484D+00
      0.3163926960D+01  0.3623119853D+00
 SP   3 1.00       0.000000000000
      0.7868272350D+01 -0.1193324198D+00  0.6899906659D-01
      0.1881288540D+01 -0.1608541517D+00  0.3164239610D+00
      0.5442492580D+00  0.1143456438D+01  0.7443082909D+00
 SP   1 1.00       0.000000000000
      0.1687144782D+00  0.1000000000D+01  0.1000000000D+01
 D   1 1.00       0.000000000000
      0.8000000000D+00  0.1000000000D+01
 ****
     67 0
 S   3 1.00       0.000000000000
      0.1873113696D+02  0.3349460434D-01
      0.2825394365D+01  0.2347269535D+00
      0.6401216923D+00  0.8137573261D+00
 S   1 1.00       0.000000000000
      0.1612777588D+00  0.1000000000D+01
 ****
     68 0
 S   6 1.00       0.000000000000
      0.3047524880D+04  0.1834737132D-02
      0.4573695180D+03  0.1403732281D-01
      0.1039486850D+03  0.6884262226D-01
      0.2921015530D+02  0.2321844432D+00
      0.9286662960D+01  0.4679413484D+00
      0.3163926960D+01  0.3623119853D+00
 SP   3 1.00       0.000000000000
      0.7868272350D+01 -0.1193324198D+00  0.6899906659D-01
      0.1881288540D+01 -0.1608541517D+00  0.3164239610D+00
      0.5442492580D+00  0.1143456438D+01  0.7443082909D+00
 SP   1 1.00       0.000000000000
      0.1687144782D+00  0.1000000000D+01  0.1000000000D+01
 D   1 1.00       0.000000000000
      0.8000000000D+00  0.1000000000D+01
 ****
     69 0
 S   3 1.00       0.000000000000
      0.1873113696D+02  0.3349460434D-01
      0.2825394365D+01  0.2347269535D+00
      0.6401216923D+00  0.8137573261D+00
 S   1 1.00       0.000000000000
      0.1612777588D+00  0.1000000000D+01
 ****
     70 0
 S   3 1.00       0.000000000000
      0.1873113696D+02  0.3349460434D-01
      0.2825394365D+01  0.2347269535D+00
      0.6401216923D+00  0.8137573261D+00
 S   1 1.00       0.000000000000
      0.1612777588D+00  0.1000000000D+01
 ****
     71 0
 S   3 1.00       0.000000000000
      0.1873113696D+02  0.3349460434D-01
      0.2825394365D+01  0.2347269535D+00
      0.6401216923D+00  0.8137573261D+00
 S   1 1.00       0.000000000000
      0.1612777588D+00  0.1000000000D+01
 ****
     72 0
 S   6 1.00       0.000000000000
      0.3047524880D+04  0.1834737132D-02
      0.4573695180D+03  0.1403732281D-01
      0.1039486850D+03  0.6884262226D-01
      0.2921015530D+02  0.2321844432D+00
      0.9286662960D+01  0.4679413484D+00
      0.3163926960D+01  0.3623119853D+00
 SP   3 1.00       0.000000000000
      0.7868272350D+01 -0.1193324198D+00  0.6899906659D-01
      0.1881288540D+01 -0.1608541517D+00  0.3164239610D+00
      0.5442492580D+00  0.1143456438D+01  0.7443082909D+00
 SP   1 1.00       0.000000000000
      0.1687144782D+00  0.1000000000D+01  0.1000000000D+01
 D   1 1.00       0.000000000000
      0.8000000000D+00  0.1000000000D+01
 ****
     73 0
 S   3 1.00       0.000000000000
      0.1873113696D+02  0.3349460434D-01
      0.2825394365D+01  0.2347269535D+00
      0.6401216923D+00  0.8137573261D+00
 S   1 1.00       0.000000000000
      0.1612777588D+00  0.1000000000D+01
 ****
     74 0
 S   3 1.00       0.000000000000
      0.1873113696D+02  0.3349460434D-01
      0.2825394365D+01  0.2347269535D+00
      0.6401216923D+00  0.8137573261D+00
 S   1 1.00       0.000000000000
      0.1612777588D+00  0.1000000000D+01
 ****
     75 0
 S   3 1.00       0.000000000000
      0.1873113696D+02  0.3349460434D-01
      0.2825394365D+01  0.2347269535D+00
      0.6401216923D+00  0.8137573261D+00
 S   1 1.00       0.000000000000
      0.1612777588D+00  0.1000000000D+01
 ****

 AO basis set (Overlap normalization):
 Atom O1       Shell     1 S   6     bf    1 -     1         11.523388632417          7.109251416976          0.000000000000
      0.5484671660D+04  0.1831074430D-02
      0.8252349460D+03  0.1395017220D-01
      0.1880469580D+03  0.6844507810D-01
      0.5296450000D+02  0.2327143360D+00
      0.1689757040D+02  0.4701928980D+00
      0.5799635340D+01  0.3585208530D+00
 Atom O1       Shell     2 SP   3    bf    2 -     5         11.523388632417          7.109251416976          0.000000000000
      0.1553961625D+02 -0.1107775495D+00  0.7087426823D-01
      0.3599933586D+01 -0.1480262627D+00  0.3397528391D+00
      0.1013761750D+01  0.1130767015D+01  0.7271585773D+00
 Atom O1       Shell     3 SP   1    bf    6 -     9         11.523388632417          7.109251416976          0.000000000000
      0.2700058226D+00  0.1000000000D+01  0.1000000000D+01
 Atom O1       Shell     4 D   1     bf   10 -    15         11.523388632417          7.109251416976          0.000000000000
      0.8000000000D+00  0.1000000000D+01
 Atom H2       Shell     5 S   3     bf   16 -    16         11.021935743493          7.126883279892         -1.758369568635
      0.1873113696D+02  0.3349460434D-01
      0.2825394365D+01  0.2347269535D+00
      0.6401216923D+00  0.8137573261D+00
 Atom H2       Shell     6 S   1     bf   17 -    17         11.021935743493          7.126883279892         -1.758369568635
      0.1612777588D+00  0.1000000000D+01
 Atom O3       Shell     7 S   6     bf   18 -    18          0.000000000000          0.000000000000          0.000000000000
      0.5484671660D+04  0.1831074430D-02
      0.8252349460D+03  0.1395017220D-01
      0.1880469580D+03  0.6844507810D-01
      0.5296450000D+02  0.2327143360D+00
      0.1689757040D+02  0.4701928980D+00
      0.5799635340D+01  0.3585208530D+00
 Atom O3       Shell     8 SP   3    bf   19 -    22          0.000000000000          0.000000000000          0.000000000000
      0.1553961625D+02 -0.1107775495D+00  0.7087426823D-01
      0.3599933586D+01 -0.1480262627D+00  0.3397528391D+00
      0.1013761750D+01  0.1130767015D+01  0.7271585773D+00
 Atom O3       Shell     9 SP   1    bf   23 -    26          0.000000000000          0.000000000000          0.000000000000
      0.2700058226D+00  0.1000000000D+01  0.1000000000D+01
 Atom O3       Shell    10 D   1     bf   27 -    32          0.000000000000          0.000000000000          0.000000000000
      0.8000000000D+00  0.1000000000D+01
 Atom H4       Shell    11 S   3     bf   33 -    33         -0.206086256607         -0.322041080443         -1.787991630481
      0.1873113696D+02  0.3349460434D-01
      0.2825394365D+01  0.2347269535D+00
      0.6401216923D+00  0.8137573261D+00
 Atom H4       Shell    12 S   1     bf   34 -    34         -0.206086256607         -0.322041080443         -1.787991630481
      0.1612777588D+00  0.1000000000D+01
 Atom C5       Shell    13 S   6     bf   35 -    35         16.677814155140          0.242352784508          0.803352587941
      0.3047524880D+04  0.1834737132D-02
      0.4573695180D+03  0.1403732281D-01
      0.1039486850D+03  0.6884262226D-01
      0.2921015530D+02  0.2321844432D+00
      0.9286662960D+01  0.4679413484D+00
      0.3163926960D+01  0.3623119853D+00
 Atom C5       Shell    14 SP   3    bf   36 -    39         16.677814155140          0.242352784508          0.803352587941
      0.7868272350D+01 -0.1193324198D+00  0.6899906659D-01
      0.1881288540D+01 -0.1608541517D+00  0.3164239610D+00
      0.5442492580D+00  0.1143456438D+01  0.7443082909D+00
 Atom C5       Shell    15 SP   1    bf   40 -    43         16.677814155140          0.242352784508          0.803352587941
      0.1687144782D+00  0.1000000000D+01  0.1000000000D+01
 Atom C5       Shell    16 D   1     bf   44 -    49         16.677814155140          0.242352784508          0.803352587941
      0.8000000000D+00  0.1000000000D+01
 Atom C6       Shell    17 S   6     bf   50 -    50         14.918505146953          2.490152029622          1.512001815293
      0.3047524880D+04  0.1834737132D-02
      0.4573695180D+03  0.1403732281D-01
      0.1039486850D+03  0.6884262226D-01
      0.2921015530D+02  0.2321844432D+00
      0.9286662960D+01  0.4679413484D+00
      0.3163926960D+01  0.3623119853D+00
 Atom C6       Shell    18 SP   3    bf   51 -    54         14.918505146953          2.490152029622          1.512001815293
      0.7868272350D+01 -0.1193324198D+00  0.6899906659D-01
      0.1881288540D+01 -0.1608541517D+00  0.3164239610D+00
      0.5442492580D+00  0.1143456438D+01  0.7443082909D+00
 Atom C6       Shell    19 SP   1    bf   55 -    58         14.918505146953          2.490152029622          1.512001815293
      0.1687144782D+00  0.1000000000D+01  0.1000000000D+01
 Atom C6       Shell    20 D   1     bf   59 -    64         14.918505146953          2.490152029622          1.512001815293
      0.8000000000D+00  0.1000000000D+01
 Atom H7       Shell    21 S   3     bf   65 -    65         14.500814160999          2.224227084791          3.538559993900
      0.1873113696D+02  0.3349460434D-01
      0.2825394365D+01  0.2347269535D+00
      0.6401216923D+00  0.8137573261D+00
 Atom H7       Shell    22 S   1     bf   66 -    66         14.500814160999          2.224227084791          3.538559993900
      0.1612777588D+00  0.1000000000D+01
 Atom C8       Shell    23 S   6     bf   67 -    67         12.326562319984          2.502473743207          0.192319658421
      0.3047524880D+04  0.1834737132D-02
      0.4573695180D+03  0.1403732281D-01
      0.1039486850D+03  0.6884262226D-01
      0.2921015530D+02  0.2321844432D+00
      0.9286662960D+01  0.4679413484D+00
      0.3163926960D+01  0.3623119853D+00
 Atom C8       Shell    24 SP   3    bf   68 -    71         12.326562319984          2.502473743207          0.192319658421
      0.7868272350D+01 -0.1193324198D+00  0.6899906659D-01
      0.1881288540D+01 -0.1608541517D+00  0.3164239610D+00
      0.5442492580D+00  0.1143456438D+01  0.7443082909D+00
 Atom C8       Shell    25 SP   1    bf   72 -    75         12.326562319984          2.502473743207          0.192319658421
      0.1687144782D+00  0.1000000000D+01  0.1000000000D+01
 Atom C8       Shell    26 D   1     bf   76 -    81         12.326562319984          2.502473743207          0.192319658421
      0.8000000000D+00  0.1000000000D+01
 Atom H9       Shell    27 S   3     bf   82 -    82         12.589042539739          2.717400346533         -1.858568460687
      0.1873113696D+02  0.3349460434D-01
      0.2825394365D+01  0.2347269535D+00
      0.6401216923D+00  0.8137573261D+00
 Atom H9       Shell    28 S   1     bf   83 -    83         12.589042539739          2.717400346533         -1.858568460687
      0.1612777588D+00  0.1000000000D+01
 Atom C10      Shell    29 S   6     bf   84 -    84         10.933107163507         -0.025225802970          0.738361844874
      0.3047524880D+04  0.1834737132D-02
      0.4573695180D+03  0.1403732281D-01
      0.1039486850D+03  0.6884262226D-01
      0.2921015530D+02  0.2321844432D+00
      0.9286662960D+01  0.4679413484D+00
      0.3163926960D+01  0.3623119853D+00
 Atom C10      Shell    30 SP   3    bf   85 -    88         10.933107163507         -0.025225802970          0.738361844874
      0.7868272350D+01 -0.1193324198D+00  0.6899906659D-01
      0.1881288540D+01 -0.1608541517D+00  0.3164239610D+00
      0.5442492580D+00  0.1143456438D+01  0.7443082909D+00
 Atom C10      Shell    31 SP   1    bf   89 -    92         10.933107163507         -0.025225802970          0.738361844874
      0.1687144782D+00  0.1000000000D+01  0.1000000000D+01
 Atom C10      Shell    32 D   1     bf   93 -    98         10.933107163507         -0.025225802970          0.738361844874
      0.8000000000D+00  0.1000000000D+01
 Atom H11      Shell    33 S   3     bf   99 -    99         10.532129746952         -0.013466755341          2.782835590981
      0.1873113696D+02  0.3349460434D-01
      0.2825394365D+01  0.2347269535D+00
      0.6401216923D+00  0.8137573261D+00
 Atom H11      Shell    34 S   1     bf  100 -   100         10.532129746952         -0.013466755341          2.782835590981
      0.1612777588D+00  0.1000000000D+01
 Atom C12      Shell    35 S   6     bf  101 -   101         19.042479733490          0.901160144955          2.463186714849
      0.3047524880D+04  0.1834737132D-02
      0.4573695180D+03  0.1403732281D-01
      0.1039486850D+03  0.6884262226D-01
      0.2921015530D+02  0.2321844432D+00
      0.9286662960D+01  0.4679413484D+00
      0.3163926960D+01  0.3623119853D+00
 Atom C12      Shell    36 SP   3    bf  102 -   105         19.042479733490          0.901160144955          2.463186714849
      0.7868272350D+01 -0.1193324198D+00  0.6899906659D-01
      0.1881288540D+01 -0.1608541517D+00  0.3164239610D+00
      0.5442492580D+00  0.1143456438D+01  0.7443082909D+00
 Atom C12      Shell    37 SP   1    bf  106 -   109         19.042479733490          0.901160144955          2.463186714849
      0.1687144782D+00  0.1000000000D+01  0.1000000000D+01
 Atom C12      Shell    38 D   1     bf  110 -   115         19.042479733490          0.901160144955          2.463186714849
      0.8000000000D+00  0.1000000000D+01
 Atom H13      Shell    39 S   3     bf  116 -   116         18.491586298800          0.458783269686          4.418427970906
      0.1873113696D+02  0.3349460434D-01
      0.2825394365D+01  0.2347269535D+00
      0.6401216923D+00  0.8137573261D+00
 Atom H13      Shell    40 S   1     bf  117 -   117         18.491586298800          0.458783269686          4.418427970906
      0.1612777588D+00  0.1000000000D+01
 Atom C14      Shell    41 S   6     bf  118 -   118         15.253231221932         -2.196099399474          1.514676287998
      0.3047524880D+04  0.1834737132D-02
      0.4573695180D+03  0.1403732281D-01
      0.1039486850D+03  0.6884262226D-01
      0.2921015530D+02  0.2321844432D+00
      0.9286662960D+01  0.4679413484D+00
      0.3163926960D+01  0.3623119853D+00
 Atom C14      Shell    42 SP   3    bf  119 -   122         15.253231221932         -2.196099399474          1.514676287998
      0.7868272350D+01 -0.1193324198D+00  0.6899906659D-01
      0.1881288540D+01 -0.1608541517D+00  0.3164239610D+00
      0.5442492580D+00  0.1143456438D+01  0.7443082909D+00
 Atom C14      Shell    43 SP   1    bf  123 -   126         15.253231221932         -2.196099399474          1.514676287998
      0.1687144782D+00  0.1000000000D+01  0.1000000000D+01
 Atom C14      Shell    44 D   1     bf  127 -   132         15.253231221932         -2.196099399474          1.514676287998
      0.8000000000D+00  0.1000000000D+01
 Atom H15      Shell    45 S   3     bf  133 -   133         15.013142518304         -2.249098299549          3.578121750642
      0.1873113696D+02  0.3349460434D-01
      0.2825394365D+01  0.2347269535D+00
      0.6401216923D+00  0.8137573261D+00
 Atom H15      Shell    46 S   1     bf  134 -   134         15.013142518304         -2.249098299549          3.578121750642
      0.1612777588D+00  0.1000000000D+01
 Atom H16      Shell    47 S   3     bf  135 -   135         16.328441663282         -3.888332994315          1.004948023776
      0.1873113696D+02  0.3349460434D-01
      0.2825394365D+01  0.2347269535D+00
      0.6401216923D+00  0.8137573261D+00
 Atom H16      Shell    48 S   1     bf  136 -   136         16.328441663282         -3.888332994315          1.004948023776
      0.1612777588D+00  0.1000000000D+01
 Atom C17      Shell    49 S   6     bf  137 -   137          8.288732713352         -0.214916890134         -0.587741941549
      0.3047524880D+04  0.1834737132D-02
      0.4573695180D+03  0.1403732281D-01
      0.1039486850D+03  0.6884262226D-01
      0.2921015530D+02  0.2321844432D+00
      0.9286662960D+01  0.4679413484D+00
      0.3163926960D+01  0.3623119853D+00
 Atom C17      Shell    50 SP   3    bf  138 -   141          8.288732713352         -0.214916890134         -0.587741941549
      0.7868272350D+01 -0.1193324198D+00  0.6899906659D-01
      0.1881288540D+01 -0.1608541517D+00  0.3164239610D+00
      0.5442492580D+00  0.1143456438D+01  0.7443082909D+00
 Atom C17      Shell    51 SP   1    bf  142 -   145          8.288732713352         -0.214916890134         -0.587741941549
      0.1687144782D+00  0.1000000000D+01  0.1000000000D+01
 Atom C17      Shell    52 D   1     bf  146 -   151          8.288732713352         -0.214916890134         -0.587741941549
      0.8000000000D+00  0.1000000000D+01
 Atom C18      Shell    53 S   6     bf  152 -   152         16.635861157846          4.827172690990          1.331392185006
      0.3047524880D+04  0.1834737132D-02
      0.4573695180D+03  0.1403732281D-01
      0.1039486850D+03  0.6884262226D-01
      0.2921015530D+02  0.2321844432D+00
      0.9286662960D+01  0.4679413484D+00
      0.3163926960D+01  0.3623119853D+00
 Atom C18      Shell    54 SP   3    bf  153 -   156         16.635861157846          4.827172690990          1.331392185006
      0.7868272350D+01 -0.1193324198D+00  0.6899906659D-01
      0.1881288540D+01 -0.1608541517D+00  0.3164239610D+00
      0.5442492580D+00  0.1143456438D+01  0.7443082909D+00
 Atom C18      Shell    55 SP   1    bf  157 -   160         16.635861157846          4.827172690990          1.331392185006
      0.1687144782D+00  0.1000000000D+01  0.1000000000D+01
 Atom C18      Shell    56 D   1     bf  161 -   166         16.635861157846          4.827172690990          1.331392185006
      0.8000000000D+00  0.1000000000D+01
 Atom H19      Shell    57 S   3     bf  167 -   167         15.944466056053          6.400833303130          2.474870797043
      0.1873113696D+02  0.3349460434D-01
      0.2825394365D+01  0.2347269535D+00
      0.6401216923D+00  0.8137573261D+00
 Atom H19      Shell    58 S   1     bf  168 -   168         15.944466056053          6.400833303130          2.474870797043
      0.1612777588D+00  0.1000000000D+01
 Atom H20      Shell    59 S   3     bf  169 -   169         16.716302660823          5.526504113419         -0.614648051201
      0.1873113696D+02  0.3349460434D-01
      0.2825394365D+01  0.2347269535D+00
      0.6401216923D+00  0.8137573261D+00
 Atom H20      Shell    60 S   1     bf  170 -   170         16.716302660823          5.526504113419         -0.614648051201
      0.1612777588D+00  0.1000000000D+01
 Atom C21      Shell    61 S   6     bf  171 -   171         12.643078124673         -2.339465418964          0.232703540517
      0.3047524880D+04  0.1834737132D-02
      0.4573695180D+03  0.1403732281D-01
      0.1039486850D+03  0.6884262226D-01
      0.2921015530D+02  0.2321844432D+00
      0.9286662960D+01  0.4679413484D+00
      0.3163926960D+01  0.3623119853D+00
 Atom C21      Shell    62 SP   3    bf  172 -   175         12.643078124673         -2.339465418964          0.232703540517
      0.7868272350D+01 -0.1193324198D+00  0.6899906659D-01
      0.1881288540D+01 -0.1608541517D+00  0.3164239610D+00
      0.5442492580D+00  0.1143456438D+01  0.7443082909D+00
 Atom C21      Shell    63 SP   1    bf  176 -   179         12.643078124673         -2.339465418964          0.232703540517
      0.1687144782D+00  0.1000000000D+01  0.1000000000D+01
 Atom C21      Shell    64 D   1     bf  180 -   185         12.643078124673         -2.339465418964          0.232703540517
      0.8000000000D+00  0.1000000000D+01
 Atom H22      Shell    65 S   3     bf  186 -   186         12.918960641211         -2.573709974451         -1.805300709276
      0.1873113696D+02  0.3349460434D-01
      0.2825394365D+01  0.2347269535D+00
      0.6401216923D+00  0.8137573261D+00
 Atom H22      Shell    66 S   1     bf  187 -   187         12.918960641211         -2.573709974451         -1.805300709276
      0.1612777588D+00  0.1000000000D+01
 Atom H23      Shell    67 S   3     bf  188 -   188         11.690317533673         -4.060108287212          0.879666362125
      0.1873113696D+02  0.3349460434D-01
      0.2825394365D+01  0.2347269535D+00
      0.6401216923D+00  0.8137573261D+00
 Atom H23      Shell    68 S   1     bf  189 -   189         11.690317533673         -4.060108287212          0.879666362125
      0.1612777588D+00  0.1000000000D+01
 Atom C24      Shell    69 S   6     bf  190 -   190         19.253771278525          3.838028427966          2.215495113865
      0.3047524880D+04  0.1834737132D-02
      0.4573695180D+03  0.1403732281D-01
      0.1039486850D+03  0.6884262226D-01
      0.2921015530D+02  0.2321844432D+00
      0.9286662960D+01  0.4679413484D+00
      0.3163926960D+01  0.3623119853D+00
 Atom C24      Shell    70 SP   3    bf  191 -   194         19.253771278525          3.838028427966          2.215495113865
      0.7868272350D+01 -0.1193324198D+00  0.6899906659D-01
      0.1881288540D+01 -0.1608541517D+00  0.3164239610D+00
      0.5442492580D+00  0.1143456438D+01  0.7443082909D+00
 Atom C24      Shell    71 SP   1    bf  195 -   198         19.253771278525          3.838028427966          2.215495113865
      0.1687144782D+00  0.1000000000D+01  0.1000000000D+01
 Atom C24      Shell    72 D   1     bf  199 -   204         19.253771278525          3.838028427966          2.215495113865
      0.8000000000D+00  0.1000000000D+01
 Atom H25      Shell    73 S   3     bf  205 -   205         20.725115598275          4.340592910493          0.845681092715
      0.1873113696D+02  0.3349460434D-01
      0.2825394365D+01  0.2347269535D+00
      0.6401216923D+00  0.8137573261D+00
 Atom H25      Shell    74 S   1     bf  206 -   206         20.725115598275          4.340592910493          0.845681092715
      0.1612777588D+00  0.1000000000D+01
 Atom H26      Shell    75 S   3     bf  207 -   207         19.822527481767          4.690654944520          4.012731549150
      0.1873113696D+02  0.3349460434D-01
      0.2825394365D+01  0.2347269535D+00
      0.6401216923D+00  0.8137573261D+00
 Atom H26      Shell    76 S   1     bf  208 -   208         19.822527481767          4.690654944520          4.012731549150
      0.1612777588D+00  0.1000000000D+01
 Atom C27      Shell    77 S   6     bf  209 -   209         10.699776422886          4.748543095224          1.081448616286
      0.3047524880D+04  0.1834737132D-02
      0.4573695180D+03  0.1403732281D-01
      0.1039486850D+03  0.6884262226D-01
      0.2921015530D+02  0.2321844432D+00
      0.9286662960D+01  0.4679413484D+00
      0.3163926960D+01  0.3623119853D+00
 Atom C27      Shell    78 SP   3    bf  210 -   213         10.699776422886          4.748543095224          1.081448616286
      0.7868272350D+01 -0.1193324198D+00  0.6899906659D-01
      0.1881288540D+01 -0.1608541517D+00  0.3164239610D+00
      0.5442492580D+00  0.1143456438D+01  0.7443082909D+00
 Atom C27      Shell    79 SP   1    bf  214 -   217         10.699776422886          4.748543095224          1.081448616286
      0.1687144782D+00  0.1000000000D+01  0.1000000000D+01
 Atom C27      Shell    80 D   1     bf  218 -   223         10.699776422886          4.748543095224          1.081448616286
      0.8000000000D+00  0.1000000000D+01
 Atom H28      Shell    81 S   3     bf  224 -   224         10.996065562809          5.027861379535          3.118568152996
      0.1873113696D+02  0.3349460434D-01
      0.2825394365D+01  0.2347269535D+00
      0.6401216923D+00  0.8137573261D+00
 Atom H28      Shell    82 S   1     bf  225 -   225         10.996065562809          5.027861379535          3.118568152996
      0.1612777588D+00  0.1000000000D+01
 Atom C29      Shell    83 S   6     bf  226 -   226         21.586360399830         -0.453570101100          1.949946545788
      0.3047524880D+04  0.1834737132D-02
      0.4573695180D+03  0.1403732281D-01
      0.1039486850D+03  0.6884262226D-01
      0.2921015530D+02  0.2321844432D+00
      0.9286662960D+01  0.4679413484D+00
      0.3163926960D+01  0.3623119853D+00
 Atom C29      Shell    84 SP   3    bf  227 -   230         21.586360399830         -0.453570101100          1.949946545788
      0.7868272350D+01 -0.1193324198D+00  0.6899906659D-01
      0.1881288540D+01 -0.1608541517D+00  0.3164239610D+00
      0.5442492580D+00  0.1143456438D+01  0.7443082909D+00
 Atom C29      Shell    85 SP   1    bf  231 -   234         21.586360399830         -0.453570101100          1.949946545788
      0.1687144782D+00  0.1000000000D+01  0.1000000000D+01
 Atom C29      Shell    86 D   1     bf  235 -   240         21.586360399830         -0.453570101100          1.949946545788
      0.8000000000D+00  0.1000000000D+01
 Atom H30      Shell    87 S   3     bf  241 -   241         22.145018756995          0.000000000000          0.000000000000
      0.1873113696D+02  0.3349460434D-01
      0.2825394365D+01  0.2347269535D+00
      0.6401216923D+00  0.8137573261D+00
 Atom H30      Shell    88 S   1     bf  242 -   242         22.145018756995          0.000000000000          0.000000000000
      0.1612777588D+00  0.1000000000D+01
 Atom C31      Shell    89 S   6     bf  243 -   243         17.389873544478          0.232194561681         -2.029436344890
      0.3047524880D+04  0.1834737132D-02
      0.4573695180D+03  0.1403732281D-01
      0.1039486850D+03  0.6884262226D-01
      0.2921015530D+02  0.2321844432D+00
      0.9286662960D+01  0.4679413484D+00
      0.3163926960D+01  0.3623119853D+00
 Atom C31      Shell    90 SP   3    bf  244 -   247         17.389873544478          0.232194561681         -2.029436344890
      0.7868272350D+01 -0.1193324198D+00  0.6899906659D-01
      0.1881288540D+01 -0.1608541517D+00  0.3164239610D+00
      0.5442492580D+00  0.1143456438D+01  0.7443082909D+00
 Atom C31      Shell    91 SP   1    bf  248 -   251         17.389873544478          0.232194561681         -2.029436344890
      0.1687144782D+00  0.1000000000D+01  0.1000000000D+01
 Atom C31      Shell    92 D   1     bf  252 -   257         17.389873544478          0.232194561681         -2.029436344890
      0.8000000000D+00  0.1000000000D+01
 Atom H32      Shell    93 S   3     bf  258 -   258         15.730183717057          0.168576270013         -3.257803571309
      0.1873113696D+02  0.3349460434D-01
      0.2825394365D+01  0.2347269535D+00
      0.6401216923D+00  0.8137573261D+00
 Atom H32      Shell    94 S   1     bf  259 -   259         15.730183717057          0.168576270013         -3.257803571309
      0.1612777588D+00  0.1000000000D+01
 Atom H33      Shell    95 S   3     bf  260 -   260         18.475540709795          1.909764580929         -2.559486856225
      0.1873113696D+02  0.3349460434D-01
      0.2825394365D+01  0.2347269535D+00
      0.6401216923D+00  0.8137573261D+00
 Atom H33      Shell    96 S   1     bf  261 -   261         18.475540709795          1.909764580929         -2.559486856225
      0.1612777588D+00  0.1000000000D+01
 Atom H34      Shell    97 S   3     bf  262 -   262         18.547662504499         -1.421832644692         -2.484787040439
      0.1873113696D+02  0.3349460434D-01
      0.2825394365D+01  0.2347269535D+00
      0.6401216923D+00  0.8137573261D+00
 Atom H34      Shell    98 S   1     bf  263 -   263         18.547662504499         -1.421832644692         -2.484787040439
      0.1612777588D+00  0.1000000000D+01
 Atom C35      Shell    99 S   6     bf  264 -   264          6.822331331350          2.255061198081         -0.217170388548
      0.3047524880D+04  0.1834737132D-02
      0.4573695180D+03  0.1403732281D-01
      0.1039486850D+03  0.6884262226D-01
      0.2921015530D+02  0.2321844432D+00
      0.9286662960D+01  0.4679413484D+00
      0.3163926960D+01  0.3623119853D+00
 Atom C35      Shell   100 SP   3    bf  265 -   268          6.822331331350          2.255061198081         -0.217170388548
      0.7868272350D+01 -0.1193324198D+00  0.6899906659D-01
      0.1881288540D+01 -0.1608541517D+00  0.3164239610D+00
      0.5442492580D+00  0.1143456438D+01  0.7443082909D+00
 Atom C35      Shell   101 SP   1    bf  269 -   272          6.822331331350          2.255061198081         -0.217170388548
      0.1687144782D+00  0.1000000000D+01  0.1000000000D+01
 Atom C35      Shell   102 D   1     bf  273 -   278          6.822331331350          2.255061198081         -0.217170388548
      0.8000000000D+00  0.1000000000D+01
 Atom C36      Shell   103 S   6     bf  279 -   279          6.754310091176         -2.394465557911          0.675302269635
      0.3047524880D+04  0.1834737132D-02
      0.4573695180D+03  0.1403732281D-01
      0.1039486850D+03  0.6884262226D-01
      0.2921015530D+02  0.2321844432D+00
      0.9286662960D+01  0.4679413484D+00
      0.3163926960D+01  0.3623119853D+00
 Atom C36      Shell   104 SP   3    bf  280 -   283          6.754310091176         -2.394465557911          0.675302269635
      0.7868272350D+01 -0.1193324198D+00  0.6899906659D-01
      0.1881288540D+01 -0.1608541517D+00  0.3164239610D+00
      0.5442492580D+00  0.1143456438D+01  0.7443082909D+00
 Atom C36      Shell   105 SP   1    bf  284 -   287          6.754310091176         -2.394465557911          0.675302269635
      0.1687144782D+00  0.1000000000D+01  0.1000000000D+01
 Atom C36      Shell   106 D   1     bf  288 -   293          6.754310091176         -2.394465557911          0.675302269635
      0.8000000000D+00  0.1000000000D+01
 Atom H37      Shell   107 S   3     bf  294 -   294          6.908478389954         -2.186923361805          2.735514354175
      0.1873113696D+02  0.3349460434D-01
      0.2825394365D+01  0.2347269535D+00
      0.6401216923D+00  0.8137573261D+00
 Atom H37      Shell   108 S   1     bf  295 -   295          6.908478389954         -2.186923361805          2.735514354175
      0.1612777588D+00  0.1000000000D+01
 Atom H38      Shell   109 S   3     bf  296 -   296          7.622666347910         -4.212325292579          0.202343918562
      0.1873113696D+02  0.3349460434D-01
      0.2825394365D+01  0.2347269535D+00
      0.6401216923D+00  0.8137573261D+00
 Atom H38      Shell   110 S   1     bf  297 -   297          7.622666347910         -4.212325292579          0.202343918562
      0.1612777588D+00  0.1000000000D+01
 Atom C39      Shell   111 S   6     bf  298 -   298          7.926502335912          4.391601059676          0.582004600728
      0.3047524880D+04  0.1834737132D-02
[...]
 1567 Fit       0.003179
 1568 Fit       0.000662
 1569 Fit       0.002048
 1570 Fit       0.001455
 1571 Fit       0.002114
 1572 Fit       0.002399
 1573 Fit       0.000941
 1574 Fit       0.000769
 1575 Fit       0.001040
 1576 Fit      -0.000430
 1577 Fit       0.000343
 1578 Fit       0.001224
 1579 Fit      -0.001685
 1580 Fit      -0.001548
 1581 Fit      -0.001344
 1582 Fit      -0.001122
 1583 Fit      -0.000878
 1584 Fit      -0.001187
 1585 Fit      -0.001584
 1586 Fit      -0.000840
 1587 Fit       0.000941
 1588 Fit       0.000041
 1589 Fit      -0.000580
 1590 Fit       0.000895
 1591 Fit       0.001394
 1592 Fit       0.002266
 1593 Fit      -0.000317
 1594 Fit       0.001501
 1595 Fit       0.002411
 1596 Fit      -0.000155
 1597 Fit       0.001615
 1598 Fit      -0.002234
 1599 Fit      -0.003663
 1600 Fit      -0.003541
 1601 Fit      -0.001392
 1602 Fit       0.000069
 1603 Fit      -0.000125
 1604 Fit      -0.001793
 1605 Fit       0.000872
 1606 Fit       0.002505
 1607 Fit       0.002645
 1608 Fit      -0.000488
 1609 Fit       0.002582
 1610 Fit       0.004228
 1611 Fit       0.001670
 1612 Fit       0.001778
 1613 Fit       0.000729
 1614 Fit       0.000126
 1615 Fit       0.000220
 1616 Fit       0.001005
 1617 Fit       0.002285
 1618 Fit       0.000770
 1619 Fit      -0.000451
 1620 Fit      -0.001563
 1621 Fit      -0.002197
 1622 Fit      -0.002435
 1623 Fit      -0.002322
 1624 Fit      -0.001972
 1625 Fit      -0.001529
 1626 Fit      -0.001862
 1627 Fit      -0.001155
 1628 Fit      -0.001291
 1629 Fit      -0.002553
 1630 Fit      -0.000307
 1631 Fit       0.000491
 1632 Fit       0.000688
 1633 Fit      -0.000073
 1634 Fit      -0.001591
 1635 Fit       0.001509
 1636 Fit       0.001008
 1637 Fit      -0.000205
 1638 Fit      -0.001339
 1639 Fit       0.000637
 1640 Fit      -0.022272
 1641 Fit      -0.022747
 1642 Fit      -0.019207
 1643 Fit      -0.025076
 1644 Fit      -0.023611
 1645 Fit      -0.019710
 1646 Fit      -0.022883
 1647 Fit      -0.022181
 1648 Fit      -0.020532
 1649 Fit      -0.017765
 1650 Fit      -0.013264
 1651 Fit      -0.015189
 1652 Fit      -0.013045
 1653 Fit      -0.009692
 1654 Fit      -0.005213
 1655 Fit      -0.003465
 1656 Fit      -0.002442
 1657 Fit       0.001813
 1658 Fit       0.005372
 1659 Fit       0.005090
 1660 Fit       0.003187
 1661 Fit       0.004502
 1662 Fit       0.007250
 1663 Fit       0.010193
 1664 Fit       0.011861
 1665 Fit       0.013113
 1666 Fit       0.012313
 1667 Fit       0.014441
 1668 Fit       0.016351
 1669 Fit       0.018021
 1670 Fit       0.017402
 1671 Fit       0.016842
 1672 Fit      -0.017111
 1673 Fit      -0.020947
 1674 Fit      -0.016644
 1675 Fit      -0.020901
 1676 Fit      -0.024591
 1677 Fit      -0.025206
 1678 Fit      -0.023544
 1679 Fit      -0.019083
 1680 Fit      -0.021287
 1681 Fit      -0.024068
 1682 Fit      -0.024291
 1683 Fit      -0.023270
 1684 Fit      -0.021298
 1685 Fit      -0.017503
 1686 Fit      -0.014349
 1687 Fit      -0.018373
 1688 Fit      -0.019003
 1689 Fit      -0.017952
 1690 Fit      -0.016343
 1691 Fit      -0.014549
 1692 Fit      -0.012137
 1693 Fit      -0.008150
 1694 Fit      -0.009071
 1695 Fit      -0.009080
 1696 Fit      -0.006941
 1697 Fit      -0.004245
 1698 Fit      -0.001736
 1699 Fit       0.000409
 1700 Fit       0.002648
 1701 Fit       0.004825
 1702 Fit       0.007402
 1703 Fit       0.010443
 1704 Fit       0.009159
 1705 Fit       0.010148
 1706 Fit       0.011981
 1707 Fit       0.014091
 1708 Fit       0.016749
 1709 Fit       0.017642
 1710 Fit       0.017890
 1711 Fit       0.020217
 1712 Fit       0.023787
 1713 Fit       0.022335
 1714 Fit       0.003264
 1715 Fit       0.001256
 1716 Fit       0.002276
 1717 Fit       0.004229
 1718 Fit       0.004844
 1719 Fit       0.011247
 1720 Fit       0.005389
 1721 Fit       0.004387
 1722 Fit       0.005320
 1723 Fit       0.006152
 1724 Fit       0.005814
 1725 Fit       0.003249
 1726 Fit       0.003906
 1727 Fit       0.003656
 1728 Fit       0.002018
 1729 Fit       0.004339
 1730 Fit       0.005005
 1731 Fit       0.004880
 1732 Fit       0.003995
 1733 Fit       0.003478
 1734 Fit       0.005367
 1735 Fit       0.004062
 1736 Fit       0.002783
 1737 Fit       0.002237
 1738 Fit       0.001590
 1739 Fit       0.003230
 1740 Fit       0.002427
 1741 Fit       0.004414
 1742 Fit       0.004243
 1743 Fit       0.005103
 1744 Fit       0.005793
 1745 Fit      -0.008800
 1746 Fit      -0.009182
 1747 Fit      -0.014980
 1748 Fit      -0.002174
 1749 Fit      -0.003925
 1750 Fit      -0.005000
 1751 Fit      -0.002060
 1752 Fit      -0.006369
 1753 Fit      -0.009090
 1754 Fit      -0.011609
 1755 Fit      -0.007963
 1756 Fit      -0.010739
 1757 Fit      -0.016739
 1758 Fit      -0.014661
 1759 Fit      -0.005802
 1760 Fit      -0.009898
 1761 Fit      -0.000888
 1762 Fit      -0.003563
 1763 Fit      -0.005904
 1764 Fit       0.000448
 1765 Fit       0.001678
 1766 Fit       0.006569
 1767 Fit       0.002993
 1768 Fit       0.006479
 1769 Fit       0.005105
 1770 Fit       0.007899
 1771 Fit       0.006094
 1772 Fit       0.007079
 1773 Fit       0.005331
 1774 Fit       0.006492
 1775 Fit       0.005723
 1776 Fit       0.003930
 1777 Fit       0.007004
 1778 Fit       0.005249
 1779 Fit       0.007724
 1780 Fit       0.005622
 1781 Fit       0.007524
 1782 Fit      -0.002699
 1783 Fit      -0.004757
 1784 Fit      -0.007108
 1785 Fit      -0.005052
 1786 Fit      -0.002744
 1787 Fit      -0.000180
 1788 Fit      -0.001618
 1789 Fit      -0.004008
 1790 Fit       0.001166
 1791 Fit       0.000550
 1792 Fit      -0.000980
 1793 Fit       0.002337
 1794 Fit       0.001296
 1795 Fit       0.000043
 1796 Fit      -0.000651
 1797 Fit       0.000449
 1798 Fit       0.000385
 1799 Fit      -0.000925
 1800 Fit      -0.002261
 1801 Fit      -0.002710
 1802 Fit      -0.001997
 1803 Fit      -0.003634
 1804 Fit      -0.005314
 1805 Fit       0.001634
 1806 Fit       0.001456
 1807 Fit      -0.001548
 1808 Fit      -0.001411
 1809 Fit       0.000616
 1810 Fit       0.003334
 1811 Fit       0.004226
 1812 Fit      -0.007990
 1813 Fit      -0.007885
 1814 Fit      -0.004355
 1815 Fit       0.000795
 1816 Fit       0.000877
 1817 Fit       0.001864
 1818 Fit       0.000898
 1819 Fit       0.001462
 1820 Fit       0.001732
 1821 Fit       0.001701
 1822 Fit       0.000947
 1823 Fit       0.000537
 1824 Fit       0.003004
 1825 Fit       0.003134
 1826 Fit       0.000761
 1827 Fit       0.001407
 1828 Fit       0.001454
 1829 Fit       0.002014
 1830 Fit       0.006027
 1831 Fit       0.005282
 1832 Fit       0.006671
 1833 Fit       0.007894
 1834 Fit       0.005787
 1835 Fit       0.004437
 1836 Fit       0.002591
 1837 Fit       0.002390
 1838 Fit       0.001383
 1839 Fit       0.002231
 1840 Fit       0.002381
 1841 Fit       0.002527
 1842 Fit       0.001060
 1843 Fit       0.002004
 1844 Fit       0.002472
 1845 Fit       0.005505
 1846 Fit       0.002176
 1847 Fit       0.001497
 1848 Fit       0.004095
 1849 Fit       0.003820
 1850 Fit       0.002771
 1851 Fit       0.001162
 1852 Fit       0.002440
 1853 Fit       0.005305
 1854 Fit       0.005343
 1855 Fit       0.006248
 1856 Fit       0.005595
 1857 Fit       0.004754
 1858 Fit       0.004738
 1859 Fit       0.004844
 1860 Fit       0.005415
 1861 Fit       0.001675
 1862 Fit       0.004539
 1863 Fit       0.004708
 1864 Fit       0.005142
 1865 Fit       0.005849
 1866 Fit       0.005900
 1867 Fit       0.006988
 1868 Fit       0.006856
 1869 Fit       0.007792
 1870 Fit       0.007768
 1871 Fit       0.008630
 1872 Fit       0.008892
 1873 Fit       0.009767
 1874 Fit      -0.002777
 1875 Fit      -0.003289
 1876 Fit      -0.001452
 1877 Fit      -0.002889
 1878 Fit       0.004115
 1879 Fit       0.007345
 1880 Fit      -0.002493
 1881 Fit      -0.012028
 1882 Fit      -0.004101
 1883 Fit      -0.000494
 1884 Fit       0.000035
 1885 Fit      -0.013382
 1886 Fit      -0.003024
 1887 Fit       0.001028
 1888 Fit       0.002739
 1889 Fit      -0.001380
 1890 Fit       0.002363
 1891 Fit       0.001764
 1892 Fit       0.003394
 1893 Fit       0.009070
 1894 Fit       0.006388
 1895 Fit       0.006263
 1896 Fit       0.007496
 1897 Fit       0.006921
 1898 Fit       0.005948
 1899 Fit       0.006409
 1900 Fit       0.009468
 1901 Fit       0.009169
 1902 Fit       0.008973
 1903 Fit       0.008757
 1904 Fit       0.008314
 1905 Fit       0.008223
 1906 Fit       0.008016
 1907 Fit       0.007908
 1908 Fit       0.007624
 1909 Fit       0.006992
 1910 Fit       0.006828
 1911 Fit       0.009115
 1912 Fit       0.016598
 1913 Fit       0.016241
 1914 Fit       0.012415
 1915 Fit       0.009795
 1916 Fit       0.011519
 1917 Fit       0.009451
 1918 Fit       0.008163
 1919 Fit       0.013713
 1920 Fit       0.008936
 1921 Fit       0.010557
 1922 Fit       0.012207
 1923 Fit       0.010907
 1924 Fit       0.007413
 1925 Fit       0.007729
 1926 Fit       0.008896
 1927 Fit       0.008049
 1928 Fit       0.006982
 1929 Fit       0.003664
 1930 Fit       0.002156
 1931 Fit       0.005600
 1932 Fit      -0.002003
 1933 Fit       0.001561
 1934 Fit      -0.002622
 1935 Fit      -0.011320
 1936 Fit       0.002429
 1937 Fit      -0.001204
 1938 Fit      -0.008620
 1939 Fit       0.002843
 1940 Fit       0.000184
 1941 Fit      -0.005154
 1942 Fit       0.003294
 1943 Fit       0.001837
 1944 Fit       0.006657
 1945 Fit       0.006443
 1946 Fit       0.007772
 1947 Fit       0.013352
 1948 Fit       0.009788
 1949 Fit       0.010548
 1950 Fit       0.015256
 1951 Fit       0.018545
 1952 Fit       0.013494
 1953 Fit       0.006150
 1954 Fit       0.007091
 1955 Fit       0.006453
 1956 Fit       0.008140
 1957 Fit       0.009459
 1958 Fit       0.006360
 1959 Fit       0.006363
 1960 Fit       0.017680
 1961 Fit       0.010822
 1962 Fit       0.009178
 1963 Fit       0.009377
 1964 Fit       0.018876
 1965 Fit       0.013092
 1966 Fit       0.011483
 1967 Fit       0.002730
 1968 Fit      -0.002660
 1969 Fit       0.001564
 1970 Fit       0.004153
 1971 Fit      -0.006284
 1972 Fit       0.000239
 1973 Fit       0.003420
 1974 Fit       0.004895
 1975 Fit      -0.005513
 1976 Fit       0.000697
 1977 Fit       0.003585
 1978 Fit       0.005167
 1979 Fit      -0.003581
 1980 Fit       0.001504
 1981 Fit       0.003908
 1982 Fit       0.005538
 1983 Fit      -0.002903
 1984 Fit      -0.002331
 1985 Fit      -0.001471
 1986 Fit       0.002001
 1987 Fit       0.001862
 1988 Fit       0.000376
 1989 Fit      -0.001514
 1990 Fit       0.002409
 1991 Fit       0.001633
 1992 Fit       0.000320
 1993 Fit      -0.001338
 1994 Fit       0.001494
 1995 Fit       0.000128
 1996 Fit       0.000866
 1997 Fit      -0.000354
 1998 Fit      -0.002115
 1999 Fit      -0.000843
 2000 Fit      -0.000887
 2001 Fit      -0.001354
 2002 Fit      -0.000362
 2003 Fit       0.000193
 2004 Fit      -0.008704
 2005 Fit      -0.011218
 2006 Fit       0.000509
 2007 Fit       0.003382
 2008 Fit       0.000500
 2009 Fit      -0.002416
 2010 Fit      -0.004529
 2011 Fit      -0.001192
 2012 Fit       0.003349
 2013 Fit      -0.001121
 2014 Fit      -0.001746
 2015 Fit      -0.002820
 2016 Fit      -0.007717
 2017 Fit      -0.013195
 2018 Fit      -0.013597
 2019 Fit      -0.007167
 2020 Fit       0.000729
 2021 Fit      -0.000769
 2022 Fit       0.000797
 2023 Fit      -0.000232
 2024 Fit      -0.000891
 2025 Fit       0.000659
 2026 Fit      -0.000485
 2027 Fit      -0.000053
 2028 Fit       0.000508
 2029 Fit       0.000584
 2030 Fit       0.000317
 2031 Fit       0.001178
 2032 Fit       0.003325
 2033 Fit       0.003082
 2034 Fit       0.002789
 2035 Fit       0.002352
 2036 Fit       0.001643
 2037 Fit       0.000803
 2038 Fit       0.001202
 2039 Fit       0.000527
 2040 Fit      -0.000014
 2041 Fit       0.000984
 2042 Fit      -0.000026
 2043 Fit       0.001234
 2044 Fit       0.002050
 2045 Fit       0.002465
 2046 Fit       0.000254
 2047 Fit       0.001438
 2048 Fit       0.002176
 2049 Fit       0.001604
 2050 Fit       0.000612
 2051 Fit       0.001447
 2052 Fit       0.000591
 2053 Fit       0.000271
 2054 Fit       0.002713
 2055 Fit       0.000687
 2056 Fit       0.005873
 2057 Fit       0.003720
 2058 Fit       0.001654
 2059 Fit       0.002351
 2060 Fit       0.005447
 2061 Fit       0.003228
 2062 Fit       0.002374
 2063 Fit       0.002035
 2064 Fit       0.000343
 2065 Fit       0.000435
 2066 Fit      -0.001253
 2067 Fit      -0.002140
 2068 Fit      -0.002719
 2069 Fit      -0.003531
 2070 Fit       0.000110
 2071 Fit      -0.001251
 2072 Fit      -0.000263
 2073 Fit       0.000536
 2074 Fit      -0.001747
 2075 Fit      -0.000516
 2076 Fit       0.000220
 2077 Fit       0.000354
 2078 Fit       0.000318
 2079 Fit      -0.001888
 2080 Fit      -0.000568
 2081 Fit       0.000028
 2082 Fit       0.000204
 2083 Fit      -0.001089
 2084 Fit       0.001324
 2085 Fit       0.000265
 2086 Fit      -0.001330
 2087 Fit       0.001589
 2088 Fit       0.001918
 2089 Fit       0.001392
 2090 Fit       0.000052
 2091 Fit      -0.001934
 2092 Fit       0.002013
 2093 Fit       0.001412
 2094 Fit       0.000307
 2095 Fit       0.000030
 2096 Fit       0.000367
 2097 Fit       0.000440
 2098 Fit      -0.000236
 2099 Fit      -0.000531
 2100 Fit       0.000385
 2101 Fit       0.000487
 2102 Fit       0.000154
 2103 Fit      -0.000516
 2104 Fit      -0.000210
 2105 Fit       0.000022
 2106 Fit      -0.000083
 2107 Fit      -0.000287
 2108 Fit      -0.000297
 2109 Fit       0.000083
 2110 Fit      -0.001227
 2111 Fit      -0.001858
 2112 Fit      -0.002162
 2113 Fit      -0.002098
 2114 Fit      -0.001837
 2115 Fit      -0.001600
 2116 Fit      -0.000783
 2117 Fit      -0.001802
 2118 Fit      -0.002099
 2119 Fit      -0.001439
 2120 Fit      -0.000779
 2121 Fit      -0.000416
 2122 Fit      -0.000774
 2123 Fit       0.001561
 2124 Fit       0.001509
 2125 Fit       0.000771
 2126 Fit      -0.000661
 2127 Fit       0.002779
 2128 Fit       0.002850
 2129 Fit       0.001989
 2130 Fit       0.000358
 2131 Fit       0.000955
 2132 Fit       0.001498
 2133 Fit       0.001167
 2134 Fit       0.001677
 2135 Fit       0.001856
 2136 Fit       0.000847
 2137 Fit       0.000653
 2138 Fit       0.000833
 2139 Fit       0.000073
 2140 Fit       0.000600
 2141 Fit      -0.000823
 2142 Fit      -0.000769
 2143 Fit      -0.000654
 2144 Fit      -0.000485
 2145 Fit      -0.000269
 2146 Fit      -0.001283
 2147 Fit       0.000043
 2148 Fit      -0.000853
 2149 Fit       0.000061
 2150 Fit       0.000341
 2151 Fit       0.001237
 2152 Fit       0.000581
 2153 Fit      -0.001002
 2154 Fit       0.000252
 2155 Fit       0.001198
 2156 Fit       0.001517
 2157 Fit       0.002102
 2158 Fit       0.000048
 2159 Fit       0.001268
 2160 Fit       0.001975
 2161 Fit       0.001376
 2162 Fit      -0.001655
 2163 Fit      -0.002098
 2164 Fit      -0.002884
 2165 Fit      -0.002977
 2166 Fit      -0.002448
 2167 Fit      -0.001015
 2168 Fit      -0.002715
 2169 Fit      -0.001982
 2170 Fit      -0.000843
 2171 Fit      -0.001744
 2172 Fit      -0.000668
 2173 Fit      -0.000798
 2174 Fit      -0.000940
 2175 Fit       0.000722
 2176 Fit       0.001472
 2177 Fit       0.001301
 2178 Fit       0.000422
 2179 Fit       0.002351
 2180 Fit       0.003085
 2181 Fit       0.002774
 2182 Fit       0.001135
 2183 Fit       0.001342
 2184 Fit       0.000545
 2185 Fit       0.000073
 2186 Fit       0.000172
 2187 Fit       0.000811
 2188 Fit       0.001708
 2189 Fit       0.000853
 2190 Fit      -0.000054
 2191 Fit      -0.000867
 2192 Fit      -0.001385
 2193 Fit      -0.001593
 2194 Fit      -0.001480
 2195 Fit      -0.001150
 2196 Fit      -0.000720
 2197 Fit      -0.001626
 2198 Fit      -0.001818
 2199 Fit      -0.000441
 2200 Fit      -0.000274
 2201 Fit      -0.000694
 2202 Fit      -0.001646
 2203 Fit       0.000014
 2204 Fit       0.000501
 2205 Fit       0.000547
 2206 Fit       0.000022
 2207 Fit      -0.000919
 2208 Fit      -0.001786
 2209 Fit       0.001101
 2210 Fit       0.000448
 2211 Fit      -0.000250
 -----------------------------------------------------------------
 Leave Link  602 at Thu May 18 13:01:10 2017, MaxMem=    33554432 cpu:         4.2
 (Enter /home/michal/g09/l9999.exe)

 Test job not archived.
 1\1\GINC-LINUX\SP\RHF\6-31G(d)\C27H46O2\MICHAL\18-May-2017\0\\#P HF/6-
 31G* SCF(Conver=6) NoSymm Test Pop=mk IOp(6/33=2) GFInput GFPrint\\MEP
  - Input generated by R.E.D.-III.x MOLECULE\\0,1\O,0,6.09791463,3.7620
 5382,0.\H,0,5.83255719,3.7713842,-0.9304891\O,0,0.,0.,0.\H,0,-0.109056
 15,-0.1704168,-0.94616442\C,0,8.82551914,0.12824757,0.42511588\C,0,7.8
 9453291,1.3177317,0.8001169\H,0,7.67350036,1.17701028,1.8725253\C,0,6.
 52293584,1.32425207,0.10177118\H,0,6.66183439,1.43798633,-0.98351207\C
 ,0,5.78555113,-0.01334892,0.39072426\H,0,5.57336302,-0.0071263,1.47261
 317\C,0,10.07684627,0.47687341,1.30346227\H,0,9.78532602,0.24277765,2.
 33813138\C,0,8.07166232,-1.16212575,0.80153217\H,0,7.94461285,-1.19017
 156,1.89346048\H,0,8.64063918,-2.0576172,0.53179559\C,0,4.38620844,-0.
 11372912,-0.31101964\C,0,8.80331857,2.55442977,0.7045424\H,0,8.4374480
 4,3.3871751,1.30964522\H,0,8.84588638,2.92450002,-0.32525774\C,0,6.690
 42879,-1.23799178,0.12314141\H,0,6.83641953,-1.36194866,-0.95532399\H,
 0,6.1862496,-2.14851677,0.46549939\C,0,10.18865694,2.03099717,1.172389
 52\H,0,10.96725882,2.29694284,0.44751516\H,0,10.48962976,2.48218769,2.
 12344608\C,0,5.66207782,2.51282078,0.57227796\H,0,5.81886728,2.6606296
 5,1.65027519\C,0,11.42300994,-0.24001896,1.03186727\H,0,11.71863921,0.
 ,0.\C,0,9.20232474,0.12287207,-1.07393146\H,0,8.32405471,0.08920672,-1
 .7239554\H,0,9.77683506,1.01060389,-1.35442211\H,0,9.81500027,-0.75240
 143,-1.31489267\C,0,3.61022225,1.19332699,-0.11492162\C,0,3.57422696,-
 1.2670966,0.35735457\H,0,3.65580931,-1.15727,1.44757185\H,0,4.0337413,
 -2.22906654,0.10707579\C,0,4.19452438,2.32393519,0.30798357\H,0,3.5887
 932,3.21696821,0.46181033\C,0,4.52347348,-0.39035289,-1.83225437\H,0,4
 .91360796,-1.39514922,-2.02132446\H,0,3.55946909,-0.31794817,-2.342504
 11\H,0,5.19439464,0.33178587,-2.30753892\C,0,2.12251068,1.16713304,-0.
 41122995\H,0,1.66440507,2.12221165,-0.13613556\H,0,1.96122147,1.039273
 16,-1.49394058\C,0,2.08344594,-1.31069932,-0.01220929\H,0,1.95841067,-
 1.53249935,-1.08255814\H,0,1.58593078,-2.11928586,0.53524953\C,0,12.56
 816163,0.30536344,1.9269737\H,0,13.50007523,-0.1812651,1.60490637\H,0,
 12.70774373,1.37509136,1.72746937\C,0,1.39722686,0.01780567,0.30427589
 \H,0,1.43367093,0.19270979,1.38646426\C,0,11.34564825,-1.77479273,1.13
 885394\H,0,10.89539666,-2.09724164,2.08437418\H,0,12.34925339,-2.21305
 867,1.08341649\H,0,10.75658204,-2.21273473,0.32903412\C,0,12.41396008,
 0.10409359,3.44393515\H,0,11.50642012,0.61151815,3.79313861\H,0,12.277
 01735,-0.96177287,3.66280088\C,0,13.63078124,0.63660961,4.21866967\H,0
 ,13.76540981,1.70012253,3.97330464\H,0,14.53214047,0.12561362,3.850088
 3\C,0,13.58890239,0.49579897,5.75825345\H,0,14.53310424,0.92465302,6.1
 255145\C,0,13.55074356,-0.97087887,6.21887468\H,0,12.60647443,-1.45610
 566,5.94604881\H,0,13.6501696,-1.04011425,7.30818987\H,0,14.36644661,-
 1.551157,5.77160436\C,0,12.44802611,1.30497798,6.39725764\H,0,11.46531
 871,0.8995871,6.12988842\H,0,12.52181235,1.28644377,7.49064636\H,0,12.
 47524992,2.35367601,6.0785876\\Version=EM64L-G09RevD.01\HF=-1198.92703
 88\RMSD=4.880e-07\Dipole=0.2378796,-0.70875,-0.7762127\Quadrupole=-2.3
 874352,-3.4398949,5.8273301,-8.0630953,-2.6657642,-1.9958045\PG=C01 [X
 (C27H46O2)]\\@


 The number of Unix installations has grown to 10,
  with more expected.
                  -- The Unix Programmer's Manual,
                     2nd Edition, June, 1972.
 Job cpu time:       0 days  0 hours 10 minutes 52.0 seconds.
 File lengths (MBytes):  RWF=    150 Int=      0 D2E=      0 Chk=     11 Scr=      1
 Normal termination of Gaussian 09 at Thu May 18 13:01:10 2017.
