 Entering Gaussian System, Link 0=/home/michal/g09/g09
 Input=JOB2-gau_m1-23-4.com
 Output=JOB2-gau_m1-23-4.log
 Initial command:
 /home/michal/g09/l1.exe "/home/michal/gauss_scratch/Gau-30397.inp" -scrdir="/home/michal/gauss_scratch/"
 Entering Link 1 = /home/michal/g09/l1.exe PID=     30398.
  
 Copyright (c) 1988,1990,1992,1993,1995,1998,2003,2009,2013,
            Gaussian, Inc.  All Rights Reserved.
  
 This is part of the Gaussian(R) 09 program.  It is based on
 the Gaussian(R) 03 system (copyright 2003, Gaussian, Inc.),
 the Gaussian(R) 98 system (copyright 1998, Gaussian, Inc.),
 the Gaussian(R) 94 system (copyright 1995, Gaussian, Inc.),
 the Gaussian 92(TM) system (copyright 1992, Gaussian, Inc.),
 the Gaussian 90(TM) system (copyright 1990, Gaussian, Inc.),
 the Gaussian 88(TM) system (copyright 1988, Gaussian, Inc.),
 the Gaussian 86(TM) system (copyright 1986, Carnegie Mellon
 University), and the Gaussian 82(TM) system (copyright 1983,
 Carnegie Mellon University). Gaussian is a federally registered
 trademark of Gaussian, Inc.
  
 This software contains proprietary and confidential information,
 including trade secrets, belonging to Gaussian, Inc.
  
 This software is provided under written license and may be
 used, copied, transmitted, or stored only in accord with that
 written license.
  
 The following legend is applicable only to US Government
 contracts under FAR:
  
                    RESTRICTED RIGHTS LEGEND
  
 Use, reproduction and disclosure by the US Government is
 subject to restrictions as set forth in subparagraphs (a)
 and (c) of the Commercial Computer Software - Restricted
 Rights clause in FAR 52.227-19.
  
 Gaussian, Inc.
 340 Quinnipiac St., Bldg. 40, Wallingford CT 06492
  
  
 ---------------------------------------------------------------
 Warning -- This program may not be used in any manner that
 competes with the business of Gaussian, Inc. or will provide
 assistance to any competitor of Gaussian, Inc.  The licensee
 of this program is prohibited from giving any competitor of
 Gaussian, Inc. access to this program.  By using this program,
 the user acknowledges that Gaussian, Inc. is engaged in the
 business of creating and licensing software in the field of
 computational chemistry and represents and warrants to the
 licensee that it is not a competitor of Gaussian, Inc. and that
 it will not use this program in any manner prohibited above.
 ---------------------------------------------------------------
  

 Cite this work as:
 Gaussian 09, Revision D.01,
 M. J. Frisch, G. W. Trucks, H. B. Schlegel, G. E. Scuseria, 
 M. A. Robb, J. R. Cheeseman, G. Scalmani, V. Barone, B. Mennucci, 
 G. A. Petersson, H. Nakatsuji, M. Caricato, X. Li, H. P. Hratchian, 
 A. F. Izmaylov, J. Bloino, G. Zheng, J. L. Sonnenberg, M. Hada, 
 M. Ehara, K. Toyota, R. Fukuda, J. Hasegawa, M. Ishida, T. Nakajima, 
 Y. Honda, O. Kitao, H. Nakai, T. Vreven, J. A. Montgomery, Jr., 
 J. E. Peralta, F. Ogliaro, M. Bearpark, J. J. Heyd, E. Brothers, 
 K. N. Kudin, V. N. Staroverov, T. Keith, R. Kobayashi, J. Normand, 
 K. Raghavachari, A. Rendell, J. C. Burant, S. S. Iyengar, J. Tomasi, 
 M. Cossi, N. Rega, J. M. Millam, M. Klene, J. E. Knox, J. B. Cross, 
 V. Bakken, C. Adamo, J. Jaramillo, R. Gomperts, R. E. Stratmann, 
 O. Yazyev, A. J. Austin, R. Cammi, C. Pomelli, J. W. Ochterski, 
 R. L. Martin, K. Morokuma, V. G. Zakrzewski, G. A. Voth, 
 P. Salvador, J. J. Dannenberg, S. Dapprich, A. D. Daniels, 
 O. Farkas, J. B. Foresman, J. V. Ortiz, J. Cioslowski, 
 and D. J. Fox, Gaussian, Inc., Wallingford CT, 2013.
 
 ******************************************
 Gaussian 09:  EM64L-G09RevD.01 24-Apr-2013
                18-May-2017 
 ******************************************
 %Mem=256MB
 %NProc=12
 Will use up to   12 processors via shared memory.
 ----------------------------------------------------------------------
 #P HF/6-31G* SCF(Conver=6) NoSymm Test Pop=mk IOp(6/33=2) GFInput GFPr
 int
 ----------------------------------------------------------------------
 1/38=1/1;
 2/12=2,15=1,17=6,18=5,40=1/2;
 3/5=1,6=6,7=1,11=9,16=1,24=110,25=1,30=1/1,2,3;
 4//1;
 5/5=2,6=6,38=5/2;
 6/7=2,8=2,9=2,10=2,15=8,20=1,28=1,33=2/1,2;
 99/5=1,9=1/99;
 Leave Link    1 at Thu May 18 13:46:06 2017, MaxMem=    33554432 cpu:         0.6
 (Enter /home/michal/g09/l101.exe)
 ----------------------------------------------
 MEP - Input generated by R.E.D.-III.x MOLECULE
 ----------------------------------------------
 Symbolic Z-matrix:
 Charge =  0 Multiplicity = 1
 O                     0.        0.        0. 
 H                    -0.22954   0.13752   0.9299 
 O                    -3.05176   6.48179   0. 
 H                    -3.05126   6.6829    0.94642 
 C                     4.27208   1.55117  -0.41727 
 C                     2.84224   1.066    -0.79589 
 H                     2.73626   1.30408  -1.86874 
 C                     1.68845   1.80931  -0.09888 
 H                     1.74098   1.63664   0.98619 
 C                     1.80246   3.33266  -0.38497 
 H                     1.62542   3.44552  -1.46729 
 C                     5.13499   0.57799  -1.29504 
 H                     5.04429   0.94323  -2.33063 
 C                     4.34547   3.04564  -0.78884 
 H                     4.25622   3.14107  -1.88072 
 H                     5.30987   3.48568  -0.51685 
 C                     0.68373   4.18092   0.3144 
 C                     2.92753  -0.46499  -0.69874 
 H                     2.15633  -0.96497  -1.28912 
 H                     2.77964  -0.79516   0.33492 
 C                     3.22874   3.8616   -0.11058 
 H                     3.41517   3.8807    0.96868 
 H                     3.30612   4.90116  -0.44798 
 C                     4.3641   -0.78225  -1.19318 
 H                     4.87526  -1.46048  -0.4992 
 H                     4.34312  -1.29191  -2.16129 
 C                     0.31883   1.28434  -0.57194 
 H                     0.37106   1.07475  -1.64981 
 C                     6.65205   0.42833  -1.00813 
 H                     6.76135   0.        0. 
 C                     4.58464   1.3421    1.08249 
 H                     3.86143   1.84211   1.73206 
 H                     4.58431   0.2828    1.35567 
 H                     5.57262   1.7425    1.33228 
 C                    -0.67976   3.50999   0.11576 
 C                     0.63435   5.59026  -0.35473 
 H                     0.64294   5.45308  -1.44485 
 H                     1.54492   6.14485  -0.10462 
 C                    -0.80741   2.24437  -0.30902 
 H                    -1.80242   1.82755  -0.46484 
 C                     0.94718   4.3381    1.83604 
 H                     1.82038   4.96957   2.02676 
 H                     0.09796   4.80095   2.3454 
 H                     1.11742   3.36719   2.31131 
 C                    -1.91204   4.34435   0.41098 
 H                    -2.81711   3.79472   0.13448 
 H                    -1.9786    4.53892   1.49377 
 C                    -0.59064   6.44138   0.01406 
 H                    -0.57499   6.69514   1.08446 
 H                    -0.5651    7.39055  -0.53316 
 C                     7.29267  -0.57429  -2.00255 
 H                     6.62806  -1.4347   -2.12482 
 H                     7.35608  -0.09608  -2.99258 
 C                    -1.89099   5.7037   -0.30372 
 H                    -1.95517   5.53786  -1.38606 
 C                     7.41192   1.76668  -1.04326 
 H                     7.23537   2.29078  -1.99091 
 H                     8.49103   1.6133   -0.94743 
 H                     7.11364   2.43483  -0.23212 
 C                     8.68344  -1.09002  -1.59752 
 H                     9.36276  -0.24492  -1.43329 
 H                     8.60736  -1.60318  -0.62919 
 C                     9.34378  -2.01859  -2.63411 
 H                     10.36524  -2.24917  -2.29655 
 H                     9.45562  -1.46351  -3.57684 
 C                     8.62766  -3.35232  -2.93682 
 H                     7.61275  -3.12689  -3.29407 
 C                     8.50232  -4.2464   -1.69306 
 H                     9.49266  -4.4826   -1.28219 
 H                     8.01116  -5.19436  -1.94048 
 H                     7.91744  -3.77077  -0.89915 
 C                     9.35592  -4.09916  -4.06591 
 H                     10.37974  -4.35835  -3.76664 
 H                     8.83993  -5.03079  -4.3248 
 H                     9.41966  -3.48761  -4.97333 
 
 NAtoms=     75 NQM=       75 NQMF=       0 NMMI=      0 NMMIF=      0
                NMic=       0 NMicF=      0.
                    Isotopes and Nuclear Properties:
 (Nuclear quadrupole moments (NQMom) in fm**2, nuclear magnetic moments (NMagM)
  in nuclear magnetons)

  Atom         1           2           3           4           5           6           7           8           9          10
 IAtWgt=          16           1          16           1          12          12           1          12           1          12
 AtmWgt=  15.9949146   1.0078250  15.9949146   1.0078250  12.0000000  12.0000000   1.0078250  12.0000000   1.0078250  12.0000000
 NucSpn=           0           1           0           1           0           0           1           0           1           0
 AtZEff=   0.0000000   0.0000000   0.0000000   0.0000000   0.0000000   0.0000000   0.0000000   0.0000000   0.0000000   0.0000000
 NQMom=    0.0000000   0.0000000   0.0000000   0.0000000   0.0000000   0.0000000   0.0000000   0.0000000   0.0000000   0.0000000
 NMagM=    0.0000000   2.7928460   0.0000000   2.7928460   0.0000000   0.0000000   2.7928460   0.0000000   2.7928460   0.0000000
 AtZNuc=   8.0000000   1.0000000   8.0000000   1.0000000   6.0000000   6.0000000   1.0000000   6.0000000   1.0000000   6.0000000

  Atom        11          12          13          14          15          16          17          18          19          20
 IAtWgt=           1          12           1          12           1           1          12          12           1           1
 AtmWgt=   1.0078250  12.0000000   1.0078250  12.0000000   1.0078250   1.0078250  12.0000000  12.0000000   1.0078250   1.0078250
 NucSpn=           1           0           1           0           1           1           0           0           1           1
 AtZEff=   0.0000000   0.0000000   0.0000000   0.0000000   0.0000000   0.0000000   0.0000000   0.0000000   0.0000000   0.0000000
 NQMom=    0.0000000   0.0000000   0.0000000   0.0000000   0.0000000   0.0000000   0.0000000   0.0000000   0.0000000   0.0000000
 NMagM=    2.7928460   0.0000000   2.7928460   0.0000000   2.7928460   2.7928460   0.0000000   0.0000000   2.7928460   2.7928460
 AtZNuc=   1.0000000   6.0000000   1.0000000   6.0000000   1.0000000   1.0000000   6.0000000   6.0000000   1.0000000   1.0000000

  Atom        21          22          23          24          25          26          27          28          29          30
 IAtWgt=          12           1           1          12           1           1          12           1          12           1
 AtmWgt=  12.0000000   1.0078250   1.0078250  12.0000000   1.0078250   1.0078250  12.0000000   1.0078250  12.0000000   1.0078250
 NucSpn=           0           1           1           0           1           1           0           1           0           1
 AtZEff=   0.0000000   0.0000000   0.0000000   0.0000000   0.0000000   0.0000000   0.0000000   0.0000000   0.0000000   0.0000000
 NQMom=    0.0000000   0.0000000   0.0000000   0.0000000   0.0000000   0.0000000   0.0000000   0.0000000   0.0000000   0.0000000
 NMagM=    0.0000000   2.7928460   2.7928460   0.0000000   2.7928460   2.7928460   0.0000000   2.7928460   0.0000000   2.7928460
 AtZNuc=   6.0000000   1.0000000   1.0000000   6.0000000   1.0000000   1.0000000   6.0000000   1.0000000   6.0000000   1.0000000

  Atom        31          32          33          34          35          36          37          38          39          40
 IAtWgt=          12           1           1           1          12          12           1           1          12           1
 AtmWgt=  12.0000000   1.0078250   1.0078250   1.0078250  12.0000000  12.0000000   1.0078250   1.0078250  12.0000000   1.0078250
 NucSpn=           0           1           1           1           0           0           1           1           0           1
 AtZEff=   0.0000000   0.0000000   0.0000000   0.0000000   0.0000000   0.0000000   0.0000000   0.0000000   0.0000000   0.0000000
 NQMom=    0.0000000   0.0000000   0.0000000   0.0000000   0.0000000   0.0000000   0.0000000   0.0000000   0.0000000   0.0000000
 NMagM=    0.0000000   2.7928460   2.7928460   2.7928460   0.0000000   0.0000000   2.7928460   2.7928460   0.0000000   2.7928460
 AtZNuc=   6.0000000   1.0000000   1.0000000   1.0000000   6.0000000   6.0000000   1.0000000   1.0000000   6.0000000   1.0000000

  Atom        41          42          43          44          45          46          47          48          49          50
 IAtWgt=          12           1           1           1          12           1           1          12           1           1
 AtmWgt=  12.0000000   1.0078250   1.0078250   1.0078250  12.0000000   1.0078250   1.0078250  12.0000000   1.0078250   1.0078250
 NucSpn=           0           1           1           1           0           1           1           0           1           1
 AtZEff=   0.0000000   0.0000000   0.0000000   0.0000000   0.0000000   0.0000000   0.0000000   0.0000000   0.0000000   0.0000000
 NQMom=    0.0000000   0.0000000   0.0000000   0.0000000   0.0000000   0.0000000   0.0000000   0.0000000   0.0000000   0.0000000
 NMagM=    0.0000000   2.7928460   2.7928460   2.7928460   0.0000000   2.7928460   2.7928460   0.0000000   2.7928460   2.7928460
 AtZNuc=   6.0000000   1.0000000   1.0000000   1.0000000   6.0000000   1.0000000   1.0000000   6.0000000   1.0000000   1.0000000

  Atom        51          52          53          54          55          56          57          58          59          60
 IAtWgt=          12           1           1          12           1          12           1           1           1          12
 AtmWgt=  12.0000000   1.0078250   1.0078250  12.0000000   1.0078250  12.0000000   1.0078250   1.0078250   1.0078250  12.0000000
 NucSpn=           0           1           1           0           1           0           1           1           1           0
 AtZEff=   0.0000000   0.0000000   0.0000000   0.0000000   0.0000000   0.0000000   0.0000000   0.0000000   0.0000000   0.0000000
 NQMom=    0.0000000   0.0000000   0.0000000   0.0000000   0.0000000   0.0000000   0.0000000   0.0000000   0.0000000   0.0000000
 NMagM=    0.0000000   2.7928460   2.7928460   0.0000000   2.7928460   0.0000000   2.7928460   2.7928460   2.7928460   0.0000000
 AtZNuc=   6.0000000   1.0000000   1.0000000   6.0000000   1.0000000   6.0000000   1.0000000   1.0000000   1.0000000   6.0000000

  Atom        61          62          63          64          65          66          67          68          69          70
 IAtWgt=           1           1          12           1           1          12           1          12           1           1
 AtmWgt=   1.0078250   1.0078250  12.0000000   1.0078250   1.0078250  12.0000000   1.0078250  12.0000000   1.0078250   1.0078250
 NucSpn=           1           1           0           1           1           0           1           0           1           1
 AtZEff=   0.0000000   0.0000000   0.0000000   0.0000000   0.0000000   0.0000000   0.0000000   0.0000000   0.0000000   0.0000000
 NQMom=    0.0000000   0.0000000   0.0000000   0.0000000   0.0000000   0.0000000   0.0000000   0.0000000   0.0000000   0.0000000
 NMagM=    2.7928460   2.7928460   0.0000000   2.7928460   2.7928460   0.0000000   2.7928460   0.0000000   2.7928460   2.7928460
 AtZNuc=   1.0000000   1.0000000   6.0000000   1.0000000   1.0000000   6.0000000   1.0000000   6.0000000   1.0000000   1.0000000

  Atom        71          72          73          74          75
 IAtWgt=           1          12           1           1           1
 AtmWgt=   1.0078250  12.0000000   1.0078250   1.0078250   1.0078250
 NucSpn=           1           0           1           1           1
 AtZEff=   0.0000000   0.0000000   0.0000000   0.0000000   0.0000000
 NQMom=    0.0000000   0.0000000   0.0000000   0.0000000   0.0000000
 NMagM=    2.7928460   0.0000000   2.7928460   2.7928460   2.7928460
 AtZNuc=   1.0000000   6.0000000   1.0000000   1.0000000   1.0000000
 Leave Link  101 at Thu May 18 13:46:06 2017, MaxMem=    33554432 cpu:         1.1
 (Enter /home/michal/g09/l202.exe)
 Symmetry turned off by external request.
 Stoichiometry    C27H46O2
 Framework group  C1[X(C27H46O2)]
 Deg. of freedom   219
 Full point group                 C1      NOp   1
                          Input orientation:                          
 ---------------------------------------------------------------------
 Center     Atomic      Atomic             Coordinates (Angstroms)
 Number     Number       Type             X           Y           Z
 ---------------------------------------------------------------------
      1          8           0        0.000000    0.000000    0.000000
      2          1           0       -0.229545    0.137522    0.929899
      3          8           0       -3.051761    6.481792    0.000000
      4          1           0       -3.051264    6.682901    0.946423
      5          6           0        4.272082    1.551173   -0.417273
      6          6           0        2.842239    1.066003   -0.795893
      7          1           0        2.736258    1.304079   -1.868740
      8          6           0        1.688451    1.809308   -0.098881
      9          1           0        1.740975    1.636638    0.986189
     10          6           0        1.802463    3.332660   -0.384969
     11          1           0        1.625420    3.445524   -1.467289
     12          6           0        5.134993    0.577985   -1.295039
     13          1           0        5.044293    0.943228   -2.330632
     14          6           0        4.345474    3.045636   -0.788840
     15          1           0        4.256225    3.141072   -1.880722
     16          1           0        5.309872    3.485676   -0.516849
     17          6           0        0.683733    4.180916    0.314397
     18          6           0        2.927532   -0.464992   -0.698744
     19          1           0        2.156329   -0.964973   -1.289118
     20          1           0        2.779641   -0.795165    0.334918
     21          6           0        3.228743    3.861596   -0.110577
     22          1           0        3.415172    3.880700    0.968679
     23          1           0        3.306118    4.901156   -0.447979
     24          6           0        4.364098   -0.782254   -1.193184
     25          1           0        4.875257   -1.460480   -0.499196
     26          1           0        4.343125   -1.291913   -2.161294
     27          6           0        0.318826    1.284345   -0.571939
     28          1           0        0.371060    1.074752   -1.649811
     29          6           0        6.652051    0.428330   -1.008135
     30          1           0        6.761352    0.000000    0.000000
     31          6           0        4.584643    1.342104    1.082485
     32          1           0        3.861429    1.842112    1.732063
     33          1           0        4.584305    0.282801    1.355667
     34          1           0        5.572616    1.742503    1.332282
     35          6           0       -0.679759    3.509986    0.115763
     36          6           0        0.634345    5.590259   -0.354726
     37          1           0        0.642942    5.453075   -1.444853
     38          1           0        1.544916    6.144849   -0.104618
     39          6           0       -0.807408    2.244373   -0.309016
     40          1           0       -1.802420    1.827551   -0.464836
     41          6           0        0.947181    4.338103    1.836038
     42          1           0        1.820377    4.969574    2.026765
     43          1           0        0.097955    4.800951    2.345404
     44          1           0        1.117420    3.367186    2.311309
     45          6           0       -1.912038    4.344355    0.410984
     46          1           0       -2.817108    3.794716    0.134482
     47          1           0       -1.978600    4.538923    1.493767
     48          6           0       -0.590637    6.441376    0.014064
     49          1           0       -0.574990    6.695139    1.084464
     50          1           0       -0.565100    7.390551   -0.533157
     51          6           0        7.292669   -0.574291   -2.002552
     52          1           0        6.628057   -1.434698   -2.124821
     53          1           0        7.356079   -0.096083   -2.992582
     54          6           0       -1.890986    5.703697   -0.303724
     55          1           0       -1.955172    5.537862   -1.386055
     56          6           0        7.411922    1.766680   -1.043262
     57          1           0        7.235371    2.290784   -1.990905
     58          1           0        8.491034    1.613305   -0.947430
     59          1           0        7.113641    2.434826   -0.232122
     60          6           0        8.683436   -1.090022   -1.597525
     61          1           0        9.362760   -0.244921   -1.433295
     62          1           0        8.607357   -1.603176   -0.629193
     63          6           0        9.343782   -2.018586   -2.634114
     64          1           0       10.365238   -2.249175   -2.296551
     65          1           0        9.455624   -1.463513   -3.576837
     66          6           0        8.627663   -3.352321   -2.936821
     67          1           0        7.612753   -3.126886   -3.294073
     68          6           0        8.502323   -4.246395   -1.693060
     69          1           0        9.492661   -4.482598   -1.282189
     70          1           0        8.011162   -5.194356   -1.940483
     71          1           0        7.917440   -3.770767   -0.899154
     72          6           0        9.355925   -4.099160   -4.065911
     73          1           0       10.379741   -4.358353   -3.766637
     74          1           0        8.839928   -5.030795   -4.324797
     75          1           0        9.419662   -3.487612   -4.973330
 ---------------------------------------------------------------------
 Rotational constants (GHZ):      0.4629181      0.0555147      0.0522304
 Leave Link  202 at Thu May 18 13:46:06 2017, MaxMem=    33554432 cpu:         0.0
 (Enter /home/michal/g09/l301.exe)
 Standard basis: 6-31G(d) (6D, 7F)
 Ernie: Thresh=  0.10000D-02 Tol=  0.10000D-05 Strict=F.
 AO basis set in the form of general basis input (Overlap normalization):
      1 0
 S   6 1.00       0.000000000000
      0.5484671660D+04  0.1831074430D-02
      0.8252349460D+03  0.1395017220D-01
      0.1880469580D+03  0.6844507810D-01
      0.5296450000D+02  0.2327143360D+00
      0.1689757040D+02  0.4701928980D+00
      0.5799635340D+01  0.3585208530D+00
 SP   3 1.00       0.000000000000
      0.1553961625D+02 -0.1107775495D+00  0.7087426823D-01
      0.3599933586D+01 -0.1480262627D+00  0.3397528391D+00
      0.1013761750D+01  0.1130767015D+01  0.7271585773D+00
 SP   1 1.00       0.000000000000
      0.2700058226D+00  0.1000000000D+01  0.1000000000D+01
 D   1 1.00       0.000000000000
      0.8000000000D+00  0.1000000000D+01
 ****
      2 0
 S   3 1.00       0.000000000000
      0.1873113696D+02  0.3349460434D-01
      0.2825394365D+01  0.2347269535D+00
      0.6401216923D+00  0.8137573261D+00
 S   1 1.00       0.000000000000
      0.1612777588D+00  0.1000000000D+01
 ****
      3 0
 S   6 1.00       0.000000000000
      0.5484671660D+04  0.1831074430D-02
      0.8252349460D+03  0.1395017220D-01
      0.1880469580D+03  0.6844507810D-01
      0.5296450000D+02  0.2327143360D+00
      0.1689757040D+02  0.4701928980D+00
      0.5799635340D+01  0.3585208530D+00
 SP   3 1.00       0.000000000000
      0.1553961625D+02 -0.1107775495D+00  0.7087426823D-01
      0.3599933586D+01 -0.1480262627D+00  0.3397528391D+00
      0.1013761750D+01  0.1130767015D+01  0.7271585773D+00
 SP   1 1.00       0.000000000000
      0.2700058226D+00  0.1000000000D+01  0.1000000000D+01
 D   1 1.00       0.000000000000
      0.8000000000D+00  0.1000000000D+01
 ****
      4 0
 S   3 1.00       0.000000000000
      0.1873113696D+02  0.3349460434D-01
      0.2825394365D+01  0.2347269535D+00
      0.6401216923D+00  0.8137573261D+00
 S   1 1.00       0.000000000000
      0.1612777588D+00  0.1000000000D+01
 ****
      5 0
 S   6 1.00       0.000000000000
      0.3047524880D+04  0.1834737132D-02
      0.4573695180D+03  0.1403732281D-01
      0.1039486850D+03  0.6884262226D-01
      0.2921015530D+02  0.2321844432D+00
      0.9286662960D+01  0.4679413484D+00
      0.3163926960D+01  0.3623119853D+00
 SP   3 1.00       0.000000000000
      0.7868272350D+01 -0.1193324198D+00  0.6899906659D-01
      0.1881288540D+01 -0.1608541517D+00  0.3164239610D+00
      0.5442492580D+00  0.1143456438D+01  0.7443082909D+00
 SP   1 1.00       0.000000000000
      0.1687144782D+00  0.1000000000D+01  0.1000000000D+01
 D   1 1.00       0.000000000000
      0.8000000000D+00  0.1000000000D+01
 ****
      6 0
 S   6 1.00       0.000000000000
      0.3047524880D+04  0.1834737132D-02
      0.4573695180D+03  0.1403732281D-01
      0.1039486850D+03  0.6884262226D-01
      0.2921015530D+02  0.2321844432D+00
      0.9286662960D+01  0.4679413484D+00
      0.3163926960D+01  0.3623119853D+00
 SP   3 1.00       0.000000000000
      0.7868272350D+01 -0.1193324198D+00  0.6899906659D-01
      0.1881288540D+01 -0.1608541517D+00  0.3164239610D+00
      0.5442492580D+00  0.1143456438D+01  0.7443082909D+00
 SP   1 1.00       0.000000000000
      0.1687144782D+00  0.1000000000D+01  0.1000000000D+01
 D   1 1.00       0.000000000000
      0.8000000000D+00  0.1000000000D+01
 ****
      7 0
 S   3 1.00       0.000000000000
      0.1873113696D+02  0.3349460434D-01
      0.2825394365D+01  0.2347269535D+00
      0.6401216923D+00  0.8137573261D+00
 S   1 1.00       0.000000000000
      0.1612777588D+00  0.1000000000D+01
 ****
      8 0
 S   6 1.00       0.000000000000
      0.3047524880D+04  0.1834737132D-02
      0.4573695180D+03  0.1403732281D-01
      0.1039486850D+03  0.6884262226D-01
      0.2921015530D+02  0.2321844432D+00
      0.9286662960D+01  0.4679413484D+00
      0.3163926960D+01  0.3623119853D+00
 SP   3 1.00       0.000000000000
      0.7868272350D+01 -0.1193324198D+00  0.6899906659D-01
      0.1881288540D+01 -0.1608541517D+00  0.3164239610D+00
      0.5442492580D+00  0.1143456438D+01  0.7443082909D+00
 SP   1 1.00       0.000000000000
      0.1687144782D+00  0.1000000000D+01  0.1000000000D+01
 D   1 1.00       0.000000000000
      0.8000000000D+00  0.1000000000D+01
 ****
      9 0
 S   3 1.00       0.000000000000
      0.1873113696D+02  0.3349460434D-01
      0.2825394365D+01  0.2347269535D+00
      0.6401216923D+00  0.8137573261D+00
 S   1 1.00       0.000000000000
      0.1612777588D+00  0.1000000000D+01
 ****
     10 0
 S   6 1.00       0.000000000000
      0.3047524880D+04  0.1834737132D-02
      0.4573695180D+03  0.1403732281D-01
      0.1039486850D+03  0.6884262226D-01
      0.2921015530D+02  0.2321844432D+00
      0.9286662960D+01  0.4679413484D+00
      0.3163926960D+01  0.3623119853D+00
 SP   3 1.00       0.000000000000
      0.7868272350D+01 -0.1193324198D+00  0.6899906659D-01
      0.1881288540D+01 -0.1608541517D+00  0.3164239610D+00
      0.5442492580D+00  0.1143456438D+01  0.7443082909D+00
 SP   1 1.00       0.000000000000
      0.1687144782D+00  0.1000000000D+01  0.1000000000D+01
 D   1 1.00       0.000000000000
      0.8000000000D+00  0.1000000000D+01
 ****
     11 0
 S   3 1.00       0.000000000000
      0.1873113696D+02  0.3349460434D-01
      0.2825394365D+01  0.2347269535D+00
      0.6401216923D+00  0.8137573261D+00
 S   1 1.00       0.000000000000
      0.1612777588D+00  0.1000000000D+01
 ****
     12 0
 S   6 1.00       0.000000000000
      0.3047524880D+04  0.1834737132D-02
      0.4573695180D+03  0.1403732281D-01
      0.1039486850D+03  0.6884262226D-01
      0.2921015530D+02  0.2321844432D+00
      0.9286662960D+01  0.4679413484D+00
      0.3163926960D+01  0.3623119853D+00
 SP   3 1.00       0.000000000000
      0.7868272350D+01 -0.1193324198D+00  0.6899906659D-01
      0.1881288540D+01 -0.1608541517D+00  0.3164239610D+00
      0.5442492580D+00  0.1143456438D+01  0.7443082909D+00
 SP   1 1.00       0.000000000000
      0.1687144782D+00  0.1000000000D+01  0.1000000000D+01
 D   1 1.00       0.000000000000
      0.8000000000D+00  0.1000000000D+01
 ****
     13 0
 S   3 1.00       0.000000000000
      0.1873113696D+02  0.3349460434D-01
      0.2825394365D+01  0.2347269535D+00
      0.6401216923D+00  0.8137573261D+00
 S   1 1.00       0.000000000000
      0.1612777588D+00  0.1000000000D+01
 ****
     14 0
 S   6 1.00       0.000000000000
      0.3047524880D+04  0.1834737132D-02
      0.4573695180D+03  0.1403732281D-01
      0.1039486850D+03  0.6884262226D-01
      0.2921015530D+02  0.2321844432D+00
      0.9286662960D+01  0.4679413484D+00
      0.3163926960D+01  0.3623119853D+00
 SP   3 1.00       0.000000000000
      0.7868272350D+01 -0.1193324198D+00  0.6899906659D-01
      0.1881288540D+01 -0.1608541517D+00  0.3164239610D+00
      0.5442492580D+00  0.1143456438D+01  0.7443082909D+00
 SP   1 1.00       0.000000000000
      0.1687144782D+00  0.1000000000D+01  0.1000000000D+01
 D   1 1.00       0.000000000000
      0.8000000000D+00  0.1000000000D+01
 ****
     15 0
 S   3 1.00       0.000000000000
      0.1873113696D+02  0.3349460434D-01
      0.2825394365D+01  0.2347269535D+00
      0.6401216923D+00  0.8137573261D+00
 S   1 1.00       0.000000000000
      0.1612777588D+00  0.1000000000D+01
 ****
     16 0
 S   3 1.00       0.000000000000
      0.1873113696D+02  0.3349460434D-01
      0.2825394365D+01  0.2347269535D+00
      0.6401216923D+00  0.8137573261D+00
 S   1 1.00       0.000000000000
      0.1612777588D+00  0.1000000000D+01
 ****
     17 0
 S   6 1.00       0.000000000000
      0.3047524880D+04  0.1834737132D-02
      0.4573695180D+03  0.1403732281D-01
      0.1039486850D+03  0.6884262226D-01
      0.2921015530D+02  0.2321844432D+00
      0.9286662960D+01  0.4679413484D+00
      0.3163926960D+01  0.3623119853D+00
 SP   3 1.00       0.000000000000
      0.7868272350D+01 -0.1193324198D+00  0.6899906659D-01
      0.1881288540D+01 -0.1608541517D+00  0.3164239610D+00
      0.5442492580D+00  0.1143456438D+01  0.7443082909D+00
 SP   1 1.00       0.000000000000
      0.1687144782D+00  0.1000000000D+01  0.1000000000D+01
 D   1 1.00       0.000000000000
      0.8000000000D+00  0.1000000000D+01
 ****
     18 0
 S   6 1.00       0.000000000000
      0.3047524880D+04  0.1834737132D-02
      0.4573695180D+03  0.1403732281D-01
      0.1039486850D+03  0.6884262226D-01
      0.2921015530D+02  0.2321844432D+00
      0.9286662960D+01  0.4679413484D+00
      0.3163926960D+01  0.3623119853D+00
 SP   3 1.00       0.000000000000
      0.7868272350D+01 -0.1193324198D+00  0.6899906659D-01
      0.1881288540D+01 -0.1608541517D+00  0.3164239610D+00
      0.5442492580D+00  0.1143456438D+01  0.7443082909D+00
 SP   1 1.00       0.000000000000
      0.1687144782D+00  0.1000000000D+01  0.1000000000D+01
 D   1 1.00       0.000000000000
      0.8000000000D+00  0.1000000000D+01
 ****
     19 0
 S   3 1.00       0.000000000000
      0.1873113696D+02  0.3349460434D-01
      0.2825394365D+01  0.2347269535D+00
      0.6401216923D+00  0.8137573261D+00
 S   1 1.00       0.000000000000
      0.1612777588D+00  0.1000000000D+01
 ****
     20 0
 S   3 1.00       0.000000000000
      0.1873113696D+02  0.3349460434D-01
      0.2825394365D+01  0.2347269535D+00
      0.6401216923D+00  0.8137573261D+00
 S   1 1.00       0.000000000000
      0.1612777588D+00  0.1000000000D+01
 ****
     21 0
 S   6 1.00       0.000000000000
      0.3047524880D+04  0.1834737132D-02
      0.4573695180D+03  0.1403732281D-01
      0.1039486850D+03  0.6884262226D-01
      0.2921015530D+02  0.2321844432D+00
      0.9286662960D+01  0.4679413484D+00
      0.3163926960D+01  0.3623119853D+00
 SP   3 1.00       0.000000000000
      0.7868272350D+01 -0.1193324198D+00  0.6899906659D-01
      0.1881288540D+01 -0.1608541517D+00  0.3164239610D+00
      0.5442492580D+00  0.1143456438D+01  0.7443082909D+00
 SP   1 1.00       0.000000000000
      0.1687144782D+00  0.1000000000D+01  0.1000000000D+01
 D   1 1.00       0.000000000000
      0.8000000000D+00  0.1000000000D+01
 ****
     22 0
 S   3 1.00       0.000000000000
      0.1873113696D+02  0.3349460434D-01
      0.2825394365D+01  0.2347269535D+00
      0.6401216923D+00  0.8137573261D+00
 S   1 1.00       0.000000000000
      0.1612777588D+00  0.1000000000D+01
 ****
     23 0
 S   3 1.00       0.000000000000
      0.1873113696D+02  0.3349460434D-01
      0.2825394365D+01  0.2347269535D+00
      0.6401216923D+00  0.8137573261D+00
 S   1 1.00       0.000000000000
      0.1612777588D+00  0.1000000000D+01
 ****
     24 0
 S   6 1.00       0.000000000000
      0.3047524880D+04  0.1834737132D-02
      0.4573695180D+03  0.1403732281D-01
      0.1039486850D+03  0.6884262226D-01
      0.2921015530D+02  0.2321844432D+00
      0.9286662960D+01  0.4679413484D+00
      0.3163926960D+01  0.3623119853D+00
 SP   3 1.00       0.000000000000
      0.7868272350D+01 -0.1193324198D+00  0.6899906659D-01
      0.1881288540D+01 -0.1608541517D+00  0.3164239610D+00
      0.5442492580D+00  0.1143456438D+01  0.7443082909D+00
 SP   1 1.00       0.000000000000
      0.1687144782D+00  0.1000000000D+01  0.1000000000D+01
 D   1 1.00       0.000000000000
      0.8000000000D+00  0.1000000000D+01
 ****
     25 0
 S   3 1.00       0.000000000000
      0.1873113696D+02  0.3349460434D-01
      0.2825394365D+01  0.2347269535D+00
      0.6401216923D+00  0.8137573261D+00
 S   1 1.00       0.000000000000
      0.1612777588D+00  0.1000000000D+01
 ****
     26 0
 S   3 1.00       0.000000000000
      0.1873113696D+02  0.3349460434D-01
      0.2825394365D+01  0.2347269535D+00
      0.6401216923D+00  0.8137573261D+00
 S   1 1.00       0.000000000000
      0.1612777588D+00  0.1000000000D+01
 ****
     27 0
 S   6 1.00       0.000000000000
      0.3047524880D+04  0.1834737132D-02
      0.4573695180D+03  0.1403732281D-01
      0.1039486850D+03  0.6884262226D-01
      0.2921015530D+02  0.2321844432D+00
      0.9286662960D+01  0.4679413484D+00
      0.3163926960D+01  0.3623119853D+00
 SP   3 1.00       0.000000000000
      0.7868272350D+01 -0.1193324198D+00  0.6899906659D-01
      0.1881288540D+01 -0.1608541517D+00  0.3164239610D+00
      0.5442492580D+00  0.1143456438D+01  0.7443082909D+00
 SP   1 1.00       0.000000000000
      0.1687144782D+00  0.1000000000D+01  0.1000000000D+01
 D   1 1.00       0.000000000000
      0.8000000000D+00  0.1000000000D+01
 ****
     28 0
 S   3 1.00       0.000000000000
      0.1873113696D+02  0.3349460434D-01
      0.2825394365D+01  0.2347269535D+00
      0.6401216923D+00  0.8137573261D+00
 S   1 1.00       0.000000000000
      0.1612777588D+00  0.1000000000D+01
 ****
     29 0
 S   6 1.00       0.000000000000
      0.3047524880D+04  0.1834737132D-02
      0.4573695180D+03  0.1403732281D-01
      0.1039486850D+03  0.6884262226D-01
      0.2921015530D+02  0.2321844432D+00
      0.9286662960D+01  0.4679413484D+00
      0.3163926960D+01  0.3623119853D+00
 SP   3 1.00       0.000000000000
      0.7868272350D+01 -0.1193324198D+00  0.6899906659D-01
      0.1881288540D+01 -0.1608541517D+00  0.3164239610D+00
      0.5442492580D+00  0.1143456438D+01  0.7443082909D+00
 SP   1 1.00       0.000000000000
      0.1687144782D+00  0.1000000000D+01  0.1000000000D+01
 D   1 1.00       0.000000000000
      0.8000000000D+00  0.1000000000D+01
 ****
     30 0
 S   3 1.00       0.000000000000
      0.1873113696D+02  0.3349460434D-01
      0.2825394365D+01  0.2347269535D+00
      0.6401216923D+00  0.8137573261D+00
 S   1 1.00       0.000000000000
      0.1612777588D+00  0.1000000000D+01
 ****
     31 0
 S   6 1.00       0.000000000000
      0.3047524880D+04  0.1834737132D-02
      0.4573695180D+03  0.1403732281D-01
      0.1039486850D+03  0.6884262226D-01
      0.2921015530D+02  0.2321844432D+00
      0.9286662960D+01  0.4679413484D+00
      0.3163926960D+01  0.3623119853D+00
 SP   3 1.00       0.000000000000
      0.7868272350D+01 -0.1193324198D+00  0.6899906659D-01
      0.1881288540D+01 -0.1608541517D+00  0.3164239610D+00
      0.5442492580D+00  0.1143456438D+01  0.7443082909D+00
 SP   1 1.00       0.000000000000
      0.1687144782D+00  0.1000000000D+01  0.1000000000D+01
 D   1 1.00       0.000000000000
      0.8000000000D+00  0.1000000000D+01
 ****
     32 0
 S   3 1.00       0.000000000000
      0.1873113696D+02  0.3349460434D-01
      0.2825394365D+01  0.2347269535D+00
      0.6401216923D+00  0.8137573261D+00
 S   1 1.00       0.000000000000
      0.1612777588D+00  0.1000000000D+01
 ****
     33 0
 S   3 1.00       0.000000000000
      0.1873113696D+02  0.3349460434D-01
      0.2825394365D+01  0.2347269535D+00
      0.6401216923D+00  0.8137573261D+00
 S   1 1.00       0.000000000000
      0.1612777588D+00  0.1000000000D+01
 ****
     34 0
 S   3 1.00       0.000000000000
      0.1873113696D+02  0.3349460434D-01
      0.2825394365D+01  0.2347269535D+00
      0.6401216923D+00  0.8137573261D+00
 S   1 1.00       0.000000000000
      0.1612777588D+00  0.1000000000D+01
 ****
     35 0
 S   6 1.00       0.000000000000
      0.3047524880D+04  0.1834737132D-02
      0.4573695180D+03  0.1403732281D-01
      0.1039486850D+03  0.6884262226D-01
      0.2921015530D+02  0.2321844432D+00
      0.9286662960D+01  0.4679413484D+00
      0.3163926960D+01  0.3623119853D+00
 SP   3 1.00       0.000000000000
      0.7868272350D+01 -0.1193324198D+00  0.6899906659D-01
      0.1881288540D+01 -0.1608541517D+00  0.3164239610D+00
      0.5442492580D+00  0.1143456438D+01  0.7443082909D+00
 SP   1 1.00       0.000000000000
      0.1687144782D+00  0.1000000000D+01  0.1000000000D+01
 D   1 1.00       0.000000000000
      0.8000000000D+00  0.1000000000D+01
 ****
     36 0
 S   6 1.00       0.000000000000
      0.3047524880D+04  0.1834737132D-02
      0.4573695180D+03  0.1403732281D-01
      0.1039486850D+03  0.6884262226D-01
      0.2921015530D+02  0.2321844432D+00
      0.9286662960D+01  0.4679413484D+00
      0.3163926960D+01  0.3623119853D+00
 SP   3 1.00       0.000000000000
      0.7868272350D+01 -0.1193324198D+00  0.6899906659D-01
      0.1881288540D+01 -0.1608541517D+00  0.3164239610D+00
      0.5442492580D+00  0.1143456438D+01  0.7443082909D+00
 SP   1 1.00       0.000000000000
      0.1687144782D+00  0.1000000000D+01  0.1000000000D+01
 D   1 1.00       0.000000000000
      0.8000000000D+00  0.1000000000D+01
 ****
     37 0
 S   3 1.00       0.000000000000
      0.1873113696D+02  0.3349460434D-01
      0.2825394365D+01  0.2347269535D+00
      0.6401216923D+00  0.8137573261D+00
 S   1 1.00       0.000000000000
      0.1612777588D+00  0.1000000000D+01
 ****
     38 0
 S   3 1.00       0.000000000000
      0.1873113696D+02  0.3349460434D-01
      0.2825394365D+01  0.2347269535D+00
      0.6401216923D+00  0.8137573261D+00
 S   1 1.00       0.000000000000
      0.1612777588D+00  0.1000000000D+01
 ****
     39 0
 S   6 1.00       0.000000000000
      0.3047524880D+04  0.1834737132D-02
      0.4573695180D+03  0.1403732281D-01
      0.1039486850D+03  0.6884262226D-01
      0.2921015530D+02  0.2321844432D+00
      0.9286662960D+01  0.4679413484D+00
      0.3163926960D+01  0.3623119853D+00
 SP   3 1.00       0.000000000000
      0.7868272350D+01 -0.1193324198D+00  0.6899906659D-01
      0.1881288540D+01 -0.1608541517D+00  0.3164239610D+00
      0.5442492580D+00  0.1143456438D+01  0.7443082909D+00
 SP   1 1.00       0.000000000000
      0.1687144782D+00  0.1000000000D+01  0.1000000000D+01
 D   1 1.00       0.000000000000
      0.8000000000D+00  0.1000000000D+01
 ****
     40 0
 S   3 1.00       0.000000000000
      0.1873113696D+02  0.3349460434D-01
      0.2825394365D+01  0.2347269535D+00
      0.6401216923D+00  0.8137573261D+00
 S   1 1.00       0.000000000000
      0.1612777588D+00  0.1000000000D+01
 ****
     41 0
 S   6 1.00       0.000000000000
      0.3047524880D+04  0.1834737132D-02
      0.4573695180D+03  0.1403732281D-01
      0.1039486850D+03  0.6884262226D-01
      0.2921015530D+02  0.2321844432D+00
      0.9286662960D+01  0.4679413484D+00
      0.3163926960D+01  0.3623119853D+00
 SP   3 1.00       0.000000000000
      0.7868272350D+01 -0.1193324198D+00  0.6899906659D-01
      0.1881288540D+01 -0.1608541517D+00  0.3164239610D+00
      0.5442492580D+00  0.1143456438D+01  0.7443082909D+00
 SP   1 1.00       0.000000000000
      0.1687144782D+00  0.1000000000D+01  0.1000000000D+01
 D   1 1.00       0.000000000000
      0.8000000000D+00  0.1000000000D+01
 ****
     42 0
 S   3 1.00       0.000000000000
      0.1873113696D+02  0.3349460434D-01
      0.2825394365D+01  0.2347269535D+00
      0.6401216923D+00  0.8137573261D+00
 S   1 1.00       0.000000000000
      0.1612777588D+00  0.1000000000D+01
 ****
     43 0
 S   3 1.00       0.000000000000
      0.1873113696D+02  0.3349460434D-01
      0.2825394365D+01  0.2347269535D+00
      0.6401216923D+00  0.8137573261D+00
 S   1 1.00       0.000000000000
      0.1612777588D+00  0.1000000000D+01
 ****
     44 0
 S   3 1.00       0.000000000000
      0.1873113696D+02  0.3349460434D-01
      0.2825394365D+01  0.2347269535D+00
      0.6401216923D+00  0.8137573261D+00
 S   1 1.00       0.000000000000
      0.1612777588D+00  0.1000000000D+01
 ****
     45 0
 S   6 1.00       0.000000000000
      0.3047524880D+04  0.1834737132D-02
      0.4573695180D+03  0.1403732281D-01
      0.1039486850D+03  0.6884262226D-01
      0.2921015530D+02  0.2321844432D+00
      0.9286662960D+01  0.4679413484D+00
      0.3163926960D+01  0.3623119853D+00
 SP   3 1.00       0.000000000000
      0.7868272350D+01 -0.1193324198D+00  0.6899906659D-01
      0.1881288540D+01 -0.1608541517D+00  0.3164239610D+00
      0.5442492580D+00  0.1143456438D+01  0.7443082909D+00
 SP   1 1.00       0.000000000000
      0.1687144782D+00  0.1000000000D+01  0.1000000000D+01
 D   1 1.00       0.000000000000
      0.8000000000D+00  0.1000000000D+01
 ****
     46 0
 S   3 1.00       0.000000000000
      0.1873113696D+02  0.3349460434D-01
      0.2825394365D+01  0.2347269535D+00
      0.6401216923D+00  0.8137573261D+00
 S   1 1.00       0.000000000000
      0.1612777588D+00  0.1000000000D+01
 ****
     47 0
 S   3 1.00       0.000000000000
      0.1873113696D+02  0.3349460434D-01
      0.2825394365D+01  0.2347269535D+00
      0.6401216923D+00  0.8137573261D+00
 S   1 1.00       0.000000000000
      0.1612777588D+00  0.1000000000D+01
 ****
     48 0
 S   6 1.00       0.000000000000
      0.3047524880D+04  0.1834737132D-02
      0.4573695180D+03  0.1403732281D-01
      0.1039486850D+03  0.6884262226D-01
      0.2921015530D+02  0.2321844432D+00
      0.9286662960D+01  0.4679413484D+00
      0.3163926960D+01  0.3623119853D+00
 SP   3 1.00       0.000000000000
      0.7868272350D+01 -0.1193324198D+00  0.6899906659D-01
      0.1881288540D+01 -0.1608541517D+00  0.3164239610D+00
      0.5442492580D+00  0.1143456438D+01  0.7443082909D+00
 SP   1 1.00       0.000000000000
      0.1687144782D+00  0.1000000000D+01  0.1000000000D+01
 D   1 1.00       0.000000000000
      0.8000000000D+00  0.1000000000D+01
 ****
     49 0
 S   3 1.00       0.000000000000
      0.1873113696D+02  0.3349460434D-01
      0.2825394365D+01  0.2347269535D+00
      0.6401216923D+00  0.8137573261D+00
 S   1 1.00       0.000000000000
      0.1612777588D+00  0.1000000000D+01
 ****
     50 0
 S   3 1.00       0.000000000000
      0.1873113696D+02  0.3349460434D-01
      0.2825394365D+01  0.2347269535D+00
      0.6401216923D+00  0.8137573261D+00
 S   1 1.00       0.000000000000
      0.1612777588D+00  0.1000000000D+01
 ****
     51 0
 S   6 1.00       0.000000000000
      0.3047524880D+04  0.1834737132D-02
      0.4573695180D+03  0.1403732281D-01
      0.1039486850D+03  0.6884262226D-01
      0.2921015530D+02  0.2321844432D+00
      0.9286662960D+01  0.4679413484D+00
      0.3163926960D+01  0.3623119853D+00
 SP   3 1.00       0.000000000000
      0.7868272350D+01 -0.1193324198D+00  0.6899906659D-01
      0.1881288540D+01 -0.1608541517D+00  0.3164239610D+00
      0.5442492580D+00  0.1143456438D+01  0.7443082909D+00
 SP   1 1.00       0.000000000000
      0.1687144782D+00  0.1000000000D+01  0.1000000000D+01
 D   1 1.00       0.000000000000
      0.8000000000D+00  0.1000000000D+01
 ****
     52 0
 S   3 1.00       0.000000000000
      0.1873113696D+02  0.3349460434D-01
      0.2825394365D+01  0.2347269535D+00
      0.6401216923D+00  0.8137573261D+00
 S   1 1.00       0.000000000000
      0.1612777588D+00  0.1000000000D+01
 ****
     53 0
 S   3 1.00       0.000000000000
      0.1873113696D+02  0.3349460434D-01
      0.2825394365D+01  0.2347269535D+00
      0.6401216923D+00  0.8137573261D+00
 S   1 1.00       0.000000000000
      0.1612777588D+00  0.1000000000D+01
 ****
     54 0
 S   6 1.00       0.000000000000
      0.3047524880D+04  0.1834737132D-02
      0.4573695180D+03  0.1403732281D-01
      0.1039486850D+03  0.6884262226D-01
      0.2921015530D+02  0.2321844432D+00
      0.9286662960D+01  0.4679413484D+00
      0.3163926960D+01  0.3623119853D+00
 SP   3 1.00       0.000000000000
      0.7868272350D+01 -0.1193324198D+00  0.6899906659D-01
      0.1881288540D+01 -0.1608541517D+00  0.3164239610D+00
      0.5442492580D+00  0.1143456438D+01  0.7443082909D+00
 SP   1 1.00       0.000000000000
      0.1687144782D+00  0.1000000000D+01  0.1000000000D+01
 D   1 1.00       0.000000000000
      0.8000000000D+00  0.1000000000D+01
 ****
     55 0
 S   3 1.00       0.000000000000
      0.1873113696D+02  0.3349460434D-01
      0.2825394365D+01  0.2347269535D+00
      0.6401216923D+00  0.8137573261D+00
 S   1 1.00       0.000000000000
      0.1612777588D+00  0.1000000000D+01
 ****
     56 0
 S   6 1.00       0.000000000000
      0.3047524880D+04  0.1834737132D-02
      0.4573695180D+03  0.1403732281D-01
      0.1039486850D+03  0.6884262226D-01
      0.2921015530D+02  0.2321844432D+00
      0.9286662960D+01  0.4679413484D+00
      0.3163926960D+01  0.3623119853D+00
 SP   3 1.00       0.000000000000
      0.7868272350D+01 -0.1193324198D+00  0.6899906659D-01
      0.1881288540D+01 -0.1608541517D+00  0.3164239610D+00
      0.5442492580D+00  0.1143456438D+01  0.7443082909D+00
 SP   1 1.00       0.000000000000
      0.1687144782D+00  0.1000000000D+01  0.1000000000D+01
 D   1 1.00       0.000000000000
      0.8000000000D+00  0.1000000000D+01
 ****
     57 0
 S   3 1.00       0.000000000000
      0.1873113696D+02  0.3349460434D-01
      0.2825394365D+01  0.2347269535D+00
      0.6401216923D+00  0.8137573261D+00
 S   1 1.00       0.000000000000
      0.1612777588D+00  0.1000000000D+01
 ****
     58 0
 S   3 1.00       0.000000000000
      0.1873113696D+02  0.3349460434D-01
      0.2825394365D+01  0.2347269535D+00
      0.6401216923D+00  0.8137573261D+00
 S   1 1.00       0.000000000000
      0.1612777588D+00  0.1000000000D+01
 ****
     59 0
 S   3 1.00       0.000000000000
      0.1873113696D+02  0.3349460434D-01
      0.2825394365D+01  0.2347269535D+00
      0.6401216923D+00  0.8137573261D+00
 S   1 1.00       0.000000000000
      0.1612777588D+00  0.1000000000D+01
 ****
     60 0
 S   6 1.00       0.000000000000
      0.3047524880D+04  0.1834737132D-02
      0.4573695180D+03  0.1403732281D-01
      0.1039486850D+03  0.6884262226D-01
      0.2921015530D+02  0.2321844432D+00
      0.9286662960D+01  0.4679413484D+00
      0.3163926960D+01  0.3623119853D+00
 SP   3 1.00       0.000000000000
      0.7868272350D+01 -0.1193324198D+00  0.6899906659D-01
      0.1881288540D+01 -0.1608541517D+00  0.3164239610D+00
      0.5442492580D+00  0.1143456438D+01  0.7443082909D+00
 SP   1 1.00       0.000000000000
      0.1687144782D+00  0.1000000000D+01  0.1000000000D+01
 D   1 1.00       0.000000000000
      0.8000000000D+00  0.1000000000D+01
 ****
     61 0
 S   3 1.00       0.000000000000
      0.1873113696D+02  0.3349460434D-01
      0.2825394365D+01  0.2347269535D+00
      0.6401216923D+00  0.8137573261D+00
 S   1 1.00       0.000000000000
      0.1612777588D+00  0.1000000000D+01
 ****
     62 0
 S   3 1.00       0.000000000000
      0.1873113696D+02  0.3349460434D-01
      0.2825394365D+01  0.2347269535D+00
      0.6401216923D+00  0.8137573261D+00
 S   1 1.00       0.000000000000
      0.1612777588D+00  0.1000000000D+01
 ****
     63 0
 S   6 1.00       0.000000000000
      0.3047524880D+04  0.1834737132D-02
      0.4573695180D+03  0.1403732281D-01
      0.1039486850D+03  0.6884262226D-01
      0.2921015530D+02  0.2321844432D+00
      0.9286662960D+01  0.4679413484D+00
      0.3163926960D+01  0.3623119853D+00
 SP   3 1.00       0.000000000000
      0.7868272350D+01 -0.1193324198D+00  0.6899906659D-01
      0.1881288540D+01 -0.1608541517D+00  0.3164239610D+00
      0.5442492580D+00  0.1143456438D+01  0.7443082909D+00
 SP   1 1.00       0.000000000000
      0.1687144782D+00  0.1000000000D+01  0.1000000000D+01
 D   1 1.00       0.000000000000
      0.8000000000D+00  0.1000000000D+01
 ****
     64 0
 S   3 1.00       0.000000000000
      0.1873113696D+02  0.3349460434D-01
      0.2825394365D+01  0.2347269535D+00
      0.6401216923D+00  0.8137573261D+00
 S   1 1.00       0.000000000000
      0.1612777588D+00  0.1000000000D+01
 ****
     65 0
 S   3 1.00       0.000000000000
      0.1873113696D+02  0.3349460434D-01
      0.2825394365D+01  0.2347269535D+00
      0.6401216923D+00  0.8137573261D+00
 S   1 1.00       0.000000000000
      0.1612777588D+00  0.1000000000D+01
 ****
     66 0
 S   6 1.00       0.000000000000
      0.3047524880D+04  0.1834737132D-02
      0.4573695180D+03  0.1403732281D-01
      0.1039486850D+03  0.6884262226D-01
      0.2921015530D+02  0.2321844432D+00
      0.9286662960D+01  0.4679413484D+00
      0.3163926960D+01  0.3623119853D+00
 SP   3 1.00       0.000000000000
      0.7868272350D+01 -0.1193324198D+00  0.6899906659D-01
      0.1881288540D+01 -0.1608541517D+00  0.3164239610D+00
      0.5442492580D+00  0.1143456438D+01  0.7443082909D+00
 SP   1 1.00       0.000000000000
      0.1687144782D+00  0.1000000000D+01  0.1000000000D+01
 D   1 1.00       0.000000000000
      0.8000000000D+00  0.1000000000D+01
 ****
     67 0
 S   3 1.00       0.000000000000
      0.1873113696D+02  0.3349460434D-01
      0.2825394365D+01  0.2347269535D+00
      0.6401216923D+00  0.8137573261D+00
 S   1 1.00       0.000000000000
      0.1612777588D+00  0.1000000000D+01
 ****
     68 0
 S   6 1.00       0.000000000000
      0.3047524880D+04  0.1834737132D-02
      0.4573695180D+03  0.1403732281D-01
      0.1039486850D+03  0.6884262226D-01
      0.2921015530D+02  0.2321844432D+00
      0.9286662960D+01  0.4679413484D+00
      0.3163926960D+01  0.3623119853D+00
 SP   3 1.00       0.000000000000
      0.7868272350D+01 -0.1193324198D+00  0.6899906659D-01
      0.1881288540D+01 -0.1608541517D+00  0.3164239610D+00
      0.5442492580D+00  0.1143456438D+01  0.7443082909D+00
 SP   1 1.00       0.000000000000
      0.1687144782D+00  0.1000000000D+01  0.1000000000D+01
 D   1 1.00       0.000000000000
      0.8000000000D+00  0.1000000000D+01
 ****
     69 0
 S   3 1.00       0.000000000000
      0.1873113696D+02  0.3349460434D-01
      0.2825394365D+01  0.2347269535D+00
      0.6401216923D+00  0.8137573261D+00
 S   1 1.00       0.000000000000
      0.1612777588D+00  0.1000000000D+01
 ****
     70 0
 S   3 1.00       0.000000000000
      0.1873113696D+02  0.3349460434D-01
      0.2825394365D+01  0.2347269535D+00
      0.6401216923D+00  0.8137573261D+00
 S   1 1.00       0.000000000000
      0.1612777588D+00  0.1000000000D+01
 ****
     71 0
 S   3 1.00       0.000000000000
      0.1873113696D+02  0.3349460434D-01
      0.2825394365D+01  0.2347269535D+00
      0.6401216923D+00  0.8137573261D+00
 S   1 1.00       0.000000000000
      0.1612777588D+00  0.1000000000D+01
 ****
     72 0
 S   6 1.00       0.000000000000
      0.3047524880D+04  0.1834737132D-02
      0.4573695180D+03  0.1403732281D-01
      0.1039486850D+03  0.6884262226D-01
      0.2921015530D+02  0.2321844432D+00
      0.9286662960D+01  0.4679413484D+00
      0.3163926960D+01  0.3623119853D+00
 SP   3 1.00       0.000000000000
      0.7868272350D+01 -0.1193324198D+00  0.6899906659D-01
      0.1881288540D+01 -0.1608541517D+00  0.3164239610D+00
      0.5442492580D+00  0.1143456438D+01  0.7443082909D+00
 SP   1 1.00       0.000000000000
      0.1687144782D+00  0.1000000000D+01  0.1000000000D+01
 D   1 1.00       0.000000000000
      0.8000000000D+00  0.1000000000D+01
 ****
     73 0
 S   3 1.00       0.000000000000
      0.1873113696D+02  0.3349460434D-01
      0.2825394365D+01  0.2347269535D+00
      0.6401216923D+00  0.8137573261D+00
 S   1 1.00       0.000000000000
      0.1612777588D+00  0.1000000000D+01
 ****
     74 0
 S   3 1.00       0.000000000000
      0.1873113696D+02  0.3349460434D-01
      0.2825394365D+01  0.2347269535D+00
      0.6401216923D+00  0.8137573261D+00
 S   1 1.00       0.000000000000
      0.1612777588D+00  0.1000000000D+01
 ****
     75 0
 S   3 1.00       0.000000000000
      0.1873113696D+02  0.3349460434D-01
      0.2825394365D+01  0.2347269535D+00
      0.6401216923D+00  0.8137573261D+00
 S   1 1.00       0.000000000000
      0.1612777588D+00  0.1000000000D+01
 ****

 AO basis set (Overlap normalization):
 Atom O1       Shell     1 S   6     bf    1 -     1          0.000000000000          0.000000000000          0.000000000000
      0.5484671660D+04  0.1831074430D-02
      0.8252349460D+03  0.1395017220D-01
      0.1880469580D+03  0.6844507810D-01
      0.5296450000D+02  0.2327143360D+00
      0.1689757040D+02  0.4701928980D+00
      0.5799635340D+01  0.3585208530D+00
 Atom O1       Shell     2 SP   3    bf    2 -     5          0.000000000000          0.000000000000          0.000000000000
      0.1553961625D+02 -0.1107775495D+00  0.7087426823D-01
      0.3599933586D+01 -0.1480262627D+00  0.3397528391D+00
      0.1013761750D+01  0.1130767015D+01  0.7271585773D+00
 Atom O1       Shell     3 SP   1    bf    6 -     9          0.000000000000          0.000000000000          0.000000000000
      0.2700058226D+00  0.1000000000D+01  0.1000000000D+01
 Atom O1       Shell     4 D   1     bf   10 -    15          0.000000000000          0.000000000000          0.000000000000
      0.8000000000D+00  0.1000000000D+01
 Atom H2       Shell     5 S   3     bf   16 -    16         -0.433776334796          0.259879295192          1.757254422347
      0.1873113696D+02  0.3349460434D-01
      0.2825394365D+01  0.2347269535D+00
      0.6401216923D+00  0.8137573261D+00
 Atom H2       Shell     6 S   1     bf   17 -    17         -0.433776334796          0.259879295192          1.757254422347
      0.1612777588D+00  0.1000000000D+01
 Atom O3       Shell     7 S   6     bf   18 -    18         -5.766992815377         12.248810974439          0.000000000000
      0.5484671660D+04  0.1831074430D-02
      0.8252349460D+03  0.1395017220D-01
      0.1880469580D+03  0.6844507810D-01
      0.5296450000D+02  0.2327143360D+00
      0.1689757040D+02  0.4701928980D+00
      0.5799635340D+01  0.3585208530D+00
 Atom O3       Shell     8 SP   3    bf   19 -    22         -5.766992815377         12.248810974439          0.000000000000
      0.1553961625D+02 -0.1107775495D+00  0.7087426823D-01
      0.3599933586D+01 -0.1480262627D+00  0.3397528391D+00
      0.1013761750D+01  0.1130767015D+01  0.7271585773D+00
 Atom O3       Shell     9 SP   1    bf   23 -    26         -5.766992815377         12.248810974439          0.000000000000
      0.2700058226D+00  0.1000000000D+01  0.1000000000D+01
 Atom O3       Shell    10 D   1     bf   27 -    32         -5.766992815377         12.248810974439          0.000000000000
      0.8000000000D+00  0.1000000000D+01
 Atom H4       Shell    11 S   3     bf   33 -    33         -5.766052978982         12.628853116722          1.788480672707
      0.1873113696D+02  0.3349460434D-01
      0.2825394365D+01  0.2347269535D+00
      0.6401216923D+00  0.8137573261D+00
 Atom H4       Shell    12 S   1     bf   34 -    34         -5.766052978982         12.628853116722          1.788480672707
      0.1612777588D+00  0.1000000000D+01
 Atom C5       Shell    13 S   6     bf   35 -    35          8.073065753121          2.931292797234         -0.788531220216
      0.3047524880D+04  0.1834737132D-02
      0.4573695180D+03  0.1403732281D-01
      0.1039486850D+03  0.6884262226D-01
      0.2921015530D+02  0.2321844432D+00
      0.9286662960D+01  0.4679413484D+00
      0.3163926960D+01  0.3623119853D+00
 Atom C5       Shell    14 SP   3    bf   36 -    39          8.073065753121          2.931292797234         -0.788531220216
      0.7868272350D+01 -0.1193324198D+00  0.6899906659D-01
      0.1881288540D+01 -0.1608541517D+00  0.3164239610D+00
      0.5442492580D+00  0.1143456438D+01  0.7443082909D+00
 Atom C5       Shell    15 SP   1    bf   40 -    43          8.073065753121          2.931292797234         -0.788531220216
      0.1687144782D+00  0.1000000000D+01  0.1000000000D+01
 Atom C5       Shell    16 D   1     bf   44 -    49          8.073065753121          2.931292797234         -0.788531220216
      0.8000000000D+00  0.1000000000D+01
 Atom C6       Shell    17 S   6     bf   50 -    50          5.371052539419          2.014453764629         -1.504019801081
      0.3047524880D+04  0.1834737132D-02
      0.4573695180D+03  0.1403732281D-01
      0.1039486850D+03  0.6884262226D-01
      0.2921015530D+02  0.2321844432D+00
      0.9286662960D+01  0.4679413484D+00
      0.3163926960D+01  0.3623119853D+00
 Atom C6       Shell    18 SP   3    bf   51 -    54          5.371052539419          2.014453764629         -1.504019801081
      0.7868272350D+01 -0.1193324198D+00  0.6899906659D-01
      0.1881288540D+01 -0.1608541517D+00  0.3164239610D+00
      0.5442492580D+00  0.1143456438D+01  0.7443082909D+00
 Atom C6       Shell    19 SP   1    bf   55 -    58          5.371052539419          2.014453764629         -1.504019801081
      0.1687144782D+00  0.1000000000D+01  0.1000000000D+01
 Atom C6       Shell    20 D   1     bf   59 -    64          5.371052539419          2.014453764629         -1.504019801081
      0.8000000000D+00  0.1000000000D+01
 Atom H7       Shell    21 S   3     bf   65 -    65          5.170778570171          2.464351579832         -3.531407682843
      0.1873113696D+02  0.3349460434D-01
      0.2825394365D+01  0.2347269535D+00
      0.6401216923D+00  0.8137573261D+00
 Atom H7       Shell    22 S   1     bf   66 -    66          5.170778570171          2.464351579832         -3.531407682843
      0.1612777588D+00  0.1000000000D+01
 Atom C8       Shell    23 S   6     bf   67 -    67          3.190710753585          3.419096761217         -0.186857839671
      0.3047524880D+04  0.1834737132D-02
      0.4573695180D+03  0.1403732281D-01
      0.1039486850D+03  0.6884262226D-01
      0.2921015530D+02  0.2321844432D+00
      0.9286662960D+01  0.4679413484D+00
      0.3163926960D+01  0.3623119853D+00
 Atom C8       Shell    24 SP   3    bf   68 -    71          3.190710753585          3.419096761217         -0.186857839671
      0.7868272350D+01 -0.1193324198D+00  0.6899906659D-01
      0.1881288540D+01 -0.1608541517D+00  0.3164239610D+00
      0.5442492580D+00  0.1143456438D+01  0.7443082909D+00
 Atom C8       Shell    25 SP   1    bf   72 -    75          3.190710753585          3.419096761217         -0.186857839671
      0.1687144782D+00  0.1000000000D+01  0.1000000000D+01
 Atom C8       Shell    26 D   1     bf   76 -    81          3.190710753585          3.419096761217         -0.186857839671
      0.8000000000D+00  0.1000000000D+01
 Atom H9       Shell    27 S   3     bf   82 -    82          3.289966086481          3.092798486845          1.863626331579
      0.1873113696D+02  0.3349460434D-01
      0.2825394365D+01  0.2347269535D+00
      0.6401216923D+00  0.8137573261D+00
 Atom H9       Shell    28 S   1     bf   83 -    83          3.289966086481          3.092798486845          1.863626331579
      0.1612777588D+00  0.1000000000D+01
 Atom C10      Shell    29 S   6     bf   84 -    84          3.406161491351          6.297814996379         -0.727486489877
      0.3047524880D+04  0.1834737132D-02
      0.4573695180D+03  0.1403732281D-01
      0.1039486850D+03  0.6884262226D-01
      0.2921015530D+02  0.2321844432D+00
      0.9286662960D+01  0.4679413484D+00
      0.3163926960D+01  0.3623119853D+00
 Atom C10      Shell    30 SP   3    bf   85 -    88          3.406161491351          6.297814996379         -0.727486489877
      0.7868272350D+01 -0.1193324198D+00  0.6899906659D-01
      0.1881288540D+01 -0.1608541517D+00  0.3164239610D+00
      0.5442492580D+00  0.1143456438D+01  0.7443082909D+00
 Atom C10      Shell    31 SP   1    bf   89 -    92          3.406161491351          6.297814996379         -0.727486489877
      0.1687144782D+00  0.1000000000D+01  0.1000000000D+01
 Atom C10      Shell    32 D   1     bf   93 -    98          3.406161491351          6.297814996379         -0.727486489877
      0.8000000000D+00  0.1000000000D+01
 Atom H11      Shell    33 S   3     bf   99 -    99          3.071599142244          6.511096517518         -2.772774840227
      0.1873113696D+02  0.3349460434D-01
      0.2825394365D+01  0.2347269535D+00
      0.6401216923D+00  0.8137573261D+00
 Atom H11      Shell    34 S   1     bf  100 -   100          3.071599142244          6.511096517518         -2.772774840227
      0.1612777588D+00  0.1000000000D+01
 Atom C12      Shell    35 S   6     bf  101 -   101          9.703730369799          1.092233377813         -2.447268946920
      0.3047524880D+04  0.1834737132D-02
      0.4573695180D+03  0.1403732281D-01
      0.1039486850D+03  0.6884262226D-01
      0.2921015530D+02  0.2321844432D+00
      0.9286662960D+01  0.4679413484D+00
      0.3163926960D+01  0.3623119853D+00
 Atom C12      Shell    36 SP   3    bf  102 -   105          9.703730369799          1.092233377813         -2.447268946920
      0.7868272350D+01 -0.1193324198D+00  0.6899906659D-01
      0.1881288540D+01 -0.1608541517D+00  0.3164239610D+00
      0.5442492580D+00  0.1143456438D+01  0.7443082909D+00
 Atom C12      Shell    37 SP   1    bf  106 -   109          9.703730369799          1.092233377813         -2.447268946920
      0.1687144782D+00  0.1000000000D+01  0.1000000000D+01
 Atom C12      Shell    38 D   1     bf  110 -   115          9.703730369799          1.092233377813         -2.447268946920
      0.8000000000D+00  0.1000000000D+01
 Atom H13      Shell    39 S   3     bf  116 -   116          9.532331756012          1.782443318965         -4.404256442204
      0.1873113696D+02  0.3349460434D-01
      0.2825394365D+01  0.2347269535D+00
      0.6401216923D+00  0.8137573261D+00
 Atom H13      Shell    40 S   1     bf  117 -   117          9.532331756012          1.782443318965         -4.404256442204
      0.1612777588D+00  0.1000000000D+01
 Atom C14      Shell    41 S   6     bf  118 -   118          8.211756495671          5.755417789279         -1.490691600460
      0.3047524880D+04  0.1834737132D-02
      0.4573695180D+03  0.1403732281D-01
      0.1039486850D+03  0.6884262226D-01
      0.2921015530D+02  0.2321844432D+00
      0.9286662960D+01  0.4679413484D+00
      0.3163926960D+01  0.3623119853D+00
 Atom C14      Shell    42 SP   3    bf  119 -   122          8.211756495671          5.755417789279         -1.490691600460
      0.7868272350D+01 -0.1193324198D+00  0.6899906659D-01
      0.1881288540D+01 -0.1608541517D+00  0.3164239610D+00
      0.5442492580D+00  0.1143456438D+01  0.7443082909D+00
 Atom C14      Shell    43 SP   1    bf  123 -   126          8.211756495671          5.755417789279         -1.490691600460
      0.1687144782D+00  0.1000000000D+01  0.1000000000D+01
 Atom C14      Shell    44 D   1     bf  127 -   132          8.211756495671          5.755417789279         -1.490691600460
      0.8000000000D+00  0.1000000000D+01
 Atom H15      Shell    45 S   3     bf  133 -   133          8.043099118612          5.935765824778         -3.554049852244
      0.1873113696D+02  0.3349460434D-01
      0.2825394365D+01  0.2347269535D+00
      0.6401216923D+00  0.8137573261D+00
 Atom H15      Shell    46 S   1     bf  134 -   134          8.043099118612          5.935765824778         -3.554049852244
      0.1612777588D+00  0.1000000000D+01
 Atom H16      Shell    47 S   3     bf  135 -   135         10.034203219274          6.586972782308         -0.976702608522
      0.1873113696D+02  0.3349460434D-01
      0.2825394365D+01  0.2347269535D+00
      0.6401216923D+00  0.8137573261D+00
 Atom H16      Shell    48 S   1     bf  136 -   136         10.034203219274          6.586972782308         -0.976702608522
      0.1612777588D+00  0.1000000000D+01
 Atom C17      Shell    49 S   6     bf  137 -   137          1.292068155811          7.900786016730          0.594124718330
      0.3047524880D+04  0.1834737132D-02
      0.4573695180D+03  0.1403732281D-01
      0.1039486850D+03  0.6884262226D-01
      0.2921015530D+02  0.2321844432D+00
      0.9286662960D+01  0.4679413484D+00
      0.3163926960D+01  0.3623119853D+00
 Atom C17      Shell    50 SP   3    bf  138 -   141          1.292068155811          7.900786016730          0.594124718330
      0.7868272350D+01 -0.1193324198D+00  0.6899906659D-01
      0.1881288540D+01 -0.1608541517D+00  0.3164239610D+00
      0.5442492580D+00  0.1143456438D+01  0.7443082909D+00
 Atom C17      Shell    51 SP   1    bf  142 -   145          1.292068155811          7.900786016730          0.594124718330
      0.1687144782D+00  0.1000000000D+01  0.1000000000D+01
 Atom C17      Shell    52 D   1     bf  146 -   151          1.292068155811          7.900786016730          0.594124718330
      0.8000000000D+00  0.1000000000D+01
 Atom C18      Shell    53 S   6     bf  152 -   152          5.532233933129         -0.878707911928         -1.320434286771
      0.3047524880D+04  0.1834737132D-02
      0.4573695180D+03  0.1403732281D-01
      0.1039486850D+03  0.6884262226D-01
      0.2921015530D+02  0.2321844432D+00
      0.9286662960D+01  0.4679413484D+00
      0.3163926960D+01  0.3623119853D+00
 Atom C18      Shell    54 SP   3    bf  153 -   156          5.532233933129         -0.878707911928         -1.320434286771
      0.7868272350D+01 -0.1193324198D+00  0.6899906659D-01
      0.1881288540D+01 -0.1608541517D+00  0.3164239610D+00
      0.5442492580D+00  0.1143456438D+01  0.7443082909D+00
 Atom C18      Shell    55 SP   1    bf  157 -   160          5.532233933129         -0.878707911928         -1.320434286771
      0.1687144782D+00  0.1000000000D+01  0.1000000000D+01
 Atom C18      Shell    56 D   1     bf  161 -   166          5.532233933129         -0.878707911928         -1.320434286771
      0.8000000000D+00  0.1000000000D+01
 Atom H19      Shell    57 S   3     bf  167 -   167          4.074870412022         -1.823534336581         -2.436080237535
      0.1873113696D+02  0.3349460434D-01
      0.2825394365D+01  0.2347269535D+00
      0.6401216923D+00  0.8137573261D+00
 Atom H19      Shell    58 S   1     bf  168 -   168          4.074870412022         -1.823534336581         -2.436080237535
      0.1612777588D+00  0.1000000000D+01
 Atom H20      Shell    59 S   3     bf  169 -   169          5.252759368466         -1.502643248977          0.632903202487
      0.1873113696D+02  0.3349460434D-01
      0.2825394365D+01  0.2347269535D+00
      0.6401216923D+00  0.8137573261D+00
 Atom H20      Shell    60 S   1     bf  170 -   170          5.252759368466         -1.502643248977          0.632903202487
      0.1612777588D+00  0.1000000000D+01
 Atom C21      Shell    61 S   6     bf  171 -   171          6.101440288033          7.297359631737         -0.208960643439
      0.3047524880D+04  0.1834737132D-02
      0.4573695180D+03  0.1403732281D-01
      0.1039486850D+03  0.6884262226D-01
      0.2921015530D+02  0.2321844432D+00
      0.9286662960D+01  0.4679413484D+00
      0.3163926960D+01  0.3623119853D+00
 Atom C21      Shell    62 SP   3    bf  172 -   175          6.101440288033          7.297359631737         -0.208960643439
      0.7868272350D+01 -0.1193324198D+00  0.6899906659D-01
      0.1881288540D+01 -0.1608541517D+00  0.3164239610D+00
      0.5442492580D+00  0.1143456438D+01  0.7443082909D+00
 Atom C21      Shell    63 SP   1    bf  176 -   179          6.101440288033          7.297359631737         -0.208960643439
      0.1687144782D+00  0.1000000000D+01  0.1000000000D+01
 Atom C21      Shell    64 D   1     bf  180 -   185          6.101440288033          7.297359631737         -0.208960643439
      0.8000000000D+00  0.1000000000D+01
 Atom H22      Shell    65 S   3     bf  186 -   186          6.453739304268          7.333459807047          1.830537132506
      0.1873113696D+02  0.3349460434D-01
      0.2825394365D+01  0.2347269535D+00
      0.6401216923D+00  0.8137573261D+00
 Atom H22      Shell    66 S   1     bf  187 -   187          6.453739304268          7.333459807047          1.830537132506
      0.1612777588D+00  0.1000000000D+01
 Atom H23      Shell    67 S   3     bf  188 -   188          6.247658395586          9.261843424926         -0.846558530353
      0.1873113696D+02  0.3349460434D-01
      0.2825394365D+01  0.2347269535D+00
      0.6401216923D+00  0.8137573261D+00
 Atom H23      Shell    68 S   1     bf  189 -   189          6.247658395586          9.261843424926         -0.846558530353
      0.1612777588D+00  0.1000000000D+01
 Atom C24      Shell    69 S   6     bf  190 -   190          8.246950188252         -1.478245807457         -2.254791118422
      0.3047524880D+04  0.1834737132D-02
      0.4573695180D+03  0.1403732281D-01
      0.1039486850D+03  0.6884262226D-01
      0.2921015530D+02  0.2321844432D+00
      0.9286662960D+01  0.4679413484D+00
      0.3163926960D+01  0.3623119853D+00
 Atom C24      Shell    70 SP   3    bf  191 -   194          8.246950188252         -1.478245807457         -2.254791118422
      0.7868272350D+01 -0.1193324198D+00  0.6899906659D-01
      0.1881288540D+01 -0.1608541517D+00  0.3164239610D+00
      0.5442492580D+00  0.1143456438D+01  0.7443082909D+00
 Atom C24      Shell    71 SP   1    bf  195 -   198          8.246950188252         -1.478245807457         -2.254791118422
      0.1687144782D+00  0.1000000000D+01  0.1000000000D+01
 Atom C24      Shell    72 D   1     bf  199 -   204          8.246950188252         -1.478245807457         -2.254791118422
      0.8000000000D+00  0.1000000000D+01
 Atom H25      Shell    73 S   3     bf  205 -   205          9.212900028310         -2.759906674536         -0.943342951844
      0.1873113696D+02  0.3349460434D-01
      0.2825394365D+01  0.2347269535D+00
      0.6401216923D+00  0.8137573261D+00
 Atom H25      Shell    74 S   1     bf  206 -   206          9.212900028310         -2.759906674536         -0.943342951844
      0.1612777588D+00  0.1000000000D+01
 Atom H26      Shell    75 S   3     bf  207 -   207          8.207316300663         -2.441361511850         -4.084253771546
      0.1873113696D+02  0.3349460434D-01
      0.2825394365D+01  0.2347269535D+00
      0.6401216923D+00  0.8137573261D+00
 Atom H26      Shell    76 S   1     bf  208 -   208          8.207316300663         -2.441361511850         -4.084253771546
      0.1612777588D+00  0.1000000000D+01
 Atom C27      Shell    77 S   6     bf  209 -   209          0.602493389406          2.427060140066         -1.080808566045
      0.3047524880D+04  0.1834737132D-02
      0.4573695180D+03  0.1403732281D-01
      0.1039486850D+03  0.6884262226D-01
      0.2921015530D+02  0.2321844432D+00
      0.9286662960D+01  0.4679413484D+00
      0.3163926960D+01  0.3623119853D+00
 Atom C27      Shell    78 SP   3    bf  210 -   213          0.602493389406          2.427060140066         -1.080808566045
      0.7868272350D+01 -0.1193324198D+00  0.6899906659D-01
      0.1881288540D+01 -0.1608541517D+00  0.3164239610D+00
      0.5442492580D+00  0.1143456438D+01  0.7443082909D+00
 Atom C27      Shell    79 SP   1    bf  214 -   217          0.602493389406          2.427060140066         -1.080808566045
      0.1687144782D+00  0.1000000000D+01  0.1000000000D+01
 Atom C27      Shell    80 D   1     bf  218 -   223          0.602493389406          2.427060140066         -1.080808566045
      0.8000000000D+00  0.1000000000D+01
 Atom H28      Shell    81 S   3     bf  224 -   224          0.701201741074          2.030986071497         -3.117690413002
      0.1873113696D+02  0.3349460434D-01
      0.2825394365D+01  0.2347269535D+00
      0.6401216923D+00  0.8137573261D+00
 Atom H28      Shell    82 S   1     bf  225 -   225          0.701201741074          2.030986071497         -3.117690413002
      0.1612777588D+00  0.1000000000D+01
 Atom C29      Shell    83 S   6     bf  226 -   226         12.570554139557          0.809425808684         -1.905098960490
      0.3047524880D+04  0.1834737132D-02
      0.4573695180D+03  0.1403732281D-01
      0.1039486850D+03  0.6884262226D-01
      0.2921015530D+02  0.2321844432D+00
      0.9286662960D+01  0.4679413484D+00
      0.3163926960D+01  0.3623119853D+00
 Atom C29      Shell    84 SP   3    bf  227 -   230         12.570554139557          0.809425808684         -1.905098960490
      0.7868272350D+01 -0.1193324198D+00  0.6899906659D-01
      0.1881288540D+01 -0.1608541517D+00  0.3164239610D+00
      0.5442492580D+00  0.1143456438D+01  0.7443082909D+00
 Atom C29      Shell    85 SP   1    bf  231 -   234         12.570554139557          0.809425808684         -1.905098960490
      0.1687144782D+00  0.1000000000D+01  0.1000000000D+01
 Atom C29      Shell    86 D   1     bf  235 -   240         12.570554139557          0.809425808684         -1.905098960490
      0.8000000000D+00  0.1000000000D+01
 Atom H30      Shell    87 S   3     bf  241 -   241         12.777103700319          0.000000000000          0.000000000000
      0.1873113696D+02  0.3349460434D-01
      0.2825394365D+01  0.2347269535D+00
      0.6401216923D+00  0.8137573261D+00
 Atom H30      Shell    88 S   1     bf  242 -   242         12.777103700319          0.000000000000          0.000000000000
      0.1612777588D+00  0.1000000000D+01
 Atom C31      Shell    89 S   6     bf  243 -   243          8.663719252414          2.536209814433          2.045601005539
      0.3047524880D+04  0.1834737132D-02
      0.4573695180D+03  0.1403732281D-01
      0.1039486850D+03  0.6884262226D-01
      0.2921015530D+02  0.2321844432D+00
      0.9286662960D+01  0.4679413484D+00
      0.3163926960D+01  0.3623119853D+00
 Atom C31      Shell    90 SP   3    bf  244 -   247          8.663719252414          2.536209814433          2.045601005539
      0.7868272350D+01 -0.1193324198D+00  0.6899906659D-01
      0.1881288540D+01 -0.1608541517D+00  0.3164239610D+00
      0.5442492580D+00  0.1143456438D+01  0.7443082909D+00
 Atom C31      Shell    91 SP   1    bf  248 -   251          8.663719252414          2.536209814433          2.045601005539
      0.1687144782D+00  0.1000000000D+01  0.1000000000D+01
 Atom C31      Shell    92 D   1     bf  252 -   257          8.663719252414          2.536209814433          2.045601005539
      0.8000000000D+00  0.1000000000D+01
 Atom H32      Shell    93 S   3     bf  258 -   258          7.297042781356          3.481086789260          3.273125395206
      0.1873113696D+02  0.3349460434D-01
      0.2825394365D+01  0.2347269535D+00
      0.6401216923D+00  0.8137573261D+00
 Atom H32      Shell    94 S   1     bf  259 -   259          7.297042781356          3.481086789260          3.273125395206
      0.1612777588D+00  0.1000000000D+01
 Atom H33      Shell    95 S   3     bf  260 -   260          8.663081054105          0.534416704668          2.561838469219
      0.1873113696D+02  0.3349460434D-01
      0.2825394365D+01  0.2347269535D+00
      0.6401216923D+00  0.8137573261D+00
 Atom H33      Shell    96 S   1     bf  261 -   261          8.663081054105          0.534416704668          2.561838469219
      0.1612777588D+00  0.1000000000D+01
 Atom H34      Shell    97 S   3     bf  262 -   262         10.530718027045          3.292853625807          2.517648206259
      0.1873113696D+02  0.3349460434D-01
      0.2825394365D+01  0.2347269535D+00
      0.6401216923D+00  0.8137573261D+00
 Atom H34      Shell    98 S   1     bf  263 -   263         10.530718027045          3.292853625807          2.517648206259
      0.1612777588D+00  0.1000000000D+01
 Atom C35      Shell    99 S   6     bf  264 -   264         -1.284558365261          6.632912988359          0.218761292287
      0.3047524880D+04  0.1834737132D-02
      0.4573695180D+03  0.1403732281D-01
      0.1039486850D+03  0.6884262226D-01
      0.2921015530D+02  0.2321844432D+00
      0.9286662960D+01  0.4679413484D+00
      0.3163926960D+01  0.3623119853D+00
 Atom C35      Shell   100 SP   3    bf  265 -   268         -1.284558365261          6.632912988359          0.218761292287
      0.7868272350D+01 -0.1193324198D+00  0.6899906659D-01
      0.1881288540D+01 -0.1608541517D+00  0.3164239610D+00
      0.5442492580D+00  0.1143456438D+01  0.7443082909D+00
 Atom C35      Shell   101 SP   1    bf  269 -   272         -1.284558365261          6.632912988359          0.218761292287
      0.1687144782D+00  0.1000000000D+01  0.1000000000D+01
 Atom C35      Shell   102 D   1     bf  273 -   278         -1.284558365261          6.632912988359          0.218761292287
      0.8000000000D+00  0.1000000000D+01
 Atom C36      Shell   103 S   6     bf  279 -   279          1.198738418252         10.564059239995         -0.670335767002
      0.3047524880D+04  0.1834737132D-02
      0.4573695180D+03  0.1403732281D-01
      0.1039486850D+03  0.6884262226D-01
      0.2921015530D+02  0.2321844432D+00
      0.9286662960D+01  0.4679413484D+00
      0.3163926960D+01  0.3623119853D+00
 Atom C36      Shell   104 SP   3    bf  280 -   283          1.198738418252         10.564059239995         -0.670335767002
      0.7868272350D+01 -0.1193324198D+00  0.6899906659D-01
      0.1881288540D+01 -0.1608541517D+00  0.3164239610D+00
      0.5442492580D+00  0.1143456438D+01  0.7443082909D+00
 Atom C36      Shell   105 SP   1    bf  284 -   287          1.198738418252         10.564059239995         -0.670335767002
      0.1687144782D+00  0.1000000000D+01  0.1000000000D+01
 Atom C36      Shell   106 D   1     bf  288 -   293          1.198738418252         10.564059239995         -0.670335767002
      0.8000000000D+00  0.1000000000D+01
 Atom H37      Shell   107 S   3     bf  294 -   294          1.214983562337         10.304819069079         -2.730377152580
      0.1873113696D+02  0.3349460434D-01
      0.2825394365D+01  0.2347269535D+00
      0.6401216923D+00  0.8137573261D+00
 Atom H37      Shell   108 S   1     bf  295 -   295          1.214983562337         10.304819069079         -2.730377152580
      0.1612777588D+00  0.1000000000D+01
 Atom H38      Shell   109 S   3     bf  296 -   296          2.919467684779         11.612081435580         -0.197699009522
      0.1873113696D+02  0.3349460434D-01
      0.2825394365D+01  0.2347269535D+00
      0.6401216923D+00  0.8137573261D+00
 Atom H38      Shell   110 S   1     bf  297 -   297          2.919467684779         11.612081435580         -0.197699009522
      0.1612777588D+00  0.1000000000D+01
 Atom C39      Shell   111 S   6     bf  298 -   298         -1.525780110885          4.241249402974         -0.583956309878
      0.3047524880D+04  0.1834737132D-02
[...]
 1571 Fit      -0.000528
 1572 Fit       0.000892
 1573 Fit      -0.001183
 1574 Fit       0.003592
 1575 Fit       0.001750
 1576 Fit      -0.000928
 1577 Fit      -0.002347
 1578 Fit       0.002449
 1579 Fit      -0.000404
 1580 Fit      -0.002516
 1581 Fit      -0.002299
 1582 Fit      -0.003475
 1583 Fit      -0.003346
 1584 Fit      -0.003265
 1585 Fit      -0.001530
 1586 Fit      -0.003628
 1587 Fit      -0.003367
 1588 Fit      -0.003660
 1589 Fit      -0.003887
 1590 Fit      -0.003184
 1591 Fit      -0.003474
 1592 Fit       0.001941
 1593 Fit      -0.000844
 1594 Fit       0.001252
 1595 Fit       0.000757
 1596 Fit      -0.000346
 1597 Fit      -0.003079
 1598 Fit      -0.000939
 1599 Fit       0.000532
 1600 Fit      -0.001286
 1601 Fit      -0.002553
 1602 Fit      -0.003045
 1603 Fit      -0.001495
 1604 Fit       0.000301
 1605 Fit      -0.002662
 1606 Fit       0.000558
 1607 Fit       0.001625
 1608 Fit       0.001355
 1609 Fit      -0.000234
 1610 Fit      -0.002585
 1611 Fit      -0.001884
 1612 Fit      -0.000137
 1613 Fit       0.000865
 1614 Fit       0.000367
 1615 Fit      -0.001550
 1616 Fit      -0.002137
 1617 Fit      -0.000977
 1618 Fit      -0.002475
 1619 Fit      -0.003088
 1620 Fit      -0.002315
 1621 Fit      -0.000458
 1622 Fit       0.001415
 1623 Fit       0.002203
 1624 Fit       0.001141
 1625 Fit      -0.000667
 1626 Fit      -0.000555
 1627 Fit       0.001285
 1628 Fit       0.001372
 1629 Fit      -0.000518
 1630 Fit      -0.002213
 1631 Fit      -0.002188
 1632 Fit       0.000076
 1633 Fit      -0.003415
 1634 Fit      -0.001729
 1635 Fit      -0.006939
 1636 Fit      -0.010995
 1637 Fit      -0.013948
 1638 Fit      -0.015476
 1639 Fit      -0.010328
 1640 Fit      -0.015958
 1641 Fit      -0.019373
 1642 Fit      -0.021467
 1643 Fit      -0.022551
 1644 Fit      -0.015307
 1645 Fit      -0.021436
 1646 Fit      -0.024288
 1647 Fit      -0.024929
 1648 Fit      -0.019659
 1649 Fit      -0.022759
 1650 Fit      -0.021770
 1651 Fit       0.016897
 1652 Fit       0.015377
 1653 Fit       0.018675
 1654 Fit       0.016998
 1655 Fit       0.015532
 1656 Fit       0.013158
 1657 Fit       0.012258
 1658 Fit       0.011941
 1659 Fit       0.010246
 1660 Fit       0.007289
 1661 Fit       0.004528
 1662 Fit       0.003209
 1663 Fit       0.005134
 1664 Fit       0.004682
 1665 Fit       0.000696
 1666 Fit      -0.003527
 1667 Fit      -0.002638
 1668 Fit      -0.005208
 1669 Fit      -0.007814
 1670 Fit      -0.009337
 1671 Fit      -0.008043
 1672 Fit      -0.010651
 1673 Fit      -0.013605
 1674 Fit      -0.015558
 1675 Fit      -0.017226
 1676 Fit      -0.018606
 1677 Fit      -0.018878
 1678 Fit      -0.016588
 1679 Fit      -0.019237
 1680 Fit      -0.022158
 1681 Fit      -0.023716
 1682 Fit      -0.024353
 1683 Fit      -0.023348
 1684 Fit      -0.019121
 1685 Fit      -0.019686
 1686 Fit      -0.023790
 1687 Fit      -0.025210
 1688 Fit      -0.024326
 1689 Fit      -0.020242
 1690 Fit      -0.019975
 1691 Fit      -0.019835
 1692 Fit       0.022387
 1693 Fit       0.025365
 1694 Fit       0.021720
 1695 Fit       0.018806
 1696 Fit       0.017421
 1697 Fit       0.019313
 1698 Fit       0.016729
 1699 Fit       0.014088
 1700 Fit       0.011998
 1701 Fit       0.010190
 1702 Fit       0.009237
 1703 Fit       0.010567
 1704 Fit       0.006607
 1705 Fit       0.004190
 1706 Fit       0.002065
 1707 Fit      -0.000226
 1708 Fit       0.004463
 1709 Fit       0.004530
 1710 Fit       0.003255
 1711 Fit       0.001163
 1712 Fit       0.001378
 1713 Fit       0.002933
 1714 Fit       0.014259
 1715 Fit       0.008930
 1716 Fit       0.005886
 1717 Fit       0.006116
 1718 Fit       0.004367
 1719 Fit       0.005231
 1720 Fit       0.005380
 1721 Fit       0.002756
 1722 Fit       0.003151
 1723 Fit       0.002158
 1724 Fit       0.000866
 1725 Fit       0.001906
 1726 Fit       0.001157
 1727 Fit       0.002647
 1728 Fit       0.002034
 1729 Fit       0.002716
 1730 Fit       0.004036
 1731 Fit       0.005356
 1732 Fit       0.003323
 1733 Fit       0.003472
 1734 Fit       0.004426
 1735 Fit       0.004895
 1736 Fit       0.004396
 1737 Fit       0.004070
 1738 Fit       0.005470
 1739 Fit       0.005750
 1740 Fit       0.005124
 1741 Fit       0.004223
 1742 Fit       0.004509
 1743 Fit       0.002660
 1744 Fit       0.003442
 1745 Fit       0.001552
 1746 Fit      -0.011018
 1747 Fit      -0.007070
 1748 Fit      -0.021126
 1749 Fit      -0.012877
 1750 Fit      -0.014543
 1751 Fit      -0.009608
 1752 Fit      -0.007457
 1753 Fit      -0.011686
 1754 Fit      -0.009033
 1755 Fit      -0.006276
 1756 Fit      -0.004257
 1757 Fit      -0.004596
 1758 Fit      -0.002166
 1759 Fit       0.003075
 1760 Fit       0.004219
 1761 Fit       0.000406
 1762 Fit       0.001648
 1763 Fit      -0.005738
 1764 Fit      -0.003343
 1765 Fit      -0.000578
 1766 Fit      -0.014591
 1767 Fit      -0.008280
 1768 Fit      -0.004579
 1769 Fit       0.005237
 1770 Fit       0.005411
 1771 Fit       0.007627
 1772 Fit       0.004814
 1773 Fit       0.006476
 1774 Fit       0.006139
 1775 Fit       0.007942
 1776 Fit       0.007596
 1777 Fit       0.004775
 1778 Fit       0.006173
 1779 Fit       0.008588
 1780 Fit       0.004092
 1781 Fit       0.005773
 1782 Fit       0.007582
 1783 Fit       0.003954
 1784 Fit       0.005762
 1785 Fit       0.006530
 1786 Fit       0.004820
 1787 Fit       0.005718
 1788 Fit      -0.006100
 1789 Fit      -0.005541
 1790 Fit      -0.003525
 1791 Fit       0.001189
 1792 Fit       0.002488
 1793 Fit      -0.000611
 1794 Fit       0.001556
 1795 Fit       0.003226
 1796 Fit      -0.002952
 1797 Fit      -0.000528
 1798 Fit      -0.002065
 1799 Fit      -0.004717
 1800 Fit      -0.003050
 1801 Fit      -0.001321
 1802 Fit      -0.002534
 1803 Fit      -0.002087
 1804 Fit      -0.000832
 1805 Fit       0.000815
 1806 Fit      -0.000159
 1807 Fit       0.000291
 1808 Fit       0.000457
 1809 Fit      -0.000385
 1810 Fit      -0.000149
 1811 Fit       0.000639
 1812 Fit       0.000414
 1813 Fit      -0.004309
 1814 Fit      -0.007815
 1815 Fit      -0.007846
 1816 Fit       0.004225
 1817 Fit       0.001802
 1818 Fit      -0.000459
 1819 Fit      -0.001866
 1820 Fit      -0.000032
 1821 Fit       0.001692
 1822 Fit       0.001404
 1823 Fit       0.002008
 1824 Fit       0.000265
 1825 Fit       0.003088
 1826 Fit       0.002086
 1827 Fit       0.001090
 1828 Fit       0.002305
 1829 Fit       0.002149
 1830 Fit       0.000985
 1831 Fit       0.003233
 1832 Fit       0.003057
 1833 Fit       0.000626
 1834 Fit       0.004657
 1835 Fit       0.004505
 1836 Fit       0.004483
 1837 Fit       0.007184
 1838 Fit       0.007957
 1839 Fit       0.004552
 1840 Fit       0.005367
 1841 Fit       0.006042
 1842 Fit       0.002302
 1843 Fit       0.001713
 1844 Fit       0.002625
 1845 Fit       0.002559
 1846 Fit       0.002496
 1847 Fit       0.001613
 1848 Fit       0.002992
 1849 Fit       0.003126
 1850 Fit       0.002039
 1851 Fit       0.002737
 1852 Fit       0.002738
 1853 Fit       0.003872
 1854 Fit       0.004199
 1855 Fit       0.001476
 1856 Fit       0.005485
 1857 Fit       0.005340
 1858 Fit       0.005838
 1859 Fit       0.005147
 1860 Fit       0.004735
 1861 Fit       0.004572
 1862 Fit       0.001679
 1863 Fit       0.005804
 1864 Fit       0.005086
 1865 Fit       0.004729
 1866 Fit       0.004912
 1867 Fit       0.004927
 1868 Fit       0.006331
 1869 Fit       0.005375
 1870 Fit       0.009803
 1871 Fit       0.008922
 1872 Fit       0.009128
 1873 Fit       0.008438
 1874 Fit       0.007537
 1875 Fit       0.007527
 1876 Fit       0.006689
 1877 Fit       0.006980
 1878 Fit       0.005919
 1879 Fit       0.004230
 1880 Fit      -0.002793
 1881 Fit       0.000319
 1882 Fit      -0.002780
 1883 Fit      -0.003036
 1884 Fit       0.003448
 1885 Fit       0.001833
 1886 Fit       0.001636
 1887 Fit      -0.003127
 1888 Fit       0.002407
 1889 Fit       0.000296
 1890 Fit      -0.004988
 1891 Fit       0.000122
 1892 Fit      -0.000432
 1893 Fit      -0.004077
 1894 Fit      -0.012030
 1895 Fit      -0.002001
 1896 Fit      -0.003748
 1897 Fit       0.006453
 1898 Fit       0.005947
 1899 Fit       0.006358
 1900 Fit       0.007251
 1901 Fit       0.006436
 1902 Fit       0.010271
 1903 Fit       0.008138
 1904 Fit       0.006639
 1905 Fit       0.007003
 1906 Fit       0.007658
 1907 Fit       0.007945
 1908 Fit       0.008058
 1909 Fit       0.008277
 1910 Fit       0.007542
 1911 Fit       0.008433
 1912 Fit       0.008900
 1913 Fit       0.009019
 1914 Fit       0.009540
 1915 Fit       0.010038
 1916 Fit       0.008204
 1917 Fit       0.008133
 1918 Fit       0.011008
 1919 Fit       0.010990
 1920 Fit       0.008391
 1921 Fit       0.012498
 1922 Fit       0.016306
 1923 Fit       0.016609
 1924 Fit       0.009148
 1925 Fit       0.007031
 1926 Fit       0.006872
 1927 Fit       0.008789
 1928 Fit       0.008477
 1929 Fit       0.007455
 1930 Fit       0.010988
 1931 Fit       0.012246
 1932 Fit       0.010612
 1933 Fit       0.009005
 1934 Fit       0.005688
 1935 Fit       0.003544
 1936 Fit       0.002423
 1937 Fit       0.003752
 1938 Fit       0.001925
 1939 Fit       0.003370
 1940 Fit      -0.003120
 1941 Fit       0.001192
 1942 Fit       0.003446
 1943 Fit      -0.005735
 1944 Fit       0.000118
 1945 Fit       0.003389
 1946 Fit      -0.011099
 1947 Fit      -0.002484
 1948 Fit       0.001680
 1949 Fit      -0.003920
 1950 Fit      -0.000676
 1951 Fit       0.013563
 1952 Fit       0.017582
 1953 Fit       0.012266
 1954 Fit       0.009792
 1955 Fit       0.013320
 1956 Fit       0.007811
 1957 Fit       0.006511
 1958 Fit       0.006742
 1959 Fit       0.007387
 1960 Fit       0.012022
 1961 Fit       0.015782
 1962 Fit       0.021943
 1963 Fit       0.009402
 1964 Fit       0.009205
 1965 Fit       0.010878
 1966 Fit       0.017821
 1967 Fit       0.007123
 1968 Fit       0.006242
 1969 Fit       0.006743
 1970 Fit       0.005095
 1971 Fit       0.003387
 1972 Fit       0.000469
 1973 Fit      -0.006130
 1974 Fit       0.006170
 1975 Fit       0.004804
 1976 Fit       0.002979
 1977 Fit      -0.000583
 1978 Fit      -0.008513
 1979 Fit       0.004916
 1980 Fit       0.003428
 1981 Fit       0.000216
 1982 Fit      -0.006363
 1983 Fit       0.003017
 1984 Fit      -0.000772
 1985 Fit       0.002768
 1986 Fit      -0.000426
 1987 Fit       0.001235
 1988 Fit       0.001569
 1989 Fit       0.002370
 1990 Fit       0.002303
 1991 Fit      -0.000452
 1992 Fit       0.001723
 1993 Fit       0.001683
 1994 Fit       0.000625
 1995 Fit      -0.000093
 1996 Fit       0.001121
 1997 Fit      -0.008797
 1998 Fit       0.000689
 1999 Fit      -0.007223
 2000 Fit      -0.013597
 2001 Fit      -0.013109
 2002 Fit      -0.007596
 2003 Fit      -0.002720
 2004 Fit      -0.001688
 2005 Fit      -0.001028
 2006 Fit       0.004143
 2007 Fit       0.001175
 2008 Fit      -0.003635
 2009 Fit      -0.003775
 2010 Fit      -0.000611
 2011 Fit       0.002089
 2012 Fit       0.000558
 2013 Fit       0.001080
 2014 Fit       0.000674
 2015 Fit      -0.000046
 2016 Fit       0.000354
 2017 Fit      -0.000236
 2018 Fit       0.000062
 2019 Fit      -0.000663
 2020 Fit      -0.000582
 2021 Fit       0.000337
 2022 Fit      -0.000748
 2023 Fit      -0.000387
 2024 Fit      -0.000306
 2025 Fit       0.000657
 2026 Fit       0.001019
 2027 Fit      -0.000311
 2028 Fit       0.000326
 2029 Fit       0.001289
 2030 Fit       0.002012
 2031 Fit       0.002419
 2032 Fit       0.001220
 2033 Fit       0.001935
 2034 Fit       0.002720
 2035 Fit       0.003003
 2036 Fit       0.002387
 2037 Fit       0.000581
 2038 Fit       0.001721
 2039 Fit       0.001027
 2040 Fit       0.002749
 2041 Fit       0.001687
 2042 Fit       0.000324
 2043 Fit       0.001445
 2044 Fit      -0.000099
 2045 Fit       0.000179
 2046 Fit       0.002504
 2047 Fit       0.004424
 2048 Fit       0.001689
 2049 Fit       0.003748
 2050 Fit       0.005913
 2051 Fit       0.001240
 2052 Fit       0.003406
 2053 Fit      -0.000987
 2054 Fit      -0.000547
 2055 Fit      -0.000568
 2056 Fit       0.000192
 2057 Fit       0.001700
 2058 Fit       0.000548
 2059 Fit       0.001796
 2060 Fit      -0.000083
 2061 Fit       0.001244
 2062 Fit       0.002174
 2063 Fit       0.000359
 2064 Fit       0.000648
 2065 Fit       0.001425
 2066 Fit       0.000326
 2067 Fit       0.000165
 2068 Fit       0.002194
 2069 Fit       0.001005
 2070 Fit      -0.000675
 2071 Fit      -0.000255
 2072 Fit      -0.001084
 2073 Fit      -0.002474
 2074 Fit       0.000112
 2075 Fit       0.000962
 2076 Fit       0.000310
 2077 Fit       0.001465
 2078 Fit       0.000944
 2079 Fit       0.000305
 2080 Fit      -0.000005
 2081 Fit       0.002292
 2082 Fit       0.001525
 2083 Fit       0.000054
 2084 Fit      -0.000679
 2085 Fit       0.000874
 2086 Fit      -0.001642
 2087 Fit      -0.001346
 2088 Fit      -0.000157
 2089 Fit       0.000548
 2090 Fit      -0.001253
 2091 Fit      -0.000011
 2092 Fit       0.000955
 2093 Fit       0.001521
 2094 Fit       0.000680
 2095 Fit       0.001323
 2096 Fit       0.001636
 2097 Fit      -0.001051
 2098 Fit       0.000732
 2099 Fit      -0.000280
 2100 Fit      -0.000371
 2101 Fit      -0.000413
 2102 Fit       0.000325
 2103 Fit      -0.000111
 2104 Fit      -0.000716
 2105 Fit      -0.000226
 2106 Fit      -0.000565
 2107 Fit      -0.001364
 2108 Fit      -0.001963
 2109 Fit      -0.002119
 2110 Fit      -0.002496
 2111 Fit      -0.002804
 2112 Fit      -0.002380
 2113 Fit      -0.002510
 2114 Fit      -0.002504
 2115 Fit      -0.002605
 2116 Fit      -0.002683
 2117 Fit      -0.002418
 2118 Fit      -0.002010
 2119 Fit      -0.002585
 2120 Fit      -0.000184
 2121 Fit      -0.000751
 2122 Fit      -0.001075
 2123 Fit       0.000967
 2124 Fit       0.000436
 2125 Fit      -0.001016
 2126 Fit       0.000412
 2127 Fit       0.001657
 2128 Fit      -0.001982
 2129 Fit      -0.000334
 2130 Fit       0.001002
 2131 Fit       0.002102
 2132 Fit      -0.000929
 2133 Fit       0.000918
 2134 Fit      -0.001680
 2135 Fit      -0.001720
 2136 Fit      -0.001243
 2137 Fit      -0.000349
 2138 Fit      -0.000316
 2139 Fit      -0.001191
 2140 Fit      -0.001437
 2141 Fit      -0.000310
 2142 Fit       0.000553
 2143 Fit       0.000571
 2144 Fit      -0.000406
 2145 Fit      -0.002174
 2146 Fit       0.000127
 2147 Fit       0.001106
 2148 Fit       0.001245
 2149 Fit       0.000691
 2150 Fit      -0.000616
 2151 Fit       0.002753
 2152 Fit       0.001319
 2153 Fit      -0.000655
 2154 Fit       0.002222
 2155 Fit      -0.000156
 2156 Fit      -0.001762
 2157 Fit      -0.000769
 2158 Fit      -0.002162
 2159 Fit      -0.002445
 2160 Fit      -0.002644
 2161 Fit      -0.002471
 2162 Fit      -0.002301
 2163 Fit      -0.001216
 2164 Fit      -0.001390
 2165 Fit      -0.002958
 2166 Fit      -0.002450
 2167 Fit      -0.002024
 2168 Fit      -0.002911
 2169 Fit      -0.003016
 2170 Fit      -0.002404
 2171 Fit      -0.002615
 2172 Fit       0.001735
 2173 Fit      -0.000644
 2174 Fit       0.001050
 2175 Fit       0.000942
 2176 Fit       0.000430
 2177 Fit      -0.001992
 2178 Fit      -0.000386
 2179 Fit       0.000681
 2180 Fit      -0.000229
 2181 Fit      -0.001016
 2182 Fit      -0.001250
 2183 Fit      -0.000334
 2184 Fit      -0.001778
 2185 Fit      -0.001963
 2186 Fit       0.001051
 2187 Fit       0.001389
 2188 Fit       0.000517
 2189 Fit      -0.001037
 2190 Fit      -0.000535
 2191 Fit       0.000408
 2192 Fit       0.000881
 2193 Fit       0.000469
 2194 Fit      -0.000751
 2195 Fit      -0.002383
 2196 Fit      -0.000628
 2197 Fit       0.000055
 2198 Fit      -0.000289
 2199 Fit      -0.001614
 2200 Fit      -0.001962
 2201 Fit      -0.001298
 2202 Fit      -0.002305
 2203 Fit      -0.001814
 2204 Fit      -0.000321
 2205 Fit       0.000704
 2206 Fit      -0.001585
 2207 Fit      -0.000213
 2208 Fit       0.001088
 2209 Fit       0.001604
 2210 Fit       0.000888
 2211 Fit      -0.000452
 2212 Fit      -0.000555
 2213 Fit       0.000747
 2214 Fit       0.000818
 2215 Fit      -0.000489
 2216 Fit      -0.001666
 2217 Fit      -0.001694
 2218 Fit      -0.000177
 -----------------------------------------------------------------
 Leave Link  602 at Thu May 18 13:47:01 2017, MaxMem=    33554432 cpu:         3.4
 (Enter /home/michal/g09/l9999.exe)

 Test job not archived.
 1\1\GINC-LINUX\SP\RHF\6-31G(d)\C27H46O2\MICHAL\18-May-2017\0\\#P HF/6-
 31G* SCF(Conver=6) NoSymm Test Pop=mk IOp(6/33=2) GFInput GFPrint\\MEP
  - Input generated by R.E.D.-III.x MOLECULE\\0,1\O,0,0.,0.,0.\H,0,-0.2
 2954455,0.1375222,0.92989899\O,0,-3.05176116,6.4817916,0.\H,0,-3.05126
 382,6.68290124,0.94642321\C,0,4.2720824,1.55117334,-0.41727275\C,0,2.8
 4223859,1.06600302,-0.795893\H,0,2.73625817,1.30407869,-1.86874046\C,0
 ,1.68845141,1.80930808,-0.09888091\H,0,1.74097507,1.63663847,0.9861885
 8\C,0,1.80246303,3.33266016,-0.38496927\H,0,1.62542026,3.44552388,-1.4
 6728925\C,0,5.13499295,0.57798501,-1.29503895\H,0,5.04429271,0.9432283
 8,-2.33063213\C,0,4.34547438,3.04563592,-0.78884002\H,0,4.25622474,3.1
 4107199,-1.88072218\H,0,5.30987165,3.48567587,-0.51684876\C,0,0.683733
 02,4.18091589,0.31439726\C,0,2.92753211,-0.4649922,-0.69874373\H,0,2.1
 5632855,-0.96497281,-1.28911814\H,0,2.77964054,-0.79516456,0.33491795\
 C,0,3.22874314,3.8615964,-0.11057721\H,0,3.41517175,3.88069979,0.96867
 853\H,0,3.30611843,4.90115645,-0.44797948\C,0,4.36409808,-0.78225399,-
 1.19318407\H,0,4.87525672,-1.46047971,-0.49919559\H,0,4.34312473,-1.29
 191287,-2.16129401\C,0,0.31882577,1.28434491,-0.57193926\H,0,0.3710599
 8,1.07475154,-1.64981071\C,0,6.65205075,0.42832969,-1.00813495\H,0,6.7
 6135207,0.,0.\C,0,4.58464277,1.34210443,1.08248543\H,0,3.86142873,1.84
 211179,1.73206336\H,0,4.58430505,0.28280114,1.35566653\H,0,5.57261597,
 1.74250309,1.33228205\C,0,-0.67975901,3.50998638,0.11576349\C,0,0.6343
 4505,5.59025938,-0.35472641\H,0,0.64294161,5.45307539,-1.44485336\H,0,
 1.54491576,6.14484884,-0.10461781\C,0,-0.80740806,2.24437252,-0.309016
 37\H,0,-1.80241997,1.82755099,-0.46483634\C,0,0.94718104,4.33810279,1.
 83603782\H,0,1.82037735,4.96957448,2.02676493\H,0,0.09795527,4.8009514
 4,2.34540383\H,0,1.11742005,3.36718581,2.31130882\C,0,-1.91203801,4.34
 435467,0.41098402\H,0,-2.81710768,3.79471617,0.13448221\H,0,-1.9785997
 3,4.53892267,1.49376662\C,0,-0.59063736,6.4413759,0.01406446\H,0,-0.57
 498955,6.69513884,1.08446353\H,0,-0.5650999,7.39055104,-0.53315748\C,0
 ,7.29266897,-0.57429134,-2.00255247\H,0,6.62805703,-1.43469781,-2.1248
 2108\H,0,7.35607947,-0.09608294,-2.99258156\C,0,-1.89098605,5.70369713
 ,-0.30372371\H,0,-1.95517213,5.53786241,-1.38605549\C,0,7.41192217,1.7
 6667977,-1.04326153\H,0,7.2353712,2.2907838,-1.99090541\H,0,8.49103419
 ,1.61330495,-0.94742989\H,0,7.11364116,2.43482637,-0.23212236\C,0,8.68
 343594,-1.09002214,-1.59752477\H,0,9.36276049,-0.24492107,-1.43329499\
 H,0,8.6073568,-1.60317579,-0.62919318\C,0,9.34378202,-2.01858643,-2.63
 411384\H,0,10.36523787,-2.2491747,-2.29655114\H,0,9.45562403,-1.463512
 87,-3.57683655\C,0,8.62766268,-3.35232078,-2.93682094\H,0,7.61275266,-
 3.12688645,-3.29407338\C,0,8.50232277,-4.24639517,-1.69306034\H,0,9.49
 266125,-4.48259806,-1.28218882\H,0,8.01116245,-5.19435641,-1.94048265\
 H,0,7.91743963,-3.77076712,-0.89915447\C,0,9.35592455,-4.09916047,-4.0
 6591136\H,0,10.37974083,-4.35835316,-3.76663736\H,0,8.83992785,-5.0307
 9461,-4.32479707\H,0,9.41966231,-3.487612,-4.97333044\\Version=EM64L-G
 09RevD.01\HF=-1198.9271626\RMSD=4.849e-07\Dipole=0.5411902,0.5074183,0
 .7666857\Quadrupole=-4.3722055,-0.6162639,4.9884694,8.3930425,-3.00098
 66,5.8464432\PG=C01 [X(C27H46O2)]\\@


 IF YOU GIVE EVERYONE A PIECE OF YOUR MIND,
 PRETTY SOON IT WILL BE ALL GONE.
 Job cpu time:       0 days  0 hours 10 minutes 54.2 seconds.
 File lengths (MBytes):  RWF=    150 Int=      0 D2E=      0 Chk=     11 Scr=      1
 Normal termination of Gaussian 09 at Thu May 18 13:47:01 2017.
