 Entering Gaussian System, Link 0=/home/michal/g09/g09
 Input=JOB2-gau_m1-19-2.com
 Output=JOB2-gau_m1-19-2.log
 Initial command:
 /home/michal/g09/l1.exe "/home/michal/gauss_scratch/Gau-28134.inp" -scrdir="/home/michal/gauss_scratch/"
 Entering Link 1 = /home/michal/g09/l1.exe PID=     28135.
  
 Copyright (c) 1988,1990,1992,1993,1995,1998,2003,2009,2013,
            Gaussian, Inc.  All Rights Reserved.
  
 This is part of the Gaussian(R) 09 program.  It is based on
 the Gaussian(R) 03 system (copyright 2003, Gaussian, Inc.),
 the Gaussian(R) 98 system (copyright 1998, Gaussian, Inc.),
 the Gaussian(R) 94 system (copyright 1995, Gaussian, Inc.),
 the Gaussian 92(TM) system (copyright 1992, Gaussian, Inc.),
 the Gaussian 90(TM) system (copyright 1990, Gaussian, Inc.),
 the Gaussian 88(TM) system (copyright 1988, Gaussian, Inc.),
 the Gaussian 86(TM) system (copyright 1986, Carnegie Mellon
 University), and the Gaussian 82(TM) system (copyright 1983,
 Carnegie Mellon University). Gaussian is a federally registered
 trademark of Gaussian, Inc.
  
 This software contains proprietary and confidential information,
 including trade secrets, belonging to Gaussian, Inc.
  
 This software is provided under written license and may be
 used, copied, transmitted, or stored only in accord with that
 written license.
  
 The following legend is applicable only to US Government
 contracts under FAR:
  
                    RESTRICTED RIGHTS LEGEND
  
 Use, reproduction and disclosure by the US Government is
 subject to restrictions as set forth in subparagraphs (a)
 and (c) of the Commercial Computer Software - Restricted
 Rights clause in FAR 52.227-19.
  
 Gaussian, Inc.
 340 Quinnipiac St., Bldg. 40, Wallingford CT 06492
  
  
 ---------------------------------------------------------------
 Warning -- This program may not be used in any manner that
 competes with the business of Gaussian, Inc. or will provide
 assistance to any competitor of Gaussian, Inc.  The licensee
 of this program is prohibited from giving any competitor of
 Gaussian, Inc. access to this program.  By using this program,
 the user acknowledges that Gaussian, Inc. is engaged in the
 business of creating and licensing software in the field of
 computational chemistry and represents and warrants to the
 licensee that it is not a competitor of Gaussian, Inc. and that
 it will not use this program in any manner prohibited above.
 ---------------------------------------------------------------
  

 Cite this work as:
 Gaussian 09, Revision D.01,
 M. J. Frisch, G. W. Trucks, H. B. Schlegel, G. E. Scuseria, 
 M. A. Robb, J. R. Cheeseman, G. Scalmani, V. Barone, B. Mennucci, 
 G. A. Petersson, H. Nakatsuji, M. Caricato, X. Li, H. P. Hratchian, 
 A. F. Izmaylov, J. Bloino, G. Zheng, J. L. Sonnenberg, M. Hada, 
 M. Ehara, K. Toyota, R. Fukuda, J. Hasegawa, M. Ishida, T. Nakajima, 
 Y. Honda, O. Kitao, H. Nakai, T. Vreven, J. A. Montgomery, Jr., 
 J. E. Peralta, F. Ogliaro, M. Bearpark, J. J. Heyd, E. Brothers, 
 K. N. Kudin, V. N. Staroverov, T. Keith, R. Kobayashi, J. Normand, 
 K. Raghavachari, A. Rendell, J. C. Burant, S. S. Iyengar, J. Tomasi, 
 M. Cossi, N. Rega, J. M. Millam, M. Klene, J. E. Knox, J. B. Cross, 
 V. Bakken, C. Adamo, J. Jaramillo, R. Gomperts, R. E. Stratmann, 
 O. Yazyev, A. J. Austin, R. Cammi, C. Pomelli, J. W. Ochterski, 
 R. L. Martin, K. Morokuma, V. G. Zakrzewski, G. A. Voth, 
 P. Salvador, J. J. Dannenberg, S. Dapprich, A. D. Daniels, 
 O. Farkas, J. B. Foresman, J. V. Ortiz, J. Cioslowski, 
 and D. J. Fox, Gaussian, Inc., Wallingford CT, 2013.
 
 ******************************************
 Gaussian 09:  EM64L-G09RevD.01 24-Apr-2013
                18-May-2017 
 ******************************************
 %Mem=256MB
 %NProc=12
 Will use up to   12 processors via shared memory.
 ----------------------------------------------------------------------
 #P HF/6-31G* SCF(Conver=6) NoSymm Test Pop=mk IOp(6/33=2) GFInput GFPr
 int
 ----------------------------------------------------------------------
 1/38=1/1;
 2/12=2,15=1,17=6,18=5,40=1/2;
 3/5=1,6=6,7=1,11=9,16=1,24=110,25=1,30=1/1,2,3;
 4//1;
 5/5=2,6=6,38=5/2;
 6/7=2,8=2,9=2,10=2,15=8,20=1,28=1,33=2/1,2;
 99/5=1,9=1/99;
 Leave Link    1 at Thu May 18 13:29:35 2017, MaxMem=    33554432 cpu:         0.6
 (Enter /home/michal/g09/l101.exe)
 ----------------------------------------------
 MEP - Input generated by R.E.D.-III.x MOLECULE
 ----------------------------------------------
 Symbolic Z-matrix:
 Charge =  0 Multiplicity = 1
 O                     6.70145   0.90207   0. 
 H                     7.05159   0.        0. 
 O                     9.77881   0.33909  -6.44567 
 H                     9.90477  -0.61845  -6.50425 
 C                     2.42522   0.52358  -1.54882 
 C                     3.78881   1.15303  -1.1402 
 H                     3.75629   2.18205  -1.53867 
 C                     5.02944   0.50886  -1.78424 
 H                     5.11754  -0.53597  -1.45163 
 C                     4.89142   0.54846  -3.33208 
 H                     4.92792   1.61588  -3.60563 
 C                     1.45135   1.41899  -0.70649 
 H                     1.43379   2.3937   -1.21606 
 C                     2.31482   0.65775  -3.08015 
 H                     2.26119   1.72555  -3.33735 
 H                     1.39695   0.19968  -3.46239 
 C                     6.09885  -0.11797  -4.07963 
 C                     3.70414   1.27907   0.38989 
 H                     4.37564   2.04642   0.78199 
 H                     4.00121   0.34185   0.87218 
 C                     3.517     0.01733  -3.80009 
 H                     3.47195  -1.06803  -3.65932 
 H                     3.40581   0.1862   -4.87691 
 C                     2.20653   1.59663   0.6511 
 H                     1.79397   0.91902   1.40809 
 H                     2.07219   2.61024   1.04264 
 C                     6.32122   1.22941  -1.35143 
 H                     6.1266    2.31033  -1.30416 
 C                    -0.01944   0.97243  -0.51346 
 H                     0.        0.        0. 
 C                     2.30586  -0.95668  -1.12033 
 H                     3.10763  -1.57507  -1.5323 
 H                     2.33687  -1.07145  -0.03282 
 H                     1.35895  -1.38406  -1.46712 
 C                     7.41911   0.35528  -3.46189 
 C                     6.07104   0.33338  -5.57365 
 H                     5.91706   1.42096  -5.60076 
 H                     5.20628  -0.11503  -6.07404 
 C                     7.47991   0.97614  -2.27472 
 H                     8.44251   1.32118  -1.89734 
 C                     6.03822  -1.66719  -4.00462 
 H                     5.20034  -2.06219  -4.58727 
 H                     6.94902  -2.12484  -4.39951 
 H                     5.92763  -2.00989  -2.97127 
 C                     8.68609   0.10386  -4.25776 
 H                     9.54237   0.57571  -3.76597 
 H                     8.89661  -0.97745  -4.29025 
 C                     7.34093   0.00668  -6.37464 
 H                     7.46881  -1.0822   -6.46619 
 H                     7.25098   0.39816  -7.3943 
 C                    -0.80505   1.92209   0.43217 
 H                    -1.79082   1.46854   0.59976 
 H                    -0.31642   1.94343   1.41456 
 C                     8.58182   0.59942  -5.70775 
 H                     8.50099   1.69328  -5.70523 
 C                    -0.79011   0.77644  -1.83277 
 H                    -0.71487   1.65397  -2.4847 
 H                    -1.85401   0.60248  -1.63217 
 H                    -0.42328  -0.08434  -2.39754 
 C                    -0.99037   3.36954  -0.05353 
 H                    -0.00827   3.81406  -0.25862 
 H                    -1.52816   3.38025  -1.00941 
 C                    -1.71024   4.28243   0.95765 
 H                    -1.69106   5.3136    0.57446 
 H                    -1.12785   4.29592   1.89035 
 C                    -3.1726    3.92783   1.30244 
 H                    -3.19575   2.90284   1.69912 
 C                    -4.09398   3.97894   0.07334 
 H                    -4.08925   4.98114  -0.37497 
 H                    -5.12829   3.74425   0.3496 
 H                    -3.79069   3.26681  -0.70089 
 C                    -3.6967    4.8595    2.40715 
 H                    -3.70148   5.90364   2.06851 
 H                    -4.72186   4.59923   2.69457 
 H                    -3.07191   4.80447   3.30603 
 
 NAtoms=     75 NQM=       75 NQMF=       0 NMMI=      0 NMMIF=      0
                NMic=       0 NMicF=      0.
                    Isotopes and Nuclear Properties:
 (Nuclear quadrupole moments (NQMom) in fm**2, nuclear magnetic moments (NMagM)
  in nuclear magnetons)

  Atom         1           2           3           4           5           6           7           8           9          10
 IAtWgt=          16           1          16           1          12          12           1          12           1          12
 AtmWgt=  15.9949146   1.0078250  15.9949146   1.0078250  12.0000000  12.0000000   1.0078250  12.0000000   1.0078250  12.0000000
 NucSpn=           0           1           0           1           0           0           1           0           1           0
 AtZEff=   0.0000000   0.0000000   0.0000000   0.0000000   0.0000000   0.0000000   0.0000000   0.0000000   0.0000000   0.0000000
 NQMom=    0.0000000   0.0000000   0.0000000   0.0000000   0.0000000   0.0000000   0.0000000   0.0000000   0.0000000   0.0000000
 NMagM=    0.0000000   2.7928460   0.0000000   2.7928460   0.0000000   0.0000000   2.7928460   0.0000000   2.7928460   0.0000000
 AtZNuc=   8.0000000   1.0000000   8.0000000   1.0000000   6.0000000   6.0000000   1.0000000   6.0000000   1.0000000   6.0000000

  Atom        11          12          13          14          15          16          17          18          19          20
 IAtWgt=           1          12           1          12           1           1          12          12           1           1
 AtmWgt=   1.0078250  12.0000000   1.0078250  12.0000000   1.0078250   1.0078250  12.0000000  12.0000000   1.0078250   1.0078250
 NucSpn=           1           0           1           0           1           1           0           0           1           1
 AtZEff=   0.0000000   0.0000000   0.0000000   0.0000000   0.0000000   0.0000000   0.0000000   0.0000000   0.0000000   0.0000000
 NQMom=    0.0000000   0.0000000   0.0000000   0.0000000   0.0000000   0.0000000   0.0000000   0.0000000   0.0000000   0.0000000
 NMagM=    2.7928460   0.0000000   2.7928460   0.0000000   2.7928460   2.7928460   0.0000000   0.0000000   2.7928460   2.7928460
 AtZNuc=   1.0000000   6.0000000   1.0000000   6.0000000   1.0000000   1.0000000   6.0000000   6.0000000   1.0000000   1.0000000

  Atom        21          22          23          24          25          26          27          28          29          30
 IAtWgt=          12           1           1          12           1           1          12           1          12           1
 AtmWgt=  12.0000000   1.0078250   1.0078250  12.0000000   1.0078250   1.0078250  12.0000000   1.0078250  12.0000000   1.0078250
 NucSpn=           0           1           1           0           1           1           0           1           0           1
 AtZEff=   0.0000000   0.0000000   0.0000000   0.0000000   0.0000000   0.0000000   0.0000000   0.0000000   0.0000000   0.0000000
 NQMom=    0.0000000   0.0000000   0.0000000   0.0000000   0.0000000   0.0000000   0.0000000   0.0000000   0.0000000   0.0000000
 NMagM=    0.0000000   2.7928460   2.7928460   0.0000000   2.7928460   2.7928460   0.0000000   2.7928460   0.0000000   2.7928460
 AtZNuc=   6.0000000   1.0000000   1.0000000   6.0000000   1.0000000   1.0000000   6.0000000   1.0000000   6.0000000   1.0000000

  Atom        31          32          33          34          35          36          37          38          39          40
 IAtWgt=          12           1           1           1          12          12           1           1          12           1
 AtmWgt=  12.0000000   1.0078250   1.0078250   1.0078250  12.0000000  12.0000000   1.0078250   1.0078250  12.0000000   1.0078250
 NucSpn=           0           1           1           1           0           0           1           1           0           1
 AtZEff=   0.0000000   0.0000000   0.0000000   0.0000000   0.0000000   0.0000000   0.0000000   0.0000000   0.0000000   0.0000000
 NQMom=    0.0000000   0.0000000   0.0000000   0.0000000   0.0000000   0.0000000   0.0000000   0.0000000   0.0000000   0.0000000
 NMagM=    0.0000000   2.7928460   2.7928460   2.7928460   0.0000000   0.0000000   2.7928460   2.7928460   0.0000000   2.7928460
 AtZNuc=   6.0000000   1.0000000   1.0000000   1.0000000   6.0000000   6.0000000   1.0000000   1.0000000   6.0000000   1.0000000

  Atom        41          42          43          44          45          46          47          48          49          50
 IAtWgt=          12           1           1           1          12           1           1          12           1           1
 AtmWgt=  12.0000000   1.0078250   1.0078250   1.0078250  12.0000000   1.0078250   1.0078250  12.0000000   1.0078250   1.0078250
 NucSpn=           0           1           1           1           0           1           1           0           1           1
 AtZEff=   0.0000000   0.0000000   0.0000000   0.0000000   0.0000000   0.0000000   0.0000000   0.0000000   0.0000000   0.0000000
 NQMom=    0.0000000   0.0000000   0.0000000   0.0000000   0.0000000   0.0000000   0.0000000   0.0000000   0.0000000   0.0000000
 NMagM=    0.0000000   2.7928460   2.7928460   2.7928460   0.0000000   2.7928460   2.7928460   0.0000000   2.7928460   2.7928460
 AtZNuc=   6.0000000   1.0000000   1.0000000   1.0000000   6.0000000   1.0000000   1.0000000   6.0000000   1.0000000   1.0000000

  Atom        51          52          53          54          55          56          57          58          59          60
 IAtWgt=          12           1           1          12           1          12           1           1           1          12
 AtmWgt=  12.0000000   1.0078250   1.0078250  12.0000000   1.0078250  12.0000000   1.0078250   1.0078250   1.0078250  12.0000000
 NucSpn=           0           1           1           0           1           0           1           1           1           0
 AtZEff=   0.0000000   0.0000000   0.0000000   0.0000000   0.0000000   0.0000000   0.0000000   0.0000000   0.0000000   0.0000000
 NQMom=    0.0000000   0.0000000   0.0000000   0.0000000   0.0000000   0.0000000   0.0000000   0.0000000   0.0000000   0.0000000
 NMagM=    0.0000000   2.7928460   2.7928460   0.0000000   2.7928460   0.0000000   2.7928460   2.7928460   2.7928460   0.0000000
 AtZNuc=   6.0000000   1.0000000   1.0000000   6.0000000   1.0000000   6.0000000   1.0000000   1.0000000   1.0000000   6.0000000

  Atom        61          62          63          64          65          66          67          68          69          70
 IAtWgt=           1           1          12           1           1          12           1          12           1           1
 AtmWgt=   1.0078250   1.0078250  12.0000000   1.0078250   1.0078250  12.0000000   1.0078250  12.0000000   1.0078250   1.0078250
 NucSpn=           1           1           0           1           1           0           1           0           1           1
 AtZEff=   0.0000000   0.0000000   0.0000000   0.0000000   0.0000000   0.0000000   0.0000000   0.0000000   0.0000000   0.0000000
 NQMom=    0.0000000   0.0000000   0.0000000   0.0000000   0.0000000   0.0000000   0.0000000   0.0000000   0.0000000   0.0000000
 NMagM=    2.7928460   2.7928460   0.0000000   2.7928460   2.7928460   0.0000000   2.7928460   0.0000000   2.7928460   2.7928460
 AtZNuc=   1.0000000   1.0000000   6.0000000   1.0000000   1.0000000   6.0000000   1.0000000   6.0000000   1.0000000   1.0000000

  Atom        71          72          73          74          75
 IAtWgt=           1          12           1           1           1
 AtmWgt=   1.0078250  12.0000000   1.0078250   1.0078250   1.0078250
 NucSpn=           1           0           1           1           1
 AtZEff=   0.0000000   0.0000000   0.0000000   0.0000000   0.0000000
 NQMom=    0.0000000   0.0000000   0.0000000   0.0000000   0.0000000
 NMagM=    2.7928460   0.0000000   2.7928460   2.7928460   2.7928460
 AtZNuc=   1.0000000   6.0000000   1.0000000   1.0000000   1.0000000
 Leave Link  101 at Thu May 18 13:29:35 2017, MaxMem=    33554432 cpu:         1.0
 (Enter /home/michal/g09/l202.exe)
 Symmetry turned off by external request.
 Stoichiometry    C27H46O2
 Framework group  C1[X(C27H46O2)]
 Deg. of freedom   219
 Full point group                 C1      NOp   1
                          Input orientation:                          
 ---------------------------------------------------------------------
 Center     Atomic      Atomic             Coordinates (Angstroms)
 Number     Number       Type             X           Y           Z
 ---------------------------------------------------------------------
      1          8           0        6.701453    0.902067    0.000000
      2          1           0        7.051586    0.000000    0.000000
      3          8           0        9.778809    0.339085   -6.445670
      4          1           0        9.904766   -0.618445   -6.504252
      5          6           0        2.425225    0.523585   -1.548817
      6          6           0        3.788807    1.153025   -1.140204
      7          1           0        3.756291    2.182045   -1.538668
      8          6           0        5.029438    0.508861   -1.784236
      9          1           0        5.117540   -0.535967   -1.451627
     10          6           0        4.891423    0.548463   -3.332079
     11          1           0        4.927921    1.615878   -3.605630
     12          6           0        1.451349    1.418987   -0.706487
     13          1           0        1.433788    2.393704   -1.216056
     14          6           0        2.314822    0.657754   -3.080146
     15          1           0        2.261195    1.725548   -3.337350
     16          1           0        1.396954    0.199680   -3.462392
     17          6           0        6.098848   -0.117965   -4.079634
     18          6           0        3.704135    1.279066    0.389892
     19          1           0        4.375640    2.046416    0.781990
     20          1           0        4.001207    0.341850    0.872183
     21          6           0        3.517003    0.017327   -3.800088
     22          1           0        3.471947   -1.068033   -3.659320
     23          1           0        3.405813    0.186197   -4.876914
     24          6           0        2.206534    1.596633    0.651103
     25          1           0        1.793970    0.919023    1.408087
     26          1           0        2.072193    2.610235    1.042640
     27          6           0        6.321222    1.229410   -1.351432
     28          1           0        6.126600    2.310334   -1.304159
     29          6           0       -0.019440    0.972433   -0.513464
     30          1           0        0.000000    0.000000    0.000000
     31          6           0        2.305860   -0.956682   -1.120327
     32          1           0        3.107629   -1.575069   -1.532297
     33          1           0        2.336874   -1.071446   -0.032817
     34          1           0        1.358951   -1.384058   -1.467118
     35          6           0        7.419113    0.355280   -3.461887
     36          6           0        6.071037    0.333382   -5.573648
     37          1           0        5.917063    1.420964   -5.600761
     38          1           0        5.206277   -0.115026   -6.074043
     39          6           0        7.479914    0.976139   -2.274724
     40          1           0        8.442511    1.321184   -1.897341
     41          6           0        6.038224   -1.667188   -4.004624
     42          1           0        5.200335   -2.062189   -4.587269
     43          1           0        6.949020   -2.124839   -4.399511
     44          1           0        5.927633   -2.009885   -2.971265
     45          6           0        8.686094    0.103858   -4.257759
     46          1           0        9.542374    0.575714   -3.765968
     47          1           0        8.896612   -0.977453   -4.290250
     48          6           0        7.340930    0.006680   -6.374643
     49          1           0        7.468809   -1.082200   -6.466189
     50          1           0        7.250977    0.398162   -7.394298
     51          6           0       -0.805052    1.922087    0.432172
     52          1           0       -1.790816    1.468545    0.599764
     53          1           0       -0.316417    1.943434    1.414561
     54          6           0        8.581817    0.599425   -5.707750
     55          1           0        8.500991    1.693278   -5.705232
     56          6           0       -0.790113    0.776443   -1.832767
     57          1           0       -0.714870    1.653965   -2.484701
     58          1           0       -1.854010    0.602479   -1.632171
     59          1           0       -0.423276   -0.084336   -2.397537
     60          6           0       -0.990370    3.369543   -0.053532
     61          1           0       -0.008274    3.814057   -0.258618
     62          1           0       -1.528157    3.380250   -1.009411
     63          6           0       -1.710244    4.282426    0.957650
     64          1           0       -1.691056    5.313600    0.574459
     65          1           0       -1.127852    4.295916    1.890355
     66          6           0       -3.172605    3.927828    1.302440
     67          1           0       -3.195755    2.902840    1.699122
     68          6           0       -4.093977    3.978943    0.073338
     69          1           0       -4.089254    4.981135   -0.374972
     70          1           0       -5.128286    3.744254    0.349604
     71          1           0       -3.790691    3.266807   -0.700889
     72          6           0       -3.696704    4.859500    2.407149
     73          1           0       -3.701477    5.903644    2.068514
     74          1           0       -4.721857    4.599229    2.694569
     75          1           0       -3.071910    4.804474    3.306034
 ---------------------------------------------------------------------
 Rotational constants (GHZ):      0.4234922      0.0564521      0.0541034
 Leave Link  202 at Thu May 18 13:29:35 2017, MaxMem=    33554432 cpu:         0.0
 (Enter /home/michal/g09/l301.exe)
 Standard basis: 6-31G(d) (6D, 7F)
 Ernie: Thresh=  0.10000D-02 Tol=  0.10000D-05 Strict=F.
 AO basis set in the form of general basis input (Overlap normalization):
      1 0
 S   6 1.00       0.000000000000
      0.5484671660D+04  0.1831074430D-02
      0.8252349460D+03  0.1395017220D-01
      0.1880469580D+03  0.6844507810D-01
      0.5296450000D+02  0.2327143360D+00
      0.1689757040D+02  0.4701928980D+00
      0.5799635340D+01  0.3585208530D+00
 SP   3 1.00       0.000000000000
      0.1553961625D+02 -0.1107775495D+00  0.7087426823D-01
      0.3599933586D+01 -0.1480262627D+00  0.3397528391D+00
      0.1013761750D+01  0.1130767015D+01  0.7271585773D+00
 SP   1 1.00       0.000000000000
      0.2700058226D+00  0.1000000000D+01  0.1000000000D+01
 D   1 1.00       0.000000000000
      0.8000000000D+00  0.1000000000D+01
 ****
      2 0
 S   3 1.00       0.000000000000
      0.1873113696D+02  0.3349460434D-01
      0.2825394365D+01  0.2347269535D+00
      0.6401216923D+00  0.8137573261D+00
 S   1 1.00       0.000000000000
      0.1612777588D+00  0.1000000000D+01
 ****
      3 0
 S   6 1.00       0.000000000000
      0.5484671660D+04  0.1831074430D-02
      0.8252349460D+03  0.1395017220D-01
      0.1880469580D+03  0.6844507810D-01
      0.5296450000D+02  0.2327143360D+00
      0.1689757040D+02  0.4701928980D+00
      0.5799635340D+01  0.3585208530D+00
 SP   3 1.00       0.000000000000
      0.1553961625D+02 -0.1107775495D+00  0.7087426823D-01
      0.3599933586D+01 -0.1480262627D+00  0.3397528391D+00
      0.1013761750D+01  0.1130767015D+01  0.7271585773D+00
 SP   1 1.00       0.000000000000
      0.2700058226D+00  0.1000000000D+01  0.1000000000D+01
 D   1 1.00       0.000000000000
      0.8000000000D+00  0.1000000000D+01
 ****
      4 0
 S   3 1.00       0.000000000000
      0.1873113696D+02  0.3349460434D-01
      0.2825394365D+01  0.2347269535D+00
      0.6401216923D+00  0.8137573261D+00
 S   1 1.00       0.000000000000
      0.1612777588D+00  0.1000000000D+01
 ****
      5 0
 S   6 1.00       0.000000000000
      0.3047524880D+04  0.1834737132D-02
      0.4573695180D+03  0.1403732281D-01
      0.1039486850D+03  0.6884262226D-01
      0.2921015530D+02  0.2321844432D+00
      0.9286662960D+01  0.4679413484D+00
      0.3163926960D+01  0.3623119853D+00
 SP   3 1.00       0.000000000000
      0.7868272350D+01 -0.1193324198D+00  0.6899906659D-01
      0.1881288540D+01 -0.1608541517D+00  0.3164239610D+00
      0.5442492580D+00  0.1143456438D+01  0.7443082909D+00
 SP   1 1.00       0.000000000000
      0.1687144782D+00  0.1000000000D+01  0.1000000000D+01
 D   1 1.00       0.000000000000
      0.8000000000D+00  0.1000000000D+01
 ****
      6 0
 S   6 1.00       0.000000000000
      0.3047524880D+04  0.1834737132D-02
      0.4573695180D+03  0.1403732281D-01
      0.1039486850D+03  0.6884262226D-01
      0.2921015530D+02  0.2321844432D+00
      0.9286662960D+01  0.4679413484D+00
      0.3163926960D+01  0.3623119853D+00
 SP   3 1.00       0.000000000000
      0.7868272350D+01 -0.1193324198D+00  0.6899906659D-01
      0.1881288540D+01 -0.1608541517D+00  0.3164239610D+00
      0.5442492580D+00  0.1143456438D+01  0.7443082909D+00
 SP   1 1.00       0.000000000000
      0.1687144782D+00  0.1000000000D+01  0.1000000000D+01
 D   1 1.00       0.000000000000
      0.8000000000D+00  0.1000000000D+01
 ****
      7 0
 S   3 1.00       0.000000000000
      0.1873113696D+02  0.3349460434D-01
      0.2825394365D+01  0.2347269535D+00
      0.6401216923D+00  0.8137573261D+00
 S   1 1.00       0.000000000000
      0.1612777588D+00  0.1000000000D+01
 ****
      8 0
 S   6 1.00       0.000000000000
      0.3047524880D+04  0.1834737132D-02
      0.4573695180D+03  0.1403732281D-01
      0.1039486850D+03  0.6884262226D-01
      0.2921015530D+02  0.2321844432D+00
      0.9286662960D+01  0.4679413484D+00
      0.3163926960D+01  0.3623119853D+00
 SP   3 1.00       0.000000000000
      0.7868272350D+01 -0.1193324198D+00  0.6899906659D-01
      0.1881288540D+01 -0.1608541517D+00  0.3164239610D+00
      0.5442492580D+00  0.1143456438D+01  0.7443082909D+00
 SP   1 1.00       0.000000000000
      0.1687144782D+00  0.1000000000D+01  0.1000000000D+01
 D   1 1.00       0.000000000000
      0.8000000000D+00  0.1000000000D+01
 ****
      9 0
 S   3 1.00       0.000000000000
      0.1873113696D+02  0.3349460434D-01
      0.2825394365D+01  0.2347269535D+00
      0.6401216923D+00  0.8137573261D+00
 S   1 1.00       0.000000000000
      0.1612777588D+00  0.1000000000D+01
 ****
     10 0
 S   6 1.00       0.000000000000
      0.3047524880D+04  0.1834737132D-02
      0.4573695180D+03  0.1403732281D-01
      0.1039486850D+03  0.6884262226D-01
      0.2921015530D+02  0.2321844432D+00
      0.9286662960D+01  0.4679413484D+00
      0.3163926960D+01  0.3623119853D+00
 SP   3 1.00       0.000000000000
      0.7868272350D+01 -0.1193324198D+00  0.6899906659D-01
      0.1881288540D+01 -0.1608541517D+00  0.3164239610D+00
      0.5442492580D+00  0.1143456438D+01  0.7443082909D+00
 SP   1 1.00       0.000000000000
      0.1687144782D+00  0.1000000000D+01  0.1000000000D+01
 D   1 1.00       0.000000000000
      0.8000000000D+00  0.1000000000D+01
 ****
     11 0
 S   3 1.00       0.000000000000
      0.1873113696D+02  0.3349460434D-01
      0.2825394365D+01  0.2347269535D+00
      0.6401216923D+00  0.8137573261D+00
 S   1 1.00       0.000000000000
      0.1612777588D+00  0.1000000000D+01
 ****
     12 0
 S   6 1.00       0.000000000000
      0.3047524880D+04  0.1834737132D-02
      0.4573695180D+03  0.1403732281D-01
      0.1039486850D+03  0.6884262226D-01
      0.2921015530D+02  0.2321844432D+00
      0.9286662960D+01  0.4679413484D+00
      0.3163926960D+01  0.3623119853D+00
 SP   3 1.00       0.000000000000
      0.7868272350D+01 -0.1193324198D+00  0.6899906659D-01
      0.1881288540D+01 -0.1608541517D+00  0.3164239610D+00
      0.5442492580D+00  0.1143456438D+01  0.7443082909D+00
 SP   1 1.00       0.000000000000
      0.1687144782D+00  0.1000000000D+01  0.1000000000D+01
 D   1 1.00       0.000000000000
      0.8000000000D+00  0.1000000000D+01
 ****
     13 0
 S   3 1.00       0.000000000000
      0.1873113696D+02  0.3349460434D-01
      0.2825394365D+01  0.2347269535D+00
      0.6401216923D+00  0.8137573261D+00
 S   1 1.00       0.000000000000
      0.1612777588D+00  0.1000000000D+01
 ****
     14 0
 S   6 1.00       0.000000000000
      0.3047524880D+04  0.1834737132D-02
      0.4573695180D+03  0.1403732281D-01
      0.1039486850D+03  0.6884262226D-01
      0.2921015530D+02  0.2321844432D+00
      0.9286662960D+01  0.4679413484D+00
      0.3163926960D+01  0.3623119853D+00
 SP   3 1.00       0.000000000000
      0.7868272350D+01 -0.1193324198D+00  0.6899906659D-01
      0.1881288540D+01 -0.1608541517D+00  0.3164239610D+00
      0.5442492580D+00  0.1143456438D+01  0.7443082909D+00
 SP   1 1.00       0.000000000000
      0.1687144782D+00  0.1000000000D+01  0.1000000000D+01
 D   1 1.00       0.000000000000
      0.8000000000D+00  0.1000000000D+01
 ****
     15 0
 S   3 1.00       0.000000000000
      0.1873113696D+02  0.3349460434D-01
      0.2825394365D+01  0.2347269535D+00
      0.6401216923D+00  0.8137573261D+00
 S   1 1.00       0.000000000000
      0.1612777588D+00  0.1000000000D+01
 ****
     16 0
 S   3 1.00       0.000000000000
      0.1873113696D+02  0.3349460434D-01
      0.2825394365D+01  0.2347269535D+00
      0.6401216923D+00  0.8137573261D+00
 S   1 1.00       0.000000000000
      0.1612777588D+00  0.1000000000D+01
 ****
     17 0
 S   6 1.00       0.000000000000
      0.3047524880D+04  0.1834737132D-02
      0.4573695180D+03  0.1403732281D-01
      0.1039486850D+03  0.6884262226D-01
      0.2921015530D+02  0.2321844432D+00
      0.9286662960D+01  0.4679413484D+00
      0.3163926960D+01  0.3623119853D+00
 SP   3 1.00       0.000000000000
      0.7868272350D+01 -0.1193324198D+00  0.6899906659D-01
      0.1881288540D+01 -0.1608541517D+00  0.3164239610D+00
      0.5442492580D+00  0.1143456438D+01  0.7443082909D+00
 SP   1 1.00       0.000000000000
      0.1687144782D+00  0.1000000000D+01  0.1000000000D+01
 D   1 1.00       0.000000000000
      0.8000000000D+00  0.1000000000D+01
 ****
     18 0
 S   6 1.00       0.000000000000
      0.3047524880D+04  0.1834737132D-02
      0.4573695180D+03  0.1403732281D-01
      0.1039486850D+03  0.6884262226D-01
      0.2921015530D+02  0.2321844432D+00
      0.9286662960D+01  0.4679413484D+00
      0.3163926960D+01  0.3623119853D+00
 SP   3 1.00       0.000000000000
      0.7868272350D+01 -0.1193324198D+00  0.6899906659D-01
      0.1881288540D+01 -0.1608541517D+00  0.3164239610D+00
      0.5442492580D+00  0.1143456438D+01  0.7443082909D+00
 SP   1 1.00       0.000000000000
      0.1687144782D+00  0.1000000000D+01  0.1000000000D+01
 D   1 1.00       0.000000000000
      0.8000000000D+00  0.1000000000D+01
 ****
     19 0
 S   3 1.00       0.000000000000
      0.1873113696D+02  0.3349460434D-01
      0.2825394365D+01  0.2347269535D+00
      0.6401216923D+00  0.8137573261D+00
 S   1 1.00       0.000000000000
      0.1612777588D+00  0.1000000000D+01
 ****
     20 0
 S   3 1.00       0.000000000000
      0.1873113696D+02  0.3349460434D-01
      0.2825394365D+01  0.2347269535D+00
      0.6401216923D+00  0.8137573261D+00
 S   1 1.00       0.000000000000
      0.1612777588D+00  0.1000000000D+01
 ****
     21 0
 S   6 1.00       0.000000000000
      0.3047524880D+04  0.1834737132D-02
      0.4573695180D+03  0.1403732281D-01
      0.1039486850D+03  0.6884262226D-01
      0.2921015530D+02  0.2321844432D+00
      0.9286662960D+01  0.4679413484D+00
      0.3163926960D+01  0.3623119853D+00
 SP   3 1.00       0.000000000000
      0.7868272350D+01 -0.1193324198D+00  0.6899906659D-01
      0.1881288540D+01 -0.1608541517D+00  0.3164239610D+00
      0.5442492580D+00  0.1143456438D+01  0.7443082909D+00
 SP   1 1.00       0.000000000000
      0.1687144782D+00  0.1000000000D+01  0.1000000000D+01
 D   1 1.00       0.000000000000
      0.8000000000D+00  0.1000000000D+01
 ****
     22 0
 S   3 1.00       0.000000000000
      0.1873113696D+02  0.3349460434D-01
      0.2825394365D+01  0.2347269535D+00
      0.6401216923D+00  0.8137573261D+00
 S   1 1.00       0.000000000000
      0.1612777588D+00  0.1000000000D+01
 ****
     23 0
 S   3 1.00       0.000000000000
      0.1873113696D+02  0.3349460434D-01
      0.2825394365D+01  0.2347269535D+00
      0.6401216923D+00  0.8137573261D+00
 S   1 1.00       0.000000000000
      0.1612777588D+00  0.1000000000D+01
 ****
     24 0
 S   6 1.00       0.000000000000
      0.3047524880D+04  0.1834737132D-02
      0.4573695180D+03  0.1403732281D-01
      0.1039486850D+03  0.6884262226D-01
      0.2921015530D+02  0.2321844432D+00
      0.9286662960D+01  0.4679413484D+00
      0.3163926960D+01  0.3623119853D+00
 SP   3 1.00       0.000000000000
      0.7868272350D+01 -0.1193324198D+00  0.6899906659D-01
      0.1881288540D+01 -0.1608541517D+00  0.3164239610D+00
      0.5442492580D+00  0.1143456438D+01  0.7443082909D+00
 SP   1 1.00       0.000000000000
      0.1687144782D+00  0.1000000000D+01  0.1000000000D+01
 D   1 1.00       0.000000000000
      0.8000000000D+00  0.1000000000D+01
 ****
     25 0
 S   3 1.00       0.000000000000
      0.1873113696D+02  0.3349460434D-01
      0.2825394365D+01  0.2347269535D+00
      0.6401216923D+00  0.8137573261D+00
 S   1 1.00       0.000000000000
      0.1612777588D+00  0.1000000000D+01
 ****
     26 0
 S   3 1.00       0.000000000000
      0.1873113696D+02  0.3349460434D-01
      0.2825394365D+01  0.2347269535D+00
      0.6401216923D+00  0.8137573261D+00
 S   1 1.00       0.000000000000
      0.1612777588D+00  0.1000000000D+01
 ****
     27 0
 S   6 1.00       0.000000000000
      0.3047524880D+04  0.1834737132D-02
      0.4573695180D+03  0.1403732281D-01
      0.1039486850D+03  0.6884262226D-01
      0.2921015530D+02  0.2321844432D+00
      0.9286662960D+01  0.4679413484D+00
      0.3163926960D+01  0.3623119853D+00
 SP   3 1.00       0.000000000000
      0.7868272350D+01 -0.1193324198D+00  0.6899906659D-01
      0.1881288540D+01 -0.1608541517D+00  0.3164239610D+00
      0.5442492580D+00  0.1143456438D+01  0.7443082909D+00
 SP   1 1.00       0.000000000000
      0.1687144782D+00  0.1000000000D+01  0.1000000000D+01
 D   1 1.00       0.000000000000
      0.8000000000D+00  0.1000000000D+01
 ****
     28 0
 S   3 1.00       0.000000000000
      0.1873113696D+02  0.3349460434D-01
      0.2825394365D+01  0.2347269535D+00
      0.6401216923D+00  0.8137573261D+00
 S   1 1.00       0.000000000000
      0.1612777588D+00  0.1000000000D+01
 ****
     29 0
 S   6 1.00       0.000000000000
      0.3047524880D+04  0.1834737132D-02
      0.4573695180D+03  0.1403732281D-01
      0.1039486850D+03  0.6884262226D-01
      0.2921015530D+02  0.2321844432D+00
      0.9286662960D+01  0.4679413484D+00
      0.3163926960D+01  0.3623119853D+00
 SP   3 1.00       0.000000000000
      0.7868272350D+01 -0.1193324198D+00  0.6899906659D-01
      0.1881288540D+01 -0.1608541517D+00  0.3164239610D+00
      0.5442492580D+00  0.1143456438D+01  0.7443082909D+00
 SP   1 1.00       0.000000000000
      0.1687144782D+00  0.1000000000D+01  0.1000000000D+01
 D   1 1.00       0.000000000000
      0.8000000000D+00  0.1000000000D+01
 ****
     30 0
 S   3 1.00       0.000000000000
      0.1873113696D+02  0.3349460434D-01
      0.2825394365D+01  0.2347269535D+00
      0.6401216923D+00  0.8137573261D+00
 S   1 1.00       0.000000000000
      0.1612777588D+00  0.1000000000D+01
 ****
     31 0
 S   6 1.00       0.000000000000
      0.3047524880D+04  0.1834737132D-02
      0.4573695180D+03  0.1403732281D-01
      0.1039486850D+03  0.6884262226D-01
      0.2921015530D+02  0.2321844432D+00
      0.9286662960D+01  0.4679413484D+00
      0.3163926960D+01  0.3623119853D+00
 SP   3 1.00       0.000000000000
      0.7868272350D+01 -0.1193324198D+00  0.6899906659D-01
      0.1881288540D+01 -0.1608541517D+00  0.3164239610D+00
      0.5442492580D+00  0.1143456438D+01  0.7443082909D+00
 SP   1 1.00       0.000000000000
      0.1687144782D+00  0.1000000000D+01  0.1000000000D+01
 D   1 1.00       0.000000000000
      0.8000000000D+00  0.1000000000D+01
 ****
     32 0
 S   3 1.00       0.000000000000
      0.1873113696D+02  0.3349460434D-01
      0.2825394365D+01  0.2347269535D+00
      0.6401216923D+00  0.8137573261D+00
 S   1 1.00       0.000000000000
      0.1612777588D+00  0.1000000000D+01
 ****
     33 0
 S   3 1.00       0.000000000000
      0.1873113696D+02  0.3349460434D-01
      0.2825394365D+01  0.2347269535D+00
      0.6401216923D+00  0.8137573261D+00
 S   1 1.00       0.000000000000
      0.1612777588D+00  0.1000000000D+01
 ****
     34 0
 S   3 1.00       0.000000000000
      0.1873113696D+02  0.3349460434D-01
      0.2825394365D+01  0.2347269535D+00
      0.6401216923D+00  0.8137573261D+00
 S   1 1.00       0.000000000000
      0.1612777588D+00  0.1000000000D+01
 ****
     35 0
 S   6 1.00       0.000000000000
      0.3047524880D+04  0.1834737132D-02
      0.4573695180D+03  0.1403732281D-01
      0.1039486850D+03  0.6884262226D-01
      0.2921015530D+02  0.2321844432D+00
      0.9286662960D+01  0.4679413484D+00
      0.3163926960D+01  0.3623119853D+00
 SP   3 1.00       0.000000000000
      0.7868272350D+01 -0.1193324198D+00  0.6899906659D-01
      0.1881288540D+01 -0.1608541517D+00  0.3164239610D+00
      0.5442492580D+00  0.1143456438D+01  0.7443082909D+00
 SP   1 1.00       0.000000000000
      0.1687144782D+00  0.1000000000D+01  0.1000000000D+01
 D   1 1.00       0.000000000000
      0.8000000000D+00  0.1000000000D+01
 ****
     36 0
 S   6 1.00       0.000000000000
      0.3047524880D+04  0.1834737132D-02
      0.4573695180D+03  0.1403732281D-01
      0.1039486850D+03  0.6884262226D-01
      0.2921015530D+02  0.2321844432D+00
      0.9286662960D+01  0.4679413484D+00
      0.3163926960D+01  0.3623119853D+00
 SP   3 1.00       0.000000000000
      0.7868272350D+01 -0.1193324198D+00  0.6899906659D-01
      0.1881288540D+01 -0.1608541517D+00  0.3164239610D+00
      0.5442492580D+00  0.1143456438D+01  0.7443082909D+00
 SP   1 1.00       0.000000000000
      0.1687144782D+00  0.1000000000D+01  0.1000000000D+01
 D   1 1.00       0.000000000000
      0.8000000000D+00  0.1000000000D+01
 ****
     37 0
 S   3 1.00       0.000000000000
      0.1873113696D+02  0.3349460434D-01
      0.2825394365D+01  0.2347269535D+00
      0.6401216923D+00  0.8137573261D+00
 S   1 1.00       0.000000000000
      0.1612777588D+00  0.1000000000D+01
 ****
     38 0
 S   3 1.00       0.000000000000
      0.1873113696D+02  0.3349460434D-01
      0.2825394365D+01  0.2347269535D+00
      0.6401216923D+00  0.8137573261D+00
 S   1 1.00       0.000000000000
      0.1612777588D+00  0.1000000000D+01
 ****
     39 0
 S   6 1.00       0.000000000000
      0.3047524880D+04  0.1834737132D-02
      0.4573695180D+03  0.1403732281D-01
      0.1039486850D+03  0.6884262226D-01
      0.2921015530D+02  0.2321844432D+00
      0.9286662960D+01  0.4679413484D+00
      0.3163926960D+01  0.3623119853D+00
 SP   3 1.00       0.000000000000
      0.7868272350D+01 -0.1193324198D+00  0.6899906659D-01
      0.1881288540D+01 -0.1608541517D+00  0.3164239610D+00
      0.5442492580D+00  0.1143456438D+01  0.7443082909D+00
 SP   1 1.00       0.000000000000
      0.1687144782D+00  0.1000000000D+01  0.1000000000D+01
 D   1 1.00       0.000000000000
      0.8000000000D+00  0.1000000000D+01
 ****
     40 0
 S   3 1.00       0.000000000000
      0.1873113696D+02  0.3349460434D-01
      0.2825394365D+01  0.2347269535D+00
      0.6401216923D+00  0.8137573261D+00
 S   1 1.00       0.000000000000
      0.1612777588D+00  0.1000000000D+01
 ****
     41 0
 S   6 1.00       0.000000000000
      0.3047524880D+04  0.1834737132D-02
      0.4573695180D+03  0.1403732281D-01
      0.1039486850D+03  0.6884262226D-01
      0.2921015530D+02  0.2321844432D+00
      0.9286662960D+01  0.4679413484D+00
      0.3163926960D+01  0.3623119853D+00
 SP   3 1.00       0.000000000000
      0.7868272350D+01 -0.1193324198D+00  0.6899906659D-01
      0.1881288540D+01 -0.1608541517D+00  0.3164239610D+00
      0.5442492580D+00  0.1143456438D+01  0.7443082909D+00
 SP   1 1.00       0.000000000000
      0.1687144782D+00  0.1000000000D+01  0.1000000000D+01
 D   1 1.00       0.000000000000
      0.8000000000D+00  0.1000000000D+01
 ****
     42 0
 S   3 1.00       0.000000000000
      0.1873113696D+02  0.3349460434D-01
      0.2825394365D+01  0.2347269535D+00
      0.6401216923D+00  0.8137573261D+00
 S   1 1.00       0.000000000000
      0.1612777588D+00  0.1000000000D+01
 ****
     43 0
 S   3 1.00       0.000000000000
      0.1873113696D+02  0.3349460434D-01
      0.2825394365D+01  0.2347269535D+00
      0.6401216923D+00  0.8137573261D+00
 S   1 1.00       0.000000000000
      0.1612777588D+00  0.1000000000D+01
 ****
     44 0
 S   3 1.00       0.000000000000
      0.1873113696D+02  0.3349460434D-01
      0.2825394365D+01  0.2347269535D+00
      0.6401216923D+00  0.8137573261D+00
 S   1 1.00       0.000000000000
      0.1612777588D+00  0.1000000000D+01
 ****
     45 0
 S   6 1.00       0.000000000000
      0.3047524880D+04  0.1834737132D-02
      0.4573695180D+03  0.1403732281D-01
      0.1039486850D+03  0.6884262226D-01
      0.2921015530D+02  0.2321844432D+00
      0.9286662960D+01  0.4679413484D+00
      0.3163926960D+01  0.3623119853D+00
 SP   3 1.00       0.000000000000
      0.7868272350D+01 -0.1193324198D+00  0.6899906659D-01
      0.1881288540D+01 -0.1608541517D+00  0.3164239610D+00
      0.5442492580D+00  0.1143456438D+01  0.7443082909D+00
 SP   1 1.00       0.000000000000
      0.1687144782D+00  0.1000000000D+01  0.1000000000D+01
 D   1 1.00       0.000000000000
      0.8000000000D+00  0.1000000000D+01
 ****
     46 0
 S   3 1.00       0.000000000000
      0.1873113696D+02  0.3349460434D-01
      0.2825394365D+01  0.2347269535D+00
      0.6401216923D+00  0.8137573261D+00
 S   1 1.00       0.000000000000
      0.1612777588D+00  0.1000000000D+01
 ****
     47 0
 S   3 1.00       0.000000000000
      0.1873113696D+02  0.3349460434D-01
      0.2825394365D+01  0.2347269535D+00
      0.6401216923D+00  0.8137573261D+00
 S   1 1.00       0.000000000000
      0.1612777588D+00  0.1000000000D+01
 ****
     48 0
 S   6 1.00       0.000000000000
      0.3047524880D+04  0.1834737132D-02
      0.4573695180D+03  0.1403732281D-01
      0.1039486850D+03  0.6884262226D-01
      0.2921015530D+02  0.2321844432D+00
      0.9286662960D+01  0.4679413484D+00
      0.3163926960D+01  0.3623119853D+00
 SP   3 1.00       0.000000000000
      0.7868272350D+01 -0.1193324198D+00  0.6899906659D-01
      0.1881288540D+01 -0.1608541517D+00  0.3164239610D+00
      0.5442492580D+00  0.1143456438D+01  0.7443082909D+00
 SP   1 1.00       0.000000000000
      0.1687144782D+00  0.1000000000D+01  0.1000000000D+01
 D   1 1.00       0.000000000000
      0.8000000000D+00  0.1000000000D+01
 ****
     49 0
 S   3 1.00       0.000000000000
      0.1873113696D+02  0.3349460434D-01
      0.2825394365D+01  0.2347269535D+00
      0.6401216923D+00  0.8137573261D+00
 S   1 1.00       0.000000000000
      0.1612777588D+00  0.1000000000D+01
 ****
     50 0
 S   3 1.00       0.000000000000
      0.1873113696D+02  0.3349460434D-01
      0.2825394365D+01  0.2347269535D+00
      0.6401216923D+00  0.8137573261D+00
 S   1 1.00       0.000000000000
      0.1612777588D+00  0.1000000000D+01
 ****
     51 0
 S   6 1.00       0.000000000000
      0.3047524880D+04  0.1834737132D-02
      0.4573695180D+03  0.1403732281D-01
      0.1039486850D+03  0.6884262226D-01
      0.2921015530D+02  0.2321844432D+00
      0.9286662960D+01  0.4679413484D+00
      0.3163926960D+01  0.3623119853D+00
 SP   3 1.00       0.000000000000
      0.7868272350D+01 -0.1193324198D+00  0.6899906659D-01
      0.1881288540D+01 -0.1608541517D+00  0.3164239610D+00
      0.5442492580D+00  0.1143456438D+01  0.7443082909D+00
 SP   1 1.00       0.000000000000
      0.1687144782D+00  0.1000000000D+01  0.1000000000D+01
 D   1 1.00       0.000000000000
      0.8000000000D+00  0.1000000000D+01
 ****
     52 0
 S   3 1.00       0.000000000000
      0.1873113696D+02  0.3349460434D-01
      0.2825394365D+01  0.2347269535D+00
      0.6401216923D+00  0.8137573261D+00
 S   1 1.00       0.000000000000
      0.1612777588D+00  0.1000000000D+01
 ****
     53 0
 S   3 1.00       0.000000000000
      0.1873113696D+02  0.3349460434D-01
      0.2825394365D+01  0.2347269535D+00
      0.6401216923D+00  0.8137573261D+00
 S   1 1.00       0.000000000000
      0.1612777588D+00  0.1000000000D+01
 ****
     54 0
 S   6 1.00       0.000000000000
      0.3047524880D+04  0.1834737132D-02
      0.4573695180D+03  0.1403732281D-01
      0.1039486850D+03  0.6884262226D-01
      0.2921015530D+02  0.2321844432D+00
      0.9286662960D+01  0.4679413484D+00
      0.3163926960D+01  0.3623119853D+00
 SP   3 1.00       0.000000000000
      0.7868272350D+01 -0.1193324198D+00  0.6899906659D-01
      0.1881288540D+01 -0.1608541517D+00  0.3164239610D+00
      0.5442492580D+00  0.1143456438D+01  0.7443082909D+00
 SP   1 1.00       0.000000000000
      0.1687144782D+00  0.1000000000D+01  0.1000000000D+01
 D   1 1.00       0.000000000000
      0.8000000000D+00  0.1000000000D+01
 ****
     55 0
 S   3 1.00       0.000000000000
      0.1873113696D+02  0.3349460434D-01
      0.2825394365D+01  0.2347269535D+00
      0.6401216923D+00  0.8137573261D+00
 S   1 1.00       0.000000000000
      0.1612777588D+00  0.1000000000D+01
 ****
     56 0
 S   6 1.00       0.000000000000
      0.3047524880D+04  0.1834737132D-02
      0.4573695180D+03  0.1403732281D-01
      0.1039486850D+03  0.6884262226D-01
      0.2921015530D+02  0.2321844432D+00
      0.9286662960D+01  0.4679413484D+00
      0.3163926960D+01  0.3623119853D+00
 SP   3 1.00       0.000000000000
      0.7868272350D+01 -0.1193324198D+00  0.6899906659D-01
      0.1881288540D+01 -0.1608541517D+00  0.3164239610D+00
      0.5442492580D+00  0.1143456438D+01  0.7443082909D+00
 SP   1 1.00       0.000000000000
      0.1687144782D+00  0.1000000000D+01  0.1000000000D+01
 D   1 1.00       0.000000000000
      0.8000000000D+00  0.1000000000D+01
 ****
     57 0
 S   3 1.00       0.000000000000
      0.1873113696D+02  0.3349460434D-01
      0.2825394365D+01  0.2347269535D+00
      0.6401216923D+00  0.8137573261D+00
 S   1 1.00       0.000000000000
      0.1612777588D+00  0.1000000000D+01
 ****
     58 0
 S   3 1.00       0.000000000000
      0.1873113696D+02  0.3349460434D-01
      0.2825394365D+01  0.2347269535D+00
      0.6401216923D+00  0.8137573261D+00
 S   1 1.00       0.000000000000
      0.1612777588D+00  0.1000000000D+01
 ****
     59 0
 S   3 1.00       0.000000000000
      0.1873113696D+02  0.3349460434D-01
      0.2825394365D+01  0.2347269535D+00
      0.6401216923D+00  0.8137573261D+00
 S   1 1.00       0.000000000000
      0.1612777588D+00  0.1000000000D+01
 ****
     60 0
 S   6 1.00       0.000000000000
      0.3047524880D+04  0.1834737132D-02
      0.4573695180D+03  0.1403732281D-01
      0.1039486850D+03  0.6884262226D-01
      0.2921015530D+02  0.2321844432D+00
      0.9286662960D+01  0.4679413484D+00
      0.3163926960D+01  0.3623119853D+00
 SP   3 1.00       0.000000000000
      0.7868272350D+01 -0.1193324198D+00  0.6899906659D-01
      0.1881288540D+01 -0.1608541517D+00  0.3164239610D+00
      0.5442492580D+00  0.1143456438D+01  0.7443082909D+00
 SP   1 1.00       0.000000000000
      0.1687144782D+00  0.1000000000D+01  0.1000000000D+01
 D   1 1.00       0.000000000000
      0.8000000000D+00  0.1000000000D+01
 ****
     61 0
 S   3 1.00       0.000000000000
      0.1873113696D+02  0.3349460434D-01
      0.2825394365D+01  0.2347269535D+00
      0.6401216923D+00  0.8137573261D+00
 S   1 1.00       0.000000000000
      0.1612777588D+00  0.1000000000D+01
 ****
     62 0
 S   3 1.00       0.000000000000
      0.1873113696D+02  0.3349460434D-01
      0.2825394365D+01  0.2347269535D+00
      0.6401216923D+00  0.8137573261D+00
 S   1 1.00       0.000000000000
      0.1612777588D+00  0.1000000000D+01
 ****
     63 0
 S   6 1.00       0.000000000000
      0.3047524880D+04  0.1834737132D-02
      0.4573695180D+03  0.1403732281D-01
      0.1039486850D+03  0.6884262226D-01
      0.2921015530D+02  0.2321844432D+00
      0.9286662960D+01  0.4679413484D+00
      0.3163926960D+01  0.3623119853D+00
 SP   3 1.00       0.000000000000
      0.7868272350D+01 -0.1193324198D+00  0.6899906659D-01
      0.1881288540D+01 -0.1608541517D+00  0.3164239610D+00
      0.5442492580D+00  0.1143456438D+01  0.7443082909D+00
 SP   1 1.00       0.000000000000
      0.1687144782D+00  0.1000000000D+01  0.1000000000D+01
 D   1 1.00       0.000000000000
      0.8000000000D+00  0.1000000000D+01
 ****
     64 0
 S   3 1.00       0.000000000000
      0.1873113696D+02  0.3349460434D-01
      0.2825394365D+01  0.2347269535D+00
      0.6401216923D+00  0.8137573261D+00
 S   1 1.00       0.000000000000
      0.1612777588D+00  0.1000000000D+01
 ****
     65 0
 S   3 1.00       0.000000000000
      0.1873113696D+02  0.3349460434D-01
      0.2825394365D+01  0.2347269535D+00
      0.6401216923D+00  0.8137573261D+00
 S   1 1.00       0.000000000000
      0.1612777588D+00  0.1000000000D+01
 ****
     66 0
 S   6 1.00       0.000000000000
      0.3047524880D+04  0.1834737132D-02
      0.4573695180D+03  0.1403732281D-01
      0.1039486850D+03  0.6884262226D-01
      0.2921015530D+02  0.2321844432D+00
      0.9286662960D+01  0.4679413484D+00
      0.3163926960D+01  0.3623119853D+00
 SP   3 1.00       0.000000000000
      0.7868272350D+01 -0.1193324198D+00  0.6899906659D-01
      0.1881288540D+01 -0.1608541517D+00  0.3164239610D+00
      0.5442492580D+00  0.1143456438D+01  0.7443082909D+00
 SP   1 1.00       0.000000000000
      0.1687144782D+00  0.1000000000D+01  0.1000000000D+01
 D   1 1.00       0.000000000000
      0.8000000000D+00  0.1000000000D+01
 ****
     67 0
 S   3 1.00       0.000000000000
      0.1873113696D+02  0.3349460434D-01
      0.2825394365D+01  0.2347269535D+00
      0.6401216923D+00  0.8137573261D+00
 S   1 1.00       0.000000000000
      0.1612777588D+00  0.1000000000D+01
 ****
     68 0
 S   6 1.00       0.000000000000
      0.3047524880D+04  0.1834737132D-02
      0.4573695180D+03  0.1403732281D-01
      0.1039486850D+03  0.6884262226D-01
      0.2921015530D+02  0.2321844432D+00
      0.9286662960D+01  0.4679413484D+00
      0.3163926960D+01  0.3623119853D+00
 SP   3 1.00       0.000000000000
      0.7868272350D+01 -0.1193324198D+00  0.6899906659D-01
      0.1881288540D+01 -0.1608541517D+00  0.3164239610D+00
      0.5442492580D+00  0.1143456438D+01  0.7443082909D+00
 SP   1 1.00       0.000000000000
      0.1687144782D+00  0.1000000000D+01  0.1000000000D+01
 D   1 1.00       0.000000000000
      0.8000000000D+00  0.1000000000D+01
 ****
     69 0
 S   3 1.00       0.000000000000
      0.1873113696D+02  0.3349460434D-01
      0.2825394365D+01  0.2347269535D+00
      0.6401216923D+00  0.8137573261D+00
 S   1 1.00       0.000000000000
      0.1612777588D+00  0.1000000000D+01
 ****
     70 0
 S   3 1.00       0.000000000000
      0.1873113696D+02  0.3349460434D-01
      0.2825394365D+01  0.2347269535D+00
      0.6401216923D+00  0.8137573261D+00
 S   1 1.00       0.000000000000
      0.1612777588D+00  0.1000000000D+01
 ****
     71 0
 S   3 1.00       0.000000000000
      0.1873113696D+02  0.3349460434D-01
      0.2825394365D+01  0.2347269535D+00
      0.6401216923D+00  0.8137573261D+00
 S   1 1.00       0.000000000000
      0.1612777588D+00  0.1000000000D+01
 ****
     72 0
 S   6 1.00       0.000000000000
      0.3047524880D+04  0.1834737132D-02
      0.4573695180D+03  0.1403732281D-01
      0.1039486850D+03  0.6884262226D-01
      0.2921015530D+02  0.2321844432D+00
      0.9286662960D+01  0.4679413484D+00
      0.3163926960D+01  0.3623119853D+00
 SP   3 1.00       0.000000000000
      0.7868272350D+01 -0.1193324198D+00  0.6899906659D-01
      0.1881288540D+01 -0.1608541517D+00  0.3164239610D+00
      0.5442492580D+00  0.1143456438D+01  0.7443082909D+00
 SP   1 1.00       0.000000000000
      0.1687144782D+00  0.1000000000D+01  0.1000000000D+01
 D   1 1.00       0.000000000000
      0.8000000000D+00  0.1000000000D+01
 ****
     73 0
 S   3 1.00       0.000000000000
      0.1873113696D+02  0.3349460434D-01
      0.2825394365D+01  0.2347269535D+00
      0.6401216923D+00  0.8137573261D+00
 S   1 1.00       0.000000000000
      0.1612777588D+00  0.1000000000D+01
 ****
     74 0
 S   3 1.00       0.000000000000
      0.1873113696D+02  0.3349460434D-01
      0.2825394365D+01  0.2347269535D+00
      0.6401216923D+00  0.8137573261D+00
 S   1 1.00       0.000000000000
      0.1612777588D+00  0.1000000000D+01
 ****
     75 0
 S   3 1.00       0.000000000000
      0.1873113696D+02  0.3349460434D-01
      0.2825394365D+01  0.2347269535D+00
      0.6401216923D+00  0.8137573261D+00
 S   1 1.00       0.000000000000
      0.1612777588D+00  0.1000000000D+01
 ****

 AO basis set (Overlap normalization):
 Atom O1       Shell     1 S   6     bf    1 -     1         12.663911448220          1.704660414993          0.000000000000
      0.5484671660D+04  0.1831074430D-02
      0.8252349460D+03  0.1395017220D-01
      0.1880469580D+03  0.6844507810D-01
      0.5296450000D+02  0.2327143360D+00
      0.1689757040D+02  0.4701928980D+00
      0.5799635340D+01  0.3585208530D+00
 Atom O1       Shell     2 SP   3    bf    2 -     5         12.663911448220          1.704660414993          0.000000000000
      0.1553961625D+02 -0.1107775495D+00  0.7087426823D-01
      0.3599933586D+01 -0.1480262627D+00  0.3397528391D+00
      0.1013761750D+01  0.1130767015D+01  0.7271585773D+00
 Atom O1       Shell     3 SP   1    bf    6 -     9         12.663911448220          1.704660414993          0.000000000000
      0.2700058226D+00  0.1000000000D+01  0.1000000000D+01
 Atom O1       Shell     4 D   1     bf   10 -    15         12.663911448220          1.704660414993          0.000000000000
      0.8000000000D+00  0.1000000000D+01
 Atom H2       Shell     5 S   3     bf   16 -    16         13.325565832264          0.000000000000          0.000000000000
      0.1873113696D+02  0.3349460434D-01
      0.2825394365D+01  0.2347269535D+00
      0.6401216923D+00  0.8137573261D+00
 Atom H2       Shell     6 S   1     bf   17 -    17         13.325565832264          0.000000000000          0.000000000000
      0.1612777588D+00  0.1000000000D+01
 Atom O3       Shell     7 S   6     bf   18 -    18         18.479270122112          0.640778239304        -12.180551855539
      0.5484671660D+04  0.1831074430D-02
      0.8252349460D+03  0.1395017220D-01
      0.1880469580D+03  0.6844507810D-01
      0.5296450000D+02  0.2327143360D+00
      0.1689757040D+02  0.4701928980D+00
      0.5799635340D+01  0.3585208530D+00
 Atom O3       Shell     8 SP   3    bf   19 -    22         18.479270122112          0.640778239304        -12.180551855539
      0.1553961625D+02 -0.1107775495D+00  0.7087426823D-01
      0.3599933586D+01 -0.1480262627D+00  0.3397528391D+00
      0.1013761750D+01  0.1130767015D+01  0.7271585773D+00
 Atom O3       Shell     9 SP   1    bf   23 -    26         18.479270122112          0.640778239304        -12.180551855539
      0.2700058226D+00  0.1000000000D+01  0.1000000000D+01
 Atom O3       Shell    10 D   1     bf   27 -    32         18.479270122112          0.640778239304        -12.180551855539
      0.8000000000D+00  0.1000000000D+01
 Atom H4       Shell    11 S   3     bf   33 -    33         18.717294356632         -1.168692509732        -12.291255243835
      0.1873113696D+02  0.3349460434D-01
      0.2825394365D+01  0.2347269535D+00
      0.6401216923D+00  0.8137573261D+00
 Atom H4       Shell    12 S   1     bf   34 -    34         18.717294356632         -1.168692509732        -12.291255243835
      0.1612777588D+00  0.1000000000D+01
 Atom C5       Shell    13 S   6     bf   35 -    35          4.583010248045          0.989432087212         -2.926840507978
      0.3047524880D+04  0.1834737132D-02
      0.4573695180D+03  0.1403732281D-01
      0.1039486850D+03  0.6884262226D-01
      0.2921015530D+02  0.2321844432D+00
      0.9286662960D+01  0.4679413484D+00
      0.3163926960D+01  0.3623119853D+00
 Atom C5       Shell    14 SP   3    bf   36 -    39          4.583010248045          0.989432087212         -2.926840507978
      0.7868272350D+01 -0.1193324198D+00  0.6899906659D-01
      0.1881288540D+01 -0.1608541517D+00  0.3164239610D+00
      0.5442492580D+00  0.1143456438D+01  0.7443082909D+00
 Atom C5       Shell    15 SP   1    bf   40 -    43          4.583010248045          0.989432087212         -2.926840507978
      0.1687144782D+00  0.1000000000D+01  0.1000000000D+01
 Atom C5       Shell    16 D   1     bf   44 -    49          4.583010248045          0.989432087212         -2.926840507978
      0.8000000000D+00  0.1000000000D+01
 Atom C6       Shell    17 S   6     bf   50 -    50          7.159807524771          2.178901890110         -2.154672842086
      0.3047524880D+04  0.1834737132D-02
      0.4573695180D+03  0.1403732281D-01
      0.1039486850D+03  0.6884262226D-01
      0.2921015530D+02  0.2321844432D+00
      0.9286662960D+01  0.4679413484D+00
      0.3163926960D+01  0.3623119853D+00
 Atom C6       Shell    18 SP   3    bf   51 -    54          7.159807524771          2.178901890110         -2.154672842086
      0.7868272350D+01 -0.1193324198D+00  0.6899906659D-01
      0.1881288540D+01 -0.1608541517D+00  0.3164239610D+00
      0.5442492580D+00  0.1143456438D+01  0.7443082909D+00
 Atom C6       Shell    19 SP   1    bf   55 -    58          7.159807524771          2.178901890110         -2.154672842086
      0.1687144782D+00  0.1000000000D+01  0.1000000000D+01
 Atom C6       Shell    20 D   1     bf   59 -    64          7.159807524771          2.178901890110         -2.154672842086
      0.8000000000D+00  0.1000000000D+01
 Atom H7       Shell    21 S   3     bf   65 -    65          7.098360641814          4.123468366701         -2.907661696353
      0.1873113696D+02  0.3349460434D-01
      0.2825394365D+01  0.2347269535D+00
      0.6401216923D+00  0.8137573261D+00
 Atom H7       Shell    22 S   1     bf   66 -    66          7.098360641814          4.123468366701         -2.907661696353
      0.1612777588D+00  0.1000000000D+01
 Atom C8       Shell    23 S   6     bf   67 -    67          9.504260365636          0.961608043090         -3.371717150771
      0.3047524880D+04  0.1834737132D-02
      0.4573695180D+03  0.1403732281D-01
      0.1039486850D+03  0.6884262226D-01
      0.2921015530D+02  0.2321844432D+00
      0.9286662960D+01  0.4679413484D+00
      0.3163926960D+01  0.3623119853D+00
 Atom C8       Shell    24 SP   3    bf   68 -    71          9.504260365636          0.961608043090         -3.371717150771
      0.7868272350D+01 -0.1193324198D+00  0.6899906659D-01
      0.1881288540D+01 -0.1608541517D+00  0.3164239610D+00
      0.5442492580D+00  0.1143456438D+01  0.7443082909D+00
 Atom C8       Shell    25 SP   1    bf   72 -    75          9.504260365636          0.961608043090         -3.371717150771
      0.1687144782D+00  0.1000000000D+01  0.1000000000D+01
 Atom C8       Shell    26 D   1     bf   76 -    81          9.504260365636          0.961608043090         -3.371717150771
      0.8000000000D+00  0.1000000000D+01
 Atom H9       Shell    27 S   3     bf   82 -    82          9.670749678800         -1.012831507668         -2.743177420411
      0.1873113696D+02  0.3349460434D-01
      0.2825394365D+01  0.2347269535D+00
      0.6401216923D+00  0.8137573261D+00
 Atom H9       Shell    28 S   1     bf   83 -    83          9.670749678800         -1.012831507668         -2.743177420411
      0.1612777588D+00  0.1000000000D+01
 Atom C10      Shell    29 S   6     bf   84 -    84          9.243450455913          1.036445449836         -6.296716687550
      0.3047524880D+04  0.1834737132D-02
      0.4573695180D+03  0.1403732281D-01
      0.1039486850D+03  0.6884262226D-01
      0.2921015530D+02  0.2321844432D+00
      0.9286662960D+01  0.4679413484D+00
      0.3163926960D+01  0.3623119853D+00
 Atom C10      Shell    30 SP   3    bf   85 -    88          9.243450455913          1.036445449836         -6.296716687550
      0.7868272350D+01 -0.1193324198D+00  0.6899906659D-01
      0.1881288540D+01 -0.1608541517D+00  0.3164239610D+00
      0.5442492580D+00  0.1143456438D+01  0.7443082909D+00
 Atom C10      Shell    31 SP   1    bf   89 -    92          9.243450455913          1.036445449836         -6.296716687550
      0.1687144782D+00  0.1000000000D+01  0.1000000000D+01
 Atom C10      Shell    32 D   1     bf   93 -    98          9.243450455913          1.036445449836         -6.296716687550
      0.8000000000D+00  0.1000000000D+01
 Atom H11      Shell    33 S   3     bf   99 -    99          9.312420206325          3.053566260545         -6.813652745188
      0.1873113696D+02  0.3349460434D-01
      0.2825394365D+01  0.2347269535D+00
      0.6401216923D+00  0.8137573261D+00
 Atom H11      Shell    34 S   1     bf  100 -   100          9.312420206325          3.053566260545         -6.813652745188
      0.1612777588D+00  0.1000000000D+01
 Atom C12      Shell    35 S   6     bf  101 -   101          2.742651301758          2.681496362591         -1.335067267697
      0.3047524880D+04  0.1834737132D-02
      0.4573695180D+03  0.1403732281D-01
      0.1039486850D+03  0.6884262226D-01
      0.2921015530D+02  0.2321844432D+00
      0.9286662960D+01  0.4679413484D+00
      0.3163926960D+01  0.3623119853D+00
 Atom C12      Shell    36 SP   3    bf  102 -   105          2.742651301758          2.681496362591         -1.335067267697
      0.7868272350D+01 -0.1193324198D+00  0.6899906659D-01
      0.1881288540D+01 -0.1608541517D+00  0.3164239610D+00
      0.5442492580D+00  0.1143456438D+01  0.7443082909D+00
 Atom C12      Shell    37 SP   1    bf  106 -   109          2.742651301758          2.681496362591         -1.335067267697
      0.1687144782D+00  0.1000000000D+01  0.1000000000D+01
 Atom C12      Shell    38 D   1     bf  110 -   115          2.742651301758          2.681496362591         -1.335067267697
      0.8000000000D+00  0.1000000000D+01
 Atom H13      Shell    39 S   3     bf  116 -   116          2.709465802241          4.523445664597         -2.298013709321
      0.1873113696D+02  0.3349460434D-01
      0.2825394365D+01  0.2347269535D+00
      0.6401216923D+00  0.8137573261D+00
 Atom H13      Shell    40 S   1     bf  117 -   117          2.709465802241          4.523445664597         -2.298013709321
      0.1612777588D+00  0.1000000000D+01
 Atom C14      Shell    41 S   6     bf  118 -   118          4.374379437406          1.242975206269         -5.820632994016
      0.3047524880D+04  0.1834737132D-02
      0.4573695180D+03  0.1403732281D-01
      0.1039486850D+03  0.6884262226D-01
      0.2921015530D+02  0.2321844432D+00
      0.9286662960D+01  0.4679413484D+00
      0.3163926960D+01  0.3623119853D+00
 Atom C14      Shell    42 SP   3    bf  119 -   122          4.374379437406          1.242975206269         -5.820632994016
      0.7868272350D+01 -0.1193324198D+00  0.6899906659D-01
      0.1881288540D+01 -0.1608541517D+00  0.3164239610D+00
      0.5442492580D+00  0.1143456438D+01  0.7443082909D+00
 Atom C14      Shell    43 SP   1    bf  123 -   126          4.374379437406          1.242975206269         -5.820632994016
      0.1687144782D+00  0.1000000000D+01  0.1000000000D+01
 Atom C14      Shell    44 D   1     bf  127 -   132          4.374379437406          1.242975206269         -5.820632994016
      0.8000000000D+00  0.1000000000D+01
 Atom H15      Shell    45 S   3     bf  133 -   133          4.273038602749          3.260813338121         -6.306677698559
      0.1873113696D+02  0.3349460434D-01
      0.2825394365D+01  0.2347269535D+00
      0.6401216923D+00  0.8137573261D+00
 Atom H15      Shell    46 S   1     bf  134 -   134          4.273038602749          3.260813338121         -6.306677698559
      0.1612777588D+00  0.1000000000D+01
 Atom H16      Shell    47 S   3     bf  135 -   135          2.639859818835          0.377339701632         -6.542971869906
      0.1873113696D+02  0.3349460434D-01
      0.2825394365D+01  0.2347269535D+00
      0.6401216923D+00  0.8137573261D+00
 Atom H16      Shell    48 S   1     bf  136 -   136          2.639859818835          0.377339701632         -6.542971869906
      0.1612777588D+00  0.1000000000D+01
 Atom C17      Shell    49 S   6     bf  137 -   137         11.525151898077         -0.222922431437         -7.709391908375
      0.3047524880D+04  0.1834737132D-02
      0.4573695180D+03  0.1403732281D-01
      0.1039486850D+03  0.6884262226D-01
      0.2921015530D+02  0.2321844432D+00
      0.9286662960D+01  0.4679413484D+00
      0.3163926960D+01  0.3623119853D+00
 Atom C17      Shell    50 SP   3    bf  138 -   141         11.525151898077         -0.222922431437         -7.709391908375
      0.7868272350D+01 -0.1193324198D+00  0.6899906659D-01
      0.1881288540D+01 -0.1608541517D+00  0.3164239610D+00
      0.5442492580D+00  0.1143456438D+01  0.7443082909D+00
 Atom C17      Shell    51 SP   1    bf  142 -   145         11.525151898077         -0.222922431437         -7.709391908375
      0.1687144782D+00  0.1000000000D+01  0.1000000000D+01
 Atom C17      Shell    52 D   1     bf  146 -   151         11.525151898077         -0.222922431437         -7.709391908375
      0.8000000000D+00  0.1000000000D+01
 Atom C18      Shell    53 S   6     bf  152 -   152          6.999800898209          2.417084880523          0.736789649424
      0.3047524880D+04  0.1834737132D-02
      0.4573695180D+03  0.1403732281D-01
      0.1039486850D+03  0.6884262226D-01
      0.2921015530D+02  0.2321844432D+00
      0.9286662960D+01  0.4679413484D+00
      0.3163926960D+01  0.3623119853D+00
 Atom C18      Shell    54 SP   3    bf  153 -   156          6.999800898209          2.417084880523          0.736789649424
      0.7868272350D+01 -0.1193324198D+00  0.6899906659D-01
      0.1881288540D+01 -0.1608541517D+00  0.3164239610D+00
      0.5442492580D+00  0.1143456438D+01  0.7443082909D+00
 Atom C18      Shell    55 SP   1    bf  157 -   160          6.999800898209          2.417084880523          0.736789649424
      0.1687144782D+00  0.1000000000D+01  0.1000000000D+01
 Atom C18      Shell    56 D   1     bf  161 -   166          6.999800898209          2.417084880523          0.736789649424
      0.8000000000D+00  0.1000000000D+01
 Atom H19      Shell    57 S   3     bf  167 -   167          8.268761445072          3.867166474257          1.477747637854
      0.1873113696D+02  0.3349460434D-01
      0.2825394365D+01  0.2347269535D+00
      0.6401216923D+00  0.8137573261D+00
 Atom H19      Shell    58 S   1     bf  168 -   168          8.268761445072          3.867166474257          1.477747637854
      0.1612777588D+00  0.1000000000D+01
 Atom H20      Shell    59 S   3     bf  169 -   169          7.561185790033          0.646003143089          1.648187272320
      0.1873113696D+02  0.3349460434D-01
      0.2825394365D+01  0.2347269535D+00
      0.6401216923D+00  0.8137573261D+00
 Atom H20      Shell    60 S   1     bf  170 -   170          7.561185790033          0.646003143089          1.648187272320
      0.1612777588D+00  0.1000000000D+01
 Atom C21      Shell    61 S   6     bf  171 -   171          6.646172629715          0.032742415430         -7.181124977256
      0.3047524880D+04  0.1834737132D-02
      0.4573695180D+03  0.1403732281D-01
      0.1039486850D+03  0.6884262226D-01
      0.2921015530D+02  0.2321844432D+00
      0.9286662960D+01  0.4679413484D+00
      0.3163926960D+01  0.3623119853D+00
 Atom C21      Shell    62 SP   3    bf  172 -   175          6.646172629715          0.032742415430         -7.181124977256
      0.7868272350D+01 -0.1193324198D+00  0.6899906659D-01
      0.1881288540D+01 -0.1608541517D+00  0.3164239610D+00
      0.5442492580D+00  0.1143456438D+01  0.7443082909D+00
 Atom C21      Shell    63 SP   1    bf  176 -   179          6.646172629715          0.032742415430         -7.181124977256
      0.1687144782D+00  0.1000000000D+01  0.1000000000D+01
 Atom C21      Shell    64 D   1     bf  180 -   185          6.646172629715          0.032742415430         -7.181124977256
      0.8000000000D+00  0.1000000000D+01
 Atom H22      Shell    65 S   3     bf  186 -   186          6.561029129072         -2.018289908679         -6.915111933392
      0.1873113696D+02  0.3349460434D-01
      0.2825394365D+01  0.2347269535D+00
      0.6401216923D+00  0.8137573261D+00
 Atom H22      Shell    66 S   1     bf  187 -   187          6.561029129072         -2.018289908679         -6.915111933392
      0.1612777588D+00  0.1000000000D+01
 Atom H23      Shell    67 S   3     bf  188 -   188          6.436054132178          0.351862073758         -9.216032362759
      0.1873113696D+02  0.3349460434D-01
      0.2825394365D+01  0.2347269535D+00
      0.6401216923D+00  0.8137573261D+00
 Atom H23      Shell    68 S   1     bf  189 -   189          6.436054132178          0.351862073758         -9.216032362759
      0.1612777588D+00  0.1000000000D+01
 Atom C24      Shell    69 S   6     bf  190 -   190          4.169744925106          3.017199237008          1.230406127533
      0.3047524880D+04  0.1834737132D-02
      0.4573695180D+03  0.1403732281D-01
      0.1039486850D+03  0.6884262226D-01
      0.2921015530D+02  0.2321844432D+00
      0.9286662960D+01  0.4679413484D+00
      0.3163926960D+01  0.3623119853D+00
 Atom C24      Shell    70 SP   3    bf  191 -   194          4.169744925106          3.017199237008          1.230406127533
      0.7868272350D+01 -0.1193324198D+00  0.6899906659D-01
      0.1881288540D+01 -0.1608541517D+00  0.3164239610D+00
      0.5442492580D+00  0.1143456438D+01  0.7443082909D+00
 Atom C24      Shell    71 SP   1    bf  195 -   198          4.169744925106          3.017199237008          1.230406127533
      0.1687144782D+00  0.1000000000D+01  0.1000000000D+01
 Atom C24      Shell    72 D   1     bf  199 -   204          4.169744925106          3.017199237008          1.230406127533
      0.8000000000D+00  0.1000000000D+01
 Atom H25      Shell    73 S   3     bf  205 -   205          3.390111083544          1.736702516816          2.660899368194
      0.1873113696D+02  0.3349460434D-01
      0.2825394365D+01  0.2347269535D+00
      0.6401216923D+00  0.8137573261D+00
 Atom H25      Shell    74 S   1     bf  206 -   206          3.390111083544          1.736702516816          2.660899368194
      0.1612777588D+00  0.1000000000D+01
 Atom H26      Shell    75 S   3     bf  207 -   207          3.915877888092          4.932629500343          1.970303431582
      0.1873113696D+02  0.3349460434D-01
      0.2825394365D+01  0.2347269535D+00
      0.6401216923D+00  0.8137573261D+00
 Atom H26      Shell    76 S   1     bf  208 -   208          3.915877888092          4.932629500343          1.970303431582
      0.1612777588D+00  0.1000000000D+01
 Atom C27      Shell    77 S   6     bf  209 -   209         11.945378745322          2.323248564079         -2.553836027067
      0.3047524880D+04  0.1834737132D-02
      0.4573695180D+03  0.1403732281D-01
      0.1039486850D+03  0.6884262226D-01
      0.2921015530D+02  0.2321844432D+00
      0.9286662960D+01  0.4679413484D+00
      0.3163926960D+01  0.3623119853D+00
 Atom C27      Shell    78 SP   3    bf  210 -   213         11.945378745322          2.323248564079         -2.553836027067
      0.7868272350D+01 -0.1193324198D+00  0.6899906659D-01
      0.1881288540D+01 -0.1608541517D+00  0.3164239610D+00
      0.5442492580D+00  0.1143456438D+01  0.7443082909D+00
 Atom C27      Shell    79 SP   1    bf  214 -   217         11.945378745322          2.323248564079         -2.553836027067
      0.1687144782D+00  0.1000000000D+01  0.1000000000D+01
 Atom C27      Shell    80 D   1     bf  218 -   223         11.945378745322          2.323248564079         -2.553836027067
      0.8000000000D+00  0.1000000000D+01
 Atom H28      Shell    81 S   3     bf  224 -   224         11.577595615511          4.365898289830         -2.464503627197
      0.1873113696D+02  0.3349460434D-01
      0.2825394365D+01  0.2347269535D+00
      0.6401216923D+00  0.8137573261D+00
 Atom H28      Shell    82 S   1     bf  225 -   225         11.577595615511          4.365898289830         -2.464503627197
      0.1612777588D+00  0.1000000000D+01
 Atom C29      Shell    83 S   6     bf  226 -   226         -0.036736540585          1.837631410074         -0.970306395788
      0.3047524880D+04  0.1834737132D-02
      0.4573695180D+03  0.1403732281D-01
      0.1039486850D+03  0.6884262226D-01
      0.2921015530D+02  0.2321844432D+00
      0.9286662960D+01  0.4679413484D+00
      0.3163926960D+01  0.3623119853D+00
 Atom C29      Shell    84 SP   3    bf  227 -   230         -0.036736540585          1.837631410074         -0.970306395788
      0.7868272350D+01 -0.1193324198D+00  0.6899906659D-01
      0.1881288540D+01 -0.1608541517D+00  0.3164239610D+00
      0.5442492580D+00  0.1143456438D+01  0.7443082909D+00
 Atom C29      Shell    85 SP   1    bf  231 -   234         -0.036736540585          1.837631410074         -0.970306395788
      0.1687144782D+00  0.1000000000D+01  0.1000000000D+01
 Atom C29      Shell    86 D   1     bf  235 -   240         -0.036736540585          1.837631410074         -0.970306395788
      0.8000000000D+00  0.1000000000D+01
 Atom H30      Shell    87 S   3     bf  241 -   241          0.000000000000          0.000000000000          0.000000000000
      0.1873113696D+02  0.3349460434D-01
      0.2825394365D+01  0.2347269535D+00
      0.6401216923D+00  0.8137573261D+00
 Atom H30      Shell    88 S   1     bf  242 -   242          0.000000000000          0.000000000000          0.000000000000
      0.1612777588D+00  0.1000000000D+01
 Atom C31      Shell    89 S   6     bf  243 -   243          4.357443749598         -1.807866598316         -2.117111473839
      0.3047524880D+04  0.1834737132D-02
      0.4573695180D+03  0.1403732281D-01
      0.1039486850D+03  0.6884262226D-01
      0.2921015530D+02  0.2321844432D+00
      0.9286662960D+01  0.4679413484D+00
      0.3163926960D+01  0.3623119853D+00
 Atom C31      Shell    90 SP   3    bf  244 -   247          4.357443749598         -1.807866598316         -2.117111473839
      0.7868272350D+01 -0.1193324198D+00  0.6899906659D-01
      0.1881288540D+01 -0.1608541517D+00  0.3164239610D+00
      0.5442492580D+00  0.1143456438D+01  0.7443082909D+00
 Atom C31      Shell    91 SP   1    bf  248 -   251          4.357443749598         -1.807866598316         -2.117111473839
      0.1687144782D+00  0.1000000000D+01  0.1000000000D+01
 Atom C31      Shell    92 D   1     bf  252 -   257          4.357443749598         -1.807866598316         -2.117111473839
      0.8000000000D+00  0.1000000000D+01
 Atom H32      Shell    93 S   3     bf  258 -   258          5.872567713716         -2.976448729145         -2.895621419681
      0.1873113696D+02  0.3349460434D-01
      0.2825394365D+01  0.2347269535D+00
      0.6401216923D+00  0.8137573261D+00
 Atom H32      Shell    94 S   1     bf  259 -   259          5.872567713716         -2.976448729145         -2.895621419681
      0.1612777588D+00  0.1000000000D+01
 Atom H33      Shell    95 S   3     bf  260 -   260          4.416052301698         -2.024739751840         -0.062015539345
      0.1873113696D+02  0.3349460434D-01
      0.2825394365D+01  0.2347269535D+00
      0.6401216923D+00  0.8137573261D+00
 Atom H33      Shell    96 S   1     bf  261 -   261          4.416052301698         -2.024739751840         -0.062015539345
      0.1612777588D+00  0.1000000000D+01
 Atom H34      Shell    97 S   3     bf  262 -   262          2.568045784929         -2.615490439749         -2.772451130141
      0.1873113696D+02  0.3349460434D-01
      0.2825394365D+01  0.2347269535D+00
      0.6401216923D+00  0.8137573261D+00
 Atom H34      Shell    98 S   1     bf  263 -   263          2.568045784929         -2.615490439749         -2.772451130141
      0.1612777588D+00  0.1000000000D+01
 Atom C35      Shell    99 S   6     bf  264 -   264         14.020092380336          0.671381012320         -6.542018692045
      0.3047524880D+04  0.1834737132D-02
      0.4573695180D+03  0.1403732281D-01
      0.1039486850D+03  0.6884262226D-01
      0.2921015530D+02  0.2321844432D+00
      0.9286662960D+01  0.4679413484D+00
      0.3163926960D+01  0.3623119853D+00
 Atom C35      Shell   100 SP   3    bf  265 -   268         14.020092380336          0.671381012320         -6.542018692045
      0.7868272350D+01 -0.1193324198D+00  0.6899906659D-01
      0.1881288540D+01 -0.1608541517D+00  0.3164239610D+00
      0.5442492580D+00  0.1143456438D+01  0.7443082909D+00
 Atom C35      Shell   101 SP   1    bf  269 -   272         14.020092380336          0.671381012320         -6.542018692045
      0.1687144782D+00  0.1000000000D+01  0.1000000000D+01
 Atom C35      Shell   102 D   1     bf  273 -   278         14.020092380336          0.671381012320         -6.542018692045
      0.8000000000D+00  0.1000000000D+01
 Atom C36      Shell   103 S   6     bf  279 -   279         11.472597159232          0.629999940640        -10.532667619702
      0.3047524880D+04  0.1834737132D-02
      0.4573695180D+03  0.1403732281D-01
      0.1039486850D+03  0.6884262226D-01
      0.2921015530D+02  0.2321844432D+00
      0.9286662960D+01  0.4679413484D+00
      0.3163926960D+01  0.3623119853D+00
 Atom C36      Shell   104 SP   3    bf  280 -   283         11.472597159232          0.629999940640        -10.532667619702
      0.7868272350D+01 -0.1193324198D+00  0.6899906659D-01
      0.1881288540D+01 -0.1608541517D+00  0.3164239610D+00
      0.5442492580D+00  0.1143456438D+01  0.7443082909D+00
 Atom C36      Shell   105 SP   1    bf  284 -   287         11.472597159232          0.629999940640        -10.532667619702
      0.1687144782D+00  0.1000000000D+01  0.1000000000D+01
 Atom C36      Shell   106 D   1     bf  288 -   293         11.472597159232          0.629999940640        -10.532667619702
      0.8000000000D+00  0.1000000000D+01
 Atom H37      Shell   107 S   3     bf  294 -   294         11.181628940079          2.685233636169        -10.583903934418
      0.1873113696D+02  0.3349460434D-01
      0.2825394365D+01  0.2347269535D+00
      0.6401216923D+00  0.8137573261D+00
 Atom H37      Shell   108 S   1     bf  295 -   295         11.181628940079          2.685233636169        -10.583903934418
      0.1612777588D+00  0.1000000000D+01
 Atom H38      Shell   109 S   3     bf  296 -   296          9.838437626352         -0.217367241319        -11.478278224008
      0.1873113696D+02  0.3349460434D-01
      0.2825394365D+01  0.2347269535D+00
      0.6401216923D+00  0.8137573261D+00
 Atom H38      Shell   110 S   1     bf  297 -   297          9.838437626352         -0.217367241319        -11.478278224008
      0.1612777588D+00  0.1000000000D+01
 Atom C39      Shell   111 S   6     bf  298 -   298         14.134989297688          1.844635056375         -4.298605236724
      0.3047524880D+04  0.1834737132D-02
[...]
 1552 Fit      -0.003937
 1553 Fit      -0.003846
 1554 Fit      -0.002176
 1555 Fit      -0.003636
 1556 Fit      -0.003659
 1557 Fit      -0.003243
 1558 Fit      -0.002015
 1559 Fit      -0.001590
 1560 Fit      -0.002617
 1561 Fit      -0.002681
 1562 Fit      -0.000386
 1563 Fit       0.000512
 1564 Fit       0.000101
 1565 Fit      -0.001469
 1566 Fit       0.001636
 1567 Fit       0.001526
 1568 Fit       0.000070
 1569 Fit      -0.002590
 1570 Fit      -0.002920
 1571 Fit      -0.000726
 1572 Fit      -0.001173
 1573 Fit      -0.002085
 1574 Fit       0.000279
 1575 Fit       0.001429
 1576 Fit       0.000974
 1577 Fit      -0.000711
 1578 Fit      -0.001709
 1579 Fit       0.000662
 1580 Fit       0.002144
 1581 Fit       0.002242
 1582 Fit       0.001002
 1583 Fit      -0.000446
 1584 Fit      -0.000191
 1585 Fit       0.001082
 1586 Fit      -0.000317
 1587 Fit      -0.002027
 1588 Fit      -0.002471
 1589 Fit      -0.001231
 1590 Fit       0.000630
 1591 Fit       0.001254
 1592 Fit      -0.000284
 1593 Fit      -0.002005
 1594 Fit      -0.001368
 1595 Fit       0.000264
 1596 Fit       0.001425
 1597 Fit      -0.020068
 1598 Fit      -0.017321
 1599 Fit      -0.023767
 1600 Fit      -0.024348
 1601 Fit      -0.013823
 1602 Fit      -0.010312
 1603 Fit      -0.013988
 1604 Fit      -0.021412
 1605 Fit      -0.024603
 1606 Fit      -0.024087
 1607 Fit      -0.003921
 1608 Fit      -0.009972
 1609 Fit      -0.017774
 1610 Fit      -0.021488
 1611 Fit      -0.021331
 1612 Fit      -0.018242
 1613 Fit      -0.014276
 1614 Fit      -0.014834
 1615 Fit      -0.001699
 1616 Fit       0.002047
 1617 Fit      -0.002213
 1618 Fit       0.003674
 1619 Fit       0.010063
 1620 Fit       0.011105
 1621 Fit       0.007185
 1622 Fit       0.001496
 1623 Fit       0.010407
 1624 Fit       0.015201
 1625 Fit       0.016351
 1626 Fit       0.014475
 1627 Fit       0.009661
 1628 Fit       0.018745
 1629 Fit       0.017712
 1630 Fit       0.014770
 1631 Fit       0.009908
 1632 Fit      -0.014643
 1633 Fit      -0.020124
 1634 Fit      -0.019921
 1635 Fit      -0.003771
 1636 Fit      -0.016073
 1637 Fit      -0.022587
 1638 Fit      -0.024364
 1639 Fit      -0.021588
 1640 Fit      -0.004985
 1641 Fit      -0.016348
 1642 Fit      -0.023491
 1643 Fit      -0.025461
 1644 Fit      -0.022550
 1645 Fit      -0.015759
 1646 Fit      -0.004430
 1647 Fit      -0.016496
 1648 Fit      -0.023120
 1649 Fit      -0.024365
 1650 Fit      -0.020758
 1651 Fit      -0.013883
 1652 Fit      -0.005663
 1653 Fit      -0.016383
 1654 Fit      -0.021250
 1655 Fit      -0.017008
 1656 Fit      -0.005169
 1657 Fit      -0.006739
 1658 Fit      -0.014791
 1659 Fit       0.009180
 1660 Fit       0.025202
 1661 Fit       0.021671
 1662 Fit       0.016156
 1663 Fit       0.007541
 1664 Fit       0.022248
 1665 Fit       0.020026
 1666 Fit       0.015217
 1667 Fit       0.007064
 1668 Fit       0.016466
 1669 Fit       0.013940
 1670 Fit       0.006821
 1671 Fit       0.006413
 1672 Fit       0.005486
 1673 Fit       0.001398
 1674 Fit       0.001860
 1675 Fit       0.003581
 1676 Fit       0.003566
 1677 Fit       0.005069
 1678 Fit       0.007888
 1679 Fit       0.014315
 1680 Fit       0.004931
 1681 Fit       0.002682
 1682 Fit       0.004897
 1683 Fit       0.005563
 1684 Fit       0.006455
 1685 Fit       0.005886
 1686 Fit       0.003155
 1687 Fit       0.004426
 1688 Fit       0.003076
 1689 Fit       0.001941
 1690 Fit       0.004888
 1691 Fit       0.004770
 1692 Fit       0.003909
 1693 Fit       0.003030
 1694 Fit       0.005012
 1695 Fit       0.003896
 1696 Fit       0.002712
 1697 Fit       0.001263
 1698 Fit       0.004658
 1699 Fit       0.003199
 1700 Fit       0.005675
 1701 Fit       0.000941
 1702 Fit       0.001517
 1703 Fit       0.003464
 1704 Fit       0.004975
 1705 Fit       0.005143
 1706 Fit       0.003283
 1707 Fit       0.004529
 1708 Fit      -0.007910
 1709 Fit      -0.012072
 1710 Fit      -0.009622
 1711 Fit      -0.021297
 1712 Fit      -0.015699
 1713 Fit      -0.010053
 1714 Fit      -0.007391
 1715 Fit      -0.016471
 1716 Fit      -0.008607
 1717 Fit      -0.005337
 1718 Fit      -0.010853
 1719 Fit      -0.005328
 1720 Fit      -0.003071
 1721 Fit      -0.003002
 1722 Fit      -0.001506
 1723 Fit      -0.006901
 1724 Fit      -0.011342
 1725 Fit      -0.002353
 1726 Fit      -0.004742
 1727 Fit       0.001622
 1728 Fit       0.000752
 1729 Fit      -0.001021
 1730 Fit      -0.006880
 1731 Fit       0.002828
 1732 Fit       0.002896
 1733 Fit       0.004931
 1734 Fit       0.008771
 1735 Fit       0.005983
 1736 Fit       0.007654
 1737 Fit       0.006201
 1738 Fit       0.005530
 1739 Fit       0.004867
 1740 Fit       0.004735
 1741 Fit       0.005312
 1742 Fit       0.006229
 1743 Fit       0.008565
 1744 Fit       0.006635
 1745 Fit       0.006764
 1746 Fit       0.008329
 1747 Fit      -0.006726
 1748 Fit      -0.005321
 1749 Fit      -0.003203
 1750 Fit      -0.002006
 1751 Fit      -0.004608
 1752 Fit      -0.002083
 1753 Fit      -0.000271
 1754 Fit       0.000139
 1755 Fit      -0.001434
 1756 Fit       0.001343
 1757 Fit       0.001582
 1758 Fit       0.000246
 1759 Fit      -0.003412
 1760 Fit      -0.001553
 1761 Fit      -0.005196
 1762 Fit      -0.002269
 1763 Fit      -0.000670
 1764 Fit      -0.002576
 1765 Fit      -0.000647
 1766 Fit       0.000043
 1767 Fit      -0.001353
 1768 Fit       0.000323
 1769 Fit       0.001169
 1770 Fit      -0.010120
 1771 Fit      -0.005724
 1772 Fit      -0.005196
 1773 Fit      -0.002444
 1774 Fit      -0.000306
 1775 Fit      -0.001884
 1776 Fit       0.000389
 1777 Fit       0.002441
 1778 Fit       0.000054
 1779 Fit       0.003431
 1780 Fit       0.000901
 1781 Fit       0.001187
 1782 Fit       0.001797
 1783 Fit       0.001234
 1784 Fit       0.001452
 1785 Fit       0.001793
 1786 Fit       0.001261
 1787 Fit       0.000718
 1788 Fit       0.000963
 1789 Fit       0.001983
 1790 Fit       0.003783
 1791 Fit       0.001047
 1792 Fit       0.001867
 1793 Fit       0.002053
 1794 Fit       0.003653
 1795 Fit       0.003993
 1796 Fit       0.007241
 1797 Fit       0.004842
 1798 Fit       0.008318
 1799 Fit       0.003784
 1800 Fit       0.006358
 1801 Fit       0.006253
 1802 Fit       0.002622
 1803 Fit       0.002442
 1804 Fit       0.001891
 1805 Fit       0.002013
 1806 Fit       0.002455
 1807 Fit       0.002705
 1808 Fit       0.001390
 1809 Fit       0.002581
 1810 Fit       0.002524
 1811 Fit       0.001686
 1812 Fit       0.003776
 1813 Fit       0.002979
 1814 Fit       0.004981
 1815 Fit       0.004083
 1816 Fit       0.005590
 1817 Fit       0.007281
 1818 Fit       0.005369
 1819 Fit       0.004888
 1820 Fit       0.004577
 1821 Fit       0.005963
 1822 Fit       0.004928
 1823 Fit       0.005408
 1824 Fit       0.005651
 1825 Fit       0.005665
 1826 Fit       0.004350
 1827 Fit       0.004781
 1828 Fit       0.004949
 1829 Fit       0.004764
 1830 Fit       0.010032
 1831 Fit       0.005848
 1832 Fit       0.007551
 1833 Fit       0.008493
 1834 Fit       0.008852
 1835 Fit       0.008803
 1836 Fit       0.005977
 1837 Fit       0.007133
 1838 Fit       0.007593
 1839 Fit      -0.007216
 1840 Fit       0.008136
 1841 Fit      -0.002970
 1842 Fit      -0.002608
 1843 Fit      -0.003108
 1844 Fit      -0.001773
 1845 Fit      -0.008500
 1846 Fit      -0.000359
 1847 Fit      -0.002958
 1848 Fit      -0.006847
 1849 Fit       0.001803
 1850 Fit       0.002824
 1851 Fit       0.001085
 1852 Fit      -0.001104
 1853 Fit      -0.003247
 1854 Fit       0.003666
 1855 Fit       0.002195
 1856 Fit      -0.000371
 1857 Fit      -0.002472
 1858 Fit       0.008213
 1859 Fit       0.008465
 1860 Fit       0.006679
 1861 Fit       0.005998
 1862 Fit       0.006357
 1863 Fit       0.007857
 1864 Fit       0.006339
 1865 Fit       0.006834
 1866 Fit       0.007362
 1867 Fit       0.007364
 1868 Fit       0.006378
 1869 Fit       0.008375
 1870 Fit       0.007893
 1871 Fit       0.007155
 1872 Fit       0.008945
 1873 Fit       0.008546
 1874 Fit       0.008001
 1875 Fit       0.009074
 1876 Fit       0.009336
 1877 Fit       0.009660
 1878 Fit       0.008470
 1879 Fit       0.011052
 1880 Fit       0.010014
 1881 Fit       0.013683
 1882 Fit       0.009597
 1883 Fit       0.013518
 1884 Fit       0.012065
 1885 Fit       0.013636
 1886 Fit       0.011503
 1887 Fit       0.009511
 1888 Fit       0.009186
 1889 Fit       0.009663
 1890 Fit       0.010630
 1891 Fit       0.007599
 1892 Fit       0.007169
 1893 Fit       0.007377
 1894 Fit       0.005109
 1895 Fit       0.003796
 1896 Fit       0.002200
 1897 Fit       0.002418
 1898 Fit       0.002448
 1899 Fit       0.003116
 1900 Fit      -0.000939
 1901 Fit      -0.001596
 1902 Fit      -0.001168
 1903 Fit      -0.000647
 1904 Fit       0.001098
 1905 Fit      -0.008777
 1906 Fit      -0.009986
 1907 Fit      -0.007824
 1908 Fit      -0.004054
 1909 Fit      -0.003035
 1910 Fit       0.005852
 1911 Fit       0.009453
 1912 Fit       0.008718
 1913 Fit       0.006302
 1914 Fit       0.012635
 1915 Fit       0.010934
 1916 Fit       0.007680
 1917 Fit       0.017455
 1918 Fit       0.016768
 1919 Fit       0.013833
 1920 Fit       0.005689
 1921 Fit       0.006231
 1922 Fit       0.024238
 1923 Fit       0.009576
 1924 Fit       0.011310
 1925 Fit       0.014584
 1926 Fit       0.021017
 1927 Fit       0.008033
 1928 Fit       0.009659
 1929 Fit       0.012401
 1930 Fit       0.006177
 1931 Fit       0.007090
 1932 Fit      -0.001551
 1933 Fit       0.003012
 1934 Fit       0.004812
 1935 Fit      -0.013864
 1936 Fit      -0.004315
 1937 Fit       0.001334
 1938 Fit       0.003940
 1939 Fit       0.005156
 1940 Fit       0.005701
 1941 Fit       0.005290
 1942 Fit      -0.003670
 1943 Fit      -0.001652
 1944 Fit       0.002454
 1945 Fit       0.004018
 1946 Fit       0.003547
 1947 Fit       0.001001
 1948 Fit       0.001509
 1949 Fit      -0.000741
 1950 Fit      -0.000296
 1951 Fit       0.001230
 1952 Fit       0.000161
 1953 Fit       0.002262
 1954 Fit       0.001965
 1955 Fit       0.001176
 1956 Fit       0.002613
 1957 Fit      -0.000024
 1958 Fit      -0.000802
 1959 Fit       0.000157
 1960 Fit      -0.000519
 1961 Fit      -0.000419
 1962 Fit      -0.000008
 1963 Fit      -0.000268
 1964 Fit      -0.006517
 1965 Fit      -0.002030
 1966 Fit      -0.001150
 1967 Fit      -0.005922
 1968 Fit      -0.001554
 1969 Fit       0.001375
 1970 Fit       0.004321
 1971 Fit      -0.009840
 1972 Fit      -0.003111
 1973 Fit       0.001077
 1974 Fit       0.004711
 1975 Fit      -0.009067
 1976 Fit      -0.001908
 1977 Fit       0.002712
 1978 Fit       0.000956
 1979 Fit       0.001193
 1980 Fit       0.000409
 1981 Fit       0.000355
 1982 Fit      -0.000034
 1983 Fit      -0.000563
 1984 Fit      -0.000547
 1985 Fit       0.000435
 1986 Fit      -0.000180
 1987 Fit       0.001103
 1988 Fit       0.000827
 1989 Fit       0.001875
 1990 Fit       0.001203
 1991 Fit       0.002695
 1992 Fit       0.002417
 1993 Fit       0.001684
 1994 Fit       0.000275
 1995 Fit       0.001885
 1996 Fit       0.001659
 1997 Fit       0.000353
 1998 Fit       0.001017
 1999 Fit       0.002986
 2000 Fit       0.002101
 2001 Fit       0.002493
 2002 Fit       0.002398
 2003 Fit       0.001676
 2004 Fit       0.000758
 2005 Fit       0.001896
 2006 Fit       0.001743
 2007 Fit       0.001091
 2008 Fit       0.000535
 2009 Fit       0.000673
 2010 Fit       0.000258
 2011 Fit       0.003193
 2012 Fit       0.001531
 2013 Fit       0.003900
 2014 Fit       0.002119
 2015 Fit       0.004578
 2016 Fit       0.003263
 2017 Fit      -0.000225
 2018 Fit      -0.000055
 2019 Fit       0.000438
 2020 Fit       0.002357
 2021 Fit       0.001358
 2022 Fit       0.000264
 2023 Fit       0.002841
 2024 Fit       0.001077
 2025 Fit       0.001272
 2026 Fit      -0.000160
 2027 Fit       0.000089
 2028 Fit      -0.000201
 2029 Fit       0.001446
 2030 Fit       0.001344
 2031 Fit       0.001722
 2032 Fit      -0.003095
 2033 Fit      -0.001045
 2034 Fit      -0.002224
 2035 Fit      -0.002553
 2036 Fit      -0.001350
 2037 Fit      -0.000469
 2038 Fit       0.000587
 2039 Fit      -0.000544
 2040 Fit      -0.000135
 2041 Fit       0.000612
 2042 Fit       0.001334
 2043 Fit       0.000028
 2044 Fit       0.000647
 2045 Fit       0.001250
 2046 Fit       0.000100
 2047 Fit       0.000537
 2048 Fit       0.000426
 2049 Fit       0.000094
 2050 Fit       0.000645
 2051 Fit      -0.000142
 2052 Fit      -0.000664
 2053 Fit      -0.001513
 2054 Fit       0.000166
 2055 Fit      -0.001067
 2056 Fit      -0.002153
 2057 Fit      -0.000392
 2058 Fit      -0.000290
 2059 Fit       0.000531
 2060 Fit       0.000776
 2061 Fit      -0.000163
 2062 Fit       0.000730
 2063 Fit       0.001127
 2064 Fit       0.001671
 2065 Fit       0.001006
 2066 Fit      -0.002296
 2067 Fit       0.000338
 2068 Fit      -0.002073
 2069 Fit       0.000243
 2070 Fit      -0.002074
 2071 Fit      -0.002058
 2072 Fit      -0.001332
 2073 Fit      -0.002292
 2074 Fit      -0.001982
 2075 Fit      -0.000903
 2076 Fit      -0.001565
 2077 Fit      -0.001788
 2078 Fit       0.000847
 2079 Fit      -0.000941
 2080 Fit       0.001704
 2081 Fit       0.001057
 2082 Fit      -0.000207
 2083 Fit      -0.001714
 2084 Fit       0.000314
 2085 Fit       0.001121
 2086 Fit       0.000924
 2087 Fit      -0.000176
 2088 Fit      -0.001754
 2089 Fit       0.000094
 2090 Fit      -0.000323
 2091 Fit      -0.001163
 2092 Fit       0.002077
 2093 Fit       0.001564
 2094 Fit       0.000729
 2095 Fit      -0.001669
 2096 Fit       0.000242
 2097 Fit       0.001375
 2098 Fit       0.001607
 2099 Fit       0.001092
 2100 Fit       0.000309
 2101 Fit      -0.000589
 2102 Fit       0.000473
 2103 Fit       0.000720
 2104 Fit       0.000230
 2105 Fit      -0.001383
 2106 Fit      -0.000727
 2107 Fit      -0.000964
 2108 Fit       0.001379
 2109 Fit      -0.000066
 2110 Fit       0.002121
 2111 Fit       0.000388
 2112 Fit       0.002016
 2113 Fit       0.000014
 2114 Fit      -0.000717
 2115 Fit       0.000845
 2116 Fit       0.001219
 2117 Fit       0.000558
 2118 Fit      -0.002591
 2119 Fit      -0.002411
 2120 Fit      -0.003057
 2121 Fit      -0.003019
 2122 Fit      -0.001589
 2123 Fit      -0.002849
 2124 Fit      -0.002827
 2125 Fit      -0.002999
 2126 Fit      -0.002507
 2127 Fit      -0.000866
 2128 Fit      -0.003134
 2129 Fit      -0.002308
 2130 Fit      -0.002470
 2131 Fit      -0.002372
 2132 Fit      -0.002112
 2133 Fit      -0.001455
 2134 Fit      -0.000594
 2135 Fit      -0.000600
 2136 Fit      -0.001399
 2137 Fit       0.000017
 2138 Fit       0.000652
 2139 Fit       0.000502
 2140 Fit      -0.000445
 2141 Fit      -0.001915
 2142 Fit       0.001583
 2143 Fit       0.001286
 2144 Fit       0.000144
 2145 Fit      -0.001048
 2146 Fit      -0.001266
 2147 Fit      -0.001925
 2148 Fit      -0.000242
 2149 Fit       0.000596
 2150 Fit       0.000306
 2151 Fit      -0.000854
 2152 Fit      -0.002102
 2153 Fit      -0.000338
 2154 Fit       0.001011
 2155 Fit       0.001568
 2156 Fit       0.001203
 2157 Fit       0.000238
 2158 Fit      -0.000649
 2159 Fit       0.001069
 2160 Fit       0.002183
 2161 Fit      -0.000444
 2162 Fit       0.000455
 2163 Fit      -0.000511
 2164 Fit      -0.001656
 2165 Fit      -0.001878
 2166 Fit      -0.001008
 2167 Fit       0.000201
 2168 Fit       0.000713
 2169 Fit      -0.000291
 2170 Fit      -0.001493
 2171 Fit      -0.002614
 2172 Fit      -0.000981
 2173 Fit       0.000139
 2174 Fit       0.000865
 2175 Fit      -0.000965
 2176 Fit      -0.002256
 2177 Fit       0.000302
 -----------------------------------------------------------------
 Leave Link  602 at Thu May 18 13:30:30 2017, MaxMem=    33554432 cpu:         3.3
 (Enter /home/michal/g09/l9999.exe)

 Test job not archived.
 1\1\GINC-LINUX\SP\RHF\6-31G(d)\C27H46O2\MICHAL\18-May-2017\0\\#P HF/6-
 31G* SCF(Conver=6) NoSymm Test Pop=mk IOp(6/33=2) GFInput GFPrint\\MEP
  - Input generated by R.E.D.-III.x MOLECULE\\0,1\O,0,6.70145331,0.9020
 6744,0.\H,0,7.05158573,0.,0.\O,0,9.77880858,0.33908524,-6.44567043\H,0
 ,9.90476558,-0.61844544,-6.50425214\C,0,2.42522457,0.52358491,-1.54881
 729\C,0,3.78880696,1.15302522,-1.14020376\H,0,3.75629067,2.18204548,-1
 .5386683\C,0,5.02943797,0.50886106,-1.78423587\H,0,5.11754032,-0.53596
 735,-1.45162697\C,0,4.89142331,0.54846331,-3.33207896\H,0,4.92792053,1
 .61587767,-3.60562974\C,0,1.45134856,1.41898676,-0.70648717\H,0,1.4337
 8755,2.39370435,-1.21605648\C,0,2.3148219,0.65775415,-3.08014632\H,0,2
 .26119464,1.7255481,-3.3373501\H,0,1.39695365,0.19967957,-3.46239159\C
 ,0,6.09884771,-0.11796547,-4.07963449\C,0,3.7041351,1.27906623,0.38989
 229\H,0,4.3756401,2.04641636,0.78199037\H,0,4.00120719,0.34185014,0.87
 218314\C,0,3.51700308,0.01732654,-3.80008767\H,0,3.47194708,-1.0680330
 2,-3.65931963\H,0,3.40581316,0.18619739,-4.87691428\C,0,2.20653398,1.5
 9663307,0.65110288\H,0,1.79396952,0.91902339,1.4080873\H,0,2.07219333,
 2.61023511,1.04263967\C,0,6.32122218,1.22941019,-1.35143182\H,0,6.1265
 9973,2.31033387,-1.30415915\C,0,-0.01944014,0.97243266,-0.51346403\H,0
 ,0.,0.,0.\C,0,2.30585992,-0.9566818,-1.12032714\H,0,3.10762899,-1.5750
 6883,-1.53229686\H,0,2.33687423,-1.07144613,-0.03281721\H,0,1.3589513,
 -1.38405793,-1.46711795\C,0,7.41911335,0.35527953,-3.46188719\C,0,6.07
 103694,0.33338161,-5.57364765\H,0,5.91706319,1.42096444,-5.60076074\H,
 0,5.20627696,-0.11502579,-6.07404323\C,0,7.47991418,0.97613883,-2.2747
 2392\H,0,8.44251088,1.32118371,-1.89734081\C,0,6.03822447,-1.66718809,
 -4.00462378\H,0,5.20033513,-2.06218907,-4.58726885\H,0,6.94902022,-2.1
 2483852,-4.39951071\H,0,5.92763349,-2.00988526,-2.97126519\C,0,8.68609
 411,0.10385815,-4.25775892\H,0,9.5423743,0.57571417,-3.76596776\H,0,8.
 8966124,-0.97745273,-4.29025021\C,0,7.34092954,0.00667997,-6.37464305\
 H,0,7.46880865,-1.08219987,-6.46618948\H,0,7.25097675,0.39816159,-7.39
 429808\C,0,-0.80505169,1.92208676,0.43217158\H,0,-1.7908155,1.46854489
 ,0.59976391\H,0,-0.31641677,1.94343413,1.41456073\C,0,8.58181722,0.599
 42475,-5.70775047\H,0,8.50099077,1.69327797,-5.70523214\C,0,-0.7901127
 3,0.77644309,-1.83276697\H,0,-0.71487029,1.65396513,-2.48470051\H,0,-1
 .85401014,0.60247917,-1.63217139\H,0,-0.42327553,-0.0843357,-2.3975365
 2\C,0,-0.99037014,3.36954336,-0.05353154\H,0,-0.00827418,3.81405696,-0
 .25861847\H,0,-1.52815736,3.38024994,-1.00941085\C,0,-1.71024439,4.282
 42591,0.95764973\H,0,-1.69105632,5.3136005,0.57445861\H,0,-1.12785226,
 4.29591575,1.89035495\C,0,-3.17260451,3.92782835,1.30244004\H,0,-3.195
 75467,2.90283998,1.69912225\C,0,-4.09397719,3.97894315,0.07333779\H,0,
 -4.0892544,4.98113533,-0.37497214\H,0,-5.12828596,3.74425438,0.3496036
 \H,0,-3.79069121,3.26680651,-0.7008887\C,0,-3.69670386,4.85950025,2.40
 714867\H,0,-3.70147668,5.90364418,2.0685138\H,0,-4.72185682,4.59922877
 ,2.69456872\H,0,-3.07191046,4.80447357,3.30603383\\Version=EM64L-G09Re
 vD.01\HF=-1198.9268716\RMSD=4.820e-07\Dipole=-0.4361507,-0.9406848,-0.
 3588921\Quadrupole=-9.7536497,7.2131881,2.5404616,-14.930996,2.84683,5
 .1356694\PG=C01 [X(C27H46O2)]\\@


 I (ERNEST RUTHERFORD) CAME INTO THE ROOM, WHICH WAS HALF DARK, AND PRESENTLY
 SPOTTED LORD KELVIN IN THE AUDIENCE AND REALIZED I WAS IN TROUBLE AT
 THE LAST PART OF MY SPEECH DEALING THE AGE OF THE EARTH, WHERE MY VIEWS
 CONFLICTED WITH HIS.  TO MY RELIEF KELVIN FELL FAST ASLEEP, BUT AS I CAME
 TO THE IMPORTANT POINT, I SAW THE OLD BIRD SIT UP AND COCK A BALEFUL GLANCE
 AT ME! THEN A SUDDEN INSPIRATION CAME AND I SAID LORD KELVIN HAD LIMITED
 THE AGE OF THE EARTH PROVIDED NO NEW SOURCE WAS DISCOVERED. THAT
 PROPHETIC UTTERANCE REFERS TO WHAT WE ARE NOW CONSIDERING TONIGHT, RADIUM!
 BEHOLD!  THE OLD BOY BEAMED UPON ME.
 Job cpu time:       0 days  0 hours 10 minutes 57.8 seconds.
 File lengths (MBytes):  RWF=    150 Int=      0 D2E=      0 Chk=     11 Scr=      1
 Normal termination of Gaussian 09 at Thu May 18 13:30:30 2017.
