 Entering Gaussian System, Link 0=/home/michal/g09/g09
 Input=JOB2-gau_m1-8-3.com
 Output=JOB2-gau_m1-8-3.log
 Initial command:
 /home/michal/g09/l1.exe "/home/michal/gauss_scratch/Gau-22701.inp" -scrdir="/home/michal/gauss_scratch/"
 Entering Link 1 = /home/michal/g09/l1.exe PID=     22702.
  
 Copyright (c) 1988,1990,1992,1993,1995,1998,2003,2009,2013,
            Gaussian, Inc.  All Rights Reserved.
  
 This is part of the Gaussian(R) 09 program.  It is based on
 the Gaussian(R) 03 system (copyright 2003, Gaussian, Inc.),
 the Gaussian(R) 98 system (copyright 1998, Gaussian, Inc.),
 the Gaussian(R) 94 system (copyright 1995, Gaussian, Inc.),
 the Gaussian 92(TM) system (copyright 1992, Gaussian, Inc.),
 the Gaussian 90(TM) system (copyright 1990, Gaussian, Inc.),
 the Gaussian 88(TM) system (copyright 1988, Gaussian, Inc.),
 the Gaussian 86(TM) system (copyright 1986, Carnegie Mellon
 University), and the Gaussian 82(TM) system (copyright 1983,
 Carnegie Mellon University). Gaussian is a federally registered
 trademark of Gaussian, Inc.
  
 This software contains proprietary and confidential information,
 including trade secrets, belonging to Gaussian, Inc.
  
 This software is provided under written license and may be
 used, copied, transmitted, or stored only in accord with that
 written license.
  
 The following legend is applicable only to US Government
 contracts under FAR:
  
                    RESTRICTED RIGHTS LEGEND
  
 Use, reproduction and disclosure by the US Government is
 subject to restrictions as set forth in subparagraphs (a)
 and (c) of the Commercial Computer Software - Restricted
 Rights clause in FAR 52.227-19.
  
 Gaussian, Inc.
 340 Quinnipiac St., Bldg. 40, Wallingford CT 06492
  
  
 ---------------------------------------------------------------
 Warning -- This program may not be used in any manner that
 competes with the business of Gaussian, Inc. or will provide
 assistance to any competitor of Gaussian, Inc.  The licensee
 of this program is prohibited from giving any competitor of
 Gaussian, Inc. access to this program.  By using this program,
 the user acknowledges that Gaussian, Inc. is engaged in the
 business of creating and licensing software in the field of
 computational chemistry and represents and warrants to the
 licensee that it is not a competitor of Gaussian, Inc. and that
 it will not use this program in any manner prohibited above.
 ---------------------------------------------------------------
  

 Cite this work as:
 Gaussian 09, Revision D.01,
 M. J. Frisch, G. W. Trucks, H. B. Schlegel, G. E. Scuseria, 
 M. A. Robb, J. R. Cheeseman, G. Scalmani, V. Barone, B. Mennucci, 
 G. A. Petersson, H. Nakatsuji, M. Caricato, X. Li, H. P. Hratchian, 
 A. F. Izmaylov, J. Bloino, G. Zheng, J. L. Sonnenberg, M. Hada, 
 M. Ehara, K. Toyota, R. Fukuda, J. Hasegawa, M. Ishida, T. Nakajima, 
 Y. Honda, O. Kitao, H. Nakai, T. Vreven, J. A. Montgomery, Jr., 
 J. E. Peralta, F. Ogliaro, M. Bearpark, J. J. Heyd, E. Brothers, 
 K. N. Kudin, V. N. Staroverov, T. Keith, R. Kobayashi, J. Normand, 
 K. Raghavachari, A. Rendell, J. C. Burant, S. S. Iyengar, J. Tomasi, 
 M. Cossi, N. Rega, J. M. Millam, M. Klene, J. E. Knox, J. B. Cross, 
 V. Bakken, C. Adamo, J. Jaramillo, R. Gomperts, R. E. Stratmann, 
 O. Yazyev, A. J. Austin, R. Cammi, C. Pomelli, J. W. Ochterski, 
 R. L. Martin, K. Morokuma, V. G. Zakrzewski, G. A. Voth, 
 P. Salvador, J. J. Dannenberg, S. Dapprich, A. D. Daniels, 
 O. Farkas, J. B. Foresman, J. V. Ortiz, J. Cioslowski, 
 and D. J. Fox, Gaussian, Inc., Wallingford CT, 2013.
 
 ******************************************
 Gaussian 09:  EM64L-G09RevD.01 24-Apr-2013
                18-May-2017 
 ******************************************
 %Mem=256MB
 %NProc=12
 Will use up to   12 processors via shared memory.
 ----------------------------------------------------------------------
 #P HF/6-31G* SCF(Conver=6) NoSymm Test Pop=mk IOp(6/33=2) GFInput GFPr
 int
 ----------------------------------------------------------------------
 1/38=1/1;
 2/12=2,15=1,17=6,18=5,40=1/2;
 3/5=1,6=6,7=1,11=9,16=1,24=110,25=1,30=1/1,2,3;
 4//1;
 5/5=2,6=6,38=5/2;
 6/7=2,8=2,9=2,10=2,15=8,20=1,28=1,33=2/1,2;
 99/5=1,9=1/99;
 Leave Link    1 at Thu May 18 12:49:06 2017, MaxMem=    33554432 cpu:         0.6
 (Enter /home/michal/g09/l101.exe)
 ----------------------------------------------
 MEP - Input generated by R.E.D.-III.x MOLECULE
 ----------------------------------------------
 Symbolic Z-matrix:
 Charge =  0 Multiplicity = 1
 O                     5.54987   4.53424   0. 
 H                     5.22026   4.59682  -0.90761 
 O                     0.        0.        0. 
 H                    -0.1551   -0.10331  -0.94944 
 C                     8.72489   1.27448  -0.13675 
 C                     7.69791   2.29476   0.42161 
 H                     7.58098   2.02957   1.48649 
 C                     6.28667   2.17799  -0.17854 
 H                     6.32128   2.4043   -1.25431 
 C                     5.75405   0.72977   0.03114 
 H                     5.6221    0.62102   1.12031 
 C                     9.98405   1.69189   0.68558 
 H                     9.74667   1.37714   1.71235 
 C                     8.19494  -0.13482   0.17556 
 H                     8.17005  -0.26906   1.26668 
 H                     8.86463  -0.91022  -0.22009 
 C                     4.33043   0.50202  -0.58863 
 C                     8.45187   3.6394    0.39171 
 H                     8.05299   4.35234   1.11714 
 H                     8.35268   4.11794  -0.58821 
 C                     6.78074  -0.34851  -0.39823 
 H                     6.84601  -0.38477  -1.49057 
 H                     6.42286  -1.33559  -0.08564 
 C                     9.93514   3.25152   0.67863 
 H                     10.59294   3.66938  -0.08868 
 H                     10.28121   3.65768   1.63495 
 C                     5.31836   3.18946   0.46385 
 H                     5.53369   3.25313   1.54003 
 C                     11.3472   1.01656   0.35568 
 H                     11.11837   0.        0. 
 C                     8.95038   1.43398  -1.65663 
 H                     8.03299   1.27201  -2.22851 
 H                     9.31812   2.43012  -1.91738 
 H                     9.68461   0.70365  -2.01347 
 C                     3.40946   1.67187  -0.22369 
 C                     3.72377  -0.80207   0.01801 
 H                     3.87076  -0.77497   1.10657 
 H                     4.28261  -1.66923  -0.34924 
 C                     3.872     2.83014   0.26925 
 H                     3.1689    3.61655   0.5436 
 C                     4.38959   0.37611  -2.13479 
 H                     4.88551  -0.55002  -2.44117 
 H                     3.38955   0.36641  -2.57601 
 H                     4.93      1.21683  -2.58049 
 C                     1.91999   1.47124  -0.43079 
 H                     1.36428   2.32983  -0.04127 
 H                     1.69835   1.41384  -1.50881 
 C                     2.22766  -1.01389  -0.2612 
 H                     2.05405  -1.16025  -1.33773 
 H                     1.87938  -1.92482   0.23873 
 C                     12.1881   1.70708  -0.745 
 H                     11.53825   2.09221  -1.5373 
 H                     12.69119   2.58507  -0.31529 
 C                     1.40186   0.17946   0.21839 
 H                     1.4945    0.26658   1.30783 
 C                     12.17847   0.86502   1.64636 
 H                     12.38146   1.8454    2.09512 
 H                     13.14265   0.38177   1.45841 
 H                     11.64735   0.26175   2.39104 
 C                     13.24137   0.79467  -1.39613 
 H                     13.9096   0.38961  -0.62684 
 H                     12.72993  -0.06793  -1.84459 
 C                     14.06906   1.52565  -2.46536 
 H                     14.55771   2.39279  -1.99795 
 H                     13.38336   1.93653  -3.22066 
 C                     15.15067   0.69403  -3.19367 
 H                     15.6273   1.38059  -3.90902 
 C                     14.55679  -0.46616  -4.00973 
 H                     14.11405  -1.23138  -3.36172 
 H                     15.33098  -0.95614  -4.61123 
 H                     13.77557  -0.11407  -4.69379 
 C                     16.25336   0.19451  -2.24536 
 H                     15.87082  -0.54791  -1.53544 
 H                     17.0655  -0.28022  -2.80778 
 H                     16.68577   1.01915  -1.66652 
 
 NAtoms=     75 NQM=       75 NQMF=       0 NMMI=      0 NMMIF=      0
                NMic=       0 NMicF=      0.
                    Isotopes and Nuclear Properties:
 (Nuclear quadrupole moments (NQMom) in fm**2, nuclear magnetic moments (NMagM)
  in nuclear magnetons)

  Atom         1           2           3           4           5           6           7           8           9          10
 IAtWgt=          16           1          16           1          12          12           1          12           1          12
 AtmWgt=  15.9949146   1.0078250  15.9949146   1.0078250  12.0000000  12.0000000   1.0078250  12.0000000   1.0078250  12.0000000
 NucSpn=           0           1           0           1           0           0           1           0           1           0
 AtZEff=   0.0000000   0.0000000   0.0000000   0.0000000   0.0000000   0.0000000   0.0000000   0.0000000   0.0000000   0.0000000
 NQMom=    0.0000000   0.0000000   0.0000000   0.0000000   0.0000000   0.0000000   0.0000000   0.0000000   0.0000000   0.0000000
 NMagM=    0.0000000   2.7928460   0.0000000   2.7928460   0.0000000   0.0000000   2.7928460   0.0000000   2.7928460   0.0000000
 AtZNuc=   8.0000000   1.0000000   8.0000000   1.0000000   6.0000000   6.0000000   1.0000000   6.0000000   1.0000000   6.0000000

  Atom        11          12          13          14          15          16          17          18          19          20
 IAtWgt=           1          12           1          12           1           1          12          12           1           1
 AtmWgt=   1.0078250  12.0000000   1.0078250  12.0000000   1.0078250   1.0078250  12.0000000  12.0000000   1.0078250   1.0078250
 NucSpn=           1           0           1           0           1           1           0           0           1           1
 AtZEff=   0.0000000   0.0000000   0.0000000   0.0000000   0.0000000   0.0000000   0.0000000   0.0000000   0.0000000   0.0000000
 NQMom=    0.0000000   0.0000000   0.0000000   0.0000000   0.0000000   0.0000000   0.0000000   0.0000000   0.0000000   0.0000000
 NMagM=    2.7928460   0.0000000   2.7928460   0.0000000   2.7928460   2.7928460   0.0000000   0.0000000   2.7928460   2.7928460
 AtZNuc=   1.0000000   6.0000000   1.0000000   6.0000000   1.0000000   1.0000000   6.0000000   6.0000000   1.0000000   1.0000000

  Atom        21          22          23          24          25          26          27          28          29          30
 IAtWgt=          12           1           1          12           1           1          12           1          12           1
 AtmWgt=  12.0000000   1.0078250   1.0078250  12.0000000   1.0078250   1.0078250  12.0000000   1.0078250  12.0000000   1.0078250
 NucSpn=           0           1           1           0           1           1           0           1           0           1
 AtZEff=   0.0000000   0.0000000   0.0000000   0.0000000   0.0000000   0.0000000   0.0000000   0.0000000   0.0000000   0.0000000
 NQMom=    0.0000000   0.0000000   0.0000000   0.0000000   0.0000000   0.0000000   0.0000000   0.0000000   0.0000000   0.0000000
 NMagM=    0.0000000   2.7928460   2.7928460   0.0000000   2.7928460   2.7928460   0.0000000   2.7928460   0.0000000   2.7928460
 AtZNuc=   6.0000000   1.0000000   1.0000000   6.0000000   1.0000000   1.0000000   6.0000000   1.0000000   6.0000000   1.0000000

  Atom        31          32          33          34          35          36          37          38          39          40
 IAtWgt=          12           1           1           1          12          12           1           1          12           1
 AtmWgt=  12.0000000   1.0078250   1.0078250   1.0078250  12.0000000  12.0000000   1.0078250   1.0078250  12.0000000   1.0078250
 NucSpn=           0           1           1           1           0           0           1           1           0           1
 AtZEff=   0.0000000   0.0000000   0.0000000   0.0000000   0.0000000   0.0000000   0.0000000   0.0000000   0.0000000   0.0000000
 NQMom=    0.0000000   0.0000000   0.0000000   0.0000000   0.0000000   0.0000000   0.0000000   0.0000000   0.0000000   0.0000000
 NMagM=    0.0000000   2.7928460   2.7928460   2.7928460   0.0000000   0.0000000   2.7928460   2.7928460   0.0000000   2.7928460
 AtZNuc=   6.0000000   1.0000000   1.0000000   1.0000000   6.0000000   6.0000000   1.0000000   1.0000000   6.0000000   1.0000000

  Atom        41          42          43          44          45          46          47          48          49          50
 IAtWgt=          12           1           1           1          12           1           1          12           1           1
 AtmWgt=  12.0000000   1.0078250   1.0078250   1.0078250  12.0000000   1.0078250   1.0078250  12.0000000   1.0078250   1.0078250
 NucSpn=           0           1           1           1           0           1           1           0           1           1
 AtZEff=   0.0000000   0.0000000   0.0000000   0.0000000   0.0000000   0.0000000   0.0000000   0.0000000   0.0000000   0.0000000
 NQMom=    0.0000000   0.0000000   0.0000000   0.0000000   0.0000000   0.0000000   0.0000000   0.0000000   0.0000000   0.0000000
 NMagM=    0.0000000   2.7928460   2.7928460   2.7928460   0.0000000   2.7928460   2.7928460   0.0000000   2.7928460   2.7928460
 AtZNuc=   6.0000000   1.0000000   1.0000000   1.0000000   6.0000000   1.0000000   1.0000000   6.0000000   1.0000000   1.0000000

  Atom        51          52          53          54          55          56          57          58          59          60
 IAtWgt=          12           1           1          12           1          12           1           1           1          12
 AtmWgt=  12.0000000   1.0078250   1.0078250  12.0000000   1.0078250  12.0000000   1.0078250   1.0078250   1.0078250  12.0000000
 NucSpn=           0           1           1           0           1           0           1           1           1           0
 AtZEff=   0.0000000   0.0000000   0.0000000   0.0000000   0.0000000   0.0000000   0.0000000   0.0000000   0.0000000   0.0000000
 NQMom=    0.0000000   0.0000000   0.0000000   0.0000000   0.0000000   0.0000000   0.0000000   0.0000000   0.0000000   0.0000000
 NMagM=    0.0000000   2.7928460   2.7928460   0.0000000   2.7928460   0.0000000   2.7928460   2.7928460   2.7928460   0.0000000
 AtZNuc=   6.0000000   1.0000000   1.0000000   6.0000000   1.0000000   6.0000000   1.0000000   1.0000000   1.0000000   6.0000000

  Atom        61          62          63          64          65          66          67          68          69          70
 IAtWgt=           1           1          12           1           1          12           1          12           1           1
 AtmWgt=   1.0078250   1.0078250  12.0000000   1.0078250   1.0078250  12.0000000   1.0078250  12.0000000   1.0078250   1.0078250
 NucSpn=           1           1           0           1           1           0           1           0           1           1
 AtZEff=   0.0000000   0.0000000   0.0000000   0.0000000   0.0000000   0.0000000   0.0000000   0.0000000   0.0000000   0.0000000
 NQMom=    0.0000000   0.0000000   0.0000000   0.0000000   0.0000000   0.0000000   0.0000000   0.0000000   0.0000000   0.0000000
 NMagM=    2.7928460   2.7928460   0.0000000   2.7928460   2.7928460   0.0000000   2.7928460   0.0000000   2.7928460   2.7928460
 AtZNuc=   1.0000000   1.0000000   6.0000000   1.0000000   1.0000000   6.0000000   1.0000000   6.0000000   1.0000000   1.0000000

  Atom        71          72          73          74          75
 IAtWgt=           1          12           1           1           1
 AtmWgt=   1.0078250  12.0000000   1.0078250   1.0078250   1.0078250
 NucSpn=           1           0           1           1           1
 AtZEff=   0.0000000   0.0000000   0.0000000   0.0000000   0.0000000
 NQMom=    0.0000000   0.0000000   0.0000000   0.0000000   0.0000000
 NMagM=    2.7928460   0.0000000   2.7928460   2.7928460   2.7928460
 AtZNuc=   1.0000000   6.0000000   1.0000000   1.0000000   1.0000000
 Leave Link  101 at Thu May 18 12:49:06 2017, MaxMem=    33554432 cpu:         1.0
 (Enter /home/michal/g09/l202.exe)
 Symmetry turned off by external request.
 Stoichiometry    C27H46O2
 Framework group  C1[X(C27H46O2)]
 Deg. of freedom   219
 Full point group                 C1      NOp   1
                          Input orientation:                          
 ---------------------------------------------------------------------
 Center     Atomic      Atomic             Coordinates (Angstroms)
 Number     Number       Type             X           Y           Z
 ---------------------------------------------------------------------
      1          8           0        5.549870    4.534237    0.000000
      2          1           0        5.220259    4.596822   -0.907610
      3          8           0        0.000000    0.000000    0.000000
      4          1           0       -0.155097   -0.103309   -0.949437
      5          6           0        8.724891    1.274485   -0.136755
      6          6           0        7.697909    2.294756    0.421607
      7          1           0        7.580982    2.029570    1.486489
      8          6           0        6.286672    2.177994   -0.178542
      9          1           0        6.321276    2.404298   -1.254314
     10          6           0        5.754049    0.729765    0.031144
     11          1           0        5.622101    0.621025    1.120314
     12          6           0        9.984053    1.691895    0.685584
     13          1           0        9.746671    1.377142    1.712354
     14          6           0        8.194936   -0.134823    0.175564
     15          1           0        8.170052   -0.269059    1.266685
     16          1           0        8.864630   -0.910215   -0.220094
     17          6           0        4.330430    0.502017   -0.588633
     18          6           0        8.451868    3.639403    0.391713
     19          1           0        8.052990    4.352344    1.117142
     20          1           0        8.352678    4.117938   -0.588209
     21          6           0        6.780735   -0.348506   -0.398228
     22          1           0        6.846005   -0.384771   -1.490565
     23          1           0        6.422855   -1.335592   -0.085637
     24          6           0        9.935139    3.251519    0.678630
     25          1           0       10.592937    3.669385   -0.088681
     26          1           0       10.281215    3.657680    1.634952
     27          6           0        5.318365    3.189460    0.463847
     28          1           0        5.533695    3.253135    1.540028
     29          6           0       11.347199    1.016562    0.355681
     30          1           0       11.118371    0.000000    0.000000
     31          6           0        8.950382    1.433980   -1.656630
     32          1           0        8.032990    1.272006   -2.228510
     33          1           0        9.318120    2.430120   -1.917377
     34          1           0        9.684614    0.703647   -2.013466
     35          6           0        3.409462    1.671869   -0.223694
     36          6           0        3.723770   -0.802070    0.018006
     37          1           0        3.870764   -0.774972    1.106575
     38          1           0        4.282609   -1.669229   -0.349243
     39          6           0        3.872000    2.830140    0.269255
     40          1           0        3.168896    3.616553    0.543595
     41          6           0        4.389590    0.376107   -2.134793
     42          1           0        4.885510   -0.550024   -2.441173
     43          1           0        3.389553    0.366411   -2.576015
     44          1           0        4.929996    1.216826   -2.580486
     45          6           0        1.919987    1.471240   -0.430793
     46          1           0        1.364284    2.329826   -0.041274
     47          1           0        1.698353    1.413838   -1.508806
     48          6           0        2.227661   -1.013886   -0.261200
     49          1           0        2.054050   -1.160252   -1.337728
     50          1           0        1.879381   -1.924823    0.238735
     51          6           0       12.188099    1.707079   -0.745000
     52          1           0       11.538253    2.092210   -1.537305
     53          1           0       12.691190    2.585067   -0.315295
     54          6           0        1.401856    0.179464    0.218391
     55          1           0        1.494498    0.266576    1.307826
     56          6           0       12.178466    0.865019    1.646358
     57          1           0       12.381462    1.845405    2.095124
     58          1           0       13.142655    0.381766    1.458414
     59          1           0       11.647345    0.261753    2.391041
     60          6           0       13.241367    0.794668   -1.396126
     61          1           0       13.909604    0.389608   -0.626842
     62          1           0       12.729932   -0.067925   -1.844590
     63          6           0       14.069062    1.525650   -2.465364
     64          1           0       14.557707    2.392790   -1.997954
     65          1           0       13.383364    1.936535   -3.220657
     66          6           0       15.150673    0.694027   -3.193666
     67          1           0       15.627296    1.380595   -3.909024
     68          6           0       14.556786   -0.466158   -4.009726
     69          1           0       14.114051   -1.231379   -3.361716
     70          1           0       15.330976   -0.956137   -4.611233
     71          1           0       13.775567   -0.114074   -4.693788
     72          6           0       16.253359    0.194508   -2.245360
     73          1           0       15.870818   -0.547906   -1.535443
     74          1           0       17.065497   -0.280215   -2.807777
     75          1           0       16.685767    1.019148   -1.666515
 ---------------------------------------------------------------------
 Rotational constants (GHZ):      0.3714331      0.0583692      0.0549340
 Leave Link  202 at Thu May 18 12:49:06 2017, MaxMem=    33554432 cpu:         0.0
 (Enter /home/michal/g09/l301.exe)
 Standard basis: 6-31G(d) (6D, 7F)
 Ernie: Thresh=  0.10000D-02 Tol=  0.10000D-05 Strict=F.
 AO basis set in the form of general basis input (Overlap normalization):
      1 0
 S   6 1.00       0.000000000000
      0.5484671660D+04  0.1831074430D-02
      0.8252349460D+03  0.1395017220D-01
      0.1880469580D+03  0.6844507810D-01
      0.5296450000D+02  0.2327143360D+00
      0.1689757040D+02  0.4701928980D+00
      0.5799635340D+01  0.3585208530D+00
 SP   3 1.00       0.000000000000
      0.1553961625D+02 -0.1107775495D+00  0.7087426823D-01
      0.3599933586D+01 -0.1480262627D+00  0.3397528391D+00
      0.1013761750D+01  0.1130767015D+01  0.7271585773D+00
 SP   1 1.00       0.000000000000
      0.2700058226D+00  0.1000000000D+01  0.1000000000D+01
 D   1 1.00       0.000000000000
      0.8000000000D+00  0.1000000000D+01
 ****
      2 0
 S   3 1.00       0.000000000000
      0.1873113696D+02  0.3349460434D-01
      0.2825394365D+01  0.2347269535D+00
      0.6401216923D+00  0.8137573261D+00
 S   1 1.00       0.000000000000
      0.1612777588D+00  0.1000000000D+01
 ****
      3 0
 S   6 1.00       0.000000000000
      0.5484671660D+04  0.1831074430D-02
      0.8252349460D+03  0.1395017220D-01
      0.1880469580D+03  0.6844507810D-01
      0.5296450000D+02  0.2327143360D+00
      0.1689757040D+02  0.4701928980D+00
      0.5799635340D+01  0.3585208530D+00
 SP   3 1.00       0.000000000000
      0.1553961625D+02 -0.1107775495D+00  0.7087426823D-01
      0.3599933586D+01 -0.1480262627D+00  0.3397528391D+00
      0.1013761750D+01  0.1130767015D+01  0.7271585773D+00
 SP   1 1.00       0.000000000000
      0.2700058226D+00  0.1000000000D+01  0.1000000000D+01
 D   1 1.00       0.000000000000
      0.8000000000D+00  0.1000000000D+01
 ****
      4 0
 S   3 1.00       0.000000000000
      0.1873113696D+02  0.3349460434D-01
      0.2825394365D+01  0.2347269535D+00
      0.6401216923D+00  0.8137573261D+00
 S   1 1.00       0.000000000000
      0.1612777588D+00  0.1000000000D+01
 ****
      5 0
 S   6 1.00       0.000000000000
      0.3047524880D+04  0.1834737132D-02
      0.4573695180D+03  0.1403732281D-01
      0.1039486850D+03  0.6884262226D-01
      0.2921015530D+02  0.2321844432D+00
      0.9286662960D+01  0.4679413484D+00
      0.3163926960D+01  0.3623119853D+00
 SP   3 1.00       0.000000000000
      0.7868272350D+01 -0.1193324198D+00  0.6899906659D-01
      0.1881288540D+01 -0.1608541517D+00  0.3164239610D+00
      0.5442492580D+00  0.1143456438D+01  0.7443082909D+00
 SP   1 1.00       0.000000000000
      0.1687144782D+00  0.1000000000D+01  0.1000000000D+01
 D   1 1.00       0.000000000000
      0.8000000000D+00  0.1000000000D+01
 ****
      6 0
 S   6 1.00       0.000000000000
      0.3047524880D+04  0.1834737132D-02
      0.4573695180D+03  0.1403732281D-01
      0.1039486850D+03  0.6884262226D-01
      0.2921015530D+02  0.2321844432D+00
      0.9286662960D+01  0.4679413484D+00
      0.3163926960D+01  0.3623119853D+00
 SP   3 1.00       0.000000000000
      0.7868272350D+01 -0.1193324198D+00  0.6899906659D-01
      0.1881288540D+01 -0.1608541517D+00  0.3164239610D+00
      0.5442492580D+00  0.1143456438D+01  0.7443082909D+00
 SP   1 1.00       0.000000000000
      0.1687144782D+00  0.1000000000D+01  0.1000000000D+01
 D   1 1.00       0.000000000000
      0.8000000000D+00  0.1000000000D+01
 ****
      7 0
 S   3 1.00       0.000000000000
      0.1873113696D+02  0.3349460434D-01
      0.2825394365D+01  0.2347269535D+00
      0.6401216923D+00  0.8137573261D+00
 S   1 1.00       0.000000000000
      0.1612777588D+00  0.1000000000D+01
 ****
      8 0
 S   6 1.00       0.000000000000
      0.3047524880D+04  0.1834737132D-02
      0.4573695180D+03  0.1403732281D-01
      0.1039486850D+03  0.6884262226D-01
      0.2921015530D+02  0.2321844432D+00
      0.9286662960D+01  0.4679413484D+00
      0.3163926960D+01  0.3623119853D+00
 SP   3 1.00       0.000000000000
      0.7868272350D+01 -0.1193324198D+00  0.6899906659D-01
      0.1881288540D+01 -0.1608541517D+00  0.3164239610D+00
      0.5442492580D+00  0.1143456438D+01  0.7443082909D+00
 SP   1 1.00       0.000000000000
      0.1687144782D+00  0.1000000000D+01  0.1000000000D+01
 D   1 1.00       0.000000000000
      0.8000000000D+00  0.1000000000D+01
 ****
      9 0
 S   3 1.00       0.000000000000
      0.1873113696D+02  0.3349460434D-01
      0.2825394365D+01  0.2347269535D+00
      0.6401216923D+00  0.8137573261D+00
 S   1 1.00       0.000000000000
      0.1612777588D+00  0.1000000000D+01
 ****
     10 0
 S   6 1.00       0.000000000000
      0.3047524880D+04  0.1834737132D-02
      0.4573695180D+03  0.1403732281D-01
      0.1039486850D+03  0.6884262226D-01
      0.2921015530D+02  0.2321844432D+00
      0.9286662960D+01  0.4679413484D+00
      0.3163926960D+01  0.3623119853D+00
 SP   3 1.00       0.000000000000
      0.7868272350D+01 -0.1193324198D+00  0.6899906659D-01
      0.1881288540D+01 -0.1608541517D+00  0.3164239610D+00
      0.5442492580D+00  0.1143456438D+01  0.7443082909D+00
 SP   1 1.00       0.000000000000
      0.1687144782D+00  0.1000000000D+01  0.1000000000D+01
 D   1 1.00       0.000000000000
      0.8000000000D+00  0.1000000000D+01
 ****
     11 0
 S   3 1.00       0.000000000000
      0.1873113696D+02  0.3349460434D-01
      0.2825394365D+01  0.2347269535D+00
      0.6401216923D+00  0.8137573261D+00
 S   1 1.00       0.000000000000
      0.1612777588D+00  0.1000000000D+01
 ****
     12 0
 S   6 1.00       0.000000000000
      0.3047524880D+04  0.1834737132D-02
      0.4573695180D+03  0.1403732281D-01
      0.1039486850D+03  0.6884262226D-01
      0.2921015530D+02  0.2321844432D+00
      0.9286662960D+01  0.4679413484D+00
      0.3163926960D+01  0.3623119853D+00
 SP   3 1.00       0.000000000000
      0.7868272350D+01 -0.1193324198D+00  0.6899906659D-01
      0.1881288540D+01 -0.1608541517D+00  0.3164239610D+00
      0.5442492580D+00  0.1143456438D+01  0.7443082909D+00
 SP   1 1.00       0.000000000000
      0.1687144782D+00  0.1000000000D+01  0.1000000000D+01
 D   1 1.00       0.000000000000
      0.8000000000D+00  0.1000000000D+01
 ****
     13 0
 S   3 1.00       0.000000000000
      0.1873113696D+02  0.3349460434D-01
      0.2825394365D+01  0.2347269535D+00
      0.6401216923D+00  0.8137573261D+00
 S   1 1.00       0.000000000000
      0.1612777588D+00  0.1000000000D+01
 ****
     14 0
 S   6 1.00       0.000000000000
      0.3047524880D+04  0.1834737132D-02
      0.4573695180D+03  0.1403732281D-01
      0.1039486850D+03  0.6884262226D-01
      0.2921015530D+02  0.2321844432D+00
      0.9286662960D+01  0.4679413484D+00
      0.3163926960D+01  0.3623119853D+00
 SP   3 1.00       0.000000000000
      0.7868272350D+01 -0.1193324198D+00  0.6899906659D-01
      0.1881288540D+01 -0.1608541517D+00  0.3164239610D+00
      0.5442492580D+00  0.1143456438D+01  0.7443082909D+00
 SP   1 1.00       0.000000000000
      0.1687144782D+00  0.1000000000D+01  0.1000000000D+01
 D   1 1.00       0.000000000000
      0.8000000000D+00  0.1000000000D+01
 ****
     15 0
 S   3 1.00       0.000000000000
      0.1873113696D+02  0.3349460434D-01
      0.2825394365D+01  0.2347269535D+00
      0.6401216923D+00  0.8137573261D+00
 S   1 1.00       0.000000000000
      0.1612777588D+00  0.1000000000D+01
 ****
     16 0
 S   3 1.00       0.000000000000
      0.1873113696D+02  0.3349460434D-01
      0.2825394365D+01  0.2347269535D+00
      0.6401216923D+00  0.8137573261D+00
 S   1 1.00       0.000000000000
      0.1612777588D+00  0.1000000000D+01
 ****
     17 0
 S   6 1.00       0.000000000000
      0.3047524880D+04  0.1834737132D-02
      0.4573695180D+03  0.1403732281D-01
      0.1039486850D+03  0.6884262226D-01
      0.2921015530D+02  0.2321844432D+00
      0.9286662960D+01  0.4679413484D+00
      0.3163926960D+01  0.3623119853D+00
 SP   3 1.00       0.000000000000
      0.7868272350D+01 -0.1193324198D+00  0.6899906659D-01
      0.1881288540D+01 -0.1608541517D+00  0.3164239610D+00
      0.5442492580D+00  0.1143456438D+01  0.7443082909D+00
 SP   1 1.00       0.000000000000
      0.1687144782D+00  0.1000000000D+01  0.1000000000D+01
 D   1 1.00       0.000000000000
      0.8000000000D+00  0.1000000000D+01
 ****
     18 0
 S   6 1.00       0.000000000000
      0.3047524880D+04  0.1834737132D-02
      0.4573695180D+03  0.1403732281D-01
      0.1039486850D+03  0.6884262226D-01
      0.2921015530D+02  0.2321844432D+00
      0.9286662960D+01  0.4679413484D+00
      0.3163926960D+01  0.3623119853D+00
 SP   3 1.00       0.000000000000
      0.7868272350D+01 -0.1193324198D+00  0.6899906659D-01
      0.1881288540D+01 -0.1608541517D+00  0.3164239610D+00
      0.5442492580D+00  0.1143456438D+01  0.7443082909D+00
 SP   1 1.00       0.000000000000
      0.1687144782D+00  0.1000000000D+01  0.1000000000D+01
 D   1 1.00       0.000000000000
      0.8000000000D+00  0.1000000000D+01
 ****
     19 0
 S   3 1.00       0.000000000000
      0.1873113696D+02  0.3349460434D-01
      0.2825394365D+01  0.2347269535D+00
      0.6401216923D+00  0.8137573261D+00
 S   1 1.00       0.000000000000
      0.1612777588D+00  0.1000000000D+01
 ****
     20 0
 S   3 1.00       0.000000000000
      0.1873113696D+02  0.3349460434D-01
      0.2825394365D+01  0.2347269535D+00
      0.6401216923D+00  0.8137573261D+00
 S   1 1.00       0.000000000000
      0.1612777588D+00  0.1000000000D+01
 ****
     21 0
 S   6 1.00       0.000000000000
      0.3047524880D+04  0.1834737132D-02
      0.4573695180D+03  0.1403732281D-01
      0.1039486850D+03  0.6884262226D-01
      0.2921015530D+02  0.2321844432D+00
      0.9286662960D+01  0.4679413484D+00
      0.3163926960D+01  0.3623119853D+00
 SP   3 1.00       0.000000000000
      0.7868272350D+01 -0.1193324198D+00  0.6899906659D-01
      0.1881288540D+01 -0.1608541517D+00  0.3164239610D+00
      0.5442492580D+00  0.1143456438D+01  0.7443082909D+00
 SP   1 1.00       0.000000000000
      0.1687144782D+00  0.1000000000D+01  0.1000000000D+01
 D   1 1.00       0.000000000000
      0.8000000000D+00  0.1000000000D+01
 ****
     22 0
 S   3 1.00       0.000000000000
      0.1873113696D+02  0.3349460434D-01
      0.2825394365D+01  0.2347269535D+00
      0.6401216923D+00  0.8137573261D+00
 S   1 1.00       0.000000000000
      0.1612777588D+00  0.1000000000D+01
 ****
     23 0
 S   3 1.00       0.000000000000
      0.1873113696D+02  0.3349460434D-01
      0.2825394365D+01  0.2347269535D+00
      0.6401216923D+00  0.8137573261D+00
 S   1 1.00       0.000000000000
      0.1612777588D+00  0.1000000000D+01
 ****
     24 0
 S   6 1.00       0.000000000000
      0.3047524880D+04  0.1834737132D-02
      0.4573695180D+03  0.1403732281D-01
      0.1039486850D+03  0.6884262226D-01
      0.2921015530D+02  0.2321844432D+00
      0.9286662960D+01  0.4679413484D+00
      0.3163926960D+01  0.3623119853D+00
 SP   3 1.00       0.000000000000
      0.7868272350D+01 -0.1193324198D+00  0.6899906659D-01
      0.1881288540D+01 -0.1608541517D+00  0.3164239610D+00
      0.5442492580D+00  0.1143456438D+01  0.7443082909D+00
 SP   1 1.00       0.000000000000
      0.1687144782D+00  0.1000000000D+01  0.1000000000D+01
 D   1 1.00       0.000000000000
      0.8000000000D+00  0.1000000000D+01
 ****
     25 0
 S   3 1.00       0.000000000000
      0.1873113696D+02  0.3349460434D-01
      0.2825394365D+01  0.2347269535D+00
      0.6401216923D+00  0.8137573261D+00
 S   1 1.00       0.000000000000
      0.1612777588D+00  0.1000000000D+01
 ****
     26 0
 S   3 1.00       0.000000000000
      0.1873113696D+02  0.3349460434D-01
      0.2825394365D+01  0.2347269535D+00
      0.6401216923D+00  0.8137573261D+00
 S   1 1.00       0.000000000000
      0.1612777588D+00  0.1000000000D+01
 ****
     27 0
 S   6 1.00       0.000000000000
      0.3047524880D+04  0.1834737132D-02
      0.4573695180D+03  0.1403732281D-01
      0.1039486850D+03  0.6884262226D-01
      0.2921015530D+02  0.2321844432D+00
      0.9286662960D+01  0.4679413484D+00
      0.3163926960D+01  0.3623119853D+00
 SP   3 1.00       0.000000000000
      0.7868272350D+01 -0.1193324198D+00  0.6899906659D-01
      0.1881288540D+01 -0.1608541517D+00  0.3164239610D+00
      0.5442492580D+00  0.1143456438D+01  0.7443082909D+00
 SP   1 1.00       0.000000000000
      0.1687144782D+00  0.1000000000D+01  0.1000000000D+01
 D   1 1.00       0.000000000000
      0.8000000000D+00  0.1000000000D+01
 ****
     28 0
 S   3 1.00       0.000000000000
      0.1873113696D+02  0.3349460434D-01
      0.2825394365D+01  0.2347269535D+00
      0.6401216923D+00  0.8137573261D+00
 S   1 1.00       0.000000000000
      0.1612777588D+00  0.1000000000D+01
 ****
     29 0
 S   6 1.00       0.000000000000
      0.3047524880D+04  0.1834737132D-02
      0.4573695180D+03  0.1403732281D-01
      0.1039486850D+03  0.6884262226D-01
      0.2921015530D+02  0.2321844432D+00
      0.9286662960D+01  0.4679413484D+00
      0.3163926960D+01  0.3623119853D+00
 SP   3 1.00       0.000000000000
      0.7868272350D+01 -0.1193324198D+00  0.6899906659D-01
      0.1881288540D+01 -0.1608541517D+00  0.3164239610D+00
      0.5442492580D+00  0.1143456438D+01  0.7443082909D+00
 SP   1 1.00       0.000000000000
      0.1687144782D+00  0.1000000000D+01  0.1000000000D+01
 D   1 1.00       0.000000000000
      0.8000000000D+00  0.1000000000D+01
 ****
     30 0
 S   3 1.00       0.000000000000
      0.1873113696D+02  0.3349460434D-01
      0.2825394365D+01  0.2347269535D+00
      0.6401216923D+00  0.8137573261D+00
 S   1 1.00       0.000000000000
      0.1612777588D+00  0.1000000000D+01
 ****
     31 0
 S   6 1.00       0.000000000000
      0.3047524880D+04  0.1834737132D-02
      0.4573695180D+03  0.1403732281D-01
      0.1039486850D+03  0.6884262226D-01
      0.2921015530D+02  0.2321844432D+00
      0.9286662960D+01  0.4679413484D+00
      0.3163926960D+01  0.3623119853D+00
 SP   3 1.00       0.000000000000
      0.7868272350D+01 -0.1193324198D+00  0.6899906659D-01
      0.1881288540D+01 -0.1608541517D+00  0.3164239610D+00
      0.5442492580D+00  0.1143456438D+01  0.7443082909D+00
 SP   1 1.00       0.000000000000
      0.1687144782D+00  0.1000000000D+01  0.1000000000D+01
 D   1 1.00       0.000000000000
      0.8000000000D+00  0.1000000000D+01
 ****
     32 0
 S   3 1.00       0.000000000000
      0.1873113696D+02  0.3349460434D-01
      0.2825394365D+01  0.2347269535D+00
      0.6401216923D+00  0.8137573261D+00
 S   1 1.00       0.000000000000
      0.1612777588D+00  0.1000000000D+01
 ****
     33 0
 S   3 1.00       0.000000000000
      0.1873113696D+02  0.3349460434D-01
      0.2825394365D+01  0.2347269535D+00
      0.6401216923D+00  0.8137573261D+00
 S   1 1.00       0.000000000000
      0.1612777588D+00  0.1000000000D+01
 ****
     34 0
 S   3 1.00       0.000000000000
      0.1873113696D+02  0.3349460434D-01
      0.2825394365D+01  0.2347269535D+00
      0.6401216923D+00  0.8137573261D+00
 S   1 1.00       0.000000000000
      0.1612777588D+00  0.1000000000D+01
 ****
     35 0
 S   6 1.00       0.000000000000
      0.3047524880D+04  0.1834737132D-02
      0.4573695180D+03  0.1403732281D-01
      0.1039486850D+03  0.6884262226D-01
      0.2921015530D+02  0.2321844432D+00
      0.9286662960D+01  0.4679413484D+00
      0.3163926960D+01  0.3623119853D+00
 SP   3 1.00       0.000000000000
      0.7868272350D+01 -0.1193324198D+00  0.6899906659D-01
      0.1881288540D+01 -0.1608541517D+00  0.3164239610D+00
      0.5442492580D+00  0.1143456438D+01  0.7443082909D+00
 SP   1 1.00       0.000000000000
      0.1687144782D+00  0.1000000000D+01  0.1000000000D+01
 D   1 1.00       0.000000000000
      0.8000000000D+00  0.1000000000D+01
 ****
     36 0
 S   6 1.00       0.000000000000
      0.3047524880D+04  0.1834737132D-02
      0.4573695180D+03  0.1403732281D-01
      0.1039486850D+03  0.6884262226D-01
      0.2921015530D+02  0.2321844432D+00
      0.9286662960D+01  0.4679413484D+00
      0.3163926960D+01  0.3623119853D+00
 SP   3 1.00       0.000000000000
      0.7868272350D+01 -0.1193324198D+00  0.6899906659D-01
      0.1881288540D+01 -0.1608541517D+00  0.3164239610D+00
      0.5442492580D+00  0.1143456438D+01  0.7443082909D+00
 SP   1 1.00       0.000000000000
      0.1687144782D+00  0.1000000000D+01  0.1000000000D+01
 D   1 1.00       0.000000000000
      0.8000000000D+00  0.1000000000D+01
 ****
     37 0
 S   3 1.00       0.000000000000
      0.1873113696D+02  0.3349460434D-01
      0.2825394365D+01  0.2347269535D+00
      0.6401216923D+00  0.8137573261D+00
 S   1 1.00       0.000000000000
      0.1612777588D+00  0.1000000000D+01
 ****
     38 0
 S   3 1.00       0.000000000000
      0.1873113696D+02  0.3349460434D-01
      0.2825394365D+01  0.2347269535D+00
      0.6401216923D+00  0.8137573261D+00
 S   1 1.00       0.000000000000
      0.1612777588D+00  0.1000000000D+01
 ****
     39 0
 S   6 1.00       0.000000000000
      0.3047524880D+04  0.1834737132D-02
      0.4573695180D+03  0.1403732281D-01
      0.1039486850D+03  0.6884262226D-01
      0.2921015530D+02  0.2321844432D+00
      0.9286662960D+01  0.4679413484D+00
      0.3163926960D+01  0.3623119853D+00
 SP   3 1.00       0.000000000000
      0.7868272350D+01 -0.1193324198D+00  0.6899906659D-01
      0.1881288540D+01 -0.1608541517D+00  0.3164239610D+00
      0.5442492580D+00  0.1143456438D+01  0.7443082909D+00
 SP   1 1.00       0.000000000000
      0.1687144782D+00  0.1000000000D+01  0.1000000000D+01
 D   1 1.00       0.000000000000
      0.8000000000D+00  0.1000000000D+01
 ****
     40 0
 S   3 1.00       0.000000000000
      0.1873113696D+02  0.3349460434D-01
      0.2825394365D+01  0.2347269535D+00
      0.6401216923D+00  0.8137573261D+00
 S   1 1.00       0.000000000000
      0.1612777588D+00  0.1000000000D+01
 ****
     41 0
 S   6 1.00       0.000000000000
      0.3047524880D+04  0.1834737132D-02
      0.4573695180D+03  0.1403732281D-01
      0.1039486850D+03  0.6884262226D-01
      0.2921015530D+02  0.2321844432D+00
      0.9286662960D+01  0.4679413484D+00
      0.3163926960D+01  0.3623119853D+00
 SP   3 1.00       0.000000000000
      0.7868272350D+01 -0.1193324198D+00  0.6899906659D-01
      0.1881288540D+01 -0.1608541517D+00  0.3164239610D+00
      0.5442492580D+00  0.1143456438D+01  0.7443082909D+00
 SP   1 1.00       0.000000000000
      0.1687144782D+00  0.1000000000D+01  0.1000000000D+01
 D   1 1.00       0.000000000000
      0.8000000000D+00  0.1000000000D+01
 ****
     42 0
 S   3 1.00       0.000000000000
      0.1873113696D+02  0.3349460434D-01
      0.2825394365D+01  0.2347269535D+00
      0.6401216923D+00  0.8137573261D+00
 S   1 1.00       0.000000000000
      0.1612777588D+00  0.1000000000D+01
 ****
     43 0
 S   3 1.00       0.000000000000
      0.1873113696D+02  0.3349460434D-01
      0.2825394365D+01  0.2347269535D+00
      0.6401216923D+00  0.8137573261D+00
 S   1 1.00       0.000000000000
      0.1612777588D+00  0.1000000000D+01
 ****
     44 0
 S   3 1.00       0.000000000000
      0.1873113696D+02  0.3349460434D-01
      0.2825394365D+01  0.2347269535D+00
      0.6401216923D+00  0.8137573261D+00
 S   1 1.00       0.000000000000
      0.1612777588D+00  0.1000000000D+01
 ****
     45 0
 S   6 1.00       0.000000000000
      0.3047524880D+04  0.1834737132D-02
      0.4573695180D+03  0.1403732281D-01
      0.1039486850D+03  0.6884262226D-01
      0.2921015530D+02  0.2321844432D+00
      0.9286662960D+01  0.4679413484D+00
      0.3163926960D+01  0.3623119853D+00
 SP   3 1.00       0.000000000000
      0.7868272350D+01 -0.1193324198D+00  0.6899906659D-01
      0.1881288540D+01 -0.1608541517D+00  0.3164239610D+00
      0.5442492580D+00  0.1143456438D+01  0.7443082909D+00
 SP   1 1.00       0.000000000000
      0.1687144782D+00  0.1000000000D+01  0.1000000000D+01
 D   1 1.00       0.000000000000
      0.8000000000D+00  0.1000000000D+01
 ****
     46 0
 S   3 1.00       0.000000000000
      0.1873113696D+02  0.3349460434D-01
      0.2825394365D+01  0.2347269535D+00
      0.6401216923D+00  0.8137573261D+00
 S   1 1.00       0.000000000000
      0.1612777588D+00  0.1000000000D+01
 ****
     47 0
 S   3 1.00       0.000000000000
      0.1873113696D+02  0.3349460434D-01
      0.2825394365D+01  0.2347269535D+00
      0.6401216923D+00  0.8137573261D+00
 S   1 1.00       0.000000000000
      0.1612777588D+00  0.1000000000D+01
 ****
     48 0
 S   6 1.00       0.000000000000
      0.3047524880D+04  0.1834737132D-02
      0.4573695180D+03  0.1403732281D-01
      0.1039486850D+03  0.6884262226D-01
      0.2921015530D+02  0.2321844432D+00
      0.9286662960D+01  0.4679413484D+00
      0.3163926960D+01  0.3623119853D+00
 SP   3 1.00       0.000000000000
      0.7868272350D+01 -0.1193324198D+00  0.6899906659D-01
      0.1881288540D+01 -0.1608541517D+00  0.3164239610D+00
      0.5442492580D+00  0.1143456438D+01  0.7443082909D+00
 SP   1 1.00       0.000000000000
      0.1687144782D+00  0.1000000000D+01  0.1000000000D+01
 D   1 1.00       0.000000000000
      0.8000000000D+00  0.1000000000D+01
 ****
     49 0
 S   3 1.00       0.000000000000
      0.1873113696D+02  0.3349460434D-01
      0.2825394365D+01  0.2347269535D+00
      0.6401216923D+00  0.8137573261D+00
 S   1 1.00       0.000000000000
      0.1612777588D+00  0.1000000000D+01
 ****
     50 0
 S   3 1.00       0.000000000000
      0.1873113696D+02  0.3349460434D-01
      0.2825394365D+01  0.2347269535D+00
      0.6401216923D+00  0.8137573261D+00
 S   1 1.00       0.000000000000
      0.1612777588D+00  0.1000000000D+01
 ****
     51 0
 S   6 1.00       0.000000000000
      0.3047524880D+04  0.1834737132D-02
      0.4573695180D+03  0.1403732281D-01
      0.1039486850D+03  0.6884262226D-01
      0.2921015530D+02  0.2321844432D+00
      0.9286662960D+01  0.4679413484D+00
      0.3163926960D+01  0.3623119853D+00
 SP   3 1.00       0.000000000000
      0.7868272350D+01 -0.1193324198D+00  0.6899906659D-01
      0.1881288540D+01 -0.1608541517D+00  0.3164239610D+00
      0.5442492580D+00  0.1143456438D+01  0.7443082909D+00
 SP   1 1.00       0.000000000000
      0.1687144782D+00  0.1000000000D+01  0.1000000000D+01
 D   1 1.00       0.000000000000
      0.8000000000D+00  0.1000000000D+01
 ****
     52 0
 S   3 1.00       0.000000000000
      0.1873113696D+02  0.3349460434D-01
      0.2825394365D+01  0.2347269535D+00
      0.6401216923D+00  0.8137573261D+00
 S   1 1.00       0.000000000000
      0.1612777588D+00  0.1000000000D+01
 ****
     53 0
 S   3 1.00       0.000000000000
      0.1873113696D+02  0.3349460434D-01
      0.2825394365D+01  0.2347269535D+00
      0.6401216923D+00  0.8137573261D+00
 S   1 1.00       0.000000000000
      0.1612777588D+00  0.1000000000D+01
 ****
     54 0
 S   6 1.00       0.000000000000
      0.3047524880D+04  0.1834737132D-02
      0.4573695180D+03  0.1403732281D-01
      0.1039486850D+03  0.6884262226D-01
      0.2921015530D+02  0.2321844432D+00
      0.9286662960D+01  0.4679413484D+00
      0.3163926960D+01  0.3623119853D+00
 SP   3 1.00       0.000000000000
      0.7868272350D+01 -0.1193324198D+00  0.6899906659D-01
      0.1881288540D+01 -0.1608541517D+00  0.3164239610D+00
      0.5442492580D+00  0.1143456438D+01  0.7443082909D+00
 SP   1 1.00       0.000000000000
      0.1687144782D+00  0.1000000000D+01  0.1000000000D+01
 D   1 1.00       0.000000000000
      0.8000000000D+00  0.1000000000D+01
 ****
     55 0
 S   3 1.00       0.000000000000
      0.1873113696D+02  0.3349460434D-01
      0.2825394365D+01  0.2347269535D+00
      0.6401216923D+00  0.8137573261D+00
 S   1 1.00       0.000000000000
      0.1612777588D+00  0.1000000000D+01
 ****
     56 0
 S   6 1.00       0.000000000000
      0.3047524880D+04  0.1834737132D-02
      0.4573695180D+03  0.1403732281D-01
      0.1039486850D+03  0.6884262226D-01
      0.2921015530D+02  0.2321844432D+00
      0.9286662960D+01  0.4679413484D+00
      0.3163926960D+01  0.3623119853D+00
 SP   3 1.00       0.000000000000
      0.7868272350D+01 -0.1193324198D+00  0.6899906659D-01
      0.1881288540D+01 -0.1608541517D+00  0.3164239610D+00
      0.5442492580D+00  0.1143456438D+01  0.7443082909D+00
 SP   1 1.00       0.000000000000
      0.1687144782D+00  0.1000000000D+01  0.1000000000D+01
 D   1 1.00       0.000000000000
      0.8000000000D+00  0.1000000000D+01
 ****
     57 0
 S   3 1.00       0.000000000000
      0.1873113696D+02  0.3349460434D-01
      0.2825394365D+01  0.2347269535D+00
      0.6401216923D+00  0.8137573261D+00
 S   1 1.00       0.000000000000
      0.1612777588D+00  0.1000000000D+01
 ****
     58 0
 S   3 1.00       0.000000000000
      0.1873113696D+02  0.3349460434D-01
      0.2825394365D+01  0.2347269535D+00
      0.6401216923D+00  0.8137573261D+00
 S   1 1.00       0.000000000000
      0.1612777588D+00  0.1000000000D+01
 ****
     59 0
 S   3 1.00       0.000000000000
      0.1873113696D+02  0.3349460434D-01
      0.2825394365D+01  0.2347269535D+00
      0.6401216923D+00  0.8137573261D+00
 S   1 1.00       0.000000000000
      0.1612777588D+00  0.1000000000D+01
 ****
     60 0
 S   6 1.00       0.000000000000
      0.3047524880D+04  0.1834737132D-02
      0.4573695180D+03  0.1403732281D-01
      0.1039486850D+03  0.6884262226D-01
      0.2921015530D+02  0.2321844432D+00
      0.9286662960D+01  0.4679413484D+00
      0.3163926960D+01  0.3623119853D+00
 SP   3 1.00       0.000000000000
      0.7868272350D+01 -0.1193324198D+00  0.6899906659D-01
      0.1881288540D+01 -0.1608541517D+00  0.3164239610D+00
      0.5442492580D+00  0.1143456438D+01  0.7443082909D+00
 SP   1 1.00       0.000000000000
      0.1687144782D+00  0.1000000000D+01  0.1000000000D+01
 D   1 1.00       0.000000000000
      0.8000000000D+00  0.1000000000D+01
 ****
     61 0
 S   3 1.00       0.000000000000
      0.1873113696D+02  0.3349460434D-01
      0.2825394365D+01  0.2347269535D+00
      0.6401216923D+00  0.8137573261D+00
 S   1 1.00       0.000000000000
      0.1612777588D+00  0.1000000000D+01
 ****
     62 0
 S   3 1.00       0.000000000000
      0.1873113696D+02  0.3349460434D-01
      0.2825394365D+01  0.2347269535D+00
      0.6401216923D+00  0.8137573261D+00
 S   1 1.00       0.000000000000
      0.1612777588D+00  0.1000000000D+01
 ****
     63 0
 S   6 1.00       0.000000000000
      0.3047524880D+04  0.1834737132D-02
      0.4573695180D+03  0.1403732281D-01
      0.1039486850D+03  0.6884262226D-01
      0.2921015530D+02  0.2321844432D+00
      0.9286662960D+01  0.4679413484D+00
      0.3163926960D+01  0.3623119853D+00
 SP   3 1.00       0.000000000000
      0.7868272350D+01 -0.1193324198D+00  0.6899906659D-01
      0.1881288540D+01 -0.1608541517D+00  0.3164239610D+00
      0.5442492580D+00  0.1143456438D+01  0.7443082909D+00
 SP   1 1.00       0.000000000000
      0.1687144782D+00  0.1000000000D+01  0.1000000000D+01
 D   1 1.00       0.000000000000
      0.8000000000D+00  0.1000000000D+01
 ****
     64 0
 S   3 1.00       0.000000000000
      0.1873113696D+02  0.3349460434D-01
      0.2825394365D+01  0.2347269535D+00
      0.6401216923D+00  0.8137573261D+00
 S   1 1.00       0.000000000000
      0.1612777588D+00  0.1000000000D+01
 ****
     65 0
 S   3 1.00       0.000000000000
      0.1873113696D+02  0.3349460434D-01
      0.2825394365D+01  0.2347269535D+00
      0.6401216923D+00  0.8137573261D+00
 S   1 1.00       0.000000000000
      0.1612777588D+00  0.1000000000D+01
 ****
     66 0
 S   6 1.00       0.000000000000
      0.3047524880D+04  0.1834737132D-02
      0.4573695180D+03  0.1403732281D-01
      0.1039486850D+03  0.6884262226D-01
      0.2921015530D+02  0.2321844432D+00
      0.9286662960D+01  0.4679413484D+00
      0.3163926960D+01  0.3623119853D+00
 SP   3 1.00       0.000000000000
      0.7868272350D+01 -0.1193324198D+00  0.6899906659D-01
      0.1881288540D+01 -0.1608541517D+00  0.3164239610D+00
      0.5442492580D+00  0.1143456438D+01  0.7443082909D+00
 SP   1 1.00       0.000000000000
      0.1687144782D+00  0.1000000000D+01  0.1000000000D+01
 D   1 1.00       0.000000000000
      0.8000000000D+00  0.1000000000D+01
 ****
     67 0
 S   3 1.00       0.000000000000
      0.1873113696D+02  0.3349460434D-01
      0.2825394365D+01  0.2347269535D+00
      0.6401216923D+00  0.8137573261D+00
 S   1 1.00       0.000000000000
      0.1612777588D+00  0.1000000000D+01
 ****
     68 0
 S   6 1.00       0.000000000000
      0.3047524880D+04  0.1834737132D-02
      0.4573695180D+03  0.1403732281D-01
      0.1039486850D+03  0.6884262226D-01
      0.2921015530D+02  0.2321844432D+00
      0.9286662960D+01  0.4679413484D+00
      0.3163926960D+01  0.3623119853D+00
 SP   3 1.00       0.000000000000
      0.7868272350D+01 -0.1193324198D+00  0.6899906659D-01
      0.1881288540D+01 -0.1608541517D+00  0.3164239610D+00
      0.5442492580D+00  0.1143456438D+01  0.7443082909D+00
 SP   1 1.00       0.000000000000
      0.1687144782D+00  0.1000000000D+01  0.1000000000D+01
 D   1 1.00       0.000000000000
      0.8000000000D+00  0.1000000000D+01
 ****
     69 0
 S   3 1.00       0.000000000000
      0.1873113696D+02  0.3349460434D-01
      0.2825394365D+01  0.2347269535D+00
      0.6401216923D+00  0.8137573261D+00
 S   1 1.00       0.000000000000
      0.1612777588D+00  0.1000000000D+01
 ****
     70 0
 S   3 1.00       0.000000000000
      0.1873113696D+02  0.3349460434D-01
      0.2825394365D+01  0.2347269535D+00
      0.6401216923D+00  0.8137573261D+00
 S   1 1.00       0.000000000000
      0.1612777588D+00  0.1000000000D+01
 ****
     71 0
 S   3 1.00       0.000000000000
      0.1873113696D+02  0.3349460434D-01
      0.2825394365D+01  0.2347269535D+00
      0.6401216923D+00  0.8137573261D+00
 S   1 1.00       0.000000000000
      0.1612777588D+00  0.1000000000D+01
 ****
     72 0
 S   6 1.00       0.000000000000
      0.3047524880D+04  0.1834737132D-02
      0.4573695180D+03  0.1403732281D-01
      0.1039486850D+03  0.6884262226D-01
      0.2921015530D+02  0.2321844432D+00
      0.9286662960D+01  0.4679413484D+00
      0.3163926960D+01  0.3623119853D+00
 SP   3 1.00       0.000000000000
      0.7868272350D+01 -0.1193324198D+00  0.6899906659D-01
      0.1881288540D+01 -0.1608541517D+00  0.3164239610D+00
      0.5442492580D+00  0.1143456438D+01  0.7443082909D+00
 SP   1 1.00       0.000000000000
      0.1687144782D+00  0.1000000000D+01  0.1000000000D+01
 D   1 1.00       0.000000000000
      0.8000000000D+00  0.1000000000D+01
 ****
     73 0
 S   3 1.00       0.000000000000
      0.1873113696D+02  0.3349460434D-01
      0.2825394365D+01  0.2347269535D+00
      0.6401216923D+00  0.8137573261D+00
 S   1 1.00       0.000000000000
      0.1612777588D+00  0.1000000000D+01
 ****
     74 0
 S   3 1.00       0.000000000000
      0.1873113696D+02  0.3349460434D-01
      0.2825394365D+01  0.2347269535D+00
      0.6401216923D+00  0.8137573261D+00
 S   1 1.00       0.000000000000
      0.1612777588D+00  0.1000000000D+01
 ****
     75 0
 S   3 1.00       0.000000000000
      0.1873113696D+02  0.3349460434D-01
      0.2825394365D+01  0.2347269535D+00
      0.6401216923D+00  0.8137573261D+00
 S   1 1.00       0.000000000000
      0.1612777588D+00  0.1000000000D+01
 ****

 AO basis set (Overlap normalization):
 Atom O1       Shell     1 S   6     bf    1 -     1         10.487733484947          8.568465339015          0.000000000000
      0.5484671660D+04  0.1831074430D-02
      0.8252349460D+03  0.1395017220D-01
      0.1880469580D+03  0.6844507810D-01
      0.5296450000D+02  0.2327143360D+00
      0.1689757040D+02  0.4701928980D+00
      0.5799635340D+01  0.3585208530D+00
 Atom O1       Shell     2 SP   3    bf    2 -     5         10.487733484947          8.568465339015          0.000000000000
      0.1553961625D+02 -0.1107775495D+00  0.7087426823D-01
      0.3599933586D+01 -0.1480262627D+00  0.3397528391D+00
      0.1013761750D+01  0.1130767015D+01  0.7271585773D+00
 Atom O1       Shell     3 SP   1    bf    6 -     9         10.487733484947          8.568465339015          0.000000000000
      0.2700058226D+00  0.1000000000D+01  0.1000000000D+01
 Atom O1       Shell     4 D   1     bf   10 -    15         10.487733484947          8.568465339015          0.000000000000
      0.8000000000D+00  0.1000000000D+01
 Atom H2       Shell     5 S   3     bf   16 -    16          9.864859739348          8.686734926185         -1.715133617372
      0.1873113696D+02  0.3349460434D-01
      0.2825394365D+01  0.2347269535D+00
      0.6401216923D+00  0.8137573261D+00
 Atom H2       Shell     6 S   1     bf   17 -    17          9.864859739348          8.686734926185         -1.715133617372
      0.1612777588D+00  0.1000000000D+01
 Atom O3       Shell     7 S   6     bf   18 -    18          0.000000000000          0.000000000000          0.000000000000
      0.5484671660D+04  0.1831074430D-02
      0.8252349460D+03  0.1395017220D-01
      0.1880469580D+03  0.6844507810D-01
      0.5296450000D+02  0.2327143360D+00
      0.1689757040D+02  0.4701928980D+00
      0.5799635340D+01  0.3585208530D+00
 Atom O3       Shell     8 SP   3    bf   19 -    22          0.000000000000          0.000000000000          0.000000000000
      0.1553961625D+02 -0.1107775495D+00  0.7087426823D-01
      0.3599933586D+01 -0.1480262627D+00  0.3397528391D+00
      0.1013761750D+01  0.1130767015D+01  0.7271585773D+00
 Atom O3       Shell     9 SP   1    bf   23 -    26          0.000000000000          0.000000000000          0.000000000000
      0.2700058226D+00  0.1000000000D+01  0.1000000000D+01
 Atom O3       Shell    10 D   1     bf   27 -    32          0.000000000000          0.000000000000          0.000000000000
      0.8000000000D+00  0.1000000000D+01
 Atom H4       Shell    11 S   3     bf   33 -    33         -0.293090249320         -0.195224828891         -1.794176571833
      0.1873113696D+02  0.3349460434D-01
      0.2825394365D+01  0.2347269535D+00
      0.6401216923D+00  0.8137573261D+00
 Atom H4       Shell    12 S   1     bf   34 -    34         -0.293090249320         -0.195224828891         -1.794176571833
      0.1612777588D+00  0.1000000000D+01
 Atom C5       Shell    13 S   6     bf   35 -    35         16.487654718251          2.408427289217         -0.258429327227
      0.3047524880D+04  0.1834737132D-02
      0.4573695180D+03  0.1403732281D-01
      0.1039486850D+03  0.6884262226D-01
      0.2921015530D+02  0.2321844432D+00
      0.9286662960D+01  0.4679413484D+00
      0.3163926960D+01  0.3623119853D+00
 Atom C5       Shell    14 SP   3    bf   36 -    39         16.487654718251          2.408427289217         -0.258429327227
      0.7868272350D+01 -0.1193324198D+00  0.6899906659D-01
      0.1881288540D+01 -0.1608541517D+00  0.3164239610D+00
      0.5442492580D+00  0.1143456438D+01  0.7443082909D+00
 Atom C5       Shell    15 SP   1    bf   40 -    43         16.487654718251          2.408427289217         -0.258429327227
      0.1687144782D+00  0.1000000000D+01  0.1000000000D+01
 Atom C5       Shell    16 D   1     bf   44 -    49         16.487654718251          2.408427289217         -0.258429327227
      0.8000000000D+00  0.1000000000D+01
 Atom C6       Shell    17 S   6     bf   50 -    50         14.546940731841          4.336460306207          0.796720877536
      0.3047524880D+04  0.1834737132D-02
      0.4573695180D+03  0.1403732281D-01
      0.1039486850D+03  0.6884262226D-01
      0.2921015530D+02  0.2321844432D+00
      0.9286662960D+01  0.4679413484D+00
      0.3163926960D+01  0.3623119853D+00
 Atom C6       Shell    18 SP   3    bf   51 -    54         14.546940731841          4.336460306207          0.796720877536
      0.7868272350D+01 -0.1193324198D+00  0.6899906659D-01
      0.1881288540D+01 -0.1608541517D+00  0.3164239610D+00
      0.5442492580D+00  0.1143456438D+01  0.7443082909D+00
 Atom C6       Shell    19 SP   1    bf   55 -    58         14.546940731841          4.336460306207          0.796720877536
      0.1687144782D+00  0.1000000000D+01  0.1000000000D+01
 Atom C6       Shell    20 D   1     bf   59 -    64         14.546940731841          4.336460306207          0.796720877536
      0.8000000000D+00  0.1000000000D+01
 Atom H7       Shell    21 S   3     bf   65 -    65         14.325980554226          3.835331977747          2.809057128444
      0.1873113696D+02  0.3349460434D-01
      0.2825394365D+01  0.2347269535D+00
      0.6401216923D+00  0.8137573261D+00
 Atom H7       Shell    22 S   1     bf   66 -    66         14.325980554226          3.835331977747          2.809057128444
      0.1612777588D+00  0.1000000000D+01
 Atom C8       Shell    23 S   6     bf   67 -    67         11.880088650739          4.115811801123         -0.337394935197
      0.3047524880D+04  0.1834737132D-02
      0.4573695180D+03  0.1403732281D-01
      0.1039486850D+03  0.6884262226D-01
      0.2921015530D+02  0.2321844432D+00
      0.9286662960D+01  0.4679413484D+00
      0.3163926960D+01  0.3623119853D+00
 Atom C8       Shell    24 SP   3    bf   68 -    71         11.880088650739          4.115811801123         -0.337394935197
      0.7868272350D+01 -0.1193324198D+00  0.6899906659D-01
      0.1881288540D+01 -0.1608541517D+00  0.3164239610D+00
      0.5442492580D+00  0.1143456438D+01  0.7443082909D+00
 Atom C8       Shell    25 SP   1    bf   72 -    75         11.880088650739          4.115811801123         -0.337394935197
      0.1687144782D+00  0.1000000000D+01  0.1000000000D+01
 Atom C8       Shell    26 D   1     bf   76 -    81         11.880088650739          4.115811801123         -0.337394935197
      0.8000000000D+00  0.1000000000D+01
 Atom H9       Shell    27 S   3     bf   82 -    82         11.945480053540          4.543464138235         -2.370309358829
      0.1873113696D+02  0.3349460434D-01
      0.2825394365D+01  0.2347269535D+00
      0.6401216923D+00  0.8137573261D+00
 Atom H9       Shell    28 S   1     bf   83 -    83         11.945480053540          4.543464138235         -2.370309358829
      0.1612777588D+00  0.1000000000D+01
 Atom C10      Shell    29 S   6     bf   84 -    84         10.873576878588          1.379056633872          0.058854065320
      0.3047524880D+04  0.1834737132D-02
      0.4573695180D+03  0.1403732281D-01
      0.1039486850D+03  0.6884262226D-01
      0.2921015530D+02  0.2321844432D+00
      0.9286662960D+01  0.4679413484D+00
      0.3163926960D+01  0.3623119853D+00
 Atom C10      Shell    30 SP   3    bf   85 -    88         10.873576878588          1.379056633872          0.058854065320
      0.7868272350D+01 -0.1193324198D+00  0.6899906659D-01
      0.1881288540D+01 -0.1608541517D+00  0.3164239610D+00
      0.5442492580D+00  0.1143456438D+01  0.7443082909D+00
 Atom C10      Shell    31 SP   1    bf   89 -    92         10.873576878588          1.379056633872          0.058854065320
      0.1687144782D+00  0.1000000000D+01  0.1000000000D+01
 Atom C10      Shell    32 D   1     bf   93 -    98         10.873576878588          1.379056633872          0.058854065320
      0.8000000000D+00  0.1000000000D+01
 Atom H11      Shell    33 S   3     bf   99 -    99         10.624231105833          1.173566944908          2.117086529454
      0.1873113696D+02  0.3349460434D-01
      0.2825394365D+01  0.2347269535D+00
      0.6401216923D+00  0.8137573261D+00
 Atom H11      Shell    34 S   1     bf  100 -   100         10.624231105833          1.173566944908          2.117086529454
      0.1612777588D+00  0.1000000000D+01
 Atom C12      Shell    35 S   6     bf  101 -   101         18.867126225263          3.197217571989          1.295566492417
      0.3047524880D+04  0.1834737132D-02
      0.4573695180D+03  0.1403732281D-01
      0.1039486850D+03  0.6884262226D-01
      0.2921015530D+02  0.2321844432D+00
      0.9286662960D+01  0.4679413484D+00
      0.3163926960D+01  0.3623119853D+00
 Atom C12      Shell    36 SP   3    bf  102 -   105         18.867126225263          3.197217571989          1.295566492417
      0.7868272350D+01 -0.1193324198D+00  0.6899906659D-01
      0.1881288540D+01 -0.1608541517D+00  0.3164239610D+00
      0.5442492580D+00  0.1143456438D+01  0.7443082909D+00
 Atom C12      Shell    37 SP   1    bf  106 -   109         18.867126225263          3.197217571989          1.295566492417
      0.1687144782D+00  0.1000000000D+01  0.1000000000D+01
 Atom C12      Shell    38 D   1     bf  110 -   115         18.867126225263          3.197217571989          1.295566492417
      0.8000000000D+00  0.1000000000D+01
 Atom H13      Shell    39 S   3     bf  116 -   116         18.418538708366          2.602421698526          3.235880593880
      0.1873113696D+02  0.3349460434D-01
      0.2825394365D+01  0.2347269535D+00
      0.6401216923D+00  0.8137573261D+00
 Atom H13      Shell    40 S   1     bf  117 -   117         18.418538708366          2.602421698526          3.235880593880
      0.1612777588D+00  0.1000000000D+01
 Atom C14      Shell    41 S   6     bf  118 -   118         15.486184376375         -0.254777866113          0.331767973280
      0.3047524880D+04  0.1834737132D-02
      0.4573695180D+03  0.1403732281D-01
      0.1039486850D+03  0.6884262226D-01
      0.2921015530D+02  0.2321844432D+00
      0.9286662960D+01  0.4679413484D+00
      0.3163926960D+01  0.3623119853D+00
 Atom C14      Shell    42 SP   3    bf  119 -   122         15.486184376375         -0.254777866113          0.331767973280
      0.7868272350D+01 -0.1193324198D+00  0.6899906659D-01
      0.1881288540D+01 -0.1608541517D+00  0.3164239610D+00
      0.5442492580D+00  0.1143456438D+01  0.7443082909D+00
 Atom C14      Shell    43 SP   1    bf  123 -   126         15.486184376375         -0.254777866113          0.331767973280
      0.1687144782D+00  0.1000000000D+01  0.1000000000D+01
 Atom C14      Shell    44 D   1     bf  127 -   132         15.486184376375         -0.254777866113          0.331767973280
      0.8000000000D+00  0.1000000000D+01
 Atom H15      Shell    45 S   3     bf  133 -   133         15.439160676948         -0.508448447198          2.393687274203
      0.1873113696D+02  0.3349460434D-01
      0.2825394365D+01  0.2347269535D+00
      0.6401216923D+00  0.8137573261D+00
 Atom H15      Shell    46 S   1     bf  134 -   134         15.439160676948         -0.508448447198          2.393687274203
      0.1612777588D+00  0.1000000000D+01
 Atom H16      Shell    47 S   3     bf  135 -   135         16.751723120540         -1.720057449990         -0.415917648053
      0.1873113696D+02  0.3349460434D-01
      0.2825394365D+01  0.2347269535D+00
      0.6401216923D+00  0.8137573261D+00
 Atom H16      Shell    48 S   1     bf  136 -   136         16.751723120540         -1.720057449990         -0.415917648053
      0.1612777588D+00  0.1000000000D+01
 Atom C17      Shell    49 S   6     bf  137 -   137          8.183325981742          0.948674417286         -1.112355389546
      0.3047524880D+04  0.1834737132D-02
      0.4573695180D+03  0.1403732281D-01
      0.1039486850D+03  0.6884262226D-01
      0.2921015530D+02  0.2321844432D+00
      0.9286662960D+01  0.4679413484D+00
      0.3163926960D+01  0.3623119853D+00
 Atom C17      Shell    50 SP   3    bf  138 -   141          8.183325981742          0.948674417286         -1.112355389546
      0.7868272350D+01 -0.1193324198D+00  0.6899906659D-01
      0.1881288540D+01 -0.1608541517D+00  0.3164239610D+00
      0.5442492580D+00  0.1143456438D+01  0.7443082909D+00
 Atom C17      Shell    51 SP   1    bf  142 -   145          8.183325981742          0.948674417286         -1.112355389546
      0.1687144782D+00  0.1000000000D+01  0.1000000000D+01
 Atom C17      Shell    52 D   1     bf  146 -   151          8.183325981742          0.948674417286         -1.112355389546
      0.8000000000D+00  0.1000000000D+01
 Atom C18      Shell    53 S   6     bf  152 -   152         15.971715302177          6.877475146175          0.740229555698
      0.3047524880D+04  0.1834737132D-02
      0.4573695180D+03  0.1403732281D-01
      0.1039486850D+03  0.6884262226D-01
      0.2921015530D+02  0.2321844432D+00
      0.9286662960D+01  0.4679413484D+00
      0.3163926960D+01  0.3623119853D+00
 Atom C18      Shell    54 SP   3    bf  153 -   156         15.971715302177          6.877475146175          0.740229555698
      0.7868272350D+01 -0.1193324198D+00  0.6899906659D-01
      0.1881288540D+01 -0.1608541517D+00  0.3164239610D+00
      0.5442492580D+00  0.1143456438D+01  0.7443082909D+00
 Atom C18      Shell    55 SP   1    bf  157 -   160         15.971715302177          6.877475146175          0.740229555698
      0.1687144782D+00  0.1000000000D+01  0.1000000000D+01
 Atom C18      Shell    56 D   1     bf  161 -   166         15.971715302177          6.877475146175          0.740229555698
      0.8000000000D+00  0.1000000000D+01
 Atom H19      Shell    57 S   3     bf  167 -   167         15.217945254024          8.224738101622          2.111092696106
      0.1873113696D+02  0.3349460434D-01
      0.2825394365D+01  0.2347269535D+00
      0.6401216923D+00  0.8137573261D+00
 Atom H19      Shell    58 S   1     bf  168 -   168         15.217945254024          8.224738101622          2.111092696106
      0.1612777588D+00  0.1000000000D+01
 Atom H20      Shell    59 S   3     bf  169 -   169         15.784273782795          7.781774296312         -1.111554353536
      0.1873113696D+02  0.3349460434D-01
      0.2825394365D+01  0.2347269535D+00
      0.6401216923D+00  0.8137573261D+00
 Atom H20      Shell    60 S   1     bf  170 -   170         15.784273782795          7.781774296312         -1.111554353536
      0.1612777588D+00  0.1000000000D+01
 Atom C21      Shell    61 S   6     bf  171 -   171         12.813732488720         -0.658580404339         -0.752542689926
      0.3047524880D+04  0.1834737132D-02
      0.4573695180D+03  0.1403732281D-01
      0.1039486850D+03  0.6884262226D-01
      0.2921015530D+02  0.2321844432D+00
      0.9286662960D+01  0.4679413484D+00
      0.3163926960D+01  0.3623119853D+00
 Atom C21      Shell    62 SP   3    bf  172 -   175         12.813732488720         -0.658580404339         -0.752542689926
      0.7868272350D+01 -0.1193324198D+00  0.6899906659D-01
      0.1881288540D+01 -0.1608541517D+00  0.3164239610D+00
      0.5442492580D+00  0.1143456438D+01  0.7443082909D+00
 Atom C21      Shell    63 SP   1    bf  176 -   179         12.813732488720         -0.658580404339         -0.752542689926
      0.1687144782D+00  0.1000000000D+01  0.1000000000D+01
 Atom C21      Shell    64 D   1     bf  180 -   185         12.813732488720         -0.658580404339         -0.752542689926
      0.8000000000D+00  0.1000000000D+01
 Atom H22      Shell    65 S   3     bf  186 -   186         12.937074743338         -0.727111511520         -2.816760143491
      0.1873113696D+02  0.3349460434D-01
      0.2825394365D+01  0.2347269535D+00
      0.6401216923D+00  0.8137573261D+00
 Atom H22      Shell    66 S   1     bf  187 -   187         12.937074743338         -0.727111511520         -2.816760143491
      0.1612777588D+00  0.1000000000D+01
 Atom H23      Shell    67 S   3     bf  188 -   188         12.137437073516         -2.523903350937         -0.161831289424
      0.1873113696D+02  0.3349460434D-01
      0.2825394365D+01  0.2347269535D+00
      0.6401216923D+00  0.8137573261D+00
 Atom H23      Shell    68 S   1     bf  189 -   189         12.137437073516         -2.523903350937         -0.161831289424
      0.1612777588D+00  0.1000000000D+01
 Atom C24      Shell    69 S   6     bf  190 -   190         18.774691027364          6.144480066826          1.282424316437
      0.3047524880D+04  0.1834737132D-02
      0.4573695180D+03  0.1403732281D-01
      0.1039486850D+03  0.6884262226D-01
      0.2921015530D+02  0.2321844432D+00
      0.9286662960D+01  0.4679413484D+00
      0.3163926960D+01  0.3623119853D+00
 Atom C24      Shell    70 SP   3    bf  191 -   194         18.774691027364          6.144480066826          1.282424316437
      0.7868272350D+01 -0.1193324198D+00  0.6899906659D-01
      0.1881288540D+01 -0.1608541517D+00  0.3164239610D+00
      0.5442492580D+00  0.1143456438D+01  0.7443082909D+00
 Atom C24      Shell    71 SP   1    bf  195 -   198         18.774691027364          6.144480066826          1.282424316437
      0.1687144782D+00  0.1000000000D+01  0.1000000000D+01
 Atom C24      Shell    72 D   1     bf  199 -   204         18.774691027364          6.144480066826          1.282424316437
      0.8000000000D+00  0.1000000000D+01
 Atom H25      Shell    73 S   3     bf  205 -   205         20.017749532761          6.934132026920         -0.167583559081
      0.1873113696D+02  0.3349460434D-01
      0.2825394365D+01  0.2347269535D+00
      0.6401216923D+00  0.8137573261D+00
 Atom H25      Shell    74 S   1     bf  206 -   206         20.017749532761          6.934132026920         -0.167583559081
      0.1612777588D+00  0.1000000000D+01
 Atom H26      Shell    75 S   3     bf  207 -   207         19.428679756247          6.912013481733          3.089612314099
      0.1873113696D+02  0.3349460434D-01
      0.2825394365D+01  0.2347269535D+00
      0.6401216923D+00  0.8137573261D+00
 Atom H26      Shell    76 S   1     bf  208 -   208         19.428679756247          6.912013481733          3.089612314099
      0.1612777588D+00  0.1000000000D+01
 Atom C27      Shell    77 S   6     bf  209 -   209         10.050252795601          6.027206686581          0.876543136156
      0.3047524880D+04  0.1834737132D-02
      0.4573695180D+03  0.1403732281D-01
      0.1039486850D+03  0.6884262226D-01
      0.2921015530D+02  0.2321844432D+00
      0.9286662960D+01  0.4679413484D+00
      0.3163926960D+01  0.3623119853D+00
 Atom C27      Shell    78 SP   3    bf  210 -   213         10.050252795601          6.027206686581          0.876543136156
      0.7868272350D+01 -0.1193324198D+00  0.6899906659D-01
      0.1881288540D+01 -0.1608541517D+00  0.3164239610D+00
      0.5442492580D+00  0.1143456438D+01  0.7443082909D+00
 Atom C27      Shell    79 SP   1    bf  214 -   217         10.050252795601          6.027206686581          0.876543136156
      0.1687144782D+00  0.1000000000D+01  0.1000000000D+01
 Atom C27      Shell    80 D   1     bf  218 -   223         10.050252795601          6.027206686581          0.876543136156
      0.8000000000D+00  0.1000000000D+01
 Atom H28      Shell    81 S   3     bf  224 -   224         10.457167202542          6.147533675284          2.910232064044
      0.1873113696D+02  0.3349460434D-01
      0.2825394365D+01  0.2347269535D+00
      0.6401216923D+00  0.8137573261D+00
 Atom H28      Shell    82 S   1     bf  225 -   225         10.457167202542          6.147533675284          2.910232064044
      0.1612777588D+00  0.1000000000D+01
 Atom C29      Shell    83 S   6     bf  226 -   226         21.443098919991          1.921024419605          0.672139283828
      0.3047524880D+04  0.1834737132D-02
      0.4573695180D+03  0.1403732281D-01
      0.1039486850D+03  0.6884262226D-01
      0.2921015530D+02  0.2321844432D+00
      0.9286662960D+01  0.4679413484D+00
      0.3163926960D+01  0.3623119853D+00
 Atom C29      Shell    84 SP   3    bf  227 -   230         21.443098919991          1.921024419605          0.672139283828
      0.7868272350D+01 -0.1193324198D+00  0.6899906659D-01
      0.1881288540D+01 -0.1608541517D+00  0.3164239610D+00
      0.5442492580D+00  0.1143456438D+01  0.7443082909D+00
 Atom C29      Shell    85 SP   1    bf  231 -   234         21.443098919991          1.921024419605          0.672139283828
      0.1687144782D+00  0.1000000000D+01  0.1000000000D+01
 Atom C29      Shell    86 D   1     bf  235 -   240         21.443098919991          1.921024419605          0.672139283828
      0.8000000000D+00  0.1000000000D+01
 Atom H30      Shell    87 S   3     bf  241 -   241         21.010675515722          0.000000000000          0.000000000000
      0.1873113696D+02  0.3349460434D-01
      0.2825394365D+01  0.2347269535D+00
      0.6401216923D+00  0.8137573261D+00
 Atom H30      Shell    88 S   1     bf  242 -   242         21.010675515722          0.000000000000          0.000000000000
      0.1612777588D+00  0.1000000000D+01
 Atom C31      Shell    89 S   6     bf  243 -   243         16.913770500148          2.709830235926         -3.130576379913
      0.3047524880D+04  0.1834737132D-02
      0.4573695180D+03  0.1403732281D-01
      0.1039486850D+03  0.6884262226D-01
      0.2921015530D+02  0.2321844432D+00
      0.9286662960D+01  0.4679413484D+00
      0.3163926960D+01  0.3623119853D+00
 Atom C31      Shell    90 SP   3    bf  244 -   247         16.913770500148          2.709830235926         -3.130576379913
      0.7868272350D+01 -0.1193324198D+00  0.6899906659D-01
      0.1881288540D+01 -0.1608541517D+00  0.3164239610D+00
      0.5442492580D+00  0.1143456438D+01  0.7443082909D+00
 Atom C31      Shell    91 SP   1    bf  248 -   251         16.913770500148          2.709830235926         -3.130576379913
      0.1687144782D+00  0.1000000000D+01  0.1000000000D+01
 Atom C31      Shell    92 D   1     bf  252 -   257         16.913770500148          2.709830235926         -3.130576379913
      0.8000000000D+00  0.1000000000D+01
 Atom H32      Shell    93 S   3     bf  258 -   258         15.180150410113          2.403743508511         -4.211273414322
      0.1873113696D+02  0.3349460434D-01
      0.2825394365D+01  0.2347269535D+00
      0.6401216923D+00  0.8137573261D+00
 Atom H32      Shell    94 S   1     bf  259 -   259         15.180150410113          2.403743508511         -4.211273414322
      0.1612777588D+00  0.1000000000D+01
 Atom H33      Shell    95 S   3     bf  260 -   260         17.608695364693          4.592261364534         -3.623318103795
      0.1873113696D+02  0.3349460434D-01
      0.2825394365D+01  0.2347269535D+00
      0.6401216923D+00  0.8137573261D+00
 Atom H33      Shell    96 S   1     bf  261 -   261         17.608695364693          4.592261364534         -3.623318103795
      0.1612777588D+00  0.1000000000D+01
 Atom H34      Shell    97 S   3     bf  262 -   262         18.301268786320          1.329700407686         -3.804899091110
      0.1873113696D+02  0.3349460434D-01
      0.2825394365D+01  0.2347269535D+00
      0.6401216923D+00  0.8137573261D+00
 Atom H34      Shell    98 S   1     bf  263 -   263         18.301268786320          1.329700407686         -3.804899091110
      0.1612777588D+00  0.1000000000D+01
 Atom C35      Shell    99 S   6     bf  264 -   264          6.442949723939          3.159374577856         -0.422720038522
      0.3047524880D+04  0.1834737132D-02
      0.4573695180D+03  0.1403732281D-01
      0.1039486850D+03  0.6884262226D-01
      0.2921015530D+02  0.2321844432D+00
      0.9286662960D+01  0.4679413484D+00
      0.3163926960D+01  0.3623119853D+00
 Atom C35      Shell   100 SP   3    bf  265 -   268          6.442949723939          3.159374577856         -0.422720038522
      0.7868272350D+01 -0.1193324198D+00  0.6899906659D-01
      0.1881288540D+01 -0.1608541517D+00  0.3164239610D+00
      0.5442492580D+00  0.1143456438D+01  0.7443082909D+00
 Atom C35      Shell   101 SP   1    bf  269 -   272          6.442949723939          3.159374577856         -0.422720038522
      0.1687144782D+00  0.1000000000D+01  0.1000000000D+01
 Atom C35      Shell   102 D   1     bf  273 -   278          6.442949723939          3.159374577856         -0.422720038522
      0.8000000000D+00  0.1000000000D+01
 Atom C36      Shell   103 S   6     bf  279 -   279          7.036906275541         -1.515691902410          0.034027164639
      0.3047524880D+04  0.1834737132D-02
      0.4573695180D+03  0.1403732281D-01
      0.1039486850D+03  0.6884262226D-01
      0.2921015530D+02  0.2321844432D+00
      0.9286662960D+01  0.4679413484D+00
      0.3163926960D+01  0.3623119853D+00
 Atom C36      Shell   104 SP   3    bf  280 -   283          7.036906275541         -1.515691902410          0.034027164639
      0.7868272350D+01 -0.1193324198D+00  0.6899906659D-01
      0.1881288540D+01 -0.1608541517D+00  0.3164239610D+00
      0.5442492580D+00  0.1143456438D+01  0.7443082909D+00
 Atom C36      Shell   105 SP   1    bf  284 -   287          7.036906275541         -1.515691902410          0.034027164639
      0.1687144782D+00  0.1000000000D+01  0.1000000000D+01
 Atom C36      Shell   106 D   1     bf  288 -   293          7.036906275541         -1.515691902410          0.034027164639
      0.8000000000D+00  0.1000000000D+01
 Atom H37      Shell   107 S   3     bf  294 -   294          7.314683582677         -1.464484651682          2.091123544320
      0.1873113696D+02  0.3349460434D-01
      0.2825394365D+01  0.2347269535D+00
      0.6401216923D+00  0.8137573261D+00
 Atom H37      Shell   108 S   1     bf  295 -   295          7.314683582677         -1.464484651682          2.091123544320
      0.1612777588D+00  0.1000000000D+01
 Atom H38      Shell   109 S   3     bf  296 -   296          8.092957388341         -3.154385984324         -0.659973094704
      0.1873113696D+02  0.3349460434D-01
      0.2825394365D+01  0.2347269535D+00
      0.6401216923D+00  0.8137573261D+00
 Atom H38      Shell   110 S   1     bf  297 -   297          8.092957388341         -3.154385984324         -0.659973094704
      0.1612777588D+00  0.1000000000D+01
 Atom C39      Shell   111 S   6     bf  298 -   298          7.317019737711          5.348189536622          0.508817529609
      0.3047524880D+04  0.1834737132D-02
[...]
 1602 Fit       0.002489
 1603 Fit       0.000248
 1604 Fit       0.000544
 1605 Fit      -0.001871
 1606 Fit      -0.002669
 1607 Fit      -0.002574
 1608 Fit      -0.002421
 1609 Fit      -0.002582
 1610 Fit      -0.001456
 1611 Fit      -0.000858
 1612 Fit      -0.000071
 1613 Fit       0.001798
 1614 Fit      -0.001231
 1615 Fit       0.003298
 1616 Fit       0.001096
 1617 Fit       0.003077
 1618 Fit       0.002326
 1619 Fit       0.000488
 1620 Fit      -0.001717
 1621 Fit       0.001838
 1622 Fit       0.000091
 1623 Fit      -0.001716
 1624 Fit      -0.001898
 1625 Fit      -0.001883
 1626 Fit      -0.001310
 1627 Fit       0.000339
 1628 Fit      -0.001176
 1629 Fit      -0.000655
 1630 Fit       0.000712
 1631 Fit       0.001078
 1632 Fit       0.001857
 1633 Fit       0.000344
 1634 Fit       0.002105
 1635 Fit       0.002556
 1636 Fit       0.002479
 1637 Fit       0.001186
 1638 Fit       0.003371
 1639 Fit      -0.000247
 1640 Fit      -0.000190
 1641 Fit       0.001422
 1642 Fit       0.000965
 1643 Fit      -0.000665
 1644 Fit       0.001283
 1645 Fit       0.002331
 1646 Fit       0.002512
 1647 Fit      -0.001747
 1648 Fit       0.000160
 1649 Fit       0.001507
 1650 Fit       0.002170
 1651 Fit      -0.001033
 1652 Fit       0.000330
 1653 Fit      -0.017237
 1654 Fit      -0.016845
 1655 Fit      -0.023051
 1656 Fit      -0.023997
 1657 Fit      -0.021264
 1658 Fit      -0.014608
 1659 Fit      -0.025151
 1660 Fit      -0.023736
 1661 Fit      -0.020438
 1662 Fit      -0.014215
 1663 Fit      -0.021914
 1664 Fit      -0.019768
 1665 Fit      -0.016734
 1666 Fit      -0.012679
 1667 Fit      -0.006894
 1668 Fit      -0.015075
 1669 Fit      -0.012315
 1670 Fit      -0.008034
 1671 Fit      -0.000712
 1672 Fit       0.003356
 1673 Fit       0.006505
 1674 Fit       0.003214
 1675 Fit       0.004982
 1676 Fit       0.008220
 1677 Fit       0.011272
 1678 Fit       0.012941
 1679 Fit       0.013321
 1680 Fit       0.012655
 1681 Fit       0.015056
 1682 Fit       0.016843
 1683 Fit       0.018101
 1684 Fit       0.017176
 1685 Fit      -0.017557
 1686 Fit      -0.021986
 1687 Fit      -0.018883
 1688 Fit      -0.019966
 1689 Fit      -0.024262
 1690 Fit      -0.025450
 1691 Fit      -0.024608
 1692 Fit      -0.021443
 1693 Fit      -0.014598
 1694 Fit      -0.019076
 1695 Fit      -0.022692
 1696 Fit      -0.023485
 1697 Fit      -0.023097
 1698 Fit      -0.022091
 1699 Fit      -0.019726
 1700 Fit      -0.015499
 1701 Fit      -0.016834
 1702 Fit      -0.016378
 1703 Fit      -0.015490
 1704 Fit      -0.014719
 1705 Fit      -0.013643
 1706 Fit      -0.011077
 1707 Fit      -0.005202
 1708 Fit      -0.005818
 1709 Fit      -0.004456
 1710 Fit      -0.002868
 1711 Fit      -0.001917
 1712 Fit      -0.001122
 1713 Fit       0.000664
 1714 Fit       0.000635
 1715 Fit       0.001939
 1716 Fit       0.002956
 1717 Fit       0.003753
 1718 Fit       0.005020
 1719 Fit       0.011710
 1720 Fit       0.011814
 1721 Fit       0.012617
 1722 Fit       0.013620
 1723 Fit       0.015232
 1724 Fit       0.019460
 1725 Fit       0.018804
 1726 Fit       0.020087
 1727 Fit       0.023269
 1728 Fit       0.023090
 1729 Fit       0.002600
 1730 Fit       0.000331
 1731 Fit       0.001514
 1732 Fit       0.003967
 1733 Fit       0.004529
 1734 Fit       0.003866
 1735 Fit       0.007532
 1736 Fit       0.009738
 1737 Fit       0.014817
 1738 Fit       0.005236
 1739 Fit       0.005812
 1740 Fit       0.004246
 1741 Fit       0.004621
 1742 Fit       0.006205
 1743 Fit       0.005807
 1744 Fit       0.001213
 1745 Fit      -0.000471
 1746 Fit       0.000694
 1747 Fit       0.002650
 1748 Fit       0.003082
 1749 Fit       0.002965
 1750 Fit       0.001596
 1751 Fit       0.001001
 1752 Fit       0.004339
 1753 Fit       0.003906
 1754 Fit       0.005181
 1755 Fit       0.004351
 1756 Fit       0.003610
 1757 Fit       0.004722
 1758 Fit       0.003434
 1759 Fit       0.002502
 1760 Fit       0.002574
 1761 Fit       0.001686
 1762 Fit       0.001184
 1763 Fit       0.003647
 1764 Fit       0.003311
 1765 Fit       0.003242
 1766 Fit       0.004552
 1767 Fit       0.004487
 1768 Fit       0.004659
 1769 Fit       0.004944
 1770 Fit       0.005163
 1771 Fit       0.005740
 1772 Fit       0.005194
 1773 Fit      -0.001728
 1774 Fit      -0.008508
 1775 Fit      -0.007875
 1776 Fit      -0.011980
 1777 Fit      -0.021458
 1778 Fit      -0.003100
 1779 Fit      -0.004620
 1780 Fit      -0.006354
 1781 Fit      -0.003931
 1782 Fit      -0.006735
 1783 Fit      -0.009830
 1784 Fit      -0.014141
 1785 Fit      -0.008016
 1786 Fit      -0.010467
 1787 Fit      -0.016274
 1788 Fit      -0.013213
 1789 Fit      -0.021891
 1790 Fit      -0.004743
 1791 Fit      -0.007560
 1792 Fit      -0.012168
 1793 Fit       0.000251
 1794 Fit      -0.002101
 1795 Fit      -0.003605
 1796 Fit       0.001588
 1797 Fit       0.002213
 1798 Fit       0.006153
 1799 Fit       0.007070
 1800 Fit       0.005148
 1801 Fit       0.008318
 1802 Fit       0.006174
 1803 Fit       0.005093
 1804 Fit       0.007200
 1805 Fit       0.008127
 1806 Fit       0.005785
 1807 Fit       0.004656
 1808 Fit       0.006174
 1809 Fit       0.004693
 1810 Fit       0.007576
 1811 Fit       0.005874
 1812 Fit       0.004148
 1813 Fit       0.008466
 1814 Fit       0.006184
 1815 Fit       0.004759
 1816 Fit       0.007998
 1817 Fit      -0.003393
 1818 Fit      -0.005026
 1819 Fit      -0.007112
 1820 Fit      -0.007036
 1821 Fit      -0.003215
 1822 Fit      -0.001750
 1823 Fit      -0.003271
 1824 Fit      -0.000893
 1825 Fit      -0.000730
 1826 Fit      -0.001678
 1827 Fit       0.001297
 1828 Fit      -0.000501
 1829 Fit      -0.000079
 1830 Fit      -0.000745
 1831 Fit      -0.001657
 1832 Fit      -0.001156
 1833 Fit      -0.000253
 1834 Fit      -0.000729
 1835 Fit      -0.000636
 1836 Fit      -0.001851
 1837 Fit      -0.003236
 1838 Fit      -0.001352
 1839 Fit      -0.002725
 1840 Fit      -0.004242
 1841 Fit      -0.006166
 1842 Fit       0.000812
 1843 Fit       0.001086
 1844 Fit      -0.002417
 1845 Fit      -0.002738
 1846 Fit      -0.000415
 1847 Fit       0.002288
 1848 Fit       0.003560
 1849 Fit      -0.009215
 1850 Fit      -0.010652
 1851 Fit      -0.006643
 1852 Fit       0.000843
 1853 Fit       0.001659
 1854 Fit       0.003156
 1855 Fit       0.005540
 1856 Fit       0.005305
 1857 Fit       0.003603
 1858 Fit       0.001654
 1859 Fit       0.001835
 1860 Fit       0.002975
 1861 Fit       0.002104
 1862 Fit       0.002181
 1863 Fit       0.009747
 1864 Fit       0.006268
 1865 Fit       0.005764
 1866 Fit       0.007439
 1867 Fit       0.005975
 1868 Fit       0.004210
 1869 Fit       0.002744
 1870 Fit       0.002253
 1871 Fit       0.003192
 1872 Fit       0.003101
 1873 Fit       0.003228
 1874 Fit       0.004155
 1875 Fit       0.002733
 1876 Fit       0.002988
 1877 Fit       0.004958
 1878 Fit       0.005367
 1879 Fit       0.004118
 1880 Fit       0.004281
 1881 Fit       0.002586
 1882 Fit       0.002871
 1883 Fit       0.003138
 1884 Fit       0.005245
 1885 Fit       0.005421
 1886 Fit       0.005303
 1887 Fit       0.006218
 1888 Fit       0.005535
 1889 Fit       0.004542
 1890 Fit       0.004899
 1891 Fit       0.004848
 1892 Fit       0.005448
 1893 Fit       0.004456
 1894 Fit       0.004767
 1895 Fit       0.005166
 1896 Fit       0.005894
 1897 Fit       0.006458
 1898 Fit       0.006629
 1899 Fit       0.007368
 1900 Fit       0.007521
 1901 Fit       0.008360
 1902 Fit       0.009110
 1903 Fit       0.008724
 1904 Fit       0.009484
 1905 Fit      -0.001637
 1906 Fit      -0.003101
 1907 Fit      -0.003405
 1908 Fit      -0.002538
 1909 Fit      -0.002655
 1910 Fit       0.005581
 1911 Fit       0.008901
 1912 Fit      -0.002562
 1913 Fit      -0.001899
 1914 Fit      -0.005455
 1915 Fit      -0.000645
 1916 Fit       0.000639
 1917 Fit      -0.004777
 1918 Fit       0.000576
 1919 Fit       0.002806
 1920 Fit      -0.002436
 1921 Fit       0.001964
 1922 Fit       0.003294
 1923 Fit       0.003460
 1924 Fit       0.008410
 1925 Fit       0.009802
 1926 Fit       0.007054
 1927 Fit       0.006185
 1928 Fit       0.007100
 1929 Fit       0.006944
 1930 Fit       0.006226
 1931 Fit       0.006275
 1932 Fit       0.009610
 1933 Fit       0.009291
 1934 Fit       0.009214
 1935 Fit       0.008640
 1936 Fit       0.008058
 1937 Fit       0.008482
 1938 Fit       0.008335
 1939 Fit       0.008347
 1940 Fit       0.008156
 1941 Fit       0.006755
 1942 Fit       0.007248
 1943 Fit       0.007294
 1944 Fit       0.011441
 1945 Fit       0.015077
 1946 Fit       0.015920
 1947 Fit       0.012996
 1948 Fit       0.009107
 1949 Fit       0.011006
 1950 Fit       0.009480
 1951 Fit       0.007855
 1952 Fit       0.015208
 1953 Fit       0.009919
 1954 Fit       0.011397
 1955 Fit       0.010918
 1956 Fit       0.008654
 1957 Fit       0.007497
 1958 Fit       0.008627
 1959 Fit       0.008020
 1960 Fit       0.006868
 1961 Fit       0.003978
 1962 Fit       0.003855
 1963 Fit       0.003830
 1964 Fit       0.006118
 1965 Fit      -0.001336
 1966 Fit      -0.006451
 1967 Fit      -0.001112
 1968 Fit      -0.008274
 1969 Fit       0.003419
 1970 Fit       0.000388
 1971 Fit      -0.005162
 1972 Fit       0.003475
 1973 Fit       0.001482
 1974 Fit      -0.002398
 1975 Fit       0.003648
 1976 Fit       0.002756
 1977 Fit       0.007240
 1978 Fit       0.007120
 1979 Fit       0.008228
 1980 Fit       0.012642
 1981 Fit       0.010380
 1982 Fit       0.011028
 1983 Fit       0.015331
 1984 Fit       0.019260
 1985 Fit       0.007939
 1986 Fit       0.005477
 1987 Fit       0.005817
 1988 Fit       0.007374
 1989 Fit       0.006465
 1990 Fit       0.018662
 1991 Fit       0.011011
 1992 Fit       0.008826
 1993 Fit       0.008992
 1994 Fit       0.017969
 1995 Fit       0.012658
 1996 Fit       0.010940
 1997 Fit       0.002238
 1998 Fit      -0.004720
 1999 Fit       0.000300
 2000 Fit       0.003664
 2001 Fit      -0.010640
 2002 Fit      -0.001686
 2003 Fit       0.002544
 2004 Fit       0.004491
 2005 Fit      -0.009232
 2006 Fit      -0.000892
 2007 Fit       0.002825
 2008 Fit       0.004714
 2009 Fit       0.005953
 2010 Fit      -0.005204
 2011 Fit       0.000619
 2012 Fit       0.003432
 2013 Fit       0.005134
 2014 Fit       0.004589
 2015 Fit       0.002060
 2016 Fit       0.003025
 2017 Fit       0.000163
 2018 Fit      -0.000143
 2019 Fit       0.000949
 2020 Fit       0.000433
 2021 Fit      -0.000623
 2022 Fit      -0.000759
 2023 Fit      -0.000192
 2024 Fit       0.002938
 2025 Fit       0.000242
 2026 Fit      -0.002747
 2027 Fit      -0.005542
 2028 Fit      -0.002603
 2029 Fit       0.002242
 2030 Fit      -0.000650
 2031 Fit      -0.002217
 2032 Fit      -0.002495
 2033 Fit      -0.007390
 2034 Fit      -0.014118
 2035 Fit      -0.015949
 2036 Fit      -0.009930
 2037 Fit      -0.001576
 2038 Fit       0.004216
 2039 Fit      -0.002552
 2040 Fit      -0.001898
 2041 Fit      -0.002549
 2042 Fit      -0.001281
 2043 Fit      -0.002218
 2044 Fit      -0.002072
 2045 Fit      -0.001151
 2046 Fit      -0.001531
 2047 Fit      -0.000620
 2048 Fit      -0.000017
 2049 Fit      -0.002088
 2050 Fit      -0.002131
 2051 Fit      -0.000919
 2052 Fit      -0.000957
 2053 Fit      -0.002185
 2054 Fit      -0.000832
 2055 Fit      -0.000043
 2056 Fit       0.000138
 2057 Fit      -0.000968
 2058 Fit      -0.000067
 2059 Fit       0.000033
 2060 Fit      -0.000833
 2061 Fit       0.000089
 2062 Fit      -0.000538
 2063 Fit      -0.000803
 2064 Fit      -0.000800
 2065 Fit      -0.000253
 2066 Fit       0.000787
 2067 Fit      -0.000595
 2068 Fit       0.000139
 2069 Fit       0.001263
 2070 Fit       0.001535
 2071 Fit       0.001213
 2072 Fit       0.002854
 2073 Fit      -0.000300
 2074 Fit      -0.001878
 2075 Fit      -0.000820
 2076 Fit       0.001190
 2077 Fit       0.001355
 2078 Fit      -0.000141
 2079 Fit       0.002987
 2080 Fit       0.002521
 2081 Fit       0.001415
 2082 Fit      -0.000170
 2083 Fit       0.002344
 2084 Fit       0.001360
 2085 Fit      -0.000039
 2086 Fit       0.000712
 2087 Fit       0.000551
 2088 Fit       0.001622
 2089 Fit       0.001158
 2090 Fit       0.000474
 2091 Fit       0.002783
 2092 Fit       0.002580
 2093 Fit       0.003194
 2094 Fit       0.002504
 2095 Fit       0.004764
 2096 Fit       0.004029
 2097 Fit       0.003467
 2098 Fit      -0.001825
 2099 Fit      -0.000886
 2100 Fit       0.000825
 2101 Fit       0.001018
 2102 Fit       0.001787
 2103 Fit       0.001243
 2104 Fit       0.001311
 2105 Fit       0.000585
 2106 Fit      -0.000467
 2107 Fit       0.001010
 2108 Fit       0.000623
 2109 Fit      -0.000163
 2110 Fit      -0.001293
 2111 Fit      -0.000544
 2112 Fit      -0.000296
 2113 Fit       0.001404
 2114 Fit      -0.000050
 2115 Fit       0.000811
 2116 Fit       0.002118
 2117 Fit       0.002966
 2118 Fit       0.003192
 2119 Fit       0.001165
 2120 Fit       0.002154
 2121 Fit       0.003195
 2122 Fit       0.000510
 2123 Fit       0.000301
 2124 Fit       0.000357
 2125 Fit       0.000653
 2126 Fit       0.000943
 2127 Fit       0.000707
 2128 Fit      -0.000105
 2129 Fit       0.001113
 2130 Fit       0.001280
 2131 Fit       0.001295
 2132 Fit       0.000960
 2133 Fit       0.000891
 2134 Fit       0.001457
 2135 Fit       0.001038
 2136 Fit       0.001241
 2137 Fit       0.000984
 2138 Fit       0.000453
 2139 Fit      -0.001009
 2140 Fit       0.000592
 2141 Fit      -0.000595
 2142 Fit      -0.000925
 2143 Fit      -0.000125
 2144 Fit      -0.000961
 2145 Fit      -0.001044
 2146 Fit       0.000314
 2147 Fit       0.000192
 2148 Fit      -0.000709
 2149 Fit      -0.000920
 2150 Fit      -0.000407
 2151 Fit      -0.000756
 2152 Fit      -0.000599
 2153 Fit       0.003384
 2154 Fit       0.002530
 2155 Fit       0.001441
 2156 Fit       0.003730
 2157 Fit       0.002881
 2158 Fit       0.001986
 2159 Fit       0.000783
 2160 Fit      -0.000717
 2161 Fit       0.001650
 2162 Fit       0.001301
 2163 Fit       0.000568
 2164 Fit      -0.000484
 2165 Fit      -0.000566
 2166 Fit       0.000492
 2167 Fit       0.002755
 2168 Fit      -0.000814
 2169 Fit       0.000450
 2170 Fit       0.001570
 2171 Fit       0.002417
 2172 Fit       0.002142
 2173 Fit       0.001304
 2174 Fit       0.000045
 2175 Fit       0.001369
 2176 Fit       0.002166
 2177 Fit       0.001286
 2178 Fit       0.000128
 2179 Fit      -0.000297
 2180 Fit       0.001073
 2181 Fit       0.000011
 2182 Fit       0.002603
 2183 Fit       0.003349
 2184 Fit       0.002848
 2185 Fit       0.001698
 2186 Fit       0.001998
 2187 Fit       0.003002
 2188 Fit       0.003090
 2189 Fit       0.002219
 2190 Fit       0.000551
 2191 Fit       0.000485
 2192 Fit       0.001932
 2193 Fit       0.001972
 2194 Fit       0.000423
 2195 Fit       0.000585
 2196 Fit       0.000071
 2197 Fit      -0.001143
 2198 Fit      -0.001563
 2199 Fit      -0.001785
 2200 Fit      -0.001813
 2201 Fit      -0.001749
 2202 Fit      -0.002037
 2203 Fit      -0.001581
 2204 Fit      -0.001324
 2205 Fit      -0.001191
 2206 Fit      -0.001270
 2207 Fit      -0.000310
 2208 Fit       0.001657
 2209 Fit      -0.000635
 2210 Fit       0.002740
 2211 Fit       0.000950
 2212 Fit       0.002723
 2213 Fit       0.002001
 2214 Fit       0.000600
 2215 Fit      -0.001030
 2216 Fit       0.002425
 2217 Fit       0.001648
 2218 Fit       0.000374
 2219 Fit      -0.001031
 2220 Fit      -0.000848
 2221 Fit      -0.000527
 2222 Fit      -0.000872
 2223 Fit      -0.000151
 2224 Fit      -0.000009
 2225 Fit       0.000808
 2226 Fit      -0.000202
 2227 Fit       0.000457
 2228 Fit       0.001245
 2229 Fit       0.001364
 2230 Fit       0.001672
 2231 Fit       0.000691
 2232 Fit       0.002115
 2233 Fit       0.002214
 2234 Fit       0.002121
 2235 Fit      -0.000136
 2236 Fit      -0.000235
 2237 Fit       0.000845
 2238 Fit       0.000625
 2239 Fit      -0.000486
 2240 Fit       0.000882
 2241 Fit       0.001641
 2242 Fit       0.001757
 2243 Fit      -0.001051
 2244 Fit       0.000313
 2245 Fit       0.001316
 2246 Fit       0.001866
 2247 Fit      -0.000467
 2248 Fit       0.000570
 2249 Fit       0.001189
 -----------------------------------------------------------------
 Leave Link  602 at Thu May 18 12:49:59 2017, MaxMem=    33554432 cpu:         3.3
 (Enter /home/michal/g09/l9999.exe)

 Test job not archived.
 1\1\GINC-LINUX\SP\RHF\6-31G(d)\C27H46O2\MICHAL\18-May-2017\0\\#P HF/6-
 31G* SCF(Conver=6) NoSymm Test Pop=mk IOp(6/33=2) GFInput GFPrint\\MEP
  - Input generated by R.E.D.-III.x MOLECULE\\0,1\O,0,5.54986953,4.5342
 3657,0.\H,0,5.22025894,4.59682214,-0.90760962\O,0,0.,0.,0.\H,0,-0.1550
 9668,-0.10330853,-0.94943735\C,0,8.7248911,1.27448483,-0.13675491\C,0,
 7.69790949,2.29475596,0.42160653\H,0,7.5809824,2.02957027,1.48648901\C
 ,0,6.28667215,2.1779938,-0.17854171\H,0,6.32127579,2.40429767,-1.25431
 369\C,0,5.75404906,0.72976534,0.03114423\H,0,5.62210096,0.62102488,1.1
 2031394\C,0,9.98405319,1.69189467,0.68558426\H,0,9.7466709,1.37714225,
 1.71235426\C,0,8.19493582,-0.13482264,0.17556405\H,0,8.17005195,-0.269
 05933,1.26668475\H,0,8.86463008,-0.9102152,-0.22009414\C,0,4.3304296,0
 .50201688,-0.58863312\C,0,8.45186772,3.6394031,0.39171261\H,0,8.052989
 79,4.35234395,1.11714214\H,0,8.35267794,4.1179376,-0.58820923\C,0,6.78
 073519,-0.34850574,-0.39822844\H,0,6.8460051,-0.38477084,-1.49056527\H
 ,0,6.42285507,-1.33559213,-0.08563743\C,0,9.93513859,3.25151881,0.6786
 2972\H,0,10.59293682,3.66938463,-0.0886814\H,0,10.28121452,3.65768,1.6
 3495242\C,0,5.31836472,3.18946041,0.46384665\H,0,5.53369455,3.25313471
 ,1.54002848\C,0,11.34719923,1.01656234,0.35568079\H,0,11.11837062,0.,0
 .\C,0,8.95038186,1.4339804,-1.65662967\H,0,8.03298962,1.27200628,-2.22
 850991\H,0,9.31812026,2.43012005,-1.91737736\H,0,9.68461433,0.70364715
 ,-2.01346588\C,0,3.40946215,1.67186902,-0.22369381\C,0,3.72377042,-0.8
 0206961,0.0180064\H,0,3.87076384,-0.7749719,1.10657492\H,0,4.2826086,-
 1.66922917,-0.34924272\C,0,3.87200008,2.83014001,0.26925464\H,0,3.1688
 9609,3.61655343,0.54359531\C,0,4.38958977,0.37610722,-2.13479267\H,0,4
 .88550971,-0.55002358,-2.44117263\H,0,3.38955254,0.36641121,-2.5760147
 7\H,0,4.92999578,1.21682578,-2.58048551\C,0,1.91998708,1.47124019,-0.4
 3079278\H,0,1.36428445,2.32982643,-0.04127389\H,0,1.69835345,1.4138377
 8,-1.50880627\C,0,2.22766129,-1.01388617,-0.2611999\H,0,2.0540501,-1.1
 6025189,-1.33772824\H,0,1.87938124,-1.924823,0.23873484\C,0,12.1880986
 6,1.70707916,-0.74499996\H,0,11.53825325,2.09220974,-1.53730499\H,0,12
 .69118977,2.58506704,-0.31529452\C,0,1.40185567,0.17946416,0.21839112\
 H,0,1.49449761,0.26657583,1.30782588\C,0,12.17846597,0.86501882,1.6463
 5791\H,0,12.38146189,1.84540468,2.09512441\H,0,13.14265454,0.38176642,
 1.45841404\H,0,11.64734532,0.26175259,2.39104149\C,0,13.24136723,0.794
 66773,-1.39612611\H,0,13.90960439,0.38960796,-0.62684222\H,0,12.729931
 64,-0.06792523,-1.84458951\C,0,14.06906164,1.52565037,-2.46536364\H,0,
 14.5577067,2.39279032,-1.99795388\H,0,13.38336366,1.93653455,-3.220656
 65\C,0,15.15067338,0.69402734,-3.19366621\H,0,15.62729588,1.38059454,-
 3.90902437\C,0,14.55678557,-0.46615756,-4.00972596\H,0,14.11405054,-1.
 23137852,-3.36171559\H,0,15.33097601,-0.95613729,-4.61123316\H,0,13.77
 55668,-0.11407355,-4.69378764\C,0,16.25335915,0.19450781,-2.24536044\H
 ,0,15.87081807,-0.54790557,-1.53544309\H,0,17.06549718,-0.28021548,-2.
 80777743\H,0,16.68576713,1.0191481,-1.66651521\\Version=EM64L-G09RevD.
 01\HF=-1198.9250566\RMSD=4.986e-07\Dipole=0.2351402,-0.6156335,-0.8699
 201\Quadrupole=-1.7589805,-4.5331569,6.2921374,-7.7843991,-3.1628854,-
 3.250343\PG=C01 [X(C27H46O2)]\\@


 YOU CAN WIPE THE SLATE CLEAN, BUT YOU'LL STILL
 HAVE TO EAT A LITTLE CHALK DUST.
 Job cpu time:       0 days  0 hours 10 minutes 41.3 seconds.
 File lengths (MBytes):  RWF=    150 Int=      0 D2E=      0 Chk=     11 Scr=      1
 Normal termination of Gaussian 09 at Thu May 18 12:49:59 2017.
