 Entering Gaussian System, Link 0=/home/michal/g09/g09
 Input=JOB2-gau_m1-16-3.com
 Output=JOB2-gau_m1-16-3.log
 Initial command:
 /home/michal/g09/l1.exe "/home/michal/gauss_scratch/Gau-26739.inp" -scrdir="/home/michal/gauss_scratch/"
 Entering Link 1 = /home/michal/g09/l1.exe PID=     26740.
  
 Copyright (c) 1988,1990,1992,1993,1995,1998,2003,2009,2013,
            Gaussian, Inc.  All Rights Reserved.
  
 This is part of the Gaussian(R) 09 program.  It is based on
 the Gaussian(R) 03 system (copyright 2003, Gaussian, Inc.),
 the Gaussian(R) 98 system (copyright 1998, Gaussian, Inc.),
 the Gaussian(R) 94 system (copyright 1995, Gaussian, Inc.),
 the Gaussian 92(TM) system (copyright 1992, Gaussian, Inc.),
 the Gaussian 90(TM) system (copyright 1990, Gaussian, Inc.),
 the Gaussian 88(TM) system (copyright 1988, Gaussian, Inc.),
 the Gaussian 86(TM) system (copyright 1986, Carnegie Mellon
 University), and the Gaussian 82(TM) system (copyright 1983,
 Carnegie Mellon University). Gaussian is a federally registered
 trademark of Gaussian, Inc.
  
 This software contains proprietary and confidential information,
 including trade secrets, belonging to Gaussian, Inc.
  
 This software is provided under written license and may be
 used, copied, transmitted, or stored only in accord with that
 written license.
  
 The following legend is applicable only to US Government
 contracts under FAR:
  
                    RESTRICTED RIGHTS LEGEND
  
 Use, reproduction and disclosure by the US Government is
 subject to restrictions as set forth in subparagraphs (a)
 and (c) of the Commercial Computer Software - Restricted
 Rights clause in FAR 52.227-19.
  
 Gaussian, Inc.
 340 Quinnipiac St., Bldg. 40, Wallingford CT 06492
  
  
 ---------------------------------------------------------------
 Warning -- This program may not be used in any manner that
 competes with the business of Gaussian, Inc. or will provide
 assistance to any competitor of Gaussian, Inc.  The licensee
 of this program is prohibited from giving any competitor of
 Gaussian, Inc. access to this program.  By using this program,
 the user acknowledges that Gaussian, Inc. is engaged in the
 business of creating and licensing software in the field of
 computational chemistry and represents and warrants to the
 licensee that it is not a competitor of Gaussian, Inc. and that
 it will not use this program in any manner prohibited above.
 ---------------------------------------------------------------
  

 Cite this work as:
 Gaussian 09, Revision D.01,
 M. J. Frisch, G. W. Trucks, H. B. Schlegel, G. E. Scuseria, 
 M. A. Robb, J. R. Cheeseman, G. Scalmani, V. Barone, B. Mennucci, 
 G. A. Petersson, H. Nakatsuji, M. Caricato, X. Li, H. P. Hratchian, 
 A. F. Izmaylov, J. Bloino, G. Zheng, J. L. Sonnenberg, M. Hada, 
 M. Ehara, K. Toyota, R. Fukuda, J. Hasegawa, M. Ishida, T. Nakajima, 
 Y. Honda, O. Kitao, H. Nakai, T. Vreven, J. A. Montgomery, Jr., 
 J. E. Peralta, F. Ogliaro, M. Bearpark, J. J. Heyd, E. Brothers, 
 K. N. Kudin, V. N. Staroverov, T. Keith, R. Kobayashi, J. Normand, 
 K. Raghavachari, A. Rendell, J. C. Burant, S. S. Iyengar, J. Tomasi, 
 M. Cossi, N. Rega, J. M. Millam, M. Klene, J. E. Knox, J. B. Cross, 
 V. Bakken, C. Adamo, J. Jaramillo, R. Gomperts, R. E. Stratmann, 
 O. Yazyev, A. J. Austin, R. Cammi, C. Pomelli, J. W. Ochterski, 
 R. L. Martin, K. Morokuma, V. G. Zakrzewski, G. A. Voth, 
 P. Salvador, J. J. Dannenberg, S. Dapprich, A. D. Daniels, 
 O. Farkas, J. B. Foresman, J. V. Ortiz, J. Cioslowski, 
 and D. J. Fox, Gaussian, Inc., Wallingford CT, 2013.
 
 ******************************************
 Gaussian 09:  EM64L-G09RevD.01 24-Apr-2013
                18-May-2017 
 ******************************************
 %Mem=256MB
 %NProc=12
 Will use up to   12 processors via shared memory.
 ----------------------------------------------------------------------
 #P HF/6-31G* SCF(Conver=6) NoSymm Test Pop=mk IOp(6/33=2) GFInput GFPr
 int
 ----------------------------------------------------------------------
 1/38=1/1;
 2/12=2,15=1,17=6,18=5,40=1/2;
 3/5=1,6=6,7=1,11=9,16=1,24=110,25=1,30=1/1,2,3;
 4//1;
 5/5=2,6=6,38=5/2;
 6/7=2,8=2,9=2,10=2,15=8,20=1,28=1,33=2/1,2;
 99/5=1,9=1/99;
 Leave Link    1 at Thu May 18 13:19:12 2017, MaxMem=    33554432 cpu:         0.6
 (Enter /home/michal/g09/l101.exe)
 ----------------------------------------------
 MEP - Input generated by R.E.D.-III.x MOLECULE
 ----------------------------------------------
 Symbolic Z-matrix:
 Charge =  0 Multiplicity = 1
 O                     6.10903   3.7432    0. 
 H                     5.6967    3.99434  -0.83859 
 O                     0.        0.        0. 
 H                    -0.26424   0.08197  -0.92716 
 C                     8.77526   0.17021  -0.99567 
 C                     7.95135   1.21549  -0.18502 
 H                     7.9055    0.81084   0.84058 
 C                     6.48325   1.37453  -0.61877 
 H                     6.43968   1.77305  -1.64279 
 C                     5.77131  -0.0076   -0.57172 
 H                     5.73775  -0.28721   0.49427 
 C                     10.14902   0.30742  -0.25124 
 H                     9.95598  -0.10975   0.74687 
 C                     8.06054  -1.18499  -0.8439 
 H                     8.10287  -1.49536   0.20957 
 H                     8.56357  -1.96871  -1.42264 
 C                     4.27434   0.05248  -1.03729 
 C                     8.86916   2.45141  -0.12555 
 H                     8.6353    3.10081   0.72112 
 H                     8.74537   3.0666   -1.02309 
 C                     6.58854  -1.10653  -1.29114 
 H                     6.55779  -0.94448  -2.37388 
 H                     6.12082  -2.08212  -1.11863 
 C                     10.29997   1.84823  -0.04895 
 H                     10.94733   2.28761  -0.81499 
 H                     10.78078   2.05775   0.91314 
 C                     5.74053   2.37891   0.28398 
 H                     6.07357   2.23834   1.32216 
 C                     11.46795  -0.37481  -0.71637 
 H                     12.21527   0.        0. 
 C                     8.87408   0.55509  -2.49044 
 H                     7.89411   0.77217  -2.92341 
 H                     9.49749   1.43832  -2.64953 
 H                     9.30657  -0.26319  -3.0734 
 C                     3.57286   1.24813  -0.38346 
 C                     3.55284  -1.2501   -0.56898 
 H                     3.81208  -1.42646   0.4841 
 H                     3.94183  -2.10508  -1.13187 
 C                     4.24536   2.23859   0.22092 
 H                     3.69455   3.04828   0.69956 
 C                     4.15681   0.18463  -2.5794 
 H                     4.48642  -0.7287   -3.0841 
 H                     3.12517   0.36962  -2.88979 
 H                     4.75963   1.01799  -2.95305 
 C                     2.05668   1.27301  -0.43134 
 H                     1.67286   2.1146    0.15356 
 H                     1.71985   1.42936  -1.46901 
 C                     2.02129  -1.22339  -0.69039 
 H                     1.72017  -1.16058  -1.74667 
 H                     1.59879  -2.15587  -0.29922 
 C                     11.47647  -1.91841  -0.59514 
 H                     10.73498  -2.33819  -1.28681 
 H                     12.44841  -2.27095  -0.96627 
 C                     1.42798  -0.03638   0.06787 
 H                     1.64279  -0.14916   1.13753 
 C                     12.00088   0.017    -2.10954 
 H                     11.4555  -0.48328  -2.91522 
 H                     13.0517  -0.28168  -2.19793 
 H                     11.95373   1.09443  -2.29227 
 C                     11.2372  -2.52147   0.80295 
 H                     10.22343  -2.27953   1.14353 
 H                     11.25546  -3.61462   0.70561 
 C                     12.22571  -2.09126   1.90391 
 H                     11.927   -2.57969   2.84334 
 H                     12.12077  -1.01296   2.08459 
 C                     13.71735  -2.39912   1.65441 
 H                     14.02207  -1.89795   0.72422 
 C                     13.98703  -3.90317   1.4881 
 H                     13.67664  -4.45535   2.3848 
 H                     15.05515  -4.09443   1.33432 
 H                     13.45056  -4.32762   0.63335 
 C                     14.57592  -1.82016   2.79051 
 H                     14.32162  -2.28832   3.75018 
 H                     15.64333  -1.99146   2.61023 
 H                     14.42278  -0.74004   2.89689 
 
 NAtoms=     75 NQM=       75 NQMF=       0 NMMI=      0 NMMIF=      0
                NMic=       0 NMicF=      0.
                    Isotopes and Nuclear Properties:
 (Nuclear quadrupole moments (NQMom) in fm**2, nuclear magnetic moments (NMagM)
  in nuclear magnetons)

  Atom         1           2           3           4           5           6           7           8           9          10
 IAtWgt=          16           1          16           1          12          12           1          12           1          12
 AtmWgt=  15.9949146   1.0078250  15.9949146   1.0078250  12.0000000  12.0000000   1.0078250  12.0000000   1.0078250  12.0000000
 NucSpn=           0           1           0           1           0           0           1           0           1           0
 AtZEff=   0.0000000   0.0000000   0.0000000   0.0000000   0.0000000   0.0000000   0.0000000   0.0000000   0.0000000   0.0000000
 NQMom=    0.0000000   0.0000000   0.0000000   0.0000000   0.0000000   0.0000000   0.0000000   0.0000000   0.0000000   0.0000000
 NMagM=    0.0000000   2.7928460   0.0000000   2.7928460   0.0000000   0.0000000   2.7928460   0.0000000   2.7928460   0.0000000
 AtZNuc=   8.0000000   1.0000000   8.0000000   1.0000000   6.0000000   6.0000000   1.0000000   6.0000000   1.0000000   6.0000000

  Atom        11          12          13          14          15          16          17          18          19          20
 IAtWgt=           1          12           1          12           1           1          12          12           1           1
 AtmWgt=   1.0078250  12.0000000   1.0078250  12.0000000   1.0078250   1.0078250  12.0000000  12.0000000   1.0078250   1.0078250
 NucSpn=           1           0           1           0           1           1           0           0           1           1
 AtZEff=   0.0000000   0.0000000   0.0000000   0.0000000   0.0000000   0.0000000   0.0000000   0.0000000   0.0000000   0.0000000
 NQMom=    0.0000000   0.0000000   0.0000000   0.0000000   0.0000000   0.0000000   0.0000000   0.0000000   0.0000000   0.0000000
 NMagM=    2.7928460   0.0000000   2.7928460   0.0000000   2.7928460   2.7928460   0.0000000   0.0000000   2.7928460   2.7928460
 AtZNuc=   1.0000000   6.0000000   1.0000000   6.0000000   1.0000000   1.0000000   6.0000000   6.0000000   1.0000000   1.0000000

  Atom        21          22          23          24          25          26          27          28          29          30
 IAtWgt=          12           1           1          12           1           1          12           1          12           1
 AtmWgt=  12.0000000   1.0078250   1.0078250  12.0000000   1.0078250   1.0078250  12.0000000   1.0078250  12.0000000   1.0078250
 NucSpn=           0           1           1           0           1           1           0           1           0           1
 AtZEff=   0.0000000   0.0000000   0.0000000   0.0000000   0.0000000   0.0000000   0.0000000   0.0000000   0.0000000   0.0000000
 NQMom=    0.0000000   0.0000000   0.0000000   0.0000000   0.0000000   0.0000000   0.0000000   0.0000000   0.0000000   0.0000000
 NMagM=    0.0000000   2.7928460   2.7928460   0.0000000   2.7928460   2.7928460   0.0000000   2.7928460   0.0000000   2.7928460
 AtZNuc=   6.0000000   1.0000000   1.0000000   6.0000000   1.0000000   1.0000000   6.0000000   1.0000000   6.0000000   1.0000000

  Atom        31          32          33          34          35          36          37          38          39          40
 IAtWgt=          12           1           1           1          12          12           1           1          12           1
 AtmWgt=  12.0000000   1.0078250   1.0078250   1.0078250  12.0000000  12.0000000   1.0078250   1.0078250  12.0000000   1.0078250
 NucSpn=           0           1           1           1           0           0           1           1           0           1
 AtZEff=   0.0000000   0.0000000   0.0000000   0.0000000   0.0000000   0.0000000   0.0000000   0.0000000   0.0000000   0.0000000
 NQMom=    0.0000000   0.0000000   0.0000000   0.0000000   0.0000000   0.0000000   0.0000000   0.0000000   0.0000000   0.0000000
 NMagM=    0.0000000   2.7928460   2.7928460   2.7928460   0.0000000   0.0000000   2.7928460   2.7928460   0.0000000   2.7928460
 AtZNuc=   6.0000000   1.0000000   1.0000000   1.0000000   6.0000000   6.0000000   1.0000000   1.0000000   6.0000000   1.0000000

  Atom        41          42          43          44          45          46          47          48          49          50
 IAtWgt=          12           1           1           1          12           1           1          12           1           1
 AtmWgt=  12.0000000   1.0078250   1.0078250   1.0078250  12.0000000   1.0078250   1.0078250  12.0000000   1.0078250   1.0078250
 NucSpn=           0           1           1           1           0           1           1           0           1           1
 AtZEff=   0.0000000   0.0000000   0.0000000   0.0000000   0.0000000   0.0000000   0.0000000   0.0000000   0.0000000   0.0000000
 NQMom=    0.0000000   0.0000000   0.0000000   0.0000000   0.0000000   0.0000000   0.0000000   0.0000000   0.0000000   0.0000000
 NMagM=    0.0000000   2.7928460   2.7928460   2.7928460   0.0000000   2.7928460   2.7928460   0.0000000   2.7928460   2.7928460
 AtZNuc=   6.0000000   1.0000000   1.0000000   1.0000000   6.0000000   1.0000000   1.0000000   6.0000000   1.0000000   1.0000000

  Atom        51          52          53          54          55          56          57          58          59          60
 IAtWgt=          12           1           1          12           1          12           1           1           1          12
 AtmWgt=  12.0000000   1.0078250   1.0078250  12.0000000   1.0078250  12.0000000   1.0078250   1.0078250   1.0078250  12.0000000
 NucSpn=           0           1           1           0           1           0           1           1           1           0
 AtZEff=   0.0000000   0.0000000   0.0000000   0.0000000   0.0000000   0.0000000   0.0000000   0.0000000   0.0000000   0.0000000
 NQMom=    0.0000000   0.0000000   0.0000000   0.0000000   0.0000000   0.0000000   0.0000000   0.0000000   0.0000000   0.0000000
 NMagM=    0.0000000   2.7928460   2.7928460   0.0000000   2.7928460   0.0000000   2.7928460   2.7928460   2.7928460   0.0000000
 AtZNuc=   6.0000000   1.0000000   1.0000000   6.0000000   1.0000000   6.0000000   1.0000000   1.0000000   1.0000000   6.0000000

  Atom        61          62          63          64          65          66          67          68          69          70
 IAtWgt=           1           1          12           1           1          12           1          12           1           1
 AtmWgt=   1.0078250   1.0078250  12.0000000   1.0078250   1.0078250  12.0000000   1.0078250  12.0000000   1.0078250   1.0078250
 NucSpn=           1           1           0           1           1           0           1           0           1           1
 AtZEff=   0.0000000   0.0000000   0.0000000   0.0000000   0.0000000   0.0000000   0.0000000   0.0000000   0.0000000   0.0000000
 NQMom=    0.0000000   0.0000000   0.0000000   0.0000000   0.0000000   0.0000000   0.0000000   0.0000000   0.0000000   0.0000000
 NMagM=    2.7928460   2.7928460   0.0000000   2.7928460   2.7928460   0.0000000   2.7928460   0.0000000   2.7928460   2.7928460
 AtZNuc=   1.0000000   1.0000000   6.0000000   1.0000000   1.0000000   6.0000000   1.0000000   6.0000000   1.0000000   1.0000000

  Atom        71          72          73          74          75
 IAtWgt=           1          12           1           1           1
 AtmWgt=   1.0078250  12.0000000   1.0078250   1.0078250   1.0078250
 NucSpn=           1           0           1           1           1
 AtZEff=   0.0000000   0.0000000   0.0000000   0.0000000   0.0000000
 NQMom=    0.0000000   0.0000000   0.0000000   0.0000000   0.0000000
 NMagM=    2.7928460   0.0000000   2.7928460   2.7928460   2.7928460
 AtZNuc=   1.0000000   6.0000000   1.0000000   1.0000000   1.0000000
 Leave Link  101 at Thu May 18 13:19:12 2017, MaxMem=    33554432 cpu:         1.0
 (Enter /home/michal/g09/l202.exe)
 Symmetry turned off by external request.
 Stoichiometry    C27H46O2
 Framework group  C1[X(C27H46O2)]
 Deg. of freedom   219
 Full point group                 C1      NOp   1
                          Input orientation:                          
 ---------------------------------------------------------------------
 Center     Atomic      Atomic             Coordinates (Angstroms)
 Number     Number       Type             X           Y           Z
 ---------------------------------------------------------------------
      1          8           0        6.109028    3.743200    0.000000
      2          1           0        5.696699    3.994345   -0.838588
      3          8           0        0.000000    0.000000    0.000000
      4          1           0       -0.264244    0.081972   -0.927157
      5          6           0        8.775259    0.170215   -0.995671
      6          6           0        7.951354    1.215488   -0.185021
      7          1           0        7.905495    0.810841    0.840579
      8          6           0        6.483246    1.374533   -0.618774
      9          1           0        6.439677    1.773050   -1.642788
     10          6           0        5.771310   -0.007599   -0.571716
     11          1           0        5.737751   -0.287209    0.494273
     12          6           0       10.149017    0.307420   -0.251235
     13          1           0        9.955977   -0.109752    0.746871
     14          6           0        8.060543   -1.184991   -0.843898
     15          1           0        8.102868   -1.495363    0.209568
     16          1           0        8.563569   -1.968713   -1.422636
     17          6           0        4.274336    0.052485   -1.037287
     18          6           0        8.869159    2.451412   -0.125547
     19          1           0        8.635303    3.100814    0.721124
     20          1           0        8.745370    3.066602   -1.023088
     21          6           0        6.588537   -1.106528   -1.291138
     22          1           0        6.557787   -0.944477   -2.373879
     23          1           0        6.120824   -2.082121   -1.118630
     24          6           0       10.299973    1.848227   -0.048947
     25          1           0       10.947326    2.287611   -0.814988
     26          1           0       10.780778    2.057748    0.913136
     27          6           0        5.740526    2.378913    0.283977
     28          1           0        6.073567    2.238341    1.322165
     29          6           0       11.467945   -0.374809   -0.716372
     30          1           0       12.215272    0.000000    0.000000
     31          6           0        8.874077    0.555093   -2.490443
     32          1           0        7.894106    0.772167   -2.923409
     33          1           0        9.497493    1.438316   -2.649530
     34          1           0        9.306570   -0.263188   -3.073396
     35          6           0        3.572863    1.248131   -0.383457
     36          6           0        3.552835   -1.250104   -0.568976
     37          1           0        3.812080   -1.426463    0.484104
     38          1           0        3.941826   -2.105084   -1.131871
     39          6           0        4.245362    2.238588    0.220920
     40          1           0        3.694553    3.048275    0.699558
     41          6           0        4.156808    0.184628   -2.579403
     42          1           0        4.486425   -0.728702   -3.084100
     43          1           0        3.125175    0.369619   -2.889790
     44          1           0        4.759626    1.017987   -2.953046
     45          6           0        2.056682    1.273007   -0.431341
     46          1           0        1.672862    2.114598    0.153559
     47          1           0        1.719851    1.429361   -1.469007
     48          6           0        2.021291   -1.223390   -0.690391
     49          1           0        1.720172   -1.160578   -1.746668
     50          1           0        1.598789   -2.155870   -0.299224
     51          6           0       11.476470   -1.918407   -0.595144
     52          1           0       10.734984   -2.338195   -1.286806
     53          1           0       12.448410   -2.270953   -0.966270
     54          6           0        1.427975   -0.036377    0.067874
     55          1           0        1.642788   -0.149163    1.137535
     56          6           0       12.000876    0.016999   -2.109541
     57          1           0       11.455503   -0.483280   -2.915218
     58          1           0       13.051705   -0.281679   -2.197929
     59          1           0       11.953727    1.094426   -2.292268
     60          6           0       11.237198   -2.521465    0.802946
     61          1           0       10.223433   -2.279529    1.143531
     62          1           0       11.255462   -3.614624    0.705611
     63          6           0       12.225706   -2.091260    1.903907
     64          1           0       11.927000   -2.579693    2.843345
     65          1           0       12.120766   -1.012963    2.084595
     66          6           0       13.717353   -2.399124    1.654414
     67          1           0       14.022072   -1.897949    0.724224
     68          6           0       13.987035   -3.903169    1.488099
     69          1           0       13.676642   -4.455349    2.384799
     70          1           0       15.055153   -4.094426    1.334316
     71          1           0       13.450560   -4.327620    0.633350
     72          6           0       14.575917   -1.820161    2.790507
     73          1           0       14.321621   -2.288319    3.750180
     74          1           0       15.643327   -1.991460    2.610226
     75          1           0       14.422782   -0.740043    2.896893
 ---------------------------------------------------------------------
 Rotational constants (GHZ):      0.3297757      0.0665612      0.0622665
 Leave Link  202 at Thu May 18 13:19:12 2017, MaxMem=    33554432 cpu:         0.0
 (Enter /home/michal/g09/l301.exe)
 Standard basis: 6-31G(d) (6D, 7F)
 Ernie: Thresh=  0.10000D-02 Tol=  0.10000D-05 Strict=F.
 AO basis set in the form of general basis input (Overlap normalization):
      1 0
 S   6 1.00       0.000000000000
      0.5484671660D+04  0.1831074430D-02
      0.8252349460D+03  0.1395017220D-01
      0.1880469580D+03  0.6844507810D-01
      0.5296450000D+02  0.2327143360D+00
      0.1689757040D+02  0.4701928980D+00
      0.5799635340D+01  0.3585208530D+00
 SP   3 1.00       0.000000000000
      0.1553961625D+02 -0.1107775495D+00  0.7087426823D-01
      0.3599933586D+01 -0.1480262627D+00  0.3397528391D+00
      0.1013761750D+01  0.1130767015D+01  0.7271585773D+00
 SP   1 1.00       0.000000000000
      0.2700058226D+00  0.1000000000D+01  0.1000000000D+01
 D   1 1.00       0.000000000000
      0.8000000000D+00  0.1000000000D+01
 ****
      2 0
 S   3 1.00       0.000000000000
      0.1873113696D+02  0.3349460434D-01
      0.2825394365D+01  0.2347269535D+00
      0.6401216923D+00  0.8137573261D+00
 S   1 1.00       0.000000000000
      0.1612777588D+00  0.1000000000D+01
 ****
      3 0
 S   6 1.00       0.000000000000
      0.5484671660D+04  0.1831074430D-02
      0.8252349460D+03  0.1395017220D-01
      0.1880469580D+03  0.6844507810D-01
      0.5296450000D+02  0.2327143360D+00
      0.1689757040D+02  0.4701928980D+00
      0.5799635340D+01  0.3585208530D+00
 SP   3 1.00       0.000000000000
      0.1553961625D+02 -0.1107775495D+00  0.7087426823D-01
      0.3599933586D+01 -0.1480262627D+00  0.3397528391D+00
      0.1013761750D+01  0.1130767015D+01  0.7271585773D+00
 SP   1 1.00       0.000000000000
      0.2700058226D+00  0.1000000000D+01  0.1000000000D+01
 D   1 1.00       0.000000000000
      0.8000000000D+00  0.1000000000D+01
 ****
      4 0
 S   3 1.00       0.000000000000
      0.1873113696D+02  0.3349460434D-01
      0.2825394365D+01  0.2347269535D+00
      0.6401216923D+00  0.8137573261D+00
 S   1 1.00       0.000000000000
      0.1612777588D+00  0.1000000000D+01
 ****
      5 0
 S   6 1.00       0.000000000000
      0.3047524880D+04  0.1834737132D-02
      0.4573695180D+03  0.1403732281D-01
      0.1039486850D+03  0.6884262226D-01
      0.2921015530D+02  0.2321844432D+00
      0.9286662960D+01  0.4679413484D+00
      0.3163926960D+01  0.3623119853D+00
 SP   3 1.00       0.000000000000
      0.7868272350D+01 -0.1193324198D+00  0.6899906659D-01
      0.1881288540D+01 -0.1608541517D+00  0.3164239610D+00
      0.5442492580D+00  0.1143456438D+01  0.7443082909D+00
 SP   1 1.00       0.000000000000
      0.1687144782D+00  0.1000000000D+01  0.1000000000D+01
 D   1 1.00       0.000000000000
      0.8000000000D+00  0.1000000000D+01
 ****
      6 0
 S   6 1.00       0.000000000000
      0.3047524880D+04  0.1834737132D-02
      0.4573695180D+03  0.1403732281D-01
      0.1039486850D+03  0.6884262226D-01
      0.2921015530D+02  0.2321844432D+00
      0.9286662960D+01  0.4679413484D+00
      0.3163926960D+01  0.3623119853D+00
 SP   3 1.00       0.000000000000
      0.7868272350D+01 -0.1193324198D+00  0.6899906659D-01
      0.1881288540D+01 -0.1608541517D+00  0.3164239610D+00
      0.5442492580D+00  0.1143456438D+01  0.7443082909D+00
 SP   1 1.00       0.000000000000
      0.1687144782D+00  0.1000000000D+01  0.1000000000D+01
 D   1 1.00       0.000000000000
      0.8000000000D+00  0.1000000000D+01
 ****
      7 0
 S   3 1.00       0.000000000000
      0.1873113696D+02  0.3349460434D-01
      0.2825394365D+01  0.2347269535D+00
      0.6401216923D+00  0.8137573261D+00
 S   1 1.00       0.000000000000
      0.1612777588D+00  0.1000000000D+01
 ****
      8 0
 S   6 1.00       0.000000000000
      0.3047524880D+04  0.1834737132D-02
      0.4573695180D+03  0.1403732281D-01
      0.1039486850D+03  0.6884262226D-01
      0.2921015530D+02  0.2321844432D+00
      0.9286662960D+01  0.4679413484D+00
      0.3163926960D+01  0.3623119853D+00
 SP   3 1.00       0.000000000000
      0.7868272350D+01 -0.1193324198D+00  0.6899906659D-01
      0.1881288540D+01 -0.1608541517D+00  0.3164239610D+00
      0.5442492580D+00  0.1143456438D+01  0.7443082909D+00
 SP   1 1.00       0.000000000000
      0.1687144782D+00  0.1000000000D+01  0.1000000000D+01
 D   1 1.00       0.000000000000
      0.8000000000D+00  0.1000000000D+01
 ****
      9 0
 S   3 1.00       0.000000000000
      0.1873113696D+02  0.3349460434D-01
      0.2825394365D+01  0.2347269535D+00
      0.6401216923D+00  0.8137573261D+00
 S   1 1.00       0.000000000000
      0.1612777588D+00  0.1000000000D+01
 ****
     10 0
 S   6 1.00       0.000000000000
      0.3047524880D+04  0.1834737132D-02
      0.4573695180D+03  0.1403732281D-01
      0.1039486850D+03  0.6884262226D-01
      0.2921015530D+02  0.2321844432D+00
      0.9286662960D+01  0.4679413484D+00
      0.3163926960D+01  0.3623119853D+00
 SP   3 1.00       0.000000000000
      0.7868272350D+01 -0.1193324198D+00  0.6899906659D-01
      0.1881288540D+01 -0.1608541517D+00  0.3164239610D+00
      0.5442492580D+00  0.1143456438D+01  0.7443082909D+00
 SP   1 1.00       0.000000000000
      0.1687144782D+00  0.1000000000D+01  0.1000000000D+01
 D   1 1.00       0.000000000000
      0.8000000000D+00  0.1000000000D+01
 ****
     11 0
 S   3 1.00       0.000000000000
      0.1873113696D+02  0.3349460434D-01
      0.2825394365D+01  0.2347269535D+00
      0.6401216923D+00  0.8137573261D+00
 S   1 1.00       0.000000000000
      0.1612777588D+00  0.1000000000D+01
 ****
     12 0
 S   6 1.00       0.000000000000
      0.3047524880D+04  0.1834737132D-02
      0.4573695180D+03  0.1403732281D-01
      0.1039486850D+03  0.6884262226D-01
      0.2921015530D+02  0.2321844432D+00
      0.9286662960D+01  0.4679413484D+00
      0.3163926960D+01  0.3623119853D+00
 SP   3 1.00       0.000000000000
      0.7868272350D+01 -0.1193324198D+00  0.6899906659D-01
      0.1881288540D+01 -0.1608541517D+00  0.3164239610D+00
      0.5442492580D+00  0.1143456438D+01  0.7443082909D+00
 SP   1 1.00       0.000000000000
      0.1687144782D+00  0.1000000000D+01  0.1000000000D+01
 D   1 1.00       0.000000000000
      0.8000000000D+00  0.1000000000D+01
 ****
     13 0
 S   3 1.00       0.000000000000
      0.1873113696D+02  0.3349460434D-01
      0.2825394365D+01  0.2347269535D+00
      0.6401216923D+00  0.8137573261D+00
 S   1 1.00       0.000000000000
      0.1612777588D+00  0.1000000000D+01
 ****
     14 0
 S   6 1.00       0.000000000000
      0.3047524880D+04  0.1834737132D-02
      0.4573695180D+03  0.1403732281D-01
      0.1039486850D+03  0.6884262226D-01
      0.2921015530D+02  0.2321844432D+00
      0.9286662960D+01  0.4679413484D+00
      0.3163926960D+01  0.3623119853D+00
 SP   3 1.00       0.000000000000
      0.7868272350D+01 -0.1193324198D+00  0.6899906659D-01
      0.1881288540D+01 -0.1608541517D+00  0.3164239610D+00
      0.5442492580D+00  0.1143456438D+01  0.7443082909D+00
 SP   1 1.00       0.000000000000
      0.1687144782D+00  0.1000000000D+01  0.1000000000D+01
 D   1 1.00       0.000000000000
      0.8000000000D+00  0.1000000000D+01
 ****
     15 0
 S   3 1.00       0.000000000000
      0.1873113696D+02  0.3349460434D-01
      0.2825394365D+01  0.2347269535D+00
      0.6401216923D+00  0.8137573261D+00
 S   1 1.00       0.000000000000
      0.1612777588D+00  0.1000000000D+01
 ****
     16 0
 S   3 1.00       0.000000000000
      0.1873113696D+02  0.3349460434D-01
      0.2825394365D+01  0.2347269535D+00
      0.6401216923D+00  0.8137573261D+00
 S   1 1.00       0.000000000000
      0.1612777588D+00  0.1000000000D+01
 ****
     17 0
 S   6 1.00       0.000000000000
      0.3047524880D+04  0.1834737132D-02
      0.4573695180D+03  0.1403732281D-01
      0.1039486850D+03  0.6884262226D-01
      0.2921015530D+02  0.2321844432D+00
      0.9286662960D+01  0.4679413484D+00
      0.3163926960D+01  0.3623119853D+00
 SP   3 1.00       0.000000000000
      0.7868272350D+01 -0.1193324198D+00  0.6899906659D-01
      0.1881288540D+01 -0.1608541517D+00  0.3164239610D+00
      0.5442492580D+00  0.1143456438D+01  0.7443082909D+00
 SP   1 1.00       0.000000000000
      0.1687144782D+00  0.1000000000D+01  0.1000000000D+01
 D   1 1.00       0.000000000000
      0.8000000000D+00  0.1000000000D+01
 ****
     18 0
 S   6 1.00       0.000000000000
      0.3047524880D+04  0.1834737132D-02
      0.4573695180D+03  0.1403732281D-01
      0.1039486850D+03  0.6884262226D-01
      0.2921015530D+02  0.2321844432D+00
      0.9286662960D+01  0.4679413484D+00
      0.3163926960D+01  0.3623119853D+00
 SP   3 1.00       0.000000000000
      0.7868272350D+01 -0.1193324198D+00  0.6899906659D-01
      0.1881288540D+01 -0.1608541517D+00  0.3164239610D+00
      0.5442492580D+00  0.1143456438D+01  0.7443082909D+00
 SP   1 1.00       0.000000000000
      0.1687144782D+00  0.1000000000D+01  0.1000000000D+01
 D   1 1.00       0.000000000000
      0.8000000000D+00  0.1000000000D+01
 ****
     19 0
 S   3 1.00       0.000000000000
      0.1873113696D+02  0.3349460434D-01
      0.2825394365D+01  0.2347269535D+00
      0.6401216923D+00  0.8137573261D+00
 S   1 1.00       0.000000000000
      0.1612777588D+00  0.1000000000D+01
 ****
     20 0
 S   3 1.00       0.000000000000
      0.1873113696D+02  0.3349460434D-01
      0.2825394365D+01  0.2347269535D+00
      0.6401216923D+00  0.8137573261D+00
 S   1 1.00       0.000000000000
      0.1612777588D+00  0.1000000000D+01
 ****
     21 0
 S   6 1.00       0.000000000000
      0.3047524880D+04  0.1834737132D-02
      0.4573695180D+03  0.1403732281D-01
      0.1039486850D+03  0.6884262226D-01
      0.2921015530D+02  0.2321844432D+00
      0.9286662960D+01  0.4679413484D+00
      0.3163926960D+01  0.3623119853D+00
 SP   3 1.00       0.000000000000
      0.7868272350D+01 -0.1193324198D+00  0.6899906659D-01
      0.1881288540D+01 -0.1608541517D+00  0.3164239610D+00
      0.5442492580D+00  0.1143456438D+01  0.7443082909D+00
 SP   1 1.00       0.000000000000
      0.1687144782D+00  0.1000000000D+01  0.1000000000D+01
 D   1 1.00       0.000000000000
      0.8000000000D+00  0.1000000000D+01
 ****
     22 0
 S   3 1.00       0.000000000000
      0.1873113696D+02  0.3349460434D-01
      0.2825394365D+01  0.2347269535D+00
      0.6401216923D+00  0.8137573261D+00
 S   1 1.00       0.000000000000
      0.1612777588D+00  0.1000000000D+01
 ****
     23 0
 S   3 1.00       0.000000000000
      0.1873113696D+02  0.3349460434D-01
      0.2825394365D+01  0.2347269535D+00
      0.6401216923D+00  0.8137573261D+00
 S   1 1.00       0.000000000000
      0.1612777588D+00  0.1000000000D+01
 ****
     24 0
 S   6 1.00       0.000000000000
      0.3047524880D+04  0.1834737132D-02
      0.4573695180D+03  0.1403732281D-01
      0.1039486850D+03  0.6884262226D-01
      0.2921015530D+02  0.2321844432D+00
      0.9286662960D+01  0.4679413484D+00
      0.3163926960D+01  0.3623119853D+00
 SP   3 1.00       0.000000000000
      0.7868272350D+01 -0.1193324198D+00  0.6899906659D-01
      0.1881288540D+01 -0.1608541517D+00  0.3164239610D+00
      0.5442492580D+00  0.1143456438D+01  0.7443082909D+00
 SP   1 1.00       0.000000000000
      0.1687144782D+00  0.1000000000D+01  0.1000000000D+01
 D   1 1.00       0.000000000000
      0.8000000000D+00  0.1000000000D+01
 ****
     25 0
 S   3 1.00       0.000000000000
      0.1873113696D+02  0.3349460434D-01
      0.2825394365D+01  0.2347269535D+00
      0.6401216923D+00  0.8137573261D+00
 S   1 1.00       0.000000000000
      0.1612777588D+00  0.1000000000D+01
 ****
     26 0
 S   3 1.00       0.000000000000
      0.1873113696D+02  0.3349460434D-01
      0.2825394365D+01  0.2347269535D+00
      0.6401216923D+00  0.8137573261D+00
 S   1 1.00       0.000000000000
      0.1612777588D+00  0.1000000000D+01
 ****
     27 0
 S   6 1.00       0.000000000000
      0.3047524880D+04  0.1834737132D-02
      0.4573695180D+03  0.1403732281D-01
      0.1039486850D+03  0.6884262226D-01
      0.2921015530D+02  0.2321844432D+00
      0.9286662960D+01  0.4679413484D+00
      0.3163926960D+01  0.3623119853D+00
 SP   3 1.00       0.000000000000
      0.7868272350D+01 -0.1193324198D+00  0.6899906659D-01
      0.1881288540D+01 -0.1608541517D+00  0.3164239610D+00
      0.5442492580D+00  0.1143456438D+01  0.7443082909D+00
 SP   1 1.00       0.000000000000
      0.1687144782D+00  0.1000000000D+01  0.1000000000D+01
 D   1 1.00       0.000000000000
      0.8000000000D+00  0.1000000000D+01
 ****
     28 0
 S   3 1.00       0.000000000000
      0.1873113696D+02  0.3349460434D-01
      0.2825394365D+01  0.2347269535D+00
      0.6401216923D+00  0.8137573261D+00
 S   1 1.00       0.000000000000
      0.1612777588D+00  0.1000000000D+01
 ****
     29 0
 S   6 1.00       0.000000000000
      0.3047524880D+04  0.1834737132D-02
      0.4573695180D+03  0.1403732281D-01
      0.1039486850D+03  0.6884262226D-01
      0.2921015530D+02  0.2321844432D+00
      0.9286662960D+01  0.4679413484D+00
      0.3163926960D+01  0.3623119853D+00
 SP   3 1.00       0.000000000000
      0.7868272350D+01 -0.1193324198D+00  0.6899906659D-01
      0.1881288540D+01 -0.1608541517D+00  0.3164239610D+00
      0.5442492580D+00  0.1143456438D+01  0.7443082909D+00
 SP   1 1.00       0.000000000000
      0.1687144782D+00  0.1000000000D+01  0.1000000000D+01
 D   1 1.00       0.000000000000
      0.8000000000D+00  0.1000000000D+01
 ****
     30 0
 S   3 1.00       0.000000000000
      0.1873113696D+02  0.3349460434D-01
      0.2825394365D+01  0.2347269535D+00
      0.6401216923D+00  0.8137573261D+00
 S   1 1.00       0.000000000000
      0.1612777588D+00  0.1000000000D+01
 ****
     31 0
 S   6 1.00       0.000000000000
      0.3047524880D+04  0.1834737132D-02
      0.4573695180D+03  0.1403732281D-01
      0.1039486850D+03  0.6884262226D-01
      0.2921015530D+02  0.2321844432D+00
      0.9286662960D+01  0.4679413484D+00
      0.3163926960D+01  0.3623119853D+00
 SP   3 1.00       0.000000000000
      0.7868272350D+01 -0.1193324198D+00  0.6899906659D-01
      0.1881288540D+01 -0.1608541517D+00  0.3164239610D+00
      0.5442492580D+00  0.1143456438D+01  0.7443082909D+00
 SP   1 1.00       0.000000000000
      0.1687144782D+00  0.1000000000D+01  0.1000000000D+01
 D   1 1.00       0.000000000000
      0.8000000000D+00  0.1000000000D+01
 ****
     32 0
 S   3 1.00       0.000000000000
      0.1873113696D+02  0.3349460434D-01
      0.2825394365D+01  0.2347269535D+00
      0.6401216923D+00  0.8137573261D+00
 S   1 1.00       0.000000000000
      0.1612777588D+00  0.1000000000D+01
 ****
     33 0
 S   3 1.00       0.000000000000
      0.1873113696D+02  0.3349460434D-01
      0.2825394365D+01  0.2347269535D+00
      0.6401216923D+00  0.8137573261D+00
 S   1 1.00       0.000000000000
      0.1612777588D+00  0.1000000000D+01
 ****
     34 0
 S   3 1.00       0.000000000000
      0.1873113696D+02  0.3349460434D-01
      0.2825394365D+01  0.2347269535D+00
      0.6401216923D+00  0.8137573261D+00
 S   1 1.00       0.000000000000
      0.1612777588D+00  0.1000000000D+01
 ****
     35 0
 S   6 1.00       0.000000000000
      0.3047524880D+04  0.1834737132D-02
      0.4573695180D+03  0.1403732281D-01
      0.1039486850D+03  0.6884262226D-01
      0.2921015530D+02  0.2321844432D+00
      0.9286662960D+01  0.4679413484D+00
      0.3163926960D+01  0.3623119853D+00
 SP   3 1.00       0.000000000000
      0.7868272350D+01 -0.1193324198D+00  0.6899906659D-01
      0.1881288540D+01 -0.1608541517D+00  0.3164239610D+00
      0.5442492580D+00  0.1143456438D+01  0.7443082909D+00
 SP   1 1.00       0.000000000000
      0.1687144782D+00  0.1000000000D+01  0.1000000000D+01
 D   1 1.00       0.000000000000
      0.8000000000D+00  0.1000000000D+01
 ****
     36 0
 S   6 1.00       0.000000000000
      0.3047524880D+04  0.1834737132D-02
      0.4573695180D+03  0.1403732281D-01
      0.1039486850D+03  0.6884262226D-01
      0.2921015530D+02  0.2321844432D+00
      0.9286662960D+01  0.4679413484D+00
      0.3163926960D+01  0.3623119853D+00
 SP   3 1.00       0.000000000000
      0.7868272350D+01 -0.1193324198D+00  0.6899906659D-01
      0.1881288540D+01 -0.1608541517D+00  0.3164239610D+00
      0.5442492580D+00  0.1143456438D+01  0.7443082909D+00
 SP   1 1.00       0.000000000000
      0.1687144782D+00  0.1000000000D+01  0.1000000000D+01
 D   1 1.00       0.000000000000
      0.8000000000D+00  0.1000000000D+01
 ****
     37 0
 S   3 1.00       0.000000000000
      0.1873113696D+02  0.3349460434D-01
      0.2825394365D+01  0.2347269535D+00
      0.6401216923D+00  0.8137573261D+00
 S   1 1.00       0.000000000000
      0.1612777588D+00  0.1000000000D+01
 ****
     38 0
 S   3 1.00       0.000000000000
      0.1873113696D+02  0.3349460434D-01
      0.2825394365D+01  0.2347269535D+00
      0.6401216923D+00  0.8137573261D+00
 S   1 1.00       0.000000000000
      0.1612777588D+00  0.1000000000D+01
 ****
     39 0
 S   6 1.00       0.000000000000
      0.3047524880D+04  0.1834737132D-02
      0.4573695180D+03  0.1403732281D-01
      0.1039486850D+03  0.6884262226D-01
      0.2921015530D+02  0.2321844432D+00
      0.9286662960D+01  0.4679413484D+00
      0.3163926960D+01  0.3623119853D+00
 SP   3 1.00       0.000000000000
      0.7868272350D+01 -0.1193324198D+00  0.6899906659D-01
      0.1881288540D+01 -0.1608541517D+00  0.3164239610D+00
      0.5442492580D+00  0.1143456438D+01  0.7443082909D+00
 SP   1 1.00       0.000000000000
      0.1687144782D+00  0.1000000000D+01  0.1000000000D+01
 D   1 1.00       0.000000000000
      0.8000000000D+00  0.1000000000D+01
 ****
     40 0
 S   3 1.00       0.000000000000
      0.1873113696D+02  0.3349460434D-01
      0.2825394365D+01  0.2347269535D+00
      0.6401216923D+00  0.8137573261D+00
 S   1 1.00       0.000000000000
      0.1612777588D+00  0.1000000000D+01
 ****
     41 0
 S   6 1.00       0.000000000000
      0.3047524880D+04  0.1834737132D-02
      0.4573695180D+03  0.1403732281D-01
      0.1039486850D+03  0.6884262226D-01
      0.2921015530D+02  0.2321844432D+00
      0.9286662960D+01  0.4679413484D+00
      0.3163926960D+01  0.3623119853D+00
 SP   3 1.00       0.000000000000
      0.7868272350D+01 -0.1193324198D+00  0.6899906659D-01
      0.1881288540D+01 -0.1608541517D+00  0.3164239610D+00
      0.5442492580D+00  0.1143456438D+01  0.7443082909D+00
 SP   1 1.00       0.000000000000
      0.1687144782D+00  0.1000000000D+01  0.1000000000D+01
 D   1 1.00       0.000000000000
      0.8000000000D+00  0.1000000000D+01
 ****
     42 0
 S   3 1.00       0.000000000000
      0.1873113696D+02  0.3349460434D-01
      0.2825394365D+01  0.2347269535D+00
      0.6401216923D+00  0.8137573261D+00
 S   1 1.00       0.000000000000
      0.1612777588D+00  0.1000000000D+01
 ****
     43 0
 S   3 1.00       0.000000000000
      0.1873113696D+02  0.3349460434D-01
      0.2825394365D+01  0.2347269535D+00
      0.6401216923D+00  0.8137573261D+00
 S   1 1.00       0.000000000000
      0.1612777588D+00  0.1000000000D+01
 ****
     44 0
 S   3 1.00       0.000000000000
      0.1873113696D+02  0.3349460434D-01
      0.2825394365D+01  0.2347269535D+00
      0.6401216923D+00  0.8137573261D+00
 S   1 1.00       0.000000000000
      0.1612777588D+00  0.1000000000D+01
 ****
     45 0
 S   6 1.00       0.000000000000
      0.3047524880D+04  0.1834737132D-02
      0.4573695180D+03  0.1403732281D-01
      0.1039486850D+03  0.6884262226D-01
      0.2921015530D+02  0.2321844432D+00
      0.9286662960D+01  0.4679413484D+00
      0.3163926960D+01  0.3623119853D+00
 SP   3 1.00       0.000000000000
      0.7868272350D+01 -0.1193324198D+00  0.6899906659D-01
      0.1881288540D+01 -0.1608541517D+00  0.3164239610D+00
      0.5442492580D+00  0.1143456438D+01  0.7443082909D+00
 SP   1 1.00       0.000000000000
      0.1687144782D+00  0.1000000000D+01  0.1000000000D+01
 D   1 1.00       0.000000000000
      0.8000000000D+00  0.1000000000D+01
 ****
     46 0
 S   3 1.00       0.000000000000
      0.1873113696D+02  0.3349460434D-01
      0.2825394365D+01  0.2347269535D+00
      0.6401216923D+00  0.8137573261D+00
 S   1 1.00       0.000000000000
      0.1612777588D+00  0.1000000000D+01
 ****
     47 0
 S   3 1.00       0.000000000000
      0.1873113696D+02  0.3349460434D-01
      0.2825394365D+01  0.2347269535D+00
      0.6401216923D+00  0.8137573261D+00
 S   1 1.00       0.000000000000
      0.1612777588D+00  0.1000000000D+01
 ****
     48 0
 S   6 1.00       0.000000000000
      0.3047524880D+04  0.1834737132D-02
      0.4573695180D+03  0.1403732281D-01
      0.1039486850D+03  0.6884262226D-01
      0.2921015530D+02  0.2321844432D+00
      0.9286662960D+01  0.4679413484D+00
      0.3163926960D+01  0.3623119853D+00
 SP   3 1.00       0.000000000000
      0.7868272350D+01 -0.1193324198D+00  0.6899906659D-01
      0.1881288540D+01 -0.1608541517D+00  0.3164239610D+00
      0.5442492580D+00  0.1143456438D+01  0.7443082909D+00
 SP   1 1.00       0.000000000000
      0.1687144782D+00  0.1000000000D+01  0.1000000000D+01
 D   1 1.00       0.000000000000
      0.8000000000D+00  0.1000000000D+01
 ****
     49 0
 S   3 1.00       0.000000000000
      0.1873113696D+02  0.3349460434D-01
      0.2825394365D+01  0.2347269535D+00
      0.6401216923D+00  0.8137573261D+00
 S   1 1.00       0.000000000000
      0.1612777588D+00  0.1000000000D+01
 ****
     50 0
 S   3 1.00       0.000000000000
      0.1873113696D+02  0.3349460434D-01
      0.2825394365D+01  0.2347269535D+00
      0.6401216923D+00  0.8137573261D+00
 S   1 1.00       0.000000000000
      0.1612777588D+00  0.1000000000D+01
 ****
     51 0
 S   6 1.00       0.000000000000
      0.3047524880D+04  0.1834737132D-02
      0.4573695180D+03  0.1403732281D-01
      0.1039486850D+03  0.6884262226D-01
      0.2921015530D+02  0.2321844432D+00
      0.9286662960D+01  0.4679413484D+00
      0.3163926960D+01  0.3623119853D+00
 SP   3 1.00       0.000000000000
      0.7868272350D+01 -0.1193324198D+00  0.6899906659D-01
      0.1881288540D+01 -0.1608541517D+00  0.3164239610D+00
      0.5442492580D+00  0.1143456438D+01  0.7443082909D+00
 SP   1 1.00       0.000000000000
      0.1687144782D+00  0.1000000000D+01  0.1000000000D+01
 D   1 1.00       0.000000000000
      0.8000000000D+00  0.1000000000D+01
 ****
     52 0
 S   3 1.00       0.000000000000
      0.1873113696D+02  0.3349460434D-01
      0.2825394365D+01  0.2347269535D+00
      0.6401216923D+00  0.8137573261D+00
 S   1 1.00       0.000000000000
      0.1612777588D+00  0.1000000000D+01
 ****
     53 0
 S   3 1.00       0.000000000000
      0.1873113696D+02  0.3349460434D-01
      0.2825394365D+01  0.2347269535D+00
      0.6401216923D+00  0.8137573261D+00
 S   1 1.00       0.000000000000
      0.1612777588D+00  0.1000000000D+01
 ****
     54 0
 S   6 1.00       0.000000000000
      0.3047524880D+04  0.1834737132D-02
      0.4573695180D+03  0.1403732281D-01
      0.1039486850D+03  0.6884262226D-01
      0.2921015530D+02  0.2321844432D+00
      0.9286662960D+01  0.4679413484D+00
      0.3163926960D+01  0.3623119853D+00
 SP   3 1.00       0.000000000000
      0.7868272350D+01 -0.1193324198D+00  0.6899906659D-01
      0.1881288540D+01 -0.1608541517D+00  0.3164239610D+00
      0.5442492580D+00  0.1143456438D+01  0.7443082909D+00
 SP   1 1.00       0.000000000000
      0.1687144782D+00  0.1000000000D+01  0.1000000000D+01
 D   1 1.00       0.000000000000
      0.8000000000D+00  0.1000000000D+01
 ****
     55 0
 S   3 1.00       0.000000000000
      0.1873113696D+02  0.3349460434D-01
      0.2825394365D+01  0.2347269535D+00
      0.6401216923D+00  0.8137573261D+00
 S   1 1.00       0.000000000000
      0.1612777588D+00  0.1000000000D+01
 ****
     56 0
 S   6 1.00       0.000000000000
      0.3047524880D+04  0.1834737132D-02
      0.4573695180D+03  0.1403732281D-01
      0.1039486850D+03  0.6884262226D-01
      0.2921015530D+02  0.2321844432D+00
      0.9286662960D+01  0.4679413484D+00
      0.3163926960D+01  0.3623119853D+00
 SP   3 1.00       0.000000000000
      0.7868272350D+01 -0.1193324198D+00  0.6899906659D-01
      0.1881288540D+01 -0.1608541517D+00  0.3164239610D+00
      0.5442492580D+00  0.1143456438D+01  0.7443082909D+00
 SP   1 1.00       0.000000000000
      0.1687144782D+00  0.1000000000D+01  0.1000000000D+01
 D   1 1.00       0.000000000000
      0.8000000000D+00  0.1000000000D+01
 ****
     57 0
 S   3 1.00       0.000000000000
      0.1873113696D+02  0.3349460434D-01
      0.2825394365D+01  0.2347269535D+00
      0.6401216923D+00  0.8137573261D+00
 S   1 1.00       0.000000000000
      0.1612777588D+00  0.1000000000D+01
 ****
     58 0
 S   3 1.00       0.000000000000
      0.1873113696D+02  0.3349460434D-01
      0.2825394365D+01  0.2347269535D+00
      0.6401216923D+00  0.8137573261D+00
 S   1 1.00       0.000000000000
      0.1612777588D+00  0.1000000000D+01
 ****
     59 0
 S   3 1.00       0.000000000000
      0.1873113696D+02  0.3349460434D-01
      0.2825394365D+01  0.2347269535D+00
      0.6401216923D+00  0.8137573261D+00
 S   1 1.00       0.000000000000
      0.1612777588D+00  0.1000000000D+01
 ****
     60 0
 S   6 1.00       0.000000000000
      0.3047524880D+04  0.1834737132D-02
      0.4573695180D+03  0.1403732281D-01
      0.1039486850D+03  0.6884262226D-01
      0.2921015530D+02  0.2321844432D+00
      0.9286662960D+01  0.4679413484D+00
      0.3163926960D+01  0.3623119853D+00
 SP   3 1.00       0.000000000000
      0.7868272350D+01 -0.1193324198D+00  0.6899906659D-01
      0.1881288540D+01 -0.1608541517D+00  0.3164239610D+00
      0.5442492580D+00  0.1143456438D+01  0.7443082909D+00
 SP   1 1.00       0.000000000000
      0.1687144782D+00  0.1000000000D+01  0.1000000000D+01
 D   1 1.00       0.000000000000
      0.8000000000D+00  0.1000000000D+01
 ****
     61 0
 S   3 1.00       0.000000000000
      0.1873113696D+02  0.3349460434D-01
      0.2825394365D+01  0.2347269535D+00
      0.6401216923D+00  0.8137573261D+00
 S   1 1.00       0.000000000000
      0.1612777588D+00  0.1000000000D+01
 ****
     62 0
 S   3 1.00       0.000000000000
      0.1873113696D+02  0.3349460434D-01
      0.2825394365D+01  0.2347269535D+00
      0.6401216923D+00  0.8137573261D+00
 S   1 1.00       0.000000000000
      0.1612777588D+00  0.1000000000D+01
 ****
     63 0
 S   6 1.00       0.000000000000
      0.3047524880D+04  0.1834737132D-02
      0.4573695180D+03  0.1403732281D-01
      0.1039486850D+03  0.6884262226D-01
      0.2921015530D+02  0.2321844432D+00
      0.9286662960D+01  0.4679413484D+00
      0.3163926960D+01  0.3623119853D+00
 SP   3 1.00       0.000000000000
      0.7868272350D+01 -0.1193324198D+00  0.6899906659D-01
      0.1881288540D+01 -0.1608541517D+00  0.3164239610D+00
      0.5442492580D+00  0.1143456438D+01  0.7443082909D+00
 SP   1 1.00       0.000000000000
      0.1687144782D+00  0.1000000000D+01  0.1000000000D+01
 D   1 1.00       0.000000000000
      0.8000000000D+00  0.1000000000D+01
 ****
     64 0
 S   3 1.00       0.000000000000
      0.1873113696D+02  0.3349460434D-01
      0.2825394365D+01  0.2347269535D+00
      0.6401216923D+00  0.8137573261D+00
 S   1 1.00       0.000000000000
      0.1612777588D+00  0.1000000000D+01
 ****
     65 0
 S   3 1.00       0.000000000000
      0.1873113696D+02  0.3349460434D-01
      0.2825394365D+01  0.2347269535D+00
      0.6401216923D+00  0.8137573261D+00
 S   1 1.00       0.000000000000
      0.1612777588D+00  0.1000000000D+01
 ****
     66 0
 S   6 1.00       0.000000000000
      0.3047524880D+04  0.1834737132D-02
      0.4573695180D+03  0.1403732281D-01
      0.1039486850D+03  0.6884262226D-01
      0.2921015530D+02  0.2321844432D+00
      0.9286662960D+01  0.4679413484D+00
      0.3163926960D+01  0.3623119853D+00
 SP   3 1.00       0.000000000000
      0.7868272350D+01 -0.1193324198D+00  0.6899906659D-01
      0.1881288540D+01 -0.1608541517D+00  0.3164239610D+00
      0.5442492580D+00  0.1143456438D+01  0.7443082909D+00
 SP   1 1.00       0.000000000000
      0.1687144782D+00  0.1000000000D+01  0.1000000000D+01
 D   1 1.00       0.000000000000
      0.8000000000D+00  0.1000000000D+01
 ****
     67 0
 S   3 1.00       0.000000000000
      0.1873113696D+02  0.3349460434D-01
      0.2825394365D+01  0.2347269535D+00
      0.6401216923D+00  0.8137573261D+00
 S   1 1.00       0.000000000000
      0.1612777588D+00  0.1000000000D+01
 ****
     68 0
 S   6 1.00       0.000000000000
      0.3047524880D+04  0.1834737132D-02
      0.4573695180D+03  0.1403732281D-01
      0.1039486850D+03  0.6884262226D-01
      0.2921015530D+02  0.2321844432D+00
      0.9286662960D+01  0.4679413484D+00
      0.3163926960D+01  0.3623119853D+00
 SP   3 1.00       0.000000000000
      0.7868272350D+01 -0.1193324198D+00  0.6899906659D-01
      0.1881288540D+01 -0.1608541517D+00  0.3164239610D+00
      0.5442492580D+00  0.1143456438D+01  0.7443082909D+00
 SP   1 1.00       0.000000000000
      0.1687144782D+00  0.1000000000D+01  0.1000000000D+01
 D   1 1.00       0.000000000000
      0.8000000000D+00  0.1000000000D+01
 ****
     69 0
 S   3 1.00       0.000000000000
      0.1873113696D+02  0.3349460434D-01
      0.2825394365D+01  0.2347269535D+00
      0.6401216923D+00  0.8137573261D+00
 S   1 1.00       0.000000000000
      0.1612777588D+00  0.1000000000D+01
 ****
     70 0
 S   3 1.00       0.000000000000
      0.1873113696D+02  0.3349460434D-01
      0.2825394365D+01  0.2347269535D+00
      0.6401216923D+00  0.8137573261D+00
 S   1 1.00       0.000000000000
      0.1612777588D+00  0.1000000000D+01
 ****
     71 0
 S   3 1.00       0.000000000000
      0.1873113696D+02  0.3349460434D-01
      0.2825394365D+01  0.2347269535D+00
      0.6401216923D+00  0.8137573261D+00
 S   1 1.00       0.000000000000
      0.1612777588D+00  0.1000000000D+01
 ****
     72 0
 S   6 1.00       0.000000000000
      0.3047524880D+04  0.1834737132D-02
      0.4573695180D+03  0.1403732281D-01
      0.1039486850D+03  0.6884262226D-01
      0.2921015530D+02  0.2321844432D+00
      0.9286662960D+01  0.4679413484D+00
      0.3163926960D+01  0.3623119853D+00
 SP   3 1.00       0.000000000000
      0.7868272350D+01 -0.1193324198D+00  0.6899906659D-01
      0.1881288540D+01 -0.1608541517D+00  0.3164239610D+00
      0.5442492580D+00  0.1143456438D+01  0.7443082909D+00
 SP   1 1.00       0.000000000000
      0.1687144782D+00  0.1000000000D+01  0.1000000000D+01
 D   1 1.00       0.000000000000
      0.8000000000D+00  0.1000000000D+01
 ****
     73 0
 S   3 1.00       0.000000000000
      0.1873113696D+02  0.3349460434D-01
      0.2825394365D+01  0.2347269535D+00
      0.6401216923D+00  0.8137573261D+00
 S   1 1.00       0.000000000000
      0.1612777588D+00  0.1000000000D+01
 ****
     74 0
 S   3 1.00       0.000000000000
      0.1873113696D+02  0.3349460434D-01
      0.2825394365D+01  0.2347269535D+00
      0.6401216923D+00  0.8137573261D+00
 S   1 1.00       0.000000000000
      0.1612777588D+00  0.1000000000D+01
 ****
     75 0
 S   3 1.00       0.000000000000
      0.1873113696D+02  0.3349460434D-01
      0.2825394365D+01  0.2347269535D+00
      0.6401216923D+00  0.8137573261D+00
 S   1 1.00       0.000000000000
      0.1612777588D+00  0.1000000000D+01
 ****

 AO basis set (Overlap normalization):
 Atom O1       Shell     1 S   6     bf    1 -     1         11.544390349459          7.073623257460          0.000000000000
      0.5484671660D+04  0.1831074430D-02
      0.8252349460D+03  0.1395017220D-01
      0.1880469580D+03  0.6844507810D-01
      0.5296450000D+02  0.2327143360D+00
      0.1689757040D+02  0.4701928980D+00
      0.5799635340D+01  0.3585208530D+00
 Atom O1       Shell     2 SP   3    bf    2 -     5         11.544390349459          7.073623257460          0.000000000000
      0.1553961625D+02 -0.1107775495D+00  0.7087426823D-01
      0.3599933586D+01 -0.1480262627D+00  0.3397528391D+00
      0.1013761750D+01  0.1130767015D+01  0.7271585773D+00
 Atom O1       Shell     3 SP   1    bf    6 -     9         11.544390349459          7.073623257460          0.000000000000
      0.2700058226D+00  0.1000000000D+01  0.1000000000D+01
 Atom O1       Shell     4 D   1     bf   10 -    15         11.544390349459          7.073623257460          0.000000000000
      0.8000000000D+00  0.1000000000D+01
 Atom H2       Shell     5 S   3     bf   16 -    16         10.765201406121          7.548217941288         -1.584702111859
      0.1873113696D+02  0.3349460434D-01
      0.2825394365D+01  0.2347269535D+00
      0.6401216923D+00  0.8137573261D+00
 Atom H2       Shell     6 S   1     bf   17 -    17         10.765201406121          7.548217941288         -1.584702111859
      0.1612777588D+00  0.1000000000D+01
 Atom O3       Shell     7 S   6     bf   18 -    18          0.000000000000          0.000000000000          0.000000000000
      0.5484671660D+04  0.1831074430D-02
      0.8252349460D+03  0.1395017220D-01
      0.1880469580D+03  0.6844507810D-01
      0.5296450000D+02  0.2327143360D+00
      0.1689757040D+02  0.4701928980D+00
      0.5799635340D+01  0.3585208530D+00
 Atom O3       Shell     8 SP   3    bf   19 -    22          0.000000000000          0.000000000000          0.000000000000
      0.1553961625D+02 -0.1107775495D+00  0.7087426823D-01
      0.3599933586D+01 -0.1480262627D+00  0.3397528391D+00
      0.1013761750D+01  0.1130767015D+01  0.7271585773D+00
 Atom O3       Shell     9 SP   1    bf   23 -    26          0.000000000000          0.000000000000          0.000000000000
      0.2700058226D+00  0.1000000000D+01  0.1000000000D+01
 Atom O3       Shell    10 D   1     bf   27 -    32          0.000000000000          0.000000000000          0.000000000000
      0.8000000000D+00  0.1000000000D+01
 Atom H4       Shell    11 S   3     bf   33 -    33         -0.499348905642          0.154904441592         -1.752072075195
      0.1873113696D+02  0.3349460434D-01
      0.2825394365D+01  0.2347269535D+00
      0.6401216923D+00  0.8137573261D+00
 Atom H4       Shell    12 S   1     bf   34 -    34         -0.499348905642          0.154904441592         -1.752072075195
      0.1612777588D+00  0.1000000000D+01
 Atom C5       Shell    13 S   6     bf   35 -    35         16.582836122859          0.321659242380         -1.881545659634
      0.3047524880D+04  0.1834737132D-02
      0.4573695180D+03  0.1403732281D-01
      0.1039486850D+03  0.6884262226D-01
      0.2921015530D+02  0.2321844432D+00
      0.9286662960D+01  0.4679413484D+00
      0.3163926960D+01  0.3623119853D+00
 Atom C5       Shell    14 SP   3    bf   36 -    39         16.582836122859          0.321659242380         -1.881545659634
      0.7868272350D+01 -0.1193324198D+00  0.6899906659D-01
      0.1881288540D+01 -0.1608541517D+00  0.3164239610D+00
      0.5442492580D+00  0.1143456438D+01  0.7443082909D+00
 Atom C5       Shell    15 SP   1    bf   40 -    43         16.582836122859          0.321659242380         -1.881545659634
      0.1687144782D+00  0.1000000000D+01  0.1000000000D+01
 Atom C5       Shell    16 D   1     bf   44 -    49         16.582836122859          0.321659242380         -1.881545659634
      0.8000000000D+00  0.1000000000D+01
 Atom C6       Shell    17 S   6     bf   50 -    50         15.025881067680          2.296938587432         -0.349638773168
      0.3047524880D+04  0.1834737132D-02
      0.4573695180D+03  0.1403732281D-01
      0.1039486850D+03  0.6884262226D-01
      0.2921015530D+02  0.2321844432D+00
      0.9286662960D+01  0.4679413484D+00
      0.3163926960D+01  0.3623119853D+00
 Atom C6       Shell    18 SP   3    bf   51 -    54         15.025881067680          2.296938587432         -0.349638773168
      0.7868272350D+01 -0.1193324198D+00  0.6899906659D-01
      0.1881288540D+01 -0.1608541517D+00  0.3164239610D+00
      0.5442492580D+00  0.1143456438D+01  0.7443082909D+00
 Atom C6       Shell    19 SP   1    bf   55 -    58         15.025881067680          2.296938587432         -0.349638773168
      0.1687144782D+00  0.1000000000D+01  0.1000000000D+01
 Atom C6       Shell    20 D   1     bf   59 -    64         15.025881067680          2.296938587432         -0.349638773168
      0.8000000000D+00  0.1000000000D+01
 Atom H7       Shell    21 S   3     bf   65 -    65         14.939220608280          1.532266728116          1.588464745562
      0.1873113696D+02  0.3349460434D-01
      0.2825394365D+01  0.2347269535D+00
      0.6401216923D+00  0.8137573261D+00
 Atom H7       Shell    22 S   1     bf   66 -    66         14.939220608280          1.532266728116          1.588464745562
      0.1612777588D+00  0.1000000000D+01
 Atom C8       Shell    23 S   6     bf   67 -    67         12.251558541750          2.597490363696         -1.169313001308
      0.3047524880D+04  0.1834737132D-02
      0.4573695180D+03  0.1403732281D-01
      0.1039486850D+03  0.6884262226D-01
      0.2921015530D+02  0.2321844432D+00
      0.9286662960D+01  0.4679413484D+00
      0.3163926960D+01  0.3623119853D+00
 Atom C8       Shell    24 SP   3    bf   68 -    71         12.251558541750          2.597490363696         -1.169313001308
      0.7868272350D+01 -0.1193324198D+00  0.6899906659D-01
      0.1881288540D+01 -0.1608541517D+00  0.3164239610D+00
      0.5442492580D+00  0.1143456438D+01  0.7443082909D+00
 Atom C8       Shell    25 SP   1    bf   72 -    75         12.251558541750          2.597490363696         -1.169313001308
      0.1687144782D+00  0.1000000000D+01  0.1000000000D+01
 Atom C8       Shell    26 D   1     bf   76 -    81         12.251558541750          2.597490363696         -1.169313001308
      0.8000000000D+00  0.1000000000D+01
 Atom H9       Shell    27 S   3     bf   82 -    82         12.169225819756          3.350578844324         -3.104418507322
      0.1873113696D+02  0.3349460434D-01
      0.2825394365D+01  0.2347269535D+00
      0.6401216923D+00  0.8137573261D+00
 Atom H9       Shell    28 S   1     bf   83 -    83         12.169225819756          3.350578844324         -3.104418507322
      0.1612777588D+00  0.1000000000D+01
 Atom C10      Shell    29 S   6     bf   84 -    84         10.906195630340         -0.014360425726         -1.080387251604
      0.3047524880D+04  0.1834737132D-02
      0.4573695180D+03  0.1403732281D-01
      0.1039486850D+03  0.6884262226D-01
      0.2921015530D+02  0.2321844432D+00
      0.9286662960D+01  0.4679413484D+00
      0.3163926960D+01  0.3623119853D+00
 Atom C10      Shell    30 SP   3    bf   85 -    88         10.906195630340         -0.014360425726         -1.080387251604
      0.7868272350D+01 -0.1193324198D+00  0.6899906659D-01
      0.1881288540D+01 -0.1608541517D+00  0.3164239610D+00
      0.5442492580D+00  0.1143456438D+01  0.7443082909D+00
 Atom C10      Shell    31 SP   1    bf   89 -    92         10.906195630340         -0.014360425726         -1.080387251604
      0.1687144782D+00  0.1000000000D+01  0.1000000000D+01
 Atom C10      Shell    32 D   1     bf   93 -    98         10.906195630340         -0.014360425726         -1.080387251604
      0.8000000000D+00  0.1000000000D+01
 Atom H11      Shell    33 S   3     bf   99 -    99         10.842778745684         -0.542746768640          0.934040869441
      0.1873113696D+02  0.3349460434D-01
      0.2825394365D+01  0.2347269535D+00
      0.6401216923D+00  0.8137573261D+00
 Atom H11      Shell    34 S   1     bf  100 -   100         10.842778745684         -0.542746768640          0.934040869441
      0.1612777588D+00  0.1000000000D+01
 Atom C12      Shell    35 S   6     bf  101 -   101         19.178861986597          0.580939985717         -0.474765628454
      0.3047524880D+04  0.1834737132D-02
      0.4573695180D+03  0.1403732281D-01
      0.1039486850D+03  0.6884262226D-01
      0.2921015530D+02  0.2321844432D+00
      0.9286662960D+01  0.4679413484D+00
      0.3163926960D+01  0.3623119853D+00
 Atom C12      Shell    36 SP   3    bf  102 -   105         19.178861986597          0.580939985717         -0.474765628454
      0.7868272350D+01 -0.1193324198D+00  0.6899906659D-01
      0.1881288540D+01 -0.1608541517D+00  0.3164239610D+00
      0.5442492580D+00  0.1143456438D+01  0.7443082909D+00
 Atom C12      Shell    37 SP   1    bf  106 -   109         19.178861986597          0.580939985717         -0.474765628454
      0.1687144782D+00  0.1000000000D+01  0.1000000000D+01
 Atom C12      Shell    38 D   1     bf  110 -   115         19.178861986597          0.580939985717         -0.474765628454
      0.8000000000D+00  0.1000000000D+01
 Atom H13      Shell    39 S   3     bf  116 -   116         18.814069934206         -0.207400466646          1.411381816670
      0.1873113696D+02  0.3349460434D-01
      0.2825394365D+01  0.2347269535D+00
      0.6401216923D+00  0.8137573261D+00
 Atom H13      Shell    40 S   1     bf  117 -   117         18.814069934206         -0.207400466646          1.411381816670
      0.1612777588D+00  0.1000000000D+01
 Atom C14      Shell    41 S   6     bf  118 -   118         15.232218279917         -2.239308743393         -1.594736217473
      0.3047524880D+04  0.1834737132D-02
      0.4573695180D+03  0.1403732281D-01
      0.1039486850D+03  0.6884262226D-01
      0.2921015530D+02  0.2321844432D+00
      0.9286662960D+01  0.4679413484D+00
      0.3163926960D+01  0.3623119853D+00
 Atom C14      Shell    42 SP   3    bf  119 -   122         15.232218279917         -2.239308743393         -1.594736217473
      0.7868272350D+01 -0.1193324198D+00  0.6899906659D-01
      0.1881288540D+01 -0.1608541517D+00  0.3164239610D+00
      0.5442492580D+00  0.1143456438D+01  0.7443082909D+00
 Atom C14      Shell    43 SP   1    bf  123 -   126         15.232218279917         -2.239308743393         -1.594736217473
      0.1687144782D+00  0.1000000000D+01  0.1000000000D+01
 Atom C14      Shell    44 D   1     bf  127 -   132         15.232218279917         -2.239308743393         -1.594736217473
      0.8000000000D+00  0.1000000000D+01
 Atom H15      Shell    45 S   3     bf  133 -   133         15.312201505409         -2.825826350278          0.396026749826
      0.1873113696D+02  0.3349460434D-01
      0.2825394365D+01  0.2347269535D+00
      0.6401216923D+00  0.8137573261D+00
 Atom H15      Shell    46 S   1     bf  134 -   134         15.312201505409         -2.825826350278          0.396026749826
      0.1612777588D+00  0.1000000000D+01
 Atom H16      Shell    47 S   3     bf  135 -   135         16.182800356837         -3.720328876683         -2.688391878763
      0.1873113696D+02  0.3349460434D-01
      0.2825394365D+01  0.2347269535D+00
      0.6401216923D+00  0.8137573261D+00
 Atom H16      Shell    48 S   1     bf  136 -   136         16.182800356837         -3.720328876683         -2.688391878763
      0.1612777588D+00  0.1000000000D+01
 Atom C17      Shell    49 S   6     bf  137 -   137          8.077324439934          0.099181633578         -1.960187463031
      0.3047524880D+04  0.1834737132D-02
      0.4573695180D+03  0.1403732281D-01
      0.1039486850D+03  0.6884262226D-01
      0.2921015530D+02  0.2321844432D+00
      0.9286662960D+01  0.4679413484D+00
      0.3163926960D+01  0.3623119853D+00
 Atom C17      Shell    50 SP   3    bf  138 -   141          8.077324439934          0.099181633578         -1.960187463031
      0.7868272350D+01 -0.1193324198D+00  0.6899906659D-01
      0.1881288540D+01 -0.1608541517D+00  0.3164239610D+00
      0.5442492580D+00  0.1143456438D+01  0.7443082909D+00
 Atom C17      Shell    51 SP   1    bf  142 -   145          8.077324439934          0.099181633578         -1.960187463031
      0.1687144782D+00  0.1000000000D+01  0.1000000000D+01
 Atom C17      Shell    52 D   1     bf  146 -   151          8.077324439934          0.099181633578         -1.960187463031
      0.8000000000D+00  0.1000000000D+01
 Atom C18      Shell    53 S   6     bf  152 -   152         16.760281595710          4.632498150349         -0.237249276730
      0.3047524880D+04  0.1834737132D-02
      0.4573695180D+03  0.1403732281D-01
      0.1039486850D+03  0.6884262226D-01
      0.2921015530D+02  0.2321844432D+00
      0.9286662960D+01  0.4679413484D+00
      0.3163926960D+01  0.3623119853D+00
 Atom C18      Shell    54 SP   3    bf  153 -   156         16.760281595710          4.632498150349         -0.237249276730
      0.7868272350D+01 -0.1193324198D+00  0.6899906659D-01
      0.1881288540D+01 -0.1608541517D+00  0.3164239610D+00
      0.5442492580D+00  0.1143456438D+01  0.7443082909D+00
 Atom C18      Shell    55 SP   1    bf  157 -   160         16.760281595710          4.632498150349         -0.237249276730
      0.1687144782D+00  0.1000000000D+01  0.1000000000D+01
 Atom C18      Shell    56 D   1     bf  161 -   166         16.760281595710          4.632498150349         -0.237249276730
      0.8000000000D+00  0.1000000000D+01
 Atom H19      Shell    57 S   3     bf  167 -   167         16.318356799623          5.859688889970          1.362727661536
      0.1873113696D+02  0.3349460434D-01
      0.2825394365D+01  0.2347269535D+00
      0.6401216923D+00  0.8137573261D+00
 Atom H19      Shell    58 S   1     bf  168 -   168         16.318356799623          5.859688889970          1.362727661536
      0.1612777588D+00  0.1000000000D+01
 Atom H20      Shell    59 S   3     bf  169 -   169         16.526354476419          5.795038770039         -1.933355336157
      0.1873113696D+02  0.3349460434D-01
      0.2825394365D+01  0.2347269535D+00
      0.6401216923D+00  0.8137573261D+00
 Atom H20      Shell    60 S   1     bf  170 -   170         16.526354476419          5.795038770039         -1.933355336157
      0.1612777588D+00  0.1000000000D+01
 Atom C21      Shell    61 S   6     bf  171 -   171         12.450531113302         -2.091035010651         -2.439897484323
      0.3047524880D+04  0.1834737132D-02
      0.4573695180D+03  0.1403732281D-01
      0.1039486850D+03  0.6884262226D-01
      0.2921015530D+02  0.2321844432D+00
      0.9286662960D+01  0.4679413484D+00
      0.3163926960D+01  0.3623119853D+00
 Atom C21      Shell    62 SP   3    bf  172 -   175         12.450531113302         -2.091035010651         -2.439897484323
      0.7868272350D+01 -0.1193324198D+00  0.6899906659D-01
      0.1881288540D+01 -0.1608541517D+00  0.3164239610D+00
      0.5442492580D+00  0.1143456438D+01  0.7443082909D+00
 Atom C21      Shell    63 SP   1    bf  176 -   179         12.450531113302         -2.091035010651         -2.439897484323
      0.1687144782D+00  0.1000000000D+01  0.1000000000D+01
 Atom C21      Shell    64 D   1     bf  180 -   185         12.450531113302         -2.091035010651         -2.439897484323
      0.8000000000D+00  0.1000000000D+01
 Atom H22      Shell    65 S   3     bf  186 -   186         12.392420768599         -1.784802812118         -4.485980445615
      0.1873113696D+02  0.3349460434D-01
      0.2825394365D+01  0.2347269535D+00
      0.6401216923D+00  0.8137573261D+00
 Atom H22      Shell    66 S   1     bf  187 -   187         12.392420768599         -1.784802812118         -4.485980445615
      0.1612777588D+00  0.1000000000D+01
 Atom H23      Shell    67 S   3     bf  188 -   188         11.566680236114         -3.934638862372         -2.113905118818
      0.1873113696D+02  0.3349460434D-01
      0.2825394365D+01  0.2347269535D+00
      0.6401216923D+00  0.8137573261D+00
 Atom H23      Shell    68 S   1     bf  189 -   189         11.566680236114         -3.934638862372         -2.113905118818
      0.1612777588D+00  0.1000000000D+01
 Atom C24      Shell    69 S   6     bf  190 -   190         19.464128146117          3.492643277145         -0.092496217156
      0.3047524880D+04  0.1834737132D-02
      0.4573695180D+03  0.1403732281D-01
      0.1039486850D+03  0.6884262226D-01
      0.2921015530D+02  0.2321844432D+00
      0.9286662960D+01  0.4679413484D+00
      0.3163926960D+01  0.3623119853D+00
 Atom C24      Shell    70 SP   3    bf  191 -   194         19.464128146117          3.492643277145         -0.092496217156
      0.7868272350D+01 -0.1193324198D+00  0.6899906659D-01
      0.1881288540D+01 -0.1608541517D+00  0.3164239610D+00
      0.5442492580D+00  0.1143456438D+01  0.7443082909D+00
 Atom C24      Shell    71 SP   1    bf  195 -   198         19.464128146117          3.492643277145         -0.092496217156
      0.1687144782D+00  0.1000000000D+01  0.1000000000D+01
 Atom C24      Shell    72 D   1     bf  199 -   204         19.464128146117          3.492643277145         -0.092496217156
      0.8000000000D+00  0.1000000000D+01
 Atom H25      Shell    73 S   3     bf  205 -   205         20.687447857343          4.322957664967         -1.540104953068
      0.1873113696D+02  0.3349460434D-01
      0.2825394365D+01  0.2347269535D+00
      0.6401216923D+00  0.8137573261D+00
 Atom H25      Shell    74 S   1     bf  206 -   206         20.687447857343          4.322957664967         -1.540104953068
      0.1612777588D+00  0.1000000000D+01
 Atom H26      Shell    75 S   3     bf  207 -   207         20.372718599740          3.888579679164          1.725576867592
      0.1873113696D+02  0.3349460434D-01
      0.2825394365D+01  0.2347269535D+00
      0.6401216923D+00  0.8137573261D+00
 Atom H26      Shell    76 S   1     bf  208 -   208         20.372718599740          3.888579679164          1.725576867592
      0.1612777588D+00  0.1000000000D+01
 Atom C27      Shell    77 S   6     bf  209 -   209         10.848021828634          4.495494423009          0.536638077737
      0.3047524880D+04  0.1834737132D-02
      0.4573695180D+03  0.1403732281D-01
      0.1039486850D+03  0.6884262226D-01
      0.2921015530D+02  0.2321844432D+00
      0.9286662960D+01  0.4679413484D+00
      0.3163926960D+01  0.3623119853D+00
 Atom C27      Shell    78 SP   3    bf  210 -   213         10.848021828634          4.495494423009          0.536638077737
      0.7868272350D+01 -0.1193324198D+00  0.6899906659D-01
      0.1881288540D+01 -0.1608541517D+00  0.3164239610D+00
      0.5442492580D+00  0.1143456438D+01  0.7443082909D+00
 Atom C27      Shell    79 SP   1    bf  214 -   217         10.848021828634          4.495494423009          0.536638077737
      0.1687144782D+00  0.1000000000D+01  0.1000000000D+01
 Atom C27      Shell    80 D   1     bf  218 -   223         10.848021828634          4.495494423009          0.536638077737
      0.8000000000D+00  0.1000000000D+01
 Atom H28      Shell    81 S   3     bf  224 -   224         11.477378695472          4.229852256797          2.498528958802
      0.1873113696D+02  0.3349460434D-01
      0.2825394365D+01  0.2347269535D+00
      0.6401216923D+00  0.8137573261D+00
 Atom H28      Shell    82 S   1     bf  225 -   225         11.477378695472          4.229852256797          2.498528958802
      0.1612777588D+00  0.1000000000D+01
 Atom C29      Shell    83 S   6     bf  226 -   226         21.671275564865         -0.708285946401         -1.353746813679
      0.3047524880D+04  0.1834737132D-02
      0.4573695180D+03  0.1403732281D-01
      0.1039486850D+03  0.6884262226D-01
      0.2921015530D+02  0.2321844432D+00
      0.9286662960D+01  0.4679413484D+00
      0.3163926960D+01  0.3623119853D+00
 Atom C29      Shell    84 SP   3    bf  227 -   230         21.671275564865         -0.708285946401         -1.353746813679
      0.7868272350D+01 -0.1193324198D+00  0.6899906659D-01
      0.1881288540D+01 -0.1608541517D+00  0.3164239610D+00
      0.5442492580D+00  0.1143456438D+01  0.7443082909D+00
 Atom C29      Shell    85 SP   1    bf  231 -   234         21.671275564865         -0.708285946401         -1.353746813679
      0.1687144782D+00  0.1000000000D+01  0.1000000000D+01
 Atom C29      Shell    86 D   1     bf  235 -   240         21.671275564865         -0.708285946401         -1.353746813679
      0.8000000000D+00  0.1000000000D+01
 Atom H30      Shell    87 S   3     bf  241 -   241         23.083517811638          0.000000000000          0.000000000000
      0.1873113696D+02  0.3349460434D-01
      0.2825394365D+01  0.2347269535D+00
      0.6401216923D+00  0.8137573261D+00
 Atom H30      Shell    88 S   1     bf  242 -   242         23.083517811638          0.000000000000          0.000000000000
      0.1612777588D+00  0.1000000000D+01
 Atom C31      Shell    89 S   6     bf  243 -   243         16.769575703468          1.048973786076         -4.706255503021
      0.3047524880D+04  0.1834737132D-02
      0.4573695180D+03  0.1403732281D-01
      0.1039486850D+03  0.6884262226D-01
      0.2921015530D+02  0.2321844432D+00
      0.9286662960D+01  0.4679413484D+00
      0.3163926960D+01  0.3623119853D+00
 Atom C31      Shell    90 SP   3    bf  244 -   247         16.769575703468          1.048973786076         -4.706255503021
      0.7868272350D+01 -0.1193324198D+00  0.6899906659D-01
      0.1881288540D+01 -0.1608541517D+00  0.3164239610D+00
      0.5442492580D+00  0.1143456438D+01  0.7443082909D+00
 Atom C31      Shell    91 SP   1    bf  248 -   251         16.769575703468          1.048973786076         -4.706255503021
      0.1687144782D+00  0.1000000000D+01  0.1000000000D+01
 Atom C31      Shell    92 D   1     bf  252 -   257         16.769575703468          1.048973786076         -4.706255503021
      0.8000000000D+00  0.1000000000D+01
 Atom H32      Shell    93 S   3     bf  258 -   258         14.917698914195          1.459184253338         -5.524442441105
      0.1873113696D+02  0.3349460434D-01
      0.2825394365D+01  0.2347269535D+00
      0.6401216923D+00  0.8137573261D+00
 Atom H32      Shell    94 S   1     bf  259 -   259         14.917698914195          1.459184253338         -5.524442441105
      0.1612777588D+00  0.1000000000D+01
 Atom H33      Shell    95 S   3     bf  260 -   260         17.947660832382          2.718023672698         -5.006886421015
      0.1873113696D+02  0.3349460434D-01
      0.2825394365D+01  0.2347269535D+00
      0.6401216923D+00  0.8137573261D+00
 Atom H33      Shell    96 S   1     bf  261 -   261         17.947660832382          2.718023672698         -5.006886421015
      0.1612777588D+00  0.1000000000D+01
 Atom H34      Shell    97 S   3     bf  262 -   262         17.586868026303         -0.497353146976         -5.807877002468
      0.1873113696D+02  0.3349460434D-01
      0.2825394365D+01  0.2347269535D+00
      0.6401216923D+00  0.8137573261D+00
 Atom H34      Shell    98 S   1     bf  263 -   263         17.586868026303         -0.497353146976         -5.807877002468
      0.1612777588D+00  0.1000000000D+01
 Atom C35      Shell    99 S   6     bf  264 -   264          6.751733506286          2.358626202602         -0.724629620806
      0.3047524880D+04  0.1834737132D-02
      0.4573695180D+03  0.1403732281D-01
      0.1039486850D+03  0.6884262226D-01
      0.2921015530D+02  0.2321844432D+00
      0.9286662960D+01  0.4679413484D+00
      0.3163926960D+01  0.3623119853D+00
 Atom C35      Shell   100 SP   3    bf  265 -   268          6.751733506286          2.358626202602         -0.724629620806
      0.7868272350D+01 -0.1193324198D+00  0.6899906659D-01
      0.1881288540D+01 -0.1608541517D+00  0.3164239610D+00
      0.5442492580D+00  0.1143456438D+01  0.7443082909D+00
 Atom C35      Shell   101 SP   1    bf  269 -   272          6.751733506286          2.358626202602         -0.724629620806
      0.1687144782D+00  0.1000000000D+01  0.1000000000D+01
 Atom C35      Shell   102 D   1     bf  273 -   278          6.751733506286          2.358626202602         -0.724629620806
      0.8000000000D+00  0.1000000000D+01
 Atom C36      Shell   103 S   6     bf  279 -   279          6.713886033502         -2.362354518878         -1.075208513829
      0.3047524880D+04  0.1834737132D-02
      0.4573695180D+03  0.1403732281D-01
      0.1039486850D+03  0.6884262226D-01
      0.2921015530D+02  0.2321844432D+00
      0.9286662960D+01  0.4679413484D+00
      0.3163926960D+01  0.3623119853D+00
 Atom C36      Shell   104 SP   3    bf  280 -   283          6.713886033502         -2.362354518878         -1.075208513829
      0.7868272350D+01 -0.1193324198D+00  0.6899906659D-01
      0.1881288540D+01 -0.1608541517D+00  0.3164239610D+00
      0.5442492580D+00  0.1143456438D+01  0.7443082909D+00
 Atom C36      Shell   105 SP   1    bf  284 -   287          6.713886033502         -2.362354518878         -1.075208513829
      0.1687144782D+00  0.1000000000D+01  0.1000000000D+01
 Atom C36      Shell   106 D   1     bf  288 -   293          6.713886033502         -2.362354518878         -1.075208513829
      0.8000000000D+00  0.1000000000D+01
 Atom H37      Shell   107 S   3     bf  294 -   294          7.203787177753         -2.695624994510          0.914824546752
      0.1873113696D+02  0.3349460434D-01
      0.2825394365D+01  0.2347269535D+00
      0.6401216923D+00  0.8137573261D+00
 Atom H37      Shell   108 S   1     bf  295 -   295          7.203787177753         -2.695624994510          0.914824546752
      0.1612777588D+00  0.1000000000D+01
 Atom H38      Shell   109 S   3     bf  296 -   296          7.448970828700         -3.978032208925         -2.138925338481
      0.1873113696D+02  0.3349460434D-01
      0.2825394365D+01  0.2347269535D+00
      0.6401216923D+00  0.8137573261D+00
 Atom H38      Shell   110 S   1     bf  297 -   297          7.448970828700         -3.978032208925         -2.138925338481
      0.1612777588D+00  0.1000000000D+01
 Atom C39      Shell   111 S   6     bf  298 -   298          8.022572081878          4.230318508926          0.417478467352
      0.3047524880D+04  0.1834737132D-02
[...]
 1516 Fit      -0.000153
 1517 Fit       0.003151
 1518 Fit       0.002521
 1519 Fit       0.001185
 1520 Fit       0.002006
 1521 Fit       0.001819
 1522 Fit       0.001140
 1523 Fit      -0.000165
 1524 Fit      -0.001727
 1525 Fit       0.000209
 1526 Fit       0.000164
 1527 Fit      -0.000375
 1528 Fit      -0.001370
 1529 Fit      -0.002058
 1530 Fit       0.001397
 1531 Fit      -0.001758
 1532 Fit       0.000198
 1533 Fit       0.002750
 1534 Fit       0.000023
 1535 Fit       0.001791
 1536 Fit       0.002332
 1537 Fit       0.002141
 1538 Fit      -0.000544
 1539 Fit       0.001419
 1540 Fit       0.000703
 1541 Fit      -0.000727
 1542 Fit       0.002308
 1543 Fit       0.000270
 1544 Fit      -0.001515
 1545 Fit       0.003212
 1546 Fit       0.001549
 1547 Fit      -0.000343
 1548 Fit       0.000188
 1549 Fit       0.002888
 1550 Fit       0.001205
 1551 Fit       0.002214
 1552 Fit      -0.003199
 1553 Fit      -0.003129
 1554 Fit      -0.003497
 1555 Fit      -0.002768
 1556 Fit      -0.002583
 1557 Fit      -0.002519
 1558 Fit      -0.001968
 1559 Fit      -0.000511
 1560 Fit      -0.000533
 1561 Fit       0.000417
 1562 Fit      -0.001148
 1563 Fit      -0.001958
 1564 Fit      -0.001134
 1565 Fit       0.000936
 1566 Fit       0.001956
 1567 Fit       0.000666
 1568 Fit      -0.000939
 1569 Fit       0.002933
 1570 Fit       0.001962
 1571 Fit      -0.000151
 1572 Fit      -0.001883
 1573 Fit      -0.002591
 1574 Fit       0.000021
 1575 Fit      -0.001340
 1576 Fit      -0.001894
 1577 Fit      -0.000158
 1578 Fit       0.001785
 1579 Fit       0.000399
 1580 Fit      -0.001777
 1581 Fit       0.001258
 1582 Fit       0.002020
 1583 Fit       0.002288
 1584 Fit       0.000647
 1585 Fit      -0.001574
 1586 Fit       0.003098
 1587 Fit       0.001735
 1588 Fit       0.000003
 1589 Fit      -0.002063
 1590 Fit      -0.001533
 1591 Fit      -0.002312
 1592 Fit      -0.000209
 1593 Fit       0.000846
 1594 Fit       0.000548
 1595 Fit      -0.002343
 1596 Fit      -0.000190
 1597 Fit       0.001428
 1598 Fit       0.002279
 1599 Fit      -0.001811
 1600 Fit       0.000322
 1601 Fit       0.001920
 1602 Fit      -0.000013
 1603 Fit      -0.020383
 1604 Fit      -0.018341
 1605 Fit      -0.024596
 1606 Fit      -0.023720
 1607 Fit      -0.019849
 1608 Fit      -0.024717
 1609 Fit      -0.023614
 1610 Fit      -0.020611
 1611 Fit      -0.016223
 1612 Fit      -0.022161
 1613 Fit      -0.019389
 1614 Fit      -0.015336
 1615 Fit      -0.010656
 1616 Fit      -0.005782
 1617 Fit      -0.013732
 1618 Fit      -0.008233
 1619 Fit      -0.001388
 1620 Fit      -0.000506
 1621 Fit       0.004585
 1622 Fit       0.008102
 1623 Fit       0.009428
 1624 Fit       0.002643
 1625 Fit       0.006810
 1626 Fit       0.011107
 1627 Fit       0.013993
 1628 Fit       0.014386
 1629 Fit       0.011906
 1630 Fit       0.013053
 1631 Fit       0.016357
 1632 Fit       0.017661
 1633 Fit       0.017312
 1634 Fit      -0.020449
 1635 Fit      -0.023494
 1636 Fit      -0.020061
 1637 Fit      -0.014896
 1638 Fit      -0.021552
 1639 Fit      -0.024528
 1640 Fit      -0.025391
 1641 Fit      -0.024806
 1642 Fit      -0.021764
 1643 Fit      -0.014836
 1644 Fit      -0.018624
 1645 Fit      -0.020747
 1646 Fit      -0.021453
 1647 Fit      -0.021962
 1648 Fit      -0.022011
 1649 Fit      -0.020057
 1650 Fit      -0.009189
 1651 Fit      -0.011616
 1652 Fit      -0.012117
 1653 Fit      -0.012398
 1654 Fit      -0.013297
 1655 Fit      -0.014500
 1656 Fit      -0.014686
 1657 Fit      -0.011908
 1658 Fit      -0.002560
 1659 Fit      -0.003912
 1660 Fit       0.006456
 1661 Fit       0.005813
 1662 Fit       0.005635
 1663 Fit       0.005013
 1664 Fit       0.003625
 1665 Fit       0.001988
 1666 Fit       0.016762
 1667 Fit       0.015258
 1668 Fit       0.014536
 1669 Fit       0.013693
 1670 Fit       0.012873
 1671 Fit       0.013144
 1672 Fit       0.021372
 1673 Fit       0.019988
 1674 Fit       0.019907
 1675 Fit       0.023810
 1676 Fit       0.002670
 1677 Fit       0.001789
 1678 Fit       0.000061
 1679 Fit       0.004676
 1680 Fit       0.003800
 1681 Fit       0.007963
 1682 Fit       0.004991
 1683 Fit       0.006024
 1684 Fit       0.003927
 1685 Fit       0.006005
 1686 Fit       0.005864
 1687 Fit       0.006270
 1688 Fit       0.001683
 1689 Fit       0.001471
 1690 Fit       0.003531
 1691 Fit       0.001697
 1692 Fit       0.005496
 1693 Fit       0.006090
 1694 Fit       0.005073
 1695 Fit       0.004939
 1696 Fit       0.003570
 1697 Fit       0.002834
 1698 Fit       0.003004
 1699 Fit       0.002325
 1700 Fit       0.004435
 1701 Fit       0.004388
 1702 Fit       0.005239
 1703 Fit       0.005591
 1704 Fit       0.005476
 1705 Fit       0.006076
 1706 Fit      -0.009568
 1707 Fit      -0.008029
 1708 Fit      -0.004069
 1709 Fit      -0.003315
 1710 Fit      -0.006051
 1711 Fit      -0.009075
 1712 Fit      -0.001132
 1713 Fit      -0.001737
 1714 Fit      -0.005662
 1715 Fit      -0.008549
 1716 Fit      -0.014001
 1717 Fit      -0.008925
 1718 Fit      -0.013033
 1719 Fit      -0.022859
 1720 Fit      -0.004545
 1721 Fit      -0.006636
 1722 Fit      -0.009002
 1723 Fit       0.000433
 1724 Fit      -0.001365
 1725 Fit      -0.001394
 1726 Fit       0.002818
 1727 Fit       0.001678
 1728 Fit       0.002759
 1729 Fit       0.005054
 1730 Fit       0.006266
 1731 Fit       0.005304
 1732 Fit       0.006677
 1733 Fit       0.005512
 1734 Fit       0.008273
 1735 Fit       0.006206
 1736 Fit       0.007149
 1737 Fit       0.006013
 1738 Fit       0.005818
 1739 Fit       0.004228
 1740 Fit       0.006917
 1741 Fit       0.005226
 1742 Fit       0.007501
 1743 Fit       0.005642
 1744 Fit       0.006980
 1745 Fit       0.005268
 1746 Fit      -0.002767
 1747 Fit      -0.004065
 1748 Fit      -0.005708
 1749 Fit      -0.001972
 1750 Fit      -0.002361
 1751 Fit      -0.003400
 1752 Fit      -0.000263
 1753 Fit      -0.001010
 1754 Fit      -0.002537
 1755 Fit       0.000934
 1756 Fit      -0.000013
 1757 Fit      -0.000096
 1758 Fit       0.000667
 1759 Fit      -0.000956
 1760 Fit      -0.002136
 1761 Fit      -0.001038
 1762 Fit       0.000664
 1763 Fit       0.001373
 1764 Fit       0.000836
 1765 Fit      -0.000862
 1766 Fit      -0.002591
 1767 Fit      -0.004420
 1768 Fit      -0.000124
 1769 Fit      -0.001817
 1770 Fit      -0.003375
 1771 Fit      -0.005376
 1772 Fit      -0.000285
 1773 Fit      -0.000282
 1774 Fit      -0.004405
 1775 Fit      -0.004072
 1776 Fit      -0.001109
 1777 Fit       0.001662
 1778 Fit       0.002582
 1779 Fit      -0.013503
 1780 Fit      -0.014043
 1781 Fit       0.000729
 1782 Fit       0.004880
 1783 Fit       0.000681
 1784 Fit      -0.000473
 1785 Fit       0.001770
 1786 Fit       0.004467
 1787 Fit       0.000453
 1788 Fit       0.000393
 1789 Fit       0.001778
 1790 Fit       0.002534
 1791 Fit       0.001185
 1792 Fit       0.006968
 1793 Fit       0.004749
 1794 Fit       0.008916
 1795 Fit       0.004841
 1796 Fit       0.006080
 1797 Fit       0.004467
 1798 Fit       0.002822
 1799 Fit       0.003405
 1800 Fit       0.002218
 1801 Fit       0.001746
 1802 Fit       0.002221
 1803 Fit       0.002154
 1804 Fit       0.000984
 1805 Fit       0.006344
 1806 Fit       0.004784
 1807 Fit       0.005172
 1808 Fit       0.005212
 1809 Fit       0.002002
 1810 Fit       0.003682
 1811 Fit       0.003768
 1812 Fit       0.002088
 1813 Fit       0.007028
 1814 Fit       0.004919
 1815 Fit       0.005125
 1816 Fit       0.005100
 1817 Fit       0.006123
 1818 Fit       0.004340
 1819 Fit       0.004875
 1820 Fit       0.005560
 1821 Fit       0.004431
 1822 Fit       0.004827
 1823 Fit       0.005386
 1824 Fit       0.006307
 1825 Fit       0.005083
 1826 Fit       0.005778
 1827 Fit       0.006409
 1828 Fit       0.007081
 1829 Fit       0.007503
 1830 Fit       0.008303
 1831 Fit       0.008097
 1832 Fit       0.008671
 1833 Fit       0.009295
 1834 Fit       0.009703
 1835 Fit      -0.002589
 1836 Fit      -0.003043
 1837 Fit      -0.003066
 1838 Fit      -0.000649
 1839 Fit       0.005260
 1840 Fit       0.005294
 1841 Fit      -0.002686
 1842 Fit      -0.005280
 1843 Fit      -0.001551
 1844 Fit      -0.001058
 1845 Fit      -0.012098
 1846 Fit      -0.003321
 1847 Fit       0.000696
 1848 Fit       0.001641
 1849 Fit      -0.001890
 1850 Fit       0.002090
 1851 Fit       0.000541
 1852 Fit       0.003221
 1853 Fit       0.003809
 1854 Fit       0.008178
 1855 Fit       0.007020
 1856 Fit       0.008042
 1857 Fit       0.006043
 1858 Fit       0.006356
 1859 Fit       0.006505
 1860 Fit       0.007041
 1861 Fit       0.006667
 1862 Fit       0.005933
 1863 Fit       0.009419
 1864 Fit       0.009706
 1865 Fit       0.009258
 1866 Fit       0.008405
 1867 Fit       0.008609
 1868 Fit       0.008466
 1869 Fit       0.006843
 1870 Fit       0.007495
 1871 Fit       0.007572
 1872 Fit       0.006502
 1873 Fit       0.009256
 1874 Fit       0.023166
 1875 Fit       0.008590
 1876 Fit       0.011375
 1877 Fit       0.014143
 1878 Fit       0.014274
 1879 Fit       0.011483
 1880 Fit       0.008648
 1881 Fit       0.010068
 1882 Fit       0.008456
 1883 Fit       0.015576
 1884 Fit       0.011810
 1885 Fit       0.009893
 1886 Fit       0.010604
 1887 Fit       0.009599
 1888 Fit       0.007228
 1889 Fit       0.008053
 1890 Fit       0.007320
 1891 Fit       0.000642
 1892 Fit       0.004951
 1893 Fit      -0.002088
 1894 Fit      -0.001322
 1895 Fit      -0.007232
 1896 Fit       0.002261
 1897 Fit      -0.001677
 1898 Fit      -0.009912
 1899 Fit       0.002789
 1900 Fit      -0.000200
 1901 Fit      -0.006641
 1902 Fit       0.003195
 1903 Fit       0.001353
 1904 Fit      -0.002503
 1905 Fit       0.005445
 1906 Fit       0.006490
 1907 Fit       0.010626
 1908 Fit       0.007987
 1909 Fit       0.008511
 1910 Fit       0.010556
 1911 Fit       0.016362
 1912 Fit       0.012635
 1913 Fit       0.017412
 1914 Fit       0.005406
 1915 Fit       0.004721
 1916 Fit       0.005786
 1917 Fit       0.008820
 1918 Fit       0.025743
 1919 Fit       0.022497
 1920 Fit       0.013827
 1921 Fit       0.008944
 1922 Fit       0.007807
 1923 Fit       0.008817
 1924 Fit       0.014731
 1925 Fit       0.010803
 1926 Fit       0.009955
 1927 Fit       0.012625
 1928 Fit      -0.000806
 1929 Fit       0.003310
 1930 Fit      -0.011748
 1931 Fit      -0.001923
 1932 Fit       0.002329
 1933 Fit       0.004312
 1934 Fit      -0.006799
 1935 Fit      -0.000073
 1936 Fit       0.003115
 1937 Fit       0.004765
 1938 Fit      -0.002130
 1939 Fit       0.001688
 1940 Fit       0.003946
 1941 Fit       0.005466
 1942 Fit       0.003535
 1943 Fit       0.004869
 1944 Fit       0.000749
 1945 Fit      -0.000150
 1946 Fit       0.002623
 1947 Fit       0.005411
 1948 Fit       0.002921
 1949 Fit       0.000780
 1950 Fit       0.004489
 1951 Fit       0.001719
 1952 Fit       0.001649
 1953 Fit       0.001056
 1954 Fit       0.001554
 1955 Fit       0.000104
 1956 Fit      -0.001462
 1957 Fit       0.001493
 1958 Fit      -0.001019
 1959 Fit      -0.004715
 1960 Fit      -0.007515
 1961 Fit      -0.003295
 1962 Fit       0.001407
 1963 Fit       0.002683
 1964 Fit      -0.002172
 1965 Fit      -0.003633
 1966 Fit      -0.011588
 1967 Fit      -0.009386
 1968 Fit      -0.001146
 1969 Fit       0.003817
 1970 Fit      -0.000379
 1971 Fit      -0.001475
 1972 Fit      -0.001503
 1973 Fit      -0.001473
 1974 Fit      -0.000722
 1975 Fit      -0.001862
 1976 Fit      -0.001169
 1977 Fit      -0.001659
 1978 Fit      -0.001601
 1979 Fit      -0.001040
 1980 Fit      -0.000085
 1981 Fit       0.002984
 1982 Fit       0.000601
 1983 Fit      -0.000788
 1984 Fit       0.000080
 1985 Fit       0.003161
 1986 Fit       0.001028
 1987 Fit       0.001061
 1988 Fit       0.000243
 1989 Fit       0.001885
 1990 Fit       0.000375
 1991 Fit       0.002888
 1992 Fit       0.001411
 1993 Fit       0.000110
 1994 Fit      -0.001444
 1995 Fit       0.001855
 1996 Fit       0.002007
 1997 Fit       0.000417
 1998 Fit      -0.000828
 1999 Fit      -0.000026
 2000 Fit       0.000729
 2001 Fit      -0.001016
 2002 Fit      -0.000096
 2003 Fit      -0.001308
 2004 Fit       0.000335
 2005 Fit       0.001873
 2006 Fit      -0.000921
 2007 Fit       0.000818
 2008 Fit       0.002135
 2009 Fit      -0.000463
 2010 Fit       0.000230
 2011 Fit       0.000591
 2012 Fit       0.000405
 2013 Fit       0.002355
 2014 Fit       0.005196
 2015 Fit       0.003564
 2016 Fit       0.001327
 2017 Fit       0.000845
 2018 Fit       0.000436
 2019 Fit       0.000774
 2020 Fit       0.000225
 2021 Fit       0.001147
 2022 Fit       0.001601
 2023 Fit       0.000771
 2024 Fit       0.001764
 2025 Fit       0.002334
 2026 Fit       0.002095
 2027 Fit       0.002527
 2028 Fit      -0.001138
 2029 Fit       0.000758
 2030 Fit       0.001478
 2031 Fit       0.001006
 2032 Fit      -0.000375
 2033 Fit       0.000999
 2034 Fit       0.001856
 2035 Fit       0.002297
 2036 Fit      -0.000812
 2037 Fit       0.000615
 2038 Fit       0.001391
 2039 Fit       0.001772
 2040 Fit       0.002235
 2041 Fit       0.001025
 2042 Fit       0.001030
 2043 Fit       0.001429
 2044 Fit      -0.001004
 2045 Fit       0.000801
 2046 Fit       0.000494
 2047 Fit       0.000220
 2048 Fit       0.002207
 2049 Fit       0.001463
 2050 Fit       0.001229
 2051 Fit       0.000651
 2052 Fit       0.000604
 2053 Fit       0.001683
 2054 Fit       0.001975
 2055 Fit       0.002858
 2056 Fit      -0.001702
 2057 Fit      -0.001674
 2058 Fit      -0.001659
 2059 Fit      -0.001817
 2060 Fit      -0.000870
 2061 Fit      -0.001643
 2062 Fit      -0.001592
 2063 Fit      -0.001239
 2064 Fit       0.001030
 2065 Fit       0.000251
 2066 Fit       0.002112
 2067 Fit       0.002668
 2068 Fit       0.002030
 2069 Fit       0.001035
 2070 Fit       0.002094
 2071 Fit       0.001745
 2072 Fit       0.001152
 2073 Fit       0.000174
 2074 Fit      -0.000956
 2075 Fit       0.000921
 2076 Fit       0.000744
 2077 Fit       0.000206
 2078 Fit      -0.000633
 2079 Fit      -0.001572
 2080 Fit       0.000403
 2081 Fit      -0.000425
 2082 Fit       0.001918
 2083 Fit      -0.000141
 2084 Fit       0.001080
 2085 Fit       0.002175
 2086 Fit       0.002441
 2087 Fit      -0.001246
 2088 Fit       0.000307
 2089 Fit       0.001508
 2090 Fit       0.001582
 2091 Fit       0.001544
 2092 Fit      -0.000449
 2093 Fit       0.000890
 2094 Fit       0.000482
 2095 Fit      -0.000469
 2096 Fit       0.000481
 2097 Fit       0.002071
 2098 Fit       0.000673
 2099 Fit      -0.000679
 2100 Fit       0.002738
 2101 Fit       0.001580
 2102 Fit       0.000229
 2103 Fit       0.000658
 2104 Fit       0.002255
 2105 Fit       0.001186
 2106 Fit       0.001810
 2107 Fit      -0.002376
 2108 Fit      -0.002456
 2109 Fit      -0.002749
 2110 Fit      -0.002475
 2111 Fit      -0.002100
 2112 Fit      -0.002245
 2113 Fit      -0.002376
 2114 Fit      -0.001874
 2115 Fit      -0.002016
 2116 Fit      -0.001563
 2117 Fit      -0.001075
 2118 Fit       0.000171
 2119 Fit       0.000127
 2120 Fit      -0.000903
 2121 Fit      -0.001478
 2122 Fit      -0.000867
 2123 Fit       0.000594
 2124 Fit       0.001308
 2125 Fit       0.000396
 2126 Fit      -0.001876
 2127 Fit      -0.000450
 2128 Fit       0.001543
 2129 Fit       0.002197
 2130 Fit       0.001535
 2131 Fit       0.000098
 2132 Fit      -0.001192
 2133 Fit      -0.000729
 2134 Fit      -0.001677
 2135 Fit      -0.000824
 2136 Fit       0.000762
 2137 Fit      -0.000174
 2138 Fit      -0.001609
 2139 Fit       0.000188
 2140 Fit       0.000901
 2141 Fit       0.001610
 2142 Fit       0.000572
 2143 Fit      -0.000917
 2144 Fit       0.002037
 2145 Fit       0.001769
 2146 Fit       0.000561
 2147 Fit       0.002667
 2148 Fit       0.001436
 2149 Fit      -0.002077
 2150 Fit      -0.001686
 2151 Fit      -0.000773
 2152 Fit      -0.000058
 2153 Fit      -0.000298
 2154 Fit      -0.000731
 2155 Fit       0.000446
 2156 Fit       0.001098
 2157 Fit       0.001384
 2158 Fit      -0.000542
 2159 Fit       0.000674
 2160 Fit       0.001550
 2161 Fit       0.000094
 2162 Fit       0.001358
 -----------------------------------------------------------------
 Leave Link  602 at Thu May 18 13:20:09 2017, MaxMem=    33554432 cpu:         4.3
 (Enter /home/michal/g09/l9999.exe)

 Test job not archived.
 1\1\GINC-LINUX\SP\RHF\6-31G(d)\C27H46O2\MICHAL\18-May-2017\0\\#P HF/6-
 31G* SCF(Conver=6) NoSymm Test Pop=mk IOp(6/33=2) GFInput GFPrint\\MEP
  - Input generated by R.E.D.-III.x MOLECULE\\0,1\O,0,6.10902826,3.7432
 0021,0.\H,0,5.69669923,3.9943449,-0.83858824\O,0,0.,0.,0.\H,0,-0.26424
 406,0.0819719,-0.92715661\C,0,8.77525893,0.17021474,-0.99567108\C,0,7.
 9513538,1.21548755,-0.18502087\H,0,7.90549506,0.81084063,0.84057934\C,
 0,6.48324555,1.3745327,-0.61877379\H,0,6.43967695,1.77304996,-1.642787
 52\C,0,5.77131016,-0.00759921,-0.57171631\H,0,5.73775139,-0.28720922,0
 .49427314\C,0,10.14901665,0.3074202,-0.25123515\H,0,9.95597701,-0.1097
 516,0.74687109\C,0,8.06054275,-1.18499115,-0.84389806\H,0,8.10286805,-
 1.4953629,0.20956833\H,0,8.56356912,-1.96871325,-1.42263571\C,0,4.2743
 36,0.05248466,-1.03728653\C,0,8.86915903,2.45141244,-0.12554691\H,0,8.
 6353025,3.10081381,0.72112442\H,0,8.74537013,3.06660244,-1.02308758\C,
 0,6.5885373,-1.10652807,-1.29113814\H,0,6.55778663,-0.94447697,-2.3738
 7861\H,0,6.12082356,-2.08212121,-1.11863041\C,0,10.299973,1.84822722,-
 0.04894689\H,0,10.94732591,2.28761067,-0.81498844\H,0,10.78077836,2.05
 774774,0.91313595\C,0,5.74052591,2.37891319,0.28397664\H,0,6.07356722,
 2.23834141,1.32216458\C,0,11.46794511,-0.37480878,-0.71637196\H,0,12.2
 1527152,0.,0.\C,0,8.87407726,0.55509302,-2.49044315\H,0,7.89410627,0.7
 7216705,-2.92340903\H,0,9.49749306,1.43831618,-2.64953018\H,0,9.306569
 73,-0.26318795,-3.07339614\C,0,3.57286349,1.24813123,-0.38345748\C,0,3
 .55283547,-1.25010417,-0.56897584\H,0,3.81207999,-1.42646331,0.4841043
 \H,0,3.94182559,-2.10508398,-1.13187054\C,0,4.2453623,2.23858814,0.220
 92009\H,0,3.69455342,3.04827505,0.6995584\C,0,4.15680775,0.18462752,-2
 .57940254\H,0,4.48642497,-0.72870203,-3.08410003\H,0,3.12517456,0.3696
 1878,-2.8897896\H,0,4.75962626,1.01798688,-2.95304558\C,0,2.05668212,1
 .27300673,-0.43134068\H,0,1.67286178,2.11459757,0.15355903\H,0,1.71985
 092,1.42936089,-1.46900716\C,0,2.0212906,-1.22339031,-0.69039111\H,0,1
 .72017183,-1.16057779,-1.74666802\H,0,1.59878894,-2.15586995,-0.299224
 18\C,0,11.4764703,-1.91840735,-0.59514434\H,0,10.73498426,-2.33819453,
 -1.28680563\H,0,12.44840973,-2.27095338,-0.96626966\C,0,1.42797528,-0.
 03637698,0.06787372\H,0,1.64278799,-0.14916347,1.13753451\C,0,12.00087
 555,0.01699905,-2.10954071\H,0,11.4555034,-0.48327971,-2.91521755\H,0,
 13.05170458,-0.28167936,-2.19792921\H,0,11.95372684,1.09442603,-2.2922
 6832\C,0,11.23719798,-2.52146538,0.80294631\H,0,10.22343307,-2.2795285
 4,1.14353106\H,0,11.25546247,-3.61462401,0.70561064\C,0,12.22570607,-2
 .09126028,1.90390675\H,0,11.92699978,-2.57969294,2.84334466\H,0,12.120
 76647,-1.01296313,2.0845947\C,0,13.71735256,-2.39912435,1.65441417\H,0
 ,14.02207239,-1.89794885,0.72422386\C,0,13.98703484,-3.90316861,1.4880
 9926\H,0,13.67664242,-4.45534867,2.38479899\H,0,15.0551527,-4.09442601
 ,1.33431643\H,0,13.4505595,-4.32761964,0.63335041\C,0,14.57591744,-1.8
 2016097,2.79050675\H,0,14.32162092,-2.28831897,3.75017957\H,0,15.64332
 661,-1.99146008,2.61022618\H,0,14.42278248,-0.74004318,2.89689255\\Ver
 sion=EM64L-G09RevD.01\HF=-1198.9197151\RMSD=4.989e-07\Dipole=0.0537174
 ,-0.5016268,-0.9481503\Quadrupole=-4.4336563,-1.2998176,5.7334739,-8.1
 764458,-3.3534826,-2.929438\PG=C01 [X(C27H46O2)]\\@


 THE REASON MAN'S BEST FRIEND IS A DOG IS BECAUSE
 HE WAGS HIS TAIL INSTEAD OF HIS TONGUE.
 Job cpu time:       0 days  0 hours 11 minutes 20.1 seconds.
 File lengths (MBytes):  RWF=    150 Int=      0 D2E=      0 Chk=     11 Scr=      1
 Normal termination of Gaussian 09 at Thu May 18 13:20:09 2017.
