 Entering Gaussian System, Link 0=/home/michal/g09/g09
 Input=JOB2-gau_m1-22-4.com
 Output=JOB2-gau_m1-22-4.log
 Initial command:
 /home/michal/g09/l1.exe "/home/michal/gauss_scratch/Gau-29897.inp" -scrdir="/home/michal/gauss_scratch/"
 Entering Link 1 = /home/michal/g09/l1.exe PID=     29898.
  
 Copyright (c) 1988,1990,1992,1993,1995,1998,2003,2009,2013,
            Gaussian, Inc.  All Rights Reserved.
  
 This is part of the Gaussian(R) 09 program.  It is based on
 the Gaussian(R) 03 system (copyright 2003, Gaussian, Inc.),
 the Gaussian(R) 98 system (copyright 1998, Gaussian, Inc.),
 the Gaussian(R) 94 system (copyright 1995, Gaussian, Inc.),
 the Gaussian 92(TM) system (copyright 1992, Gaussian, Inc.),
 the Gaussian 90(TM) system (copyright 1990, Gaussian, Inc.),
 the Gaussian 88(TM) system (copyright 1988, Gaussian, Inc.),
 the Gaussian 86(TM) system (copyright 1986, Carnegie Mellon
 University), and the Gaussian 82(TM) system (copyright 1983,
 Carnegie Mellon University). Gaussian is a federally registered
 trademark of Gaussian, Inc.
  
 This software contains proprietary and confidential information,
 including trade secrets, belonging to Gaussian, Inc.
  
 This software is provided under written license and may be
 used, copied, transmitted, or stored only in accord with that
 written license.
  
 The following legend is applicable only to US Government
 contracts under FAR:
  
                    RESTRICTED RIGHTS LEGEND
  
 Use, reproduction and disclosure by the US Government is
 subject to restrictions as set forth in subparagraphs (a)
 and (c) of the Commercial Computer Software - Restricted
 Rights clause in FAR 52.227-19.
  
 Gaussian, Inc.
 340 Quinnipiac St., Bldg. 40, Wallingford CT 06492
  
  
 ---------------------------------------------------------------
 Warning -- This program may not be used in any manner that
 competes with the business of Gaussian, Inc. or will provide
 assistance to any competitor of Gaussian, Inc.  The licensee
 of this program is prohibited from giving any competitor of
 Gaussian, Inc. access to this program.  By using this program,
 the user acknowledges that Gaussian, Inc. is engaged in the
 business of creating and licensing software in the field of
 computational chemistry and represents and warrants to the
 licensee that it is not a competitor of Gaussian, Inc. and that
 it will not use this program in any manner prohibited above.
 ---------------------------------------------------------------
  

 Cite this work as:
 Gaussian 09, Revision D.01,
 M. J. Frisch, G. W. Trucks, H. B. Schlegel, G. E. Scuseria, 
 M. A. Robb, J. R. Cheeseman, G. Scalmani, V. Barone, B. Mennucci, 
 G. A. Petersson, H. Nakatsuji, M. Caricato, X. Li, H. P. Hratchian, 
 A. F. Izmaylov, J. Bloino, G. Zheng, J. L. Sonnenberg, M. Hada, 
 M. Ehara, K. Toyota, R. Fukuda, J. Hasegawa, M. Ishida, T. Nakajima, 
 Y. Honda, O. Kitao, H. Nakai, T. Vreven, J. A. Montgomery, Jr., 
 J. E. Peralta, F. Ogliaro, M. Bearpark, J. J. Heyd, E. Brothers, 
 K. N. Kudin, V. N. Staroverov, T. Keith, R. Kobayashi, J. Normand, 
 K. Raghavachari, A. Rendell, J. C. Burant, S. S. Iyengar, J. Tomasi, 
 M. Cossi, N. Rega, J. M. Millam, M. Klene, J. E. Knox, J. B. Cross, 
 V. Bakken, C. Adamo, J. Jaramillo, R. Gomperts, R. E. Stratmann, 
 O. Yazyev, A. J. Austin, R. Cammi, C. Pomelli, J. W. Ochterski, 
 R. L. Martin, K. Morokuma, V. G. Zakrzewski, G. A. Voth, 
 P. Salvador, J. J. Dannenberg, S. Dapprich, A. D. Daniels, 
 O. Farkas, J. B. Foresman, J. V. Ortiz, J. Cioslowski, 
 and D. J. Fox, Gaussian, Inc., Wallingford CT, 2013.
 
 ******************************************
 Gaussian 09:  EM64L-G09RevD.01 24-Apr-2013
                18-May-2017 
 ******************************************
 %Mem=256MB
 %NProc=12
 Will use up to   12 processors via shared memory.
 ----------------------------------------------------------------------
 #P HF/6-31G* SCF(Conver=6) NoSymm Test Pop=mk IOp(6/33=2) GFInput GFPr
 int
 ----------------------------------------------------------------------
 1/38=1/1;
 2/12=2,15=1,17=6,18=5,40=1/2;
 3/5=1,6=6,7=1,11=9,16=1,24=110,25=1,30=1/1,2,3;
 4//1;
 5/5=2,6=6,38=5/2;
 6/7=2,8=2,9=2,10=2,15=8,20=1,28=1,33=2/1,2;
 99/5=1,9=1/99;
 Leave Link    1 at Thu May 18 13:42:27 2017, MaxMem=    33554432 cpu:         0.6
 (Enter /home/michal/g09/l101.exe)
 ----------------------------------------------
 MEP - Input generated by R.E.D.-III.x MOLECULE
 ----------------------------------------------
 Symbolic Z-matrix:
 Charge =  0 Multiplicity = 1
 O                     0.        0.        0. 
 H                    -0.23009   0.13786   0.92971 
 O                    -3.04437   6.4851    0. 
 H                    -3.0453    6.68477   0.94673 
 C                     4.27468   1.54731  -0.41564 
 C                     2.84428   1.06275  -0.79386 
 H                     2.73879   1.30029  -1.86685 
 C                     1.69084   1.80748  -0.09771 
 H                     1.74259   1.63494   0.98741 
 C                     1.80579   3.33063  -0.38414 
 H                     1.62745   3.44347  -1.46626 
 C                     5.13606   0.57194  -1.29222 
 H                     5.04266   0.93457  -2.32852 
 C                     4.34806   3.0412   -0.79013 
 H                     4.25766   3.13463  -1.88208 
 H                     5.31268   3.48209  -0.52026 
 C                     0.68816   4.17939   0.31635 
 C                     2.92779  -0.46829  -0.69594 
 H                     2.15789  -0.96737  -1.28881 
 H                     2.77586  -0.79792   0.33737 
 C                     3.23258   3.85888  -0.11186 
 H                     3.4202    3.87925   0.96716 
 H                     3.31035   4.8979   -0.45083 
 C                     4.36577  -0.78781  -1.18474 
 H                     4.87506  -1.4602   -0.48383 
 H                     4.35079  -1.30447  -2.14925 
 C                     0.32093   1.28389  -0.57172 
 H                     0.37393   1.07418  -1.64952 
 C                     6.65431   0.4199   -1.01015 
 H                     6.76107   0.        0. 
 C                     4.58797   1.34124   1.08429 
 H                     3.86549   1.84289   1.73354 
 H                     4.58764   0.28244   1.35947 
 H                     5.57641   1.74205   1.33214 
 C                    -0.67608   3.51042   0.11572 
 C                     0.64134   5.59011  -0.35013 
 H                     0.65184   5.45512  -1.44052 
 H                     1.55195   6.14331  -0.09719 
 C                    -0.80458   2.2452   -0.30996 
 H                    -1.79986   1.82955  -0.46724 
 C                     0.95097   4.33361   1.83841 
 H                     1.82635   4.96164   2.0304 
 H                     0.10303   4.7991    2.34755 
 H                     1.11725   3.36154   2.31274 
 C                    -1.90774   4.3459    0.41017 
 H                    -2.81304   3.79768   0.13161 
 H                    -1.97574   4.53917   1.49311 
 C                    -0.58334   6.44185   0.01818 
 H                    -0.56901   6.69369   1.08905 
 H                    -0.55598   7.39195  -0.52735 
 C                     7.27093  -0.59021  -2.01208 
 H                     6.68779  -1.51811  -1.99066 
 H                     7.15122  -0.17982  -3.02605 
 C                    -1.88395   5.70607  -0.3028 
 H                    -1.94648   5.54171  -1.38544 
 C                     7.42172   1.75229  -1.05384 
 H                     7.28756   2.25242  -2.02147 
 H                     8.49514   1.59656  -0.90956 
 H                     7.09434   2.44255  -0.27343 
 C                     8.75281  -0.96541  -1.80979 
 H                     9.03171  -1.63851  -2.63036 
 H                     9.38668  -0.07848  -1.92505 
 C                     9.04847  -1.65149  -0.46589 
 H                     8.34829  -2.49038  -0.33898 
 H                     8.83442  -0.95287   0.35403 
 C                     10.48723  -2.18695  -0.27114 
 H                     10.5126  -2.62041   0.73969 
 C                     11.54417  -1.0706   -0.31002 
 H                     11.62513  -0.6257   -1.3085 
 H                     12.53351  -1.46086  -0.0452 
 H                     11.30261  -0.26724   0.39601 
 C                     10.84094  -3.31657  -1.25282 
 H                     10.90204  -2.95357  -2.28519 
 H                     11.81348  -3.75688  -1.00465 
 H                     10.09415  -4.11875  -1.22367 
 
 NAtoms=     75 NQM=       75 NQMF=       0 NMMI=      0 NMMIF=      0
                NMic=       0 NMicF=      0.
                    Isotopes and Nuclear Properties:
 (Nuclear quadrupole moments (NQMom) in fm**2, nuclear magnetic moments (NMagM)
  in nuclear magnetons)

  Atom         1           2           3           4           5           6           7           8           9          10
 IAtWgt=          16           1          16           1          12          12           1          12           1          12
 AtmWgt=  15.9949146   1.0078250  15.9949146   1.0078250  12.0000000  12.0000000   1.0078250  12.0000000   1.0078250  12.0000000
 NucSpn=           0           1           0           1           0           0           1           0           1           0
 AtZEff=   0.0000000   0.0000000   0.0000000   0.0000000   0.0000000   0.0000000   0.0000000   0.0000000   0.0000000   0.0000000
 NQMom=    0.0000000   0.0000000   0.0000000   0.0000000   0.0000000   0.0000000   0.0000000   0.0000000   0.0000000   0.0000000
 NMagM=    0.0000000   2.7928460   0.0000000   2.7928460   0.0000000   0.0000000   2.7928460   0.0000000   2.7928460   0.0000000
 AtZNuc=   8.0000000   1.0000000   8.0000000   1.0000000   6.0000000   6.0000000   1.0000000   6.0000000   1.0000000   6.0000000

  Atom        11          12          13          14          15          16          17          18          19          20
 IAtWgt=           1          12           1          12           1           1          12          12           1           1
 AtmWgt=   1.0078250  12.0000000   1.0078250  12.0000000   1.0078250   1.0078250  12.0000000  12.0000000   1.0078250   1.0078250
 NucSpn=           1           0           1           0           1           1           0           0           1           1
 AtZEff=   0.0000000   0.0000000   0.0000000   0.0000000   0.0000000   0.0000000   0.0000000   0.0000000   0.0000000   0.0000000
 NQMom=    0.0000000   0.0000000   0.0000000   0.0000000   0.0000000   0.0000000   0.0000000   0.0000000   0.0000000   0.0000000
 NMagM=    2.7928460   0.0000000   2.7928460   0.0000000   2.7928460   2.7928460   0.0000000   0.0000000   2.7928460   2.7928460
 AtZNuc=   1.0000000   6.0000000   1.0000000   6.0000000   1.0000000   1.0000000   6.0000000   6.0000000   1.0000000   1.0000000

  Atom        21          22          23          24          25          26          27          28          29          30
 IAtWgt=          12           1           1          12           1           1          12           1          12           1
 AtmWgt=  12.0000000   1.0078250   1.0078250  12.0000000   1.0078250   1.0078250  12.0000000   1.0078250  12.0000000   1.0078250
 NucSpn=           0           1           1           0           1           1           0           1           0           1
 AtZEff=   0.0000000   0.0000000   0.0000000   0.0000000   0.0000000   0.0000000   0.0000000   0.0000000   0.0000000   0.0000000
 NQMom=    0.0000000   0.0000000   0.0000000   0.0000000   0.0000000   0.0000000   0.0000000   0.0000000   0.0000000   0.0000000
 NMagM=    0.0000000   2.7928460   2.7928460   0.0000000   2.7928460   2.7928460   0.0000000   2.7928460   0.0000000   2.7928460
 AtZNuc=   6.0000000   1.0000000   1.0000000   6.0000000   1.0000000   1.0000000   6.0000000   1.0000000   6.0000000   1.0000000

  Atom        31          32          33          34          35          36          37          38          39          40
 IAtWgt=          12           1           1           1          12          12           1           1          12           1
 AtmWgt=  12.0000000   1.0078250   1.0078250   1.0078250  12.0000000  12.0000000   1.0078250   1.0078250  12.0000000   1.0078250
 NucSpn=           0           1           1           1           0           0           1           1           0           1
 AtZEff=   0.0000000   0.0000000   0.0000000   0.0000000   0.0000000   0.0000000   0.0000000   0.0000000   0.0000000   0.0000000
 NQMom=    0.0000000   0.0000000   0.0000000   0.0000000   0.0000000   0.0000000   0.0000000   0.0000000   0.0000000   0.0000000
 NMagM=    0.0000000   2.7928460   2.7928460   2.7928460   0.0000000   0.0000000   2.7928460   2.7928460   0.0000000   2.7928460
 AtZNuc=   6.0000000   1.0000000   1.0000000   1.0000000   6.0000000   6.0000000   1.0000000   1.0000000   6.0000000   1.0000000

  Atom        41          42          43          44          45          46          47          48          49          50
 IAtWgt=          12           1           1           1          12           1           1          12           1           1
 AtmWgt=  12.0000000   1.0078250   1.0078250   1.0078250  12.0000000   1.0078250   1.0078250  12.0000000   1.0078250   1.0078250
 NucSpn=           0           1           1           1           0           1           1           0           1           1
 AtZEff=   0.0000000   0.0000000   0.0000000   0.0000000   0.0000000   0.0000000   0.0000000   0.0000000   0.0000000   0.0000000
 NQMom=    0.0000000   0.0000000   0.0000000   0.0000000   0.0000000   0.0000000   0.0000000   0.0000000   0.0000000   0.0000000
 NMagM=    0.0000000   2.7928460   2.7928460   2.7928460   0.0000000   2.7928460   2.7928460   0.0000000   2.7928460   2.7928460
 AtZNuc=   6.0000000   1.0000000   1.0000000   1.0000000   6.0000000   1.0000000   1.0000000   6.0000000   1.0000000   1.0000000

  Atom        51          52          53          54          55          56          57          58          59          60
 IAtWgt=          12           1           1          12           1          12           1           1           1          12
 AtmWgt=  12.0000000   1.0078250   1.0078250  12.0000000   1.0078250  12.0000000   1.0078250   1.0078250   1.0078250  12.0000000
 NucSpn=           0           1           1           0           1           0           1           1           1           0
 AtZEff=   0.0000000   0.0000000   0.0000000   0.0000000   0.0000000   0.0000000   0.0000000   0.0000000   0.0000000   0.0000000
 NQMom=    0.0000000   0.0000000   0.0000000   0.0000000   0.0000000   0.0000000   0.0000000   0.0000000   0.0000000   0.0000000
 NMagM=    0.0000000   2.7928460   2.7928460   0.0000000   2.7928460   0.0000000   2.7928460   2.7928460   2.7928460   0.0000000
 AtZNuc=   6.0000000   1.0000000   1.0000000   6.0000000   1.0000000   6.0000000   1.0000000   1.0000000   1.0000000   6.0000000

  Atom        61          62          63          64          65          66          67          68          69          70
 IAtWgt=           1           1          12           1           1          12           1          12           1           1
 AtmWgt=   1.0078250   1.0078250  12.0000000   1.0078250   1.0078250  12.0000000   1.0078250  12.0000000   1.0078250   1.0078250
 NucSpn=           1           1           0           1           1           0           1           0           1           1
 AtZEff=   0.0000000   0.0000000   0.0000000   0.0000000   0.0000000   0.0000000   0.0000000   0.0000000   0.0000000   0.0000000
 NQMom=    0.0000000   0.0000000   0.0000000   0.0000000   0.0000000   0.0000000   0.0000000   0.0000000   0.0000000   0.0000000
 NMagM=    2.7928460   2.7928460   0.0000000   2.7928460   2.7928460   0.0000000   2.7928460   0.0000000   2.7928460   2.7928460
 AtZNuc=   1.0000000   1.0000000   6.0000000   1.0000000   1.0000000   6.0000000   1.0000000   6.0000000   1.0000000   1.0000000

  Atom        71          72          73          74          75
 IAtWgt=           1          12           1           1           1
 AtmWgt=   1.0078250  12.0000000   1.0078250   1.0078250   1.0078250
 NucSpn=           1           0           1           1           1
 AtZEff=   0.0000000   0.0000000   0.0000000   0.0000000   0.0000000
 NQMom=    0.0000000   0.0000000   0.0000000   0.0000000   0.0000000
 NMagM=    2.7928460   0.0000000   2.7928460   2.7928460   2.7928460
 AtZNuc=   1.0000000   6.0000000   1.0000000   1.0000000   1.0000000
 Leave Link  101 at Thu May 18 13:42:27 2017, MaxMem=    33554432 cpu:         1.0
 (Enter /home/michal/g09/l202.exe)
 Symmetry turned off by external request.
 Stoichiometry    C27H46O2
 Framework group  C1[X(C27H46O2)]
 Deg. of freedom   219
 Full point group                 C1      NOp   1
                          Input orientation:                          
 ---------------------------------------------------------------------
 Center     Atomic      Atomic             Coordinates (Angstroms)
 Number     Number       Type             X           Y           Z
 ---------------------------------------------------------------------
      1          8           0        0.000000    0.000000    0.000000
      2          1           0       -0.230092    0.137865    0.929705
      3          8           0       -3.044374    6.485099    0.000000
      4          1           0       -3.045296    6.684769    0.946727
      5          6           0        4.274679    1.547310   -0.415643
      6          6           0        2.844282    1.062752   -0.793858
      7          1           0        2.738793    1.300288   -1.866850
      8          6           0        1.690841    1.807477   -0.097709
      9          1           0        1.742592    1.634938    0.987415
     10          6           0        1.805787    3.330633   -0.384136
     11          1           0        1.627448    3.443467   -1.466256
     12          6           0        5.136061    0.571935   -1.292221
     13          1           0        5.042655    0.934571   -2.328524
     14          6           0        4.348059    3.041202   -0.790125
     15          1           0        4.257663    3.134632   -1.882075
     16          1           0        5.312679    3.482086   -0.520259
     17          6           0        0.688162    4.179389    0.316350
     18          6           0        2.927791   -0.468287   -0.695940
     19          1           0        2.157888   -0.967369   -1.288807
     20          1           0        2.775859   -0.797916    0.337369
     21          6           0        3.232577    3.858877   -0.111860
     22          1           0        3.420195    3.879253    0.967163
     23          1           0        3.310354    4.897896   -0.450835
     24          6           0        4.365774   -0.787810   -1.184744
     25          1           0        4.875055   -1.460203   -0.483825
     26          1           0        4.350794   -1.304472   -2.149246
     27          6           0        0.320926    1.283894   -0.571716
     28          1           0        0.373929    1.074185   -1.649524
     29          6           0        6.654310    0.419899   -1.010155
     30          1           0        6.761067    0.000000    0.000000
     31          6           0        4.587965    1.341239    1.084287
     32          1           0        3.865494    1.842885    1.733543
     33          1           0        4.587642    0.282438    1.359466
     34          1           0        5.576405    1.742049    1.332143
     35          6           0       -0.676078    3.510422    0.115720
     36          6           0        0.641339    5.590109   -0.350133
     37          1           0        0.651837    5.455121   -1.440520
     38          1           0        1.551949    6.143308   -0.097194
     39          6           0       -0.804583    2.245198   -0.309963
     40          1           0       -1.799863    1.829550   -0.467241
     41          6           0        0.950968    4.333610    1.838414
     42          1           0        1.826352    4.961638    2.030395
     43          1           0        0.103026    4.799097    2.347547
     44          1           0        1.117252    3.361542    2.312737
     45          6           0       -1.907741    4.345903    0.410169
     46          1           0       -2.813041    3.797678    0.131611
     47          1           0       -1.975744    4.539165    1.493105
     48          6           0       -0.583341    6.441847    0.018180
     49          1           0       -0.569009    6.693689    1.089049
     50          1           0       -0.555981    7.391948   -0.527352
     51          6           0        7.270929   -0.590210   -2.012083
     52          1           0        6.687790   -1.518110   -1.990656
     53          1           0        7.151219   -0.179824   -3.026051
     54          6           0       -1.883949    5.706068   -0.302796
     55          1           0       -1.946479    5.541707   -1.385440
     56          6           0        7.421722    1.752291   -1.053835
     57          1           0        7.287562    2.252415   -2.021470
     58          1           0        8.495140    1.596555   -0.909563
     59          1           0        7.094339    2.442547   -0.273426
     60          6           0        8.752805   -0.965414   -1.809791
     61          1           0        9.031712   -1.638510   -2.630363
     62          1           0        9.386684   -0.078485   -1.925052
     63          6           0        9.048468   -1.651490   -0.465888
     64          1           0        8.348287   -2.490379   -0.338978
     65          1           0        8.834418   -0.952868    0.354029
     66          6           0       10.487227   -2.186950   -0.271142
     67          1           0       10.512605   -2.620414    0.739692
     68          6           0       11.544165   -1.070599   -0.310020
     69          1           0       11.625125   -0.625703   -1.308502
     70          1           0       12.533512   -1.460855   -0.045202
     71          1           0       11.302612   -0.267240    0.396010
     72          6           0       10.840941   -3.316567   -1.252819
     73          1           0       10.902039   -2.953570   -2.285190
     74          1           0       11.813476   -3.756883   -1.004652
     75          1           0       10.094155   -4.118747   -1.223669
 ---------------------------------------------------------------------
 Rotational constants (GHZ):      0.4927176      0.0546131      0.0514411
 Leave Link  202 at Thu May 18 13:42:27 2017, MaxMem=    33554432 cpu:         0.0
 (Enter /home/michal/g09/l301.exe)
 Standard basis: 6-31G(d) (6D, 7F)
 Ernie: Thresh=  0.10000D-02 Tol=  0.10000D-05 Strict=F.
 AO basis set in the form of general basis input (Overlap normalization):
      1 0
 S   6 1.00       0.000000000000
      0.5484671660D+04  0.1831074430D-02
      0.8252349460D+03  0.1395017220D-01
      0.1880469580D+03  0.6844507810D-01
      0.5296450000D+02  0.2327143360D+00
      0.1689757040D+02  0.4701928980D+00
      0.5799635340D+01  0.3585208530D+00
 SP   3 1.00       0.000000000000
      0.1553961625D+02 -0.1107775495D+00  0.7087426823D-01
      0.3599933586D+01 -0.1480262627D+00  0.3397528391D+00
      0.1013761750D+01  0.1130767015D+01  0.7271585773D+00
 SP   1 1.00       0.000000000000
      0.2700058226D+00  0.1000000000D+01  0.1000000000D+01
 D   1 1.00       0.000000000000
      0.8000000000D+00  0.1000000000D+01
 ****
      2 0
 S   3 1.00       0.000000000000
      0.1873113696D+02  0.3349460434D-01
      0.2825394365D+01  0.2347269535D+00
      0.6401216923D+00  0.8137573261D+00
 S   1 1.00       0.000000000000
      0.1612777588D+00  0.1000000000D+01
 ****
      3 0
 S   6 1.00       0.000000000000
      0.5484671660D+04  0.1831074430D-02
      0.8252349460D+03  0.1395017220D-01
      0.1880469580D+03  0.6844507810D-01
      0.5296450000D+02  0.2327143360D+00
      0.1689757040D+02  0.4701928980D+00
      0.5799635340D+01  0.3585208530D+00
 SP   3 1.00       0.000000000000
      0.1553961625D+02 -0.1107775495D+00  0.7087426823D-01
      0.3599933586D+01 -0.1480262627D+00  0.3397528391D+00
      0.1013761750D+01  0.1130767015D+01  0.7271585773D+00
 SP   1 1.00       0.000000000000
      0.2700058226D+00  0.1000000000D+01  0.1000000000D+01
 D   1 1.00       0.000000000000
      0.8000000000D+00  0.1000000000D+01
 ****
      4 0
 S   3 1.00       0.000000000000
      0.1873113696D+02  0.3349460434D-01
      0.2825394365D+01  0.2347269535D+00
      0.6401216923D+00  0.8137573261D+00
 S   1 1.00       0.000000000000
      0.1612777588D+00  0.1000000000D+01
 ****
      5 0
 S   6 1.00       0.000000000000
      0.3047524880D+04  0.1834737132D-02
      0.4573695180D+03  0.1403732281D-01
      0.1039486850D+03  0.6884262226D-01
      0.2921015530D+02  0.2321844432D+00
      0.9286662960D+01  0.4679413484D+00
      0.3163926960D+01  0.3623119853D+00
 SP   3 1.00       0.000000000000
      0.7868272350D+01 -0.1193324198D+00  0.6899906659D-01
      0.1881288540D+01 -0.1608541517D+00  0.3164239610D+00
      0.5442492580D+00  0.1143456438D+01  0.7443082909D+00
 SP   1 1.00       0.000000000000
      0.1687144782D+00  0.1000000000D+01  0.1000000000D+01
 D   1 1.00       0.000000000000
      0.8000000000D+00  0.1000000000D+01
 ****
      6 0
 S   6 1.00       0.000000000000
      0.3047524880D+04  0.1834737132D-02
      0.4573695180D+03  0.1403732281D-01
      0.1039486850D+03  0.6884262226D-01
      0.2921015530D+02  0.2321844432D+00
      0.9286662960D+01  0.4679413484D+00
      0.3163926960D+01  0.3623119853D+00
 SP   3 1.00       0.000000000000
      0.7868272350D+01 -0.1193324198D+00  0.6899906659D-01
      0.1881288540D+01 -0.1608541517D+00  0.3164239610D+00
      0.5442492580D+00  0.1143456438D+01  0.7443082909D+00
 SP   1 1.00       0.000000000000
      0.1687144782D+00  0.1000000000D+01  0.1000000000D+01
 D   1 1.00       0.000000000000
      0.8000000000D+00  0.1000000000D+01
 ****
      7 0
 S   3 1.00       0.000000000000
      0.1873113696D+02  0.3349460434D-01
      0.2825394365D+01  0.2347269535D+00
      0.6401216923D+00  0.8137573261D+00
 S   1 1.00       0.000000000000
      0.1612777588D+00  0.1000000000D+01
 ****
      8 0
 S   6 1.00       0.000000000000
      0.3047524880D+04  0.1834737132D-02
      0.4573695180D+03  0.1403732281D-01
      0.1039486850D+03  0.6884262226D-01
      0.2921015530D+02  0.2321844432D+00
      0.9286662960D+01  0.4679413484D+00
      0.3163926960D+01  0.3623119853D+00
 SP   3 1.00       0.000000000000
      0.7868272350D+01 -0.1193324198D+00  0.6899906659D-01
      0.1881288540D+01 -0.1608541517D+00  0.3164239610D+00
      0.5442492580D+00  0.1143456438D+01  0.7443082909D+00
 SP   1 1.00       0.000000000000
      0.1687144782D+00  0.1000000000D+01  0.1000000000D+01
 D   1 1.00       0.000000000000
      0.8000000000D+00  0.1000000000D+01
 ****
      9 0
 S   3 1.00       0.000000000000
      0.1873113696D+02  0.3349460434D-01
      0.2825394365D+01  0.2347269535D+00
      0.6401216923D+00  0.8137573261D+00
 S   1 1.00       0.000000000000
      0.1612777588D+00  0.1000000000D+01
 ****
     10 0
 S   6 1.00       0.000000000000
      0.3047524880D+04  0.1834737132D-02
      0.4573695180D+03  0.1403732281D-01
      0.1039486850D+03  0.6884262226D-01
      0.2921015530D+02  0.2321844432D+00
      0.9286662960D+01  0.4679413484D+00
      0.3163926960D+01  0.3623119853D+00
 SP   3 1.00       0.000000000000
      0.7868272350D+01 -0.1193324198D+00  0.6899906659D-01
      0.1881288540D+01 -0.1608541517D+00  0.3164239610D+00
      0.5442492580D+00  0.1143456438D+01  0.7443082909D+00
 SP   1 1.00       0.000000000000
      0.1687144782D+00  0.1000000000D+01  0.1000000000D+01
 D   1 1.00       0.000000000000
      0.8000000000D+00  0.1000000000D+01
 ****
     11 0
 S   3 1.00       0.000000000000
      0.1873113696D+02  0.3349460434D-01
      0.2825394365D+01  0.2347269535D+00
      0.6401216923D+00  0.8137573261D+00
 S   1 1.00       0.000000000000
      0.1612777588D+00  0.1000000000D+01
 ****
     12 0
 S   6 1.00       0.000000000000
      0.3047524880D+04  0.1834737132D-02
      0.4573695180D+03  0.1403732281D-01
      0.1039486850D+03  0.6884262226D-01
      0.2921015530D+02  0.2321844432D+00
      0.9286662960D+01  0.4679413484D+00
      0.3163926960D+01  0.3623119853D+00
 SP   3 1.00       0.000000000000
      0.7868272350D+01 -0.1193324198D+00  0.6899906659D-01
      0.1881288540D+01 -0.1608541517D+00  0.3164239610D+00
      0.5442492580D+00  0.1143456438D+01  0.7443082909D+00
 SP   1 1.00       0.000000000000
      0.1687144782D+00  0.1000000000D+01  0.1000000000D+01
 D   1 1.00       0.000000000000
      0.8000000000D+00  0.1000000000D+01
 ****
     13 0
 S   3 1.00       0.000000000000
      0.1873113696D+02  0.3349460434D-01
      0.2825394365D+01  0.2347269535D+00
      0.6401216923D+00  0.8137573261D+00
 S   1 1.00       0.000000000000
      0.1612777588D+00  0.1000000000D+01
 ****
     14 0
 S   6 1.00       0.000000000000
      0.3047524880D+04  0.1834737132D-02
      0.4573695180D+03  0.1403732281D-01
      0.1039486850D+03  0.6884262226D-01
      0.2921015530D+02  0.2321844432D+00
      0.9286662960D+01  0.4679413484D+00
      0.3163926960D+01  0.3623119853D+00
 SP   3 1.00       0.000000000000
      0.7868272350D+01 -0.1193324198D+00  0.6899906659D-01
      0.1881288540D+01 -0.1608541517D+00  0.3164239610D+00
      0.5442492580D+00  0.1143456438D+01  0.7443082909D+00
 SP   1 1.00       0.000000000000
      0.1687144782D+00  0.1000000000D+01  0.1000000000D+01
 D   1 1.00       0.000000000000
      0.8000000000D+00  0.1000000000D+01
 ****
     15 0
 S   3 1.00       0.000000000000
      0.1873113696D+02  0.3349460434D-01
      0.2825394365D+01  0.2347269535D+00
      0.6401216923D+00  0.8137573261D+00
 S   1 1.00       0.000000000000
      0.1612777588D+00  0.1000000000D+01
 ****
     16 0
 S   3 1.00       0.000000000000
      0.1873113696D+02  0.3349460434D-01
      0.2825394365D+01  0.2347269535D+00
      0.6401216923D+00  0.8137573261D+00
 S   1 1.00       0.000000000000
      0.1612777588D+00  0.1000000000D+01
 ****
     17 0
 S   6 1.00       0.000000000000
      0.3047524880D+04  0.1834737132D-02
      0.4573695180D+03  0.1403732281D-01
      0.1039486850D+03  0.6884262226D-01
      0.2921015530D+02  0.2321844432D+00
      0.9286662960D+01  0.4679413484D+00
      0.3163926960D+01  0.3623119853D+00
 SP   3 1.00       0.000000000000
      0.7868272350D+01 -0.1193324198D+00  0.6899906659D-01
      0.1881288540D+01 -0.1608541517D+00  0.3164239610D+00
      0.5442492580D+00  0.1143456438D+01  0.7443082909D+00
 SP   1 1.00       0.000000000000
      0.1687144782D+00  0.1000000000D+01  0.1000000000D+01
 D   1 1.00       0.000000000000
      0.8000000000D+00  0.1000000000D+01
 ****
     18 0
 S   6 1.00       0.000000000000
      0.3047524880D+04  0.1834737132D-02
      0.4573695180D+03  0.1403732281D-01
      0.1039486850D+03  0.6884262226D-01
      0.2921015530D+02  0.2321844432D+00
      0.9286662960D+01  0.4679413484D+00
      0.3163926960D+01  0.3623119853D+00
 SP   3 1.00       0.000000000000
      0.7868272350D+01 -0.1193324198D+00  0.6899906659D-01
      0.1881288540D+01 -0.1608541517D+00  0.3164239610D+00
      0.5442492580D+00  0.1143456438D+01  0.7443082909D+00
 SP   1 1.00       0.000000000000
      0.1687144782D+00  0.1000000000D+01  0.1000000000D+01
 D   1 1.00       0.000000000000
      0.8000000000D+00  0.1000000000D+01
 ****
     19 0
 S   3 1.00       0.000000000000
      0.1873113696D+02  0.3349460434D-01
      0.2825394365D+01  0.2347269535D+00
      0.6401216923D+00  0.8137573261D+00
 S   1 1.00       0.000000000000
      0.1612777588D+00  0.1000000000D+01
 ****
     20 0
 S   3 1.00       0.000000000000
      0.1873113696D+02  0.3349460434D-01
      0.2825394365D+01  0.2347269535D+00
      0.6401216923D+00  0.8137573261D+00
 S   1 1.00       0.000000000000
      0.1612777588D+00  0.1000000000D+01
 ****
     21 0
 S   6 1.00       0.000000000000
      0.3047524880D+04  0.1834737132D-02
      0.4573695180D+03  0.1403732281D-01
      0.1039486850D+03  0.6884262226D-01
      0.2921015530D+02  0.2321844432D+00
      0.9286662960D+01  0.4679413484D+00
      0.3163926960D+01  0.3623119853D+00
 SP   3 1.00       0.000000000000
      0.7868272350D+01 -0.1193324198D+00  0.6899906659D-01
      0.1881288540D+01 -0.1608541517D+00  0.3164239610D+00
      0.5442492580D+00  0.1143456438D+01  0.7443082909D+00
 SP   1 1.00       0.000000000000
      0.1687144782D+00  0.1000000000D+01  0.1000000000D+01
 D   1 1.00       0.000000000000
      0.8000000000D+00  0.1000000000D+01
 ****
     22 0
 S   3 1.00       0.000000000000
      0.1873113696D+02  0.3349460434D-01
      0.2825394365D+01  0.2347269535D+00
      0.6401216923D+00  0.8137573261D+00
 S   1 1.00       0.000000000000
      0.1612777588D+00  0.1000000000D+01
 ****
     23 0
 S   3 1.00       0.000000000000
      0.1873113696D+02  0.3349460434D-01
      0.2825394365D+01  0.2347269535D+00
      0.6401216923D+00  0.8137573261D+00
 S   1 1.00       0.000000000000
      0.1612777588D+00  0.1000000000D+01
 ****
     24 0
 S   6 1.00       0.000000000000
      0.3047524880D+04  0.1834737132D-02
      0.4573695180D+03  0.1403732281D-01
      0.1039486850D+03  0.6884262226D-01
      0.2921015530D+02  0.2321844432D+00
      0.9286662960D+01  0.4679413484D+00
      0.3163926960D+01  0.3623119853D+00
 SP   3 1.00       0.000000000000
      0.7868272350D+01 -0.1193324198D+00  0.6899906659D-01
      0.1881288540D+01 -0.1608541517D+00  0.3164239610D+00
      0.5442492580D+00  0.1143456438D+01  0.7443082909D+00
 SP   1 1.00       0.000000000000
      0.1687144782D+00  0.1000000000D+01  0.1000000000D+01
 D   1 1.00       0.000000000000
      0.8000000000D+00  0.1000000000D+01
 ****
     25 0
 S   3 1.00       0.000000000000
      0.1873113696D+02  0.3349460434D-01
      0.2825394365D+01  0.2347269535D+00
      0.6401216923D+00  0.8137573261D+00
 S   1 1.00       0.000000000000
      0.1612777588D+00  0.1000000000D+01
 ****
     26 0
 S   3 1.00       0.000000000000
      0.1873113696D+02  0.3349460434D-01
      0.2825394365D+01  0.2347269535D+00
      0.6401216923D+00  0.8137573261D+00
 S   1 1.00       0.000000000000
      0.1612777588D+00  0.1000000000D+01
 ****
     27 0
 S   6 1.00       0.000000000000
      0.3047524880D+04  0.1834737132D-02
      0.4573695180D+03  0.1403732281D-01
      0.1039486850D+03  0.6884262226D-01
      0.2921015530D+02  0.2321844432D+00
      0.9286662960D+01  0.4679413484D+00
      0.3163926960D+01  0.3623119853D+00
 SP   3 1.00       0.000000000000
      0.7868272350D+01 -0.1193324198D+00  0.6899906659D-01
      0.1881288540D+01 -0.1608541517D+00  0.3164239610D+00
      0.5442492580D+00  0.1143456438D+01  0.7443082909D+00
 SP   1 1.00       0.000000000000
      0.1687144782D+00  0.1000000000D+01  0.1000000000D+01
 D   1 1.00       0.000000000000
      0.8000000000D+00  0.1000000000D+01
 ****
     28 0
 S   3 1.00       0.000000000000
      0.1873113696D+02  0.3349460434D-01
      0.2825394365D+01  0.2347269535D+00
      0.6401216923D+00  0.8137573261D+00
 S   1 1.00       0.000000000000
      0.1612777588D+00  0.1000000000D+01
 ****
     29 0
 S   6 1.00       0.000000000000
      0.3047524880D+04  0.1834737132D-02
      0.4573695180D+03  0.1403732281D-01
      0.1039486850D+03  0.6884262226D-01
      0.2921015530D+02  0.2321844432D+00
      0.9286662960D+01  0.4679413484D+00
      0.3163926960D+01  0.3623119853D+00
 SP   3 1.00       0.000000000000
      0.7868272350D+01 -0.1193324198D+00  0.6899906659D-01
      0.1881288540D+01 -0.1608541517D+00  0.3164239610D+00
      0.5442492580D+00  0.1143456438D+01  0.7443082909D+00
 SP   1 1.00       0.000000000000
      0.1687144782D+00  0.1000000000D+01  0.1000000000D+01
 D   1 1.00       0.000000000000
      0.8000000000D+00  0.1000000000D+01
 ****
     30 0
 S   3 1.00       0.000000000000
      0.1873113696D+02  0.3349460434D-01
      0.2825394365D+01  0.2347269535D+00
      0.6401216923D+00  0.8137573261D+00
 S   1 1.00       0.000000000000
      0.1612777588D+00  0.1000000000D+01
 ****
     31 0
 S   6 1.00       0.000000000000
      0.3047524880D+04  0.1834737132D-02
      0.4573695180D+03  0.1403732281D-01
      0.1039486850D+03  0.6884262226D-01
      0.2921015530D+02  0.2321844432D+00
      0.9286662960D+01  0.4679413484D+00
      0.3163926960D+01  0.3623119853D+00
 SP   3 1.00       0.000000000000
      0.7868272350D+01 -0.1193324198D+00  0.6899906659D-01
      0.1881288540D+01 -0.1608541517D+00  0.3164239610D+00
      0.5442492580D+00  0.1143456438D+01  0.7443082909D+00
 SP   1 1.00       0.000000000000
      0.1687144782D+00  0.1000000000D+01  0.1000000000D+01
 D   1 1.00       0.000000000000
      0.8000000000D+00  0.1000000000D+01
 ****
     32 0
 S   3 1.00       0.000000000000
      0.1873113696D+02  0.3349460434D-01
      0.2825394365D+01  0.2347269535D+00
      0.6401216923D+00  0.8137573261D+00
 S   1 1.00       0.000000000000
      0.1612777588D+00  0.1000000000D+01
 ****
     33 0
 S   3 1.00       0.000000000000
      0.1873113696D+02  0.3349460434D-01
      0.2825394365D+01  0.2347269535D+00
      0.6401216923D+00  0.8137573261D+00
 S   1 1.00       0.000000000000
      0.1612777588D+00  0.1000000000D+01
 ****
     34 0
 S   3 1.00       0.000000000000
      0.1873113696D+02  0.3349460434D-01
      0.2825394365D+01  0.2347269535D+00
      0.6401216923D+00  0.8137573261D+00
 S   1 1.00       0.000000000000
      0.1612777588D+00  0.1000000000D+01
 ****
     35 0
 S   6 1.00       0.000000000000
      0.3047524880D+04  0.1834737132D-02
      0.4573695180D+03  0.1403732281D-01
      0.1039486850D+03  0.6884262226D-01
      0.2921015530D+02  0.2321844432D+00
      0.9286662960D+01  0.4679413484D+00
      0.3163926960D+01  0.3623119853D+00
 SP   3 1.00       0.000000000000
      0.7868272350D+01 -0.1193324198D+00  0.6899906659D-01
      0.1881288540D+01 -0.1608541517D+00  0.3164239610D+00
      0.5442492580D+00  0.1143456438D+01  0.7443082909D+00
 SP   1 1.00       0.000000000000
      0.1687144782D+00  0.1000000000D+01  0.1000000000D+01
 D   1 1.00       0.000000000000
      0.8000000000D+00  0.1000000000D+01
 ****
     36 0
 S   6 1.00       0.000000000000
      0.3047524880D+04  0.1834737132D-02
      0.4573695180D+03  0.1403732281D-01
      0.1039486850D+03  0.6884262226D-01
      0.2921015530D+02  0.2321844432D+00
      0.9286662960D+01  0.4679413484D+00
      0.3163926960D+01  0.3623119853D+00
 SP   3 1.00       0.000000000000
      0.7868272350D+01 -0.1193324198D+00  0.6899906659D-01
      0.1881288540D+01 -0.1608541517D+00  0.3164239610D+00
      0.5442492580D+00  0.1143456438D+01  0.7443082909D+00
 SP   1 1.00       0.000000000000
      0.1687144782D+00  0.1000000000D+01  0.1000000000D+01
 D   1 1.00       0.000000000000
      0.8000000000D+00  0.1000000000D+01
 ****
     37 0
 S   3 1.00       0.000000000000
      0.1873113696D+02  0.3349460434D-01
      0.2825394365D+01  0.2347269535D+00
      0.6401216923D+00  0.8137573261D+00
 S   1 1.00       0.000000000000
      0.1612777588D+00  0.1000000000D+01
 ****
     38 0
 S   3 1.00       0.000000000000
      0.1873113696D+02  0.3349460434D-01
      0.2825394365D+01  0.2347269535D+00
      0.6401216923D+00  0.8137573261D+00
 S   1 1.00       0.000000000000
      0.1612777588D+00  0.1000000000D+01
 ****
     39 0
 S   6 1.00       0.000000000000
      0.3047524880D+04  0.1834737132D-02
      0.4573695180D+03  0.1403732281D-01
      0.1039486850D+03  0.6884262226D-01
      0.2921015530D+02  0.2321844432D+00
      0.9286662960D+01  0.4679413484D+00
      0.3163926960D+01  0.3623119853D+00
 SP   3 1.00       0.000000000000
      0.7868272350D+01 -0.1193324198D+00  0.6899906659D-01
      0.1881288540D+01 -0.1608541517D+00  0.3164239610D+00
      0.5442492580D+00  0.1143456438D+01  0.7443082909D+00
 SP   1 1.00       0.000000000000
      0.1687144782D+00  0.1000000000D+01  0.1000000000D+01
 D   1 1.00       0.000000000000
      0.8000000000D+00  0.1000000000D+01
 ****
     40 0
 S   3 1.00       0.000000000000
      0.1873113696D+02  0.3349460434D-01
      0.2825394365D+01  0.2347269535D+00
      0.6401216923D+00  0.8137573261D+00
 S   1 1.00       0.000000000000
      0.1612777588D+00  0.1000000000D+01
 ****
     41 0
 S   6 1.00       0.000000000000
      0.3047524880D+04  0.1834737132D-02
      0.4573695180D+03  0.1403732281D-01
      0.1039486850D+03  0.6884262226D-01
      0.2921015530D+02  0.2321844432D+00
      0.9286662960D+01  0.4679413484D+00
      0.3163926960D+01  0.3623119853D+00
 SP   3 1.00       0.000000000000
      0.7868272350D+01 -0.1193324198D+00  0.6899906659D-01
      0.1881288540D+01 -0.1608541517D+00  0.3164239610D+00
      0.5442492580D+00  0.1143456438D+01  0.7443082909D+00
 SP   1 1.00       0.000000000000
      0.1687144782D+00  0.1000000000D+01  0.1000000000D+01
 D   1 1.00       0.000000000000
      0.8000000000D+00  0.1000000000D+01
 ****
     42 0
 S   3 1.00       0.000000000000
      0.1873113696D+02  0.3349460434D-01
      0.2825394365D+01  0.2347269535D+00
      0.6401216923D+00  0.8137573261D+00
 S   1 1.00       0.000000000000
      0.1612777588D+00  0.1000000000D+01
 ****
     43 0
 S   3 1.00       0.000000000000
      0.1873113696D+02  0.3349460434D-01
      0.2825394365D+01  0.2347269535D+00
      0.6401216923D+00  0.8137573261D+00
 S   1 1.00       0.000000000000
      0.1612777588D+00  0.1000000000D+01
 ****
     44 0
 S   3 1.00       0.000000000000
      0.1873113696D+02  0.3349460434D-01
      0.2825394365D+01  0.2347269535D+00
      0.6401216923D+00  0.8137573261D+00
 S   1 1.00       0.000000000000
      0.1612777588D+00  0.1000000000D+01
 ****
     45 0
 S   6 1.00       0.000000000000
      0.3047524880D+04  0.1834737132D-02
      0.4573695180D+03  0.1403732281D-01
      0.1039486850D+03  0.6884262226D-01
      0.2921015530D+02  0.2321844432D+00
      0.9286662960D+01  0.4679413484D+00
      0.3163926960D+01  0.3623119853D+00
 SP   3 1.00       0.000000000000
      0.7868272350D+01 -0.1193324198D+00  0.6899906659D-01
      0.1881288540D+01 -0.1608541517D+00  0.3164239610D+00
      0.5442492580D+00  0.1143456438D+01  0.7443082909D+00
 SP   1 1.00       0.000000000000
      0.1687144782D+00  0.1000000000D+01  0.1000000000D+01
 D   1 1.00       0.000000000000
      0.8000000000D+00  0.1000000000D+01
 ****
     46 0
 S   3 1.00       0.000000000000
      0.1873113696D+02  0.3349460434D-01
      0.2825394365D+01  0.2347269535D+00
      0.6401216923D+00  0.8137573261D+00
 S   1 1.00       0.000000000000
      0.1612777588D+00  0.1000000000D+01
 ****
     47 0
 S   3 1.00       0.000000000000
      0.1873113696D+02  0.3349460434D-01
      0.2825394365D+01  0.2347269535D+00
      0.6401216923D+00  0.8137573261D+00
 S   1 1.00       0.000000000000
      0.1612777588D+00  0.1000000000D+01
 ****
     48 0
 S   6 1.00       0.000000000000
      0.3047524880D+04  0.1834737132D-02
      0.4573695180D+03  0.1403732281D-01
      0.1039486850D+03  0.6884262226D-01
      0.2921015530D+02  0.2321844432D+00
      0.9286662960D+01  0.4679413484D+00
      0.3163926960D+01  0.3623119853D+00
 SP   3 1.00       0.000000000000
      0.7868272350D+01 -0.1193324198D+00  0.6899906659D-01
      0.1881288540D+01 -0.1608541517D+00  0.3164239610D+00
      0.5442492580D+00  0.1143456438D+01  0.7443082909D+00
 SP   1 1.00       0.000000000000
      0.1687144782D+00  0.1000000000D+01  0.1000000000D+01
 D   1 1.00       0.000000000000
      0.8000000000D+00  0.1000000000D+01
 ****
     49 0
 S   3 1.00       0.000000000000
      0.1873113696D+02  0.3349460434D-01
      0.2825394365D+01  0.2347269535D+00
      0.6401216923D+00  0.8137573261D+00
 S   1 1.00       0.000000000000
      0.1612777588D+00  0.1000000000D+01
 ****
     50 0
 S   3 1.00       0.000000000000
      0.1873113696D+02  0.3349460434D-01
      0.2825394365D+01  0.2347269535D+00
      0.6401216923D+00  0.8137573261D+00
 S   1 1.00       0.000000000000
      0.1612777588D+00  0.1000000000D+01
 ****
     51 0
 S   6 1.00       0.000000000000
      0.3047524880D+04  0.1834737132D-02
      0.4573695180D+03  0.1403732281D-01
      0.1039486850D+03  0.6884262226D-01
      0.2921015530D+02  0.2321844432D+00
      0.9286662960D+01  0.4679413484D+00
      0.3163926960D+01  0.3623119853D+00
 SP   3 1.00       0.000000000000
      0.7868272350D+01 -0.1193324198D+00  0.6899906659D-01
      0.1881288540D+01 -0.1608541517D+00  0.3164239610D+00
      0.5442492580D+00  0.1143456438D+01  0.7443082909D+00
 SP   1 1.00       0.000000000000
      0.1687144782D+00  0.1000000000D+01  0.1000000000D+01
 D   1 1.00       0.000000000000
      0.8000000000D+00  0.1000000000D+01
 ****
     52 0
 S   3 1.00       0.000000000000
      0.1873113696D+02  0.3349460434D-01
      0.2825394365D+01  0.2347269535D+00
      0.6401216923D+00  0.8137573261D+00
 S   1 1.00       0.000000000000
      0.1612777588D+00  0.1000000000D+01
 ****
     53 0
 S   3 1.00       0.000000000000
      0.1873113696D+02  0.3349460434D-01
      0.2825394365D+01  0.2347269535D+00
      0.6401216923D+00  0.8137573261D+00
 S   1 1.00       0.000000000000
      0.1612777588D+00  0.1000000000D+01
 ****
     54 0
 S   6 1.00       0.000000000000
      0.3047524880D+04  0.1834737132D-02
      0.4573695180D+03  0.1403732281D-01
      0.1039486850D+03  0.6884262226D-01
      0.2921015530D+02  0.2321844432D+00
      0.9286662960D+01  0.4679413484D+00
      0.3163926960D+01  0.3623119853D+00
 SP   3 1.00       0.000000000000
      0.7868272350D+01 -0.1193324198D+00  0.6899906659D-01
      0.1881288540D+01 -0.1608541517D+00  0.3164239610D+00
      0.5442492580D+00  0.1143456438D+01  0.7443082909D+00
 SP   1 1.00       0.000000000000
      0.1687144782D+00  0.1000000000D+01  0.1000000000D+01
 D   1 1.00       0.000000000000
      0.8000000000D+00  0.1000000000D+01
 ****
     55 0
 S   3 1.00       0.000000000000
      0.1873113696D+02  0.3349460434D-01
      0.2825394365D+01  0.2347269535D+00
      0.6401216923D+00  0.8137573261D+00
 S   1 1.00       0.000000000000
      0.1612777588D+00  0.1000000000D+01
 ****
     56 0
 S   6 1.00       0.000000000000
      0.3047524880D+04  0.1834737132D-02
      0.4573695180D+03  0.1403732281D-01
      0.1039486850D+03  0.6884262226D-01
      0.2921015530D+02  0.2321844432D+00
      0.9286662960D+01  0.4679413484D+00
      0.3163926960D+01  0.3623119853D+00
 SP   3 1.00       0.000000000000
      0.7868272350D+01 -0.1193324198D+00  0.6899906659D-01
      0.1881288540D+01 -0.1608541517D+00  0.3164239610D+00
      0.5442492580D+00  0.1143456438D+01  0.7443082909D+00
 SP   1 1.00       0.000000000000
      0.1687144782D+00  0.1000000000D+01  0.1000000000D+01
 D   1 1.00       0.000000000000
      0.8000000000D+00  0.1000000000D+01
 ****
     57 0
 S   3 1.00       0.000000000000
      0.1873113696D+02  0.3349460434D-01
      0.2825394365D+01  0.2347269535D+00
      0.6401216923D+00  0.8137573261D+00
 S   1 1.00       0.000000000000
      0.1612777588D+00  0.1000000000D+01
 ****
     58 0
 S   3 1.00       0.000000000000
      0.1873113696D+02  0.3349460434D-01
      0.2825394365D+01  0.2347269535D+00
      0.6401216923D+00  0.8137573261D+00
 S   1 1.00       0.000000000000
      0.1612777588D+00  0.1000000000D+01
 ****
     59 0
 S   3 1.00       0.000000000000
      0.1873113696D+02  0.3349460434D-01
      0.2825394365D+01  0.2347269535D+00
      0.6401216923D+00  0.8137573261D+00
 S   1 1.00       0.000000000000
      0.1612777588D+00  0.1000000000D+01
 ****
     60 0
 S   6 1.00       0.000000000000
      0.3047524880D+04  0.1834737132D-02
      0.4573695180D+03  0.1403732281D-01
      0.1039486850D+03  0.6884262226D-01
      0.2921015530D+02  0.2321844432D+00
      0.9286662960D+01  0.4679413484D+00
      0.3163926960D+01  0.3623119853D+00
 SP   3 1.00       0.000000000000
      0.7868272350D+01 -0.1193324198D+00  0.6899906659D-01
      0.1881288540D+01 -0.1608541517D+00  0.3164239610D+00
      0.5442492580D+00  0.1143456438D+01  0.7443082909D+00
 SP   1 1.00       0.000000000000
      0.1687144782D+00  0.1000000000D+01  0.1000000000D+01
 D   1 1.00       0.000000000000
      0.8000000000D+00  0.1000000000D+01
 ****
     61 0
 S   3 1.00       0.000000000000
      0.1873113696D+02  0.3349460434D-01
      0.2825394365D+01  0.2347269535D+00
      0.6401216923D+00  0.8137573261D+00
 S   1 1.00       0.000000000000
      0.1612777588D+00  0.1000000000D+01
 ****
     62 0
 S   3 1.00       0.000000000000
      0.1873113696D+02  0.3349460434D-01
      0.2825394365D+01  0.2347269535D+00
      0.6401216923D+00  0.8137573261D+00
 S   1 1.00       0.000000000000
      0.1612777588D+00  0.1000000000D+01
 ****
     63 0
 S   6 1.00       0.000000000000
      0.3047524880D+04  0.1834737132D-02
      0.4573695180D+03  0.1403732281D-01
      0.1039486850D+03  0.6884262226D-01
      0.2921015530D+02  0.2321844432D+00
      0.9286662960D+01  0.4679413484D+00
      0.3163926960D+01  0.3623119853D+00
 SP   3 1.00       0.000000000000
      0.7868272350D+01 -0.1193324198D+00  0.6899906659D-01
      0.1881288540D+01 -0.1608541517D+00  0.3164239610D+00
      0.5442492580D+00  0.1143456438D+01  0.7443082909D+00
 SP   1 1.00       0.000000000000
      0.1687144782D+00  0.1000000000D+01  0.1000000000D+01
 D   1 1.00       0.000000000000
      0.8000000000D+00  0.1000000000D+01
 ****
     64 0
 S   3 1.00       0.000000000000
      0.1873113696D+02  0.3349460434D-01
      0.2825394365D+01  0.2347269535D+00
      0.6401216923D+00  0.8137573261D+00
 S   1 1.00       0.000000000000
      0.1612777588D+00  0.1000000000D+01
 ****
     65 0
 S   3 1.00       0.000000000000
      0.1873113696D+02  0.3349460434D-01
      0.2825394365D+01  0.2347269535D+00
      0.6401216923D+00  0.8137573261D+00
 S   1 1.00       0.000000000000
      0.1612777588D+00  0.1000000000D+01
 ****
     66 0
 S   6 1.00       0.000000000000
      0.3047524880D+04  0.1834737132D-02
      0.4573695180D+03  0.1403732281D-01
      0.1039486850D+03  0.6884262226D-01
      0.2921015530D+02  0.2321844432D+00
      0.9286662960D+01  0.4679413484D+00
      0.3163926960D+01  0.3623119853D+00
 SP   3 1.00       0.000000000000
      0.7868272350D+01 -0.1193324198D+00  0.6899906659D-01
      0.1881288540D+01 -0.1608541517D+00  0.3164239610D+00
      0.5442492580D+00  0.1143456438D+01  0.7443082909D+00
 SP   1 1.00       0.000000000000
      0.1687144782D+00  0.1000000000D+01  0.1000000000D+01
 D   1 1.00       0.000000000000
      0.8000000000D+00  0.1000000000D+01
 ****
     67 0
 S   3 1.00       0.000000000000
      0.1873113696D+02  0.3349460434D-01
      0.2825394365D+01  0.2347269535D+00
      0.6401216923D+00  0.8137573261D+00
 S   1 1.00       0.000000000000
      0.1612777588D+00  0.1000000000D+01
 ****
     68 0
 S   6 1.00       0.000000000000
      0.3047524880D+04  0.1834737132D-02
      0.4573695180D+03  0.1403732281D-01
      0.1039486850D+03  0.6884262226D-01
      0.2921015530D+02  0.2321844432D+00
      0.9286662960D+01  0.4679413484D+00
      0.3163926960D+01  0.3623119853D+00
 SP   3 1.00       0.000000000000
      0.7868272350D+01 -0.1193324198D+00  0.6899906659D-01
      0.1881288540D+01 -0.1608541517D+00  0.3164239610D+00
      0.5442492580D+00  0.1143456438D+01  0.7443082909D+00
 SP   1 1.00       0.000000000000
      0.1687144782D+00  0.1000000000D+01  0.1000000000D+01
 D   1 1.00       0.000000000000
      0.8000000000D+00  0.1000000000D+01
 ****
     69 0
 S   3 1.00       0.000000000000
      0.1873113696D+02  0.3349460434D-01
      0.2825394365D+01  0.2347269535D+00
      0.6401216923D+00  0.8137573261D+00
 S   1 1.00       0.000000000000
      0.1612777588D+00  0.1000000000D+01
 ****
     70 0
 S   3 1.00       0.000000000000
      0.1873113696D+02  0.3349460434D-01
      0.2825394365D+01  0.2347269535D+00
      0.6401216923D+00  0.8137573261D+00
 S   1 1.00       0.000000000000
      0.1612777588D+00  0.1000000000D+01
 ****
     71 0
 S   3 1.00       0.000000000000
      0.1873113696D+02  0.3349460434D-01
      0.2825394365D+01  0.2347269535D+00
      0.6401216923D+00  0.8137573261D+00
 S   1 1.00       0.000000000000
      0.1612777588D+00  0.1000000000D+01
 ****
     72 0
 S   6 1.00       0.000000000000
      0.3047524880D+04  0.1834737132D-02
      0.4573695180D+03  0.1403732281D-01
      0.1039486850D+03  0.6884262226D-01
      0.2921015530D+02  0.2321844432D+00
      0.9286662960D+01  0.4679413484D+00
      0.3163926960D+01  0.3623119853D+00
 SP   3 1.00       0.000000000000
      0.7868272350D+01 -0.1193324198D+00  0.6899906659D-01
      0.1881288540D+01 -0.1608541517D+00  0.3164239610D+00
      0.5442492580D+00  0.1143456438D+01  0.7443082909D+00
 SP   1 1.00       0.000000000000
      0.1687144782D+00  0.1000000000D+01  0.1000000000D+01
 D   1 1.00       0.000000000000
      0.8000000000D+00  0.1000000000D+01
 ****
     73 0
 S   3 1.00       0.000000000000
      0.1873113696D+02  0.3349460434D-01
      0.2825394365D+01  0.2347269535D+00
      0.6401216923D+00  0.8137573261D+00
 S   1 1.00       0.000000000000
      0.1612777588D+00  0.1000000000D+01
 ****
     74 0
 S   3 1.00       0.000000000000
      0.1873113696D+02  0.3349460434D-01
      0.2825394365D+01  0.2347269535D+00
      0.6401216923D+00  0.8137573261D+00
 S   1 1.00       0.000000000000
      0.1612777588D+00  0.1000000000D+01
 ****
     75 0
 S   3 1.00       0.000000000000
      0.1873113696D+02  0.3349460434D-01
      0.2825394365D+01  0.2347269535D+00
      0.6401216923D+00  0.8137573261D+00
 S   1 1.00       0.000000000000
      0.1612777588D+00  0.1000000000D+01
 ****

 AO basis set (Overlap normalization):
 Atom O1       Shell     1 S   6     bf    1 -     1          0.000000000000          0.000000000000          0.000000000000
      0.5484671660D+04  0.1831074430D-02
      0.8252349460D+03  0.1395017220D-01
      0.1880469580D+03  0.6844507810D-01
      0.5296450000D+02  0.2327143360D+00
      0.1689757040D+02  0.4701928980D+00
      0.5799635340D+01  0.3585208530D+00
 Atom O1       Shell     2 SP   3    bf    2 -     5          0.000000000000          0.000000000000          0.000000000000
      0.1553961625D+02 -0.1107775495D+00  0.7087426823D-01
      0.3599933586D+01 -0.1480262627D+00  0.3397528391D+00
      0.1013761750D+01  0.1130767015D+01  0.7271585773D+00
 Atom O1       Shell     3 SP   1    bf    6 -     9          0.000000000000          0.000000000000          0.000000000000
      0.2700058226D+00  0.1000000000D+01  0.1000000000D+01
 Atom O1       Shell     4 D   1     bf   10 -    15          0.000000000000          0.000000000000          0.000000000000
      0.8000000000D+00  0.1000000000D+01
 Atom H2       Shell     5 S   3     bf   16 -    16         -0.434809958299          0.260526734262          1.756888703648
      0.1873113696D+02  0.3349460434D-01
      0.2825394365D+01  0.2347269535D+00
      0.6401216923D+00  0.8137573261D+00
 Atom H2       Shell     6 S   1     bf   17 -    17         -0.434809958299          0.260526734262          1.756888703648
      0.1612777588D+00  0.1000000000D+01
 Atom O3       Shell     7 S   6     bf   18 -    18         -5.753032671441         12.255061961719          0.000000000000
      0.5484671660D+04  0.1831074430D-02
      0.8252349460D+03  0.1395017220D-01
      0.1880469580D+03  0.6844507810D-01
      0.5296450000D+02  0.2327143360D+00
      0.1689757040D+02  0.4701928980D+00
      0.5799635340D+01  0.3585208530D+00
 Atom O3       Shell     8 SP   3    bf   19 -    22         -5.753032671441         12.255061961719          0.000000000000
      0.1553961625D+02 -0.1107775495D+00  0.7087426823D-01
      0.3599933586D+01 -0.1480262627D+00  0.3397528391D+00
      0.1013761750D+01  0.1130767015D+01  0.7271585773D+00
 Atom O3       Shell     9 SP   1    bf   23 -    26         -5.753032671441         12.255061961719          0.000000000000
      0.2700058226D+00  0.1000000000D+01  0.1000000000D+01
 Atom O3       Shell    10 D   1     bf   27 -    32         -5.753032671441         12.255061961719          0.000000000000
      0.8000000000D+00  0.1000000000D+01
 Atom H4       Shell    11 S   3     bf   33 -    33         -5.754775225702         12.632383087344          1.789054091204
      0.1873113696D+02  0.3349460434D-01
      0.2825394365D+01  0.2347269535D+00
      0.6401216923D+00  0.8137573261D+00
 Atom H4       Shell    12 S   1     bf   34 -    34         -5.754775225702         12.632383087344          1.789054091204
      0.1612777588D+00  0.1000000000D+01
 Atom C5       Shell    13 S   6     bf   35 -    35          8.077971954593          2.923991500168         -0.785451023311
      0.3047524880D+04  0.1834737132D-02
      0.4573695180D+03  0.1403732281D-01
      0.1039486850D+03  0.6884262226D-01
      0.2921015530D+02  0.2321844432D+00
      0.9286662960D+01  0.4679413484D+00
      0.3163926960D+01  0.3623119853D+00
 Atom C5       Shell    14 SP   3    bf   36 -    39          8.077971954593          2.923991500168         -0.785451023311
      0.7868272350D+01 -0.1193324198D+00  0.6899906659D-01
      0.1881288540D+01 -0.1608541517D+00  0.3164239610D+00
      0.5442492580D+00  0.1143456438D+01  0.7443082909D+00
 Atom C5       Shell    15 SP   1    bf   40 -    43          8.077971954593          2.923991500168         -0.785451023311
      0.1687144782D+00  0.1000000000D+01  0.1000000000D+01
 Atom C5       Shell    16 D   1     bf   44 -    49          8.077971954593          2.923991500168         -0.785451023311
      0.8000000000D+00  0.1000000000D+01
 Atom C6       Shell    17 S   6     bf   50 -    50          5.374913155422          2.008310094896         -1.500174095017
      0.3047524880D+04  0.1834737132D-02
      0.4573695180D+03  0.1403732281D-01
      0.1039486850D+03  0.6884262226D-01
      0.2921015530D+02  0.2321844432D+00
      0.9286662960D+01  0.4679413484D+00
      0.3163926960D+01  0.3623119853D+00
 Atom C6       Shell    18 SP   3    bf   51 -    54          5.374913155422          2.008310094896         -1.500174095017
      0.7868272350D+01 -0.1193324198D+00  0.6899906659D-01
      0.1881288540D+01 -0.1608541517D+00  0.3164239610D+00
      0.5442492580D+00  0.1143456438D+01  0.7443082909D+00
 Atom C6       Shell    19 SP   1    bf   55 -    58          5.374913155422          2.008310094896         -1.500174095017
      0.1687144782D+00  0.1000000000D+01  0.1000000000D+01
 Atom C6       Shell    20 D   1     bf   59 -    64          5.374913155422          2.008310094896         -1.500174095017
      0.8000000000D+00  0.1000000000D+01
 Atom H7       Shell    21 S   3     bf   65 -    65          5.175568099952          2.457188402850         -3.527835136691
      0.1873113696D+02  0.3349460434D-01
      0.2825394365D+01  0.2347269535D+00
      0.6401216923D+00  0.8137573261D+00
 Atom H7       Shell    22 S   1     bf   66 -    66          5.175568099952          2.457188402850         -3.527835136691
      0.1612777588D+00  0.1000000000D+01
 Atom C8       Shell    23 S   6     bf   67 -    67          3.195226197487          3.415635973469         -0.184642608211
      0.3047524880D+04  0.1834737132D-02
      0.4573695180D+03  0.1403732281D-01
      0.1039486850D+03  0.6884262226D-01
      0.2921015530D+02  0.2321844432D+00
      0.9286662960D+01  0.4679413484D+00
      0.3163926960D+01  0.3623119853D+00
 Atom C8       Shell    24 SP   3    bf   68 -    71          3.195226197487          3.415635973469         -0.184642608211
      0.7868272350D+01 -0.1193324198D+00  0.6899906659D-01
      0.1881288540D+01 -0.1608541517D+00  0.3164239610D+00
      0.5442492580D+00  0.1143456438D+01  0.7443082909D+00
 Atom C8       Shell    25 SP   1    bf   72 -    75          3.195226197487          3.415635973469         -0.184642608211
      0.1687144782D+00  0.1000000000D+01  0.1000000000D+01
 Atom C8       Shell    26 D   1     bf   76 -    81          3.195226197487          3.415635973469         -0.184642608211
      0.8000000000D+00  0.1000000000D+01
 Atom H9       Shell    27 S   3     bf   82 -    82          3.293022132686          3.089584119385          1.865943910606
      0.1873113696D+02  0.3349460434D-01
      0.2825394365D+01  0.2347269535D+00
      0.6401216923D+00  0.8137573261D+00
 Atom H9       Shell    28 S   1     bf   83 -    83          3.293022132686          3.089584119385          1.865943910606
      0.1612777588D+00  0.1000000000D+01
 Atom C10      Shell    29 S   6     bf   84 -    84          3.412443111092          6.293984861658         -0.725912329111
      0.3047524880D+04  0.1834737132D-02
      0.4573695180D+03  0.1403732281D-01
      0.1039486850D+03  0.6884262226D-01
      0.2921015530D+02  0.2321844432D+00
      0.9286662960D+01  0.4679413484D+00
      0.3163926960D+01  0.3623119853D+00
 Atom C10      Shell    30 SP   3    bf   85 -    88          3.412443111092          6.293984861658         -0.725912329111
      0.7868272350D+01 -0.1193324198D+00  0.6899906659D-01
      0.1881288540D+01 -0.1608541517D+00  0.3164239610D+00
      0.5442492580D+00  0.1143456438D+01  0.7443082909D+00
 Atom C10      Shell    31 SP   1    bf   89 -    92          3.412443111092          6.293984861658         -0.725912329111
      0.1687144782D+00  0.1000000000D+01  0.1000000000D+01
 Atom C10      Shell    32 D   1     bf   93 -    98          3.412443111092          6.293984861658         -0.725912329111
      0.8000000000D+00  0.1000000000D+01
 Atom H11      Shell    33 S   3     bf   99 -    99          3.075431280074          6.507210220136         -2.770822734235
      0.1873113696D+02  0.3349460434D-01
      0.2825394365D+01  0.2347269535D+00
      0.6401216923D+00  0.8137573261D+00
 Atom H11      Shell    34 S   1     bf  100 -   100          3.075431280074          6.507210220136         -2.770822734235
      0.1612777588D+00  0.1000000000D+01
 Atom C12      Shell    35 S   6     bf  101 -   101          9.705747992596          1.080801366189         -2.441943320732
      0.3047524880D+04  0.1834737132D-02
      0.4573695180D+03  0.1403732281D-01
      0.1039486850D+03  0.6884262226D-01
      0.2921015530D+02  0.2321844432D+00
      0.9286662960D+01  0.4679413484D+00
      0.3163926960D+01  0.3623119853D+00
 Atom C12      Shell    36 SP   3    bf  102 -   105          9.705747992596          1.080801366189         -2.441943320732
      0.7868272350D+01 -0.1193324198D+00  0.6899906659D-01
      0.1881288540D+01 -0.1608541517D+00  0.3164239610D+00
      0.5442492580D+00  0.1143456438D+01  0.7443082909D+00
 Atom C12      Shell    37 SP   1    bf  106 -   109          9.705747992596          1.080801366189         -2.441943320732
      0.1687144782D+00  0.1000000000D+01  0.1000000000D+01
 Atom C12      Shell    38 D   1     bf  110 -   115          9.705747992596          1.080801366189         -2.441943320732
      0.8000000000D+00  0.1000000000D+01
 Atom H13      Shell    39 S   3     bf  116 -   116          9.529237688517          1.766082863792         -4.400272786132
      0.1873113696D+02  0.3349460434D-01
      0.2825394365D+01  0.2347269535D+00
      0.6401216923D+00  0.8137573261D+00
 Atom H13      Shell    40 S   1     bf  117 -   117          9.529237688517          1.766082863792         -4.400272786132
      0.1612777588D+00  0.1000000000D+01
 Atom C14      Shell    41 S   6     bf  118 -   118          8.216640398375          5.747039140448         -1.493120408767
      0.3047524880D+04  0.1834737132D-02
      0.4573695180D+03  0.1403732281D-01
      0.1039486850D+03  0.6884262226D-01
      0.2921015530D+02  0.2321844432D+00
      0.9286662960D+01  0.4679413484D+00
      0.3163926960D+01  0.3623119853D+00
 Atom C14      Shell    42 SP   3    bf  119 -   122          8.216640398375          5.747039140448         -1.493120408767
      0.7868272350D+01 -0.1193324198D+00  0.6899906659D-01
      0.1881288540D+01 -0.1608541517D+00  0.3164239610D+00
      0.5442492580D+00  0.1143456438D+01  0.7443082909D+00
 Atom C14      Shell    43 SP   1    bf  123 -   126          8.216640398375          5.747039140448         -1.493120408767
      0.1687144782D+00  0.1000000000D+01  0.1000000000D+01
 Atom C14      Shell    44 D   1     bf  127 -   132          8.216640398375          5.747039140448         -1.493120408767
      0.8000000000D+00  0.1000000000D+01
 Atom H15      Shell    45 S   3     bf  133 -   133          8.045816091257          5.923596404222         -3.556606519421
      0.1873113696D+02  0.3349460434D-01
      0.2825394365D+01  0.2347269535D+00
      0.6401216923D+00  0.8137573261D+00
 Atom H15      Shell    46 S   1     bf  134 -   134          8.045816091257          5.923596404222         -3.556606519421
      0.1612777588D+00  0.1000000000D+01
 Atom H16      Shell    47 S   3     bf  135 -   135         10.039508549803          6.580189685943         -0.983146688018
      0.1873113696D+02  0.3349460434D-01
      0.2825394365D+01  0.2347269535D+00
      0.6401216923D+00  0.8137573261D+00
 Atom H16      Shell    48 S   1     bf  136 -   136         10.039508549803          6.580189685943         -0.983146688018
      0.1612777588D+00  0.1000000000D+01
 Atom C17      Shell    49 S   6     bf  137 -   137          1.300438546538          7.897900631692          0.597814692063
      0.3047524880D+04  0.1834737132D-02
      0.4573695180D+03  0.1403732281D-01
      0.1039486850D+03  0.6884262226D-01
      0.2921015530D+02  0.2321844432D+00
      0.9286662960D+01  0.4679413484D+00
      0.3163926960D+01  0.3623119853D+00
 Atom C17      Shell    50 SP   3    bf  138 -   141          1.300438546538          7.897900631692          0.597814692063
      0.7868272350D+01 -0.1193324198D+00  0.6899906659D-01
      0.1881288540D+01 -0.1608541517D+00  0.3164239610D+00
      0.5442492580D+00  0.1143456438D+01  0.7443082909D+00
 Atom C17      Shell    51 SP   1    bf  142 -   145          1.300438546538          7.897900631692          0.597814692063
      0.1687144782D+00  0.1000000000D+01  0.1000000000D+01
 Atom C17      Shell    52 D   1     bf  146 -   151          1.300438546538          7.897900631692          0.597814692063
      0.8000000000D+00  0.1000000000D+01
 Atom C18      Shell    53 S   6     bf  152 -   152          5.532722427334         -0.884934011515         -1.315135381311
      0.3047524880D+04  0.1834737132D-02
      0.4573695180D+03  0.1403732281D-01
      0.1039486850D+03  0.6884262226D-01
      0.2921015530D+02  0.2321844432D+00
      0.9286662960D+01  0.4679413484D+00
      0.3163926960D+01  0.3623119853D+00
 Atom C18      Shell    54 SP   3    bf  153 -   156          5.532722427334         -0.884934011515         -1.315135381311
      0.7868272350D+01 -0.1193324198D+00  0.6899906659D-01
      0.1881288540D+01 -0.1608541517D+00  0.3164239610D+00
      0.5442492580D+00  0.1143456438D+01  0.7443082909D+00
 Atom C18      Shell    55 SP   1    bf  157 -   160          5.532722427334         -0.884934011515         -1.315135381311
      0.1687144782D+00  0.1000000000D+01  0.1000000000D+01
 Atom C18      Shell    56 D   1     bf  161 -   166          5.532722427334         -0.884934011515         -1.315135381311
      0.8000000000D+00  0.1000000000D+01
 Atom H19      Shell    57 S   3     bf  167 -   167          4.077816419475         -1.828062271574         -2.435493156317
      0.1873113696D+02  0.3349460434D-01
      0.2825394365D+01  0.2347269535D+00
      0.6401216923D+00  0.8137573261D+00
 Atom H19      Shell    58 S   1     bf  168 -   168          4.077816419475         -1.828062271574         -2.435493156317
      0.1612777588D+00  0.1000000000D+01
 Atom H20      Shell    59 S   3     bf  169 -   169          5.245613010047         -1.507843321760          0.637534883445
      0.1873113696D+02  0.3349460434D-01
      0.2825394365D+01  0.2347269535D+00
      0.6401216923D+00  0.8137573261D+00
 Atom H20      Shell    60 S   1     bf  170 -   170          5.245613010047         -1.507843321760          0.637534883445
      0.1612777588D+00  0.1000000000D+01
 Atom C21      Shell    61 S   6     bf  171 -   171          6.108685233465          7.292221447485         -0.211385275451
      0.3047524880D+04  0.1834737132D-02
      0.4573695180D+03  0.1403732281D-01
      0.1039486850D+03  0.6884262226D-01
      0.2921015530D+02  0.2321844432D+00
      0.9286662960D+01  0.4679413484D+00
      0.3163926960D+01  0.3623119853D+00
 Atom C21      Shell    62 SP   3    bf  172 -   175          6.108685233465          7.292221447485         -0.211385275451
      0.7868272350D+01 -0.1193324198D+00  0.6899906659D-01
      0.1881288540D+01 -0.1608541517D+00  0.3164239610D+00
      0.5442492580D+00  0.1143456438D+01  0.7443082909D+00
 Atom C21      Shell    63 SP   1    bf  176 -   179          6.108685233465          7.292221447485         -0.211385275451
      0.1687144782D+00  0.1000000000D+01  0.1000000000D+01
 Atom C21      Shell    64 D   1     bf  180 -   185          6.108685233465          7.292221447485         -0.211385275451
      0.8000000000D+00  0.1000000000D+01
 Atom H22      Shell    65 S   3     bf  186 -   186          6.463232645853          7.330725335538          1.827672307689
      0.1873113696D+02  0.3349460434D-01
      0.2825394365D+01  0.2347269535D+00
      0.6401216923D+00  0.8137573261D+00
 Atom H22      Shell    66 S   1     bf  187 -   187          6.463232645853          7.330725335538          1.827672307689
      0.1612777588D+00  0.1000000000D+01
 Atom H23      Shell    67 S   3     bf  188 -   188          6.255662387313          9.255681368157         -0.851954265380
      0.1873113696D+02  0.3349460434D-01
      0.2825394365D+01  0.2347269535D+00
      0.6401216923D+00  0.8137573261D+00
 Atom H23      Shell    68 S   1     bf  189 -   189          6.255662387313          9.255681368157         -0.851954265380
      0.1612777588D+00  0.1000000000D+01
 Atom C24      Shell    69 S   6     bf  190 -   190          8.250117047997         -1.488745352619         -2.238842340086
      0.3047524880D+04  0.1834737132D-02
      0.4573695180D+03  0.1403732281D-01
      0.1039486850D+03  0.6884262226D-01
      0.2921015530D+02  0.2321844432D+00
      0.9286662960D+01  0.4679413484D+00
      0.3163926960D+01  0.3623119853D+00
 Atom C24      Shell    70 SP   3    bf  191 -   194          8.250117047997         -1.488745352619         -2.238842340086
      0.7868272350D+01 -0.1193324198D+00  0.6899906659D-01
      0.1881288540D+01 -0.1608541517D+00  0.3164239610D+00
      0.5442492580D+00  0.1143456438D+01  0.7443082909D+00
 Atom C24      Shell    71 SP   1    bf  195 -   198          8.250117047997         -1.488745352619         -2.238842340086
      0.1687144782D+00  0.1000000000D+01  0.1000000000D+01
 Atom C24      Shell    72 D   1     bf  199 -   204          8.250117047997         -1.488745352619         -2.238842340086
      0.8000000000D+00  0.1000000000D+01
 Atom H25      Shell    73 S   3     bf  205 -   205          9.212519135111         -2.759383484959         -0.914297143086
      0.1873113696D+02  0.3349460434D-01
      0.2825394365D+01  0.2347269535D+00
      0.6401216923D+00  0.8137573261D+00
 Atom H25      Shell    74 S   1     bf  206 -   206          9.212519135111         -2.759383484959         -0.914297143086
      0.1612777588D+00  0.1000000000D+01
 Atom H26      Shell    75 S   3     bf  207 -   207          8.221808969424         -2.465095735086         -4.061485519618
      0.1873113696D+02  0.3349460434D-01
      0.2825394365D+01  0.2347269535D+00
      0.6401216923D+00  0.8137573261D+00
 Atom H26      Shell    76 S   1     bf  208 -   208          8.221808969424         -2.465095735086         -4.061485519618
      0.1612777588D+00  0.1000000000D+01
 Atom C27      Shell    77 S   6     bf  209 -   209          0.606462626868          2.426208270422         -1.080386930351
      0.3047524880D+04  0.1834737132D-02
      0.4573695180D+03  0.1403732281D-01
      0.1039486850D+03  0.6884262226D-01
      0.2921015530D+02  0.2321844432D+00
      0.9286662960D+01  0.4679413484D+00
      0.3163926960D+01  0.3623119853D+00
 Atom C27      Shell    78 SP   3    bf  210 -   213          0.606462626868          2.426208270422         -1.080386930351
      0.7868272350D+01 -0.1193324198D+00  0.6899906659D-01
      0.1881288540D+01 -0.1608541517D+00  0.3164239610D+00
      0.5442492580D+00  0.1143456438D+01  0.7443082909D+00
 Atom C27      Shell    79 SP   1    bf  214 -   217          0.606462626868          2.426208270422         -1.080386930351
      0.1687144782D+00  0.1000000000D+01  0.1000000000D+01
 Atom C27      Shell    80 D   1     bf  218 -   223          0.606462626868          2.426208270422         -1.080386930351
      0.8000000000D+00  0.1000000000D+01
 Atom H28      Shell    81 S   3     bf  224 -   224          0.706623025199          2.029914880239         -3.117149233232
      0.1873113696D+02  0.3349460434D-01
      0.2825394365D+01  0.2347269535D+00
      0.6401216923D+00  0.8137573261D+00
 Atom H28      Shell    82 S   1     bf  225 -   225          0.706623025199          2.029914880239         -3.117149233232
      0.1612777588D+00  0.1000000000D+01
 Atom C29      Shell    83 S   6     bf  226 -   226         12.574824183624          0.793494340240         -1.908915564772
      0.3047524880D+04  0.1834737132D-02
      0.4573695180D+03  0.1403732281D-01
      0.1039486850D+03  0.6884262226D-01
      0.2921015530D+02  0.2321844432D+00
      0.9286662960D+01  0.4679413484D+00
      0.3163926960D+01  0.3623119853D+00
 Atom C29      Shell    84 SP   3    bf  227 -   230         12.574824183624          0.793494340240         -1.908915564772
      0.7868272350D+01 -0.1193324198D+00  0.6899906659D-01
      0.1881288540D+01 -0.1608541517D+00  0.3164239610D+00
      0.5442492580D+00  0.1143456438D+01  0.7443082909D+00
 Atom C29      Shell    85 SP   1    bf  231 -   234         12.574824183624          0.793494340240         -1.908915564772
      0.1687144782D+00  0.1000000000D+01  0.1000000000D+01
 Atom C29      Shell    86 D   1     bf  235 -   240         12.574824183624          0.793494340240         -1.908915564772
      0.8000000000D+00  0.1000000000D+01
 Atom H30      Shell    87 S   3     bf  241 -   241         12.776564693735          0.000000000000          0.000000000000
      0.1873113696D+02  0.3349460434D-01
      0.2825394365D+01  0.2347269535D+00
      0.6401216923D+00  0.8137573261D+00
 Atom H30      Shell    88 S   1     bf  242 -   242         12.776564693735          0.000000000000          0.000000000000
      0.1612777588D+00  0.1000000000D+01
 Atom C31      Shell    89 S   6     bf  243 -   243          8.669997470648          2.534574218670          2.049005347167
      0.3047524880D+04  0.1834737132D-02
      0.4573695180D+03  0.1403732281D-01
      0.1039486850D+03  0.6884262226D-01
      0.2921015530D+02  0.2321844432D+00
      0.9286662960D+01  0.4679413484D+00
      0.3163926960D+01  0.3623119853D+00
 Atom C31      Shell    90 SP   3    bf  244 -   247          8.669997470648          2.534574218670          2.049005347167
      0.7868272350D+01 -0.1193324198D+00  0.6899906659D-01
      0.1881288540D+01 -0.1608541517D+00  0.3164239610D+00
      0.5442492580D+00  0.1143456438D+01  0.7443082909D+00
 Atom C31      Shell    91 SP   1    bf  248 -   251          8.669997470648          2.534574218670          2.049005347167
      0.1687144782D+00  0.1000000000D+01  0.1000000000D+01
 Atom C31      Shell    92 D   1     bf  252 -   257          8.669997470648          2.534574218670          2.049005347167
      0.8000000000D+00  0.1000000000D+01
 Atom H32      Shell    93 S   3     bf  258 -   258          7.304724272422          3.482548700293          3.275920829280
      0.1873113696D+02  0.3349460434D-01
      0.2825394365D+01  0.2347269535D+00
      0.6401216923D+00  0.8137573261D+00
 Atom H32      Shell    94 S   1     bf  259 -   259          7.304724272422          3.482548700293          3.275920829280
      0.1612777588D+00  0.1000000000D+01
 Atom H33      Shell    95 S   3     bf  260 -   260          8.669386503292          0.533730034883          2.569018313586
      0.1873113696D+02  0.3349460434D-01
      0.2825394365D+01  0.2347269535D+00
      0.6401216923D+00  0.8137573261D+00
 Atom H33      Shell    96 S   1     bf  261 -   261          8.669386503292          0.533730034883          2.569018313586
      0.1612777588D+00  0.1000000000D+01
 Atom H34      Shell    97 S   3     bf  262 -   262         10.537878331643          3.291994783074          2.517385326457
      0.1873113696D+02  0.3349460434D-01
      0.2825394365D+01  0.2347269535D+00
      0.6401216923D+00  0.8137573261D+00
 Atom H34      Shell    98 S   1     bf  263 -   263         10.537878331643          3.291994783074          2.517385326457
      0.1612777588D+00  0.1000000000D+01
 Atom C35      Shell    99 S   6     bf  264 -   264         -1.277602018805          6.633736644391          0.218678654563
      0.3047524880D+04  0.1834737132D-02
      0.4573695180D+03  0.1403732281D-01
      0.1039486850D+03  0.6884262226D-01
      0.2921015530D+02  0.2321844432D+00
      0.9286662960D+01  0.4679413484D+00
      0.3163926960D+01  0.3623119853D+00
 Atom C35      Shell   100 SP   3    bf  265 -   268         -1.277602018805          6.633736644391          0.218678654563
      0.7868272350D+01 -0.1193324198D+00  0.6899906659D-01
      0.1881288540D+01 -0.1608541517D+00  0.3164239610D+00
      0.5442492580D+00  0.1143456438D+01  0.7443082909D+00
 Atom C35      Shell   101 SP   1    bf  269 -   272         -1.277602018805          6.633736644391          0.218678654563
      0.1687144782D+00  0.1000000000D+01  0.1000000000D+01
 Atom C35      Shell   102 D   1     bf  273 -   278         -1.277602018805          6.633736644391          0.218678654563
      0.8000000000D+00  0.1000000000D+01
 Atom C36      Shell   103 S   6     bf  279 -   279          1.211954690394         10.563775516514         -0.661654724195
      0.3047524880D+04  0.1834737132D-02
      0.4573695180D+03  0.1403732281D-01
      0.1039486850D+03  0.6884262226D-01
      0.2921015530D+02  0.2321844432D+00
      0.9286662960D+01  0.4679413484D+00
      0.3163926960D+01  0.3623119853D+00
 Atom C36      Shell   104 SP   3    bf  280 -   283          1.211954690394         10.563775516514         -0.661654724195
      0.7868272350D+01 -0.1193324198D+00  0.6899906659D-01
      0.1881288540D+01 -0.1608541517D+00  0.3164239610D+00
      0.5442492580D+00  0.1143456438D+01  0.7443082909D+00
 Atom C36      Shell   105 SP   1    bf  284 -   287          1.211954690394         10.563775516514         -0.661654724195
      0.1687144782D+00  0.1000000000D+01  0.1000000000D+01
 Atom C36      Shell   106 D   1     bf  288 -   293          1.211954690394         10.563775516514         -0.661654724195
      0.8000000000D+00  0.1000000000D+01
 Atom H37      Shell   107 S   3     bf  294 -   294          1.231792714083         10.308684844034         -2.722188893657
      0.1873113696D+02  0.3349460434D-01
      0.2825394365D+01  0.2347269535D+00
      0.6401216923D+00  0.8137573261D+00
 Atom H37      Shell   108 S   1     bf  295 -   295          1.231792714083         10.308684844034         -2.722188893657
      0.1612777588D+00  0.1000000000D+01
 Atom H38      Shell   109 S   3     bf  296 -   296          2.932758279850         11.609168838486         -0.183670684267
      0.1873113696D+02  0.3349460434D-01
      0.2825394365D+01  0.2347269535D+00
      0.6401216923D+00  0.8137573261D+00
 Atom H38      Shell   110 S   1     bf  297 -   297          2.932758279850         11.609168838486         -0.183670684267
      0.1612777588D+00  0.1000000000D+01
 Atom C39      Shell   111 S   6     bf  298 -   298         -1.520441010949          4.242809315205         -0.585744916766
      0.3047524880D+04  0.1834737132D-02
[...]
 1562 Fit      -0.000441
 1563 Fit       0.003003
 1564 Fit       0.002312
 1565 Fit      -0.000242
 1566 Fit      -0.001977
 1567 Fit       0.000589
 1568 Fit       0.001248
 1569 Fit      -0.000658
 1570 Fit       0.001630
 1571 Fit       0.003090
 1572 Fit       0.002596
 1573 Fit      -0.000764
 1574 Fit       0.001422
 1575 Fit       0.002994
 1576 Fit       0.003649
 1577 Fit      -0.000786
 1578 Fit       0.001119
 1579 Fit       0.002681
 1580 Fit       0.000595
 1581 Fit      -0.001426
 1582 Fit      -0.002315
 1583 Fit      -0.002901
 1584 Fit      -0.003234
 1585 Fit      -0.001244
 1586 Fit      -0.003041
 1587 Fit      -0.003336
 1588 Fit      -0.002934
 1589 Fit      -0.001379
 1590 Fit       0.000051
 1591 Fit      -0.002429
 1592 Fit       0.000611
 1593 Fit       0.001946
 1594 Fit       0.002091
 1595 Fit      -0.000218
 1596 Fit      -0.000476
 1597 Fit       0.001614
 1598 Fit       0.001945
 1599 Fit       0.000623
 1600 Fit       0.002765
 1601 Fit      -0.001856
 1602 Fit       0.000452
 1603 Fit       0.002075
 1604 Fit       0.001748
 1605 Fit      -0.001545
 1606 Fit       0.000530
 1607 Fit       0.001685
 1608 Fit      -0.000415
 1609 Fit      -0.002089
 1610 Fit      -0.001590
 1611 Fit      -0.000264
 1612 Fit       0.000203
 1613 Fit       0.002302
 1614 Fit       0.001578
 1615 Fit       0.000182
 1616 Fit      -0.002022
 1617 Fit       0.001958
 1618 Fit       0.001847
 1619 Fit       0.001008
 1620 Fit      -0.000830
 1621 Fit       0.000443
 1622 Fit       0.000565
 1623 Fit      -0.000594
 1624 Fit      -0.002789
 1625 Fit      -0.001485
 1626 Fit      -0.001661
 1627 Fit      -0.003577
 1628 Fit      -0.001833
 1629 Fit      -0.007044
 1630 Fit      -0.011112
 1631 Fit      -0.014088
 1632 Fit      -0.015649
 1633 Fit      -0.010454
 1634 Fit      -0.016075
 1635 Fit      -0.019497
 1636 Fit      -0.021609
 1637 Fit      -0.022727
 1638 Fit      -0.015449
 1639 Fit      -0.021574
 1640 Fit      -0.024438
 1641 Fit      -0.025111
 1642 Fit      -0.019821
 1643 Fit      -0.022937
 1644 Fit      -0.021989
 1645 Fit       0.016800
 1646 Fit       0.015263
 1647 Fit       0.018576
 1648 Fit       0.016907
 1649 Fit       0.015443
 1650 Fit       0.013062
 1651 Fit       0.012147
 1652 Fit       0.011852
 1653 Fit       0.010155
 1654 Fit       0.007192
 1655 Fit       0.004416
 1656 Fit       0.003074
 1657 Fit       0.004980
 1658 Fit       0.004580
 1659 Fit       0.000596
 1660 Fit      -0.003634
 1661 Fit       0.002534
 1662 Fit      -0.002715
 1663 Fit      -0.005249
 1664 Fit      -0.007830
 1665 Fit      -0.009340
 1666 Fit      -0.008047
 1667 Fit      -0.010766
 1668 Fit      -0.013697
 1669 Fit      -0.015626
 1670 Fit      -0.017274
 1671 Fit      -0.018640
 1672 Fit      -0.018905
 1673 Fit      -0.016613
 1674 Fit      -0.019335
 1675 Fit      -0.022235
 1676 Fit      -0.023778
 1677 Fit      -0.024405
 1678 Fit      -0.023396
 1679 Fit      -0.019170
 1680 Fit      -0.019787
 1681 Fit      -0.023873
 1682 Fit      -0.025282
 1683 Fit      -0.024394
 1684 Fit      -0.020313
 1685 Fit      -0.020066
 1686 Fit      -0.019921
 1687 Fit       0.022333
 1688 Fit       0.025292
 1689 Fit       0.021647
 1690 Fit       0.018750
 1691 Fit       0.017384
 1692 Fit       0.019279
 1693 Fit       0.016632
 1694 Fit       0.014011
 1695 Fit       0.011943
 1696 Fit       0.010158
 1697 Fit       0.009222
 1698 Fit       0.010555
 1699 Fit       0.006491
 1700 Fit       0.004098
 1701 Fit       0.002001
 1702 Fit      -0.000262
 1703 Fit       0.004204
 1704 Fit       0.004296
 1705 Fit       0.003004
 1706 Fit       0.000839
 1707 Fit       0.000981
 1708 Fit       0.002645
 1709 Fit       0.014125
 1710 Fit       0.008790
 1711 Fit       0.005718
 1712 Fit       0.005951
 1713 Fit       0.004187
 1714 Fit       0.005030
 1715 Fit       0.005193
 1716 Fit       0.002561
 1717 Fit       0.002886
 1718 Fit       0.001830
 1719 Fit       0.000455
 1720 Fit       0.001713
 1721 Fit       0.000946
 1722 Fit       0.002489
 1723 Fit       0.001709
 1724 Fit       0.002500
 1725 Fit       0.003856
 1726 Fit       0.005181
 1727 Fit       0.003023
 1728 Fit       0.003234
 1729 Fit       0.004220
 1730 Fit       0.004669
 1731 Fit       0.004119
 1732 Fit       0.003823
 1733 Fit       0.005445
 1734 Fit       0.005767
 1735 Fit       0.005107
 1736 Fit       0.004219
 1737 Fit       0.004457
 1738 Fit       0.002597
 1739 Fit       0.003353
 1740 Fit       0.001386
 1741 Fit      -0.011215
 1742 Fit      -0.007296
 1743 Fit      -0.021301
 1744 Fit      -0.013086
 1745 Fit      -0.014757
 1746 Fit      -0.009861
 1747 Fit      -0.007783
 1748 Fit      -0.011930
 1749 Fit      -0.009296
 1750 Fit      -0.006607
 1751 Fit      -0.004551
 1752 Fit      -0.004938
 1753 Fit      -0.002563
 1754 Fit       0.002913
 1755 Fit       0.004068
 1756 Fit       0.000245
 1757 Fit       0.001444
 1758 Fit      -0.005890
 1759 Fit      -0.003519
 1760 Fit      -0.000826
 1761 Fit      -0.014754
 1762 Fit      -0.008467
 1763 Fit      -0.004819
 1764 Fit       0.005204
 1765 Fit       0.005358
 1766 Fit       0.007557
 1767 Fit       0.004755
 1768 Fit       0.006433
 1769 Fit       0.006105
 1770 Fit       0.007898
 1771 Fit       0.007520
 1772 Fit       0.004708
 1773 Fit       0.006091
 1774 Fit       0.008497
 1775 Fit       0.003996
 1776 Fit       0.005671
 1777 Fit       0.007468
 1778 Fit       0.003820
 1779 Fit       0.005637
 1780 Fit       0.006396
 1781 Fit       0.004673
 1782 Fit       0.005587
 1783 Fit      -0.006301
 1784 Fit      -0.005849
 1785 Fit      -0.003694
 1786 Fit       0.000847
 1787 Fit       0.001794
 1788 Fit      -0.000902
 1789 Fit       0.000763
 1790 Fit      -0.003073
 1791 Fit      -0.000653
 1792 Fit      -0.001680
 1793 Fit      -0.005156
 1794 Fit      -0.003556
 1795 Fit      -0.002075
 1796 Fit      -0.003022
 1797 Fit      -0.002649
 1798 Fit      -0.001653
 1799 Fit      -0.000969
 1800 Fit      -0.001362
 1801 Fit      -0.000085
 1802 Fit      -0.000959
 1803 Fit      -0.000902
 1804 Fit      -0.000681
 1805 Fit      -0.000360
 1806 Fit      -0.004474
 1807 Fit      -0.008006
 1808 Fit      -0.008071
 1809 Fit       0.004019
 1810 Fit       0.001624
 1811 Fit      -0.000634
 1812 Fit      -0.002068
 1813 Fit      -0.000279
 1814 Fit       0.001487
 1815 Fit       0.001240
 1816 Fit       0.002055
 1817 Fit       0.001133
 1818 Fit       0.002304
 1819 Fit       0.002078
 1820 Fit       0.000969
 1821 Fit       0.003228
 1822 Fit       0.002935
 1823 Fit       0.000728
 1824 Fit       0.004627
 1825 Fit       0.004446
 1826 Fit       0.004446
 1827 Fit       0.007104
 1828 Fit       0.007857
 1829 Fit       0.004460
 1830 Fit       0.005330
 1831 Fit       0.005904
 1832 Fit       0.002190
 1833 Fit       0.001620
 1834 Fit       0.002459
 1835 Fit       0.002354
 1836 Fit       0.002219
 1837 Fit       0.001473
 1838 Fit       0.002488
 1839 Fit       0.002279
 1840 Fit       0.002218
 1841 Fit       0.002797
 1842 Fit       0.003185
 1843 Fit       0.004042
 1844 Fit       0.004230
 1845 Fit       0.001983
 1846 Fit       0.005730
 1847 Fit       0.005458
 1848 Fit       0.005245
 1849 Fit       0.005699
 1850 Fit       0.005035
 1851 Fit       0.004634
 1852 Fit       0.004473
 1853 Fit       0.001533
 1854 Fit       0.005673
 1855 Fit       0.004977
 1856 Fit       0.004626
 1857 Fit       0.004803
 1858 Fit       0.004797
 1859 Fit       0.006188
 1860 Fit       0.005255
 1861 Fit       0.009709
 1862 Fit       0.008836
 1863 Fit       0.009023
 1864 Fit       0.008348
 1865 Fit       0.007452
 1866 Fit       0.007430
 1867 Fit       0.006600
 1868 Fit       0.006875
 1869 Fit       0.005820
 1870 Fit       0.004143
 1871 Fit      -0.002900
 1872 Fit       0.000148
 1873 Fit      -0.002923
 1874 Fit      -0.003168
 1875 Fit       0.003348
 1876 Fit       0.001723
 1877 Fit       0.001532
 1878 Fit      -0.003256
 1879 Fit       0.002314
 1880 Fit       0.000192
 1881 Fit      -0.005117
 1882 Fit       0.000028
 1883 Fit      -0.000535
 1884 Fit      -0.004198
 1885 Fit      -0.012173
 1886 Fit      -0.002110
 1887 Fit      -0.003875
 1888 Fit       0.006389
 1889 Fit       0.005887
 1890 Fit       0.006300
 1891 Fit       0.007181
 1892 Fit       0.006382
 1893 Fit       0.010212
 1894 Fit       0.008063
 1895 Fit       0.006589
 1896 Fit       0.006947
 1897 Fit       0.007613
 1898 Fit       0.007897
 1899 Fit       0.007999
 1900 Fit       0.008208
 1901 Fit       0.007477
 1902 Fit       0.008384
 1903 Fit       0.008839
 1904 Fit       0.008950
 1905 Fit       0.009464
 1906 Fit       0.009963
 1907 Fit       0.008138
 1908 Fit       0.008073
 1909 Fit       0.010944
 1910 Fit       0.010918
 1911 Fit       0.008316
 1912 Fit       0.012436
 1913 Fit       0.016235
 1914 Fit       0.016525
 1915 Fit       0.009065
 1916 Fit       0.006963
 1917 Fit       0.006800
 1918 Fit       0.008718
 1919 Fit       0.008400
 1920 Fit       0.007377
 1921 Fit       0.010918
 1922 Fit       0.012155
 1923 Fit       0.010508
 1924 Fit       0.008907
 1925 Fit       0.005613
 1926 Fit       0.003519
 1927 Fit       0.002376
 1928 Fit       0.003664
 1929 Fit       0.001863
 1930 Fit       0.003291
 1931 Fit      -0.003168
 1932 Fit       0.001126
 1933 Fit       0.003363
 1934 Fit      -0.005780
 1935 Fit       0.000051
 1936 Fit       0.003305
 1937 Fit      -0.011143
 1938 Fit      -0.002552
 1939 Fit       0.001594
 1940 Fit      -0.004008
 1941 Fit      -0.000775
 1942 Fit       0.013501
 1943 Fit       0.017526
 1944 Fit       0.012209
 1945 Fit       0.009730
 1946 Fit       0.013262
 1947 Fit       0.007756
 1948 Fit       0.006448
 1949 Fit       0.006671
 1950 Fit       0.007300
 1951 Fit       0.011947
 1952 Fit       0.015699
 1953 Fit       0.021833
 1954 Fit       0.009323
 1955 Fit       0.009129
 1956 Fit       0.010804
 1957 Fit       0.017742
 1958 Fit       0.007042
 1959 Fit       0.006163
 1960 Fit       0.006666
 1961 Fit       0.005018
 1962 Fit       0.003314
 1963 Fit       0.000392
 1964 Fit      -0.006214
 1965 Fit       0.006076
 1966 Fit       0.004723
 1967 Fit       0.002900
 1968 Fit      -0.000670
 1969 Fit      -0.008627
 1970 Fit       0.004826
 1971 Fit       0.003341
 1972 Fit       0.000122
 1973 Fit      -0.006484
 1974 Fit       0.002923
 1975 Fit      -0.000876
 1976 Fit       0.002672
 1977 Fit      -0.002057
 1978 Fit      -0.001755
 1979 Fit       0.000012
 1980 Fit      -0.000393
 1981 Fit       0.000005
 1982 Fit      -0.000896
 1983 Fit      -0.001925
 1984 Fit      -0.000071
 1985 Fit       0.001093
 1986 Fit       0.002148
 1987 Fit      -0.000724
 1988 Fit      -0.001854
 1989 Fit       0.000124
 1990 Fit       0.001003
 1991 Fit       0.001400
 1992 Fit       0.000399
 1993 Fit      -0.000657
 1994 Fit      -0.000441
 1995 Fit       0.000495
 1996 Fit      -0.008919
 1997 Fit       0.000577
 1998 Fit      -0.007326
 1999 Fit      -0.013695
 2000 Fit      -0.013205
 2001 Fit      -0.007687
 2002 Fit      -0.002818
 2003 Fit      -0.001810
 2004 Fit      -0.001159
 2005 Fit       0.004026
 2006 Fit       0.001069
 2007 Fit      -0.003732
 2008 Fit      -0.003872
 2009 Fit      -0.000716
 2010 Fit       0.001972
 2011 Fit       0.000453
 2012 Fit       0.002147
 2013 Fit       0.001155
 2014 Fit       0.000443
 2015 Fit      -0.000284
 2016 Fit       0.000006
 2017 Fit      -0.000783
 2018 Fit      -0.000691
 2019 Fit       0.000189
 2020 Fit      -0.000427
 2021 Fit      -0.000804
 2022 Fit      -0.000405
 2023 Fit       0.000442
 2024 Fit       0.000730
 2025 Fit      -0.000302
 2026 Fit       0.000279
 2027 Fit       0.001131
 2028 Fit       0.001757
 2029 Fit       0.002084
 2030 Fit       0.000876
 2031 Fit       0.001724
 2032 Fit       0.002445
 2033 Fit       0.002724
 2034 Fit       0.002053
 2035 Fit       0.002370
 2036 Fit       0.001492
 2037 Fit       0.001433
 2038 Fit       0.000305
 2039 Fit       0.001148
 2040 Fit      -0.000247
 2041 Fit       0.000224
 2042 Fit       0.002995
 2043 Fit       0.004600
 2044 Fit       0.001863
 2045 Fit       0.003823
 2046 Fit       0.005985
 2047 Fit       0.001245
 2048 Fit       0.003440
 2049 Fit      -0.000088
 2050 Fit      -0.000429
 2051 Fit      -0.000803
 2052 Fit      -0.000532
 2053 Fit      -0.000666
 2054 Fit      -0.000530
 2055 Fit       0.000182
 2056 Fit       0.000849
 2057 Fit      -0.000377
 2058 Fit      -0.000721
 2059 Fit       0.000222
 2060 Fit       0.001102
 2061 Fit       0.000233
 2062 Fit       0.001832
 2063 Fit       0.001757
 2064 Fit       0.001299
 2065 Fit       0.000698
 2066 Fit      -0.000245
 2067 Fit      -0.000046
 2068 Fit      -0.000163
 2069 Fit      -0.000026
 2070 Fit       0.000657
 2071 Fit       0.000692
 2072 Fit       0.000725
 2073 Fit       0.000860
 2074 Fit       0.001053
 2075 Fit       0.001403
 2076 Fit       0.000996
 2077 Fit       0.000690
 2078 Fit       0.001740
 2079 Fit       0.001654
 2080 Fit       0.002699
 2081 Fit       0.002676
 2082 Fit       0.001640
 2083 Fit       0.000427
 2084 Fit       0.003379
 2085 Fit       0.002904
 2086 Fit       0.001306
 2087 Fit       0.000972
 2088 Fit       0.000814
 2089 Fit       0.001195
 2090 Fit       0.001045
 2091 Fit       0.001253
 2092 Fit       0.001299
 2093 Fit       0.000504
 2094 Fit       0.000192
 2095 Fit       0.000724
 2096 Fit       0.000808
 2097 Fit       0.000861
 2098 Fit       0.000960
 2099 Fit       0.000431
 2100 Fit      -0.000056
 2101 Fit       0.001258
 2102 Fit       0.000147
 2103 Fit      -0.000653
 2104 Fit      -0.000012
 2105 Fit      -0.001012
 2106 Fit      -0.001176
 2107 Fit      -0.001783
 2108 Fit      -0.001127
 2109 Fit      -0.001589
 2110 Fit      -0.001871
 2111 Fit      -0.001383
 2112 Fit      -0.000360
 2113 Fit      -0.001508
 2114 Fit      -0.001576
 2115 Fit      -0.001305
 2116 Fit      -0.000570
 2117 Fit       0.000247
 2118 Fit       0.001611
 2119 Fit      -0.000527
 2120 Fit       0.000291
 2121 Fit       0.001069
 2122 Fit       0.001852
 2123 Fit      -0.001297
 2124 Fit       0.000787
 2125 Fit       0.001465
 2126 Fit       0.001342
 2127 Fit       0.000163
 2128 Fit       0.000568
 2129 Fit       0.000982
 2130 Fit      -0.000356
 2131 Fit       0.001566
 2132 Fit       0.001640
 2133 Fit       0.001173
 2134 Fit      -0.000093
 2135 Fit       0.002324
 2136 Fit       0.001920
 2137 Fit       0.000544
 2138 Fit      -0.000676
 2139 Fit       0.001297
 2140 Fit      -0.000770
 2141 Fit      -0.000295
 2142 Fit       0.001151
 2143 Fit      -0.000146
 2144 Fit       0.001377
 2145 Fit       0.002475
 2146 Fit       0.002174
 2147 Fit      -0.000210
 2148 Fit       0.001364
 2149 Fit       0.002571
 2150 Fit       0.003162
 2151 Fit      -0.000239
 2152 Fit       0.001204
 2153 Fit       0.002285
 2154 Fit       0.000096
 2155 Fit       0.001758
 2156 Fit      -0.000710
 2157 Fit      -0.000494
 2158 Fit      -0.001756
 2159 Fit      -0.002082
 2160 Fit      -0.001696
 2161 Fit      -0.001824
 2162 Fit      -0.002559
 2163 Fit      -0.002103
 2164 Fit      -0.000641
 2165 Fit      -0.001653
 2166 Fit      -0.002277
 2167 Fit      -0.002439
 2168 Fit      -0.002074
 2169 Fit      -0.001554
 2170 Fit      -0.000708
 2171 Fit       0.000344
 2172 Fit       0.001409
 2173 Fit      -0.001519
 2174 Fit       0.000479
 2175 Fit       0.001420
 2176 Fit      -0.000058
 2177 Fit      -0.000288
 2178 Fit       0.001114
 2179 Fit       0.001481
 2180 Fit       0.000534
 2181 Fit       0.002268
 2182 Fit       0.000331
 2183 Fit       0.001537
 2184 Fit       0.001898
 2185 Fit      -0.000652
 2186 Fit       0.000751
 2187 Fit       0.001595
 2188 Fit       0.000627
 2189 Fit      -0.000249
 2190 Fit      -0.001370
 2191 Fit      -0.000032
 2192 Fit       0.000685
 2193 Fit      -0.000991
 2194 Fit      -0.001854
 2195 Fit      -0.000923
 2196 Fit       0.000097
 2197 Fit       0.000955
 2198 Fit      -0.000067
 2199 Fit       0.001626
 2200 Fit       0.001194
 2201 Fit       0.000313
 2202 Fit      -0.001078
 2203 Fit       0.000983
 2204 Fit       0.000804
 2205 Fit       0.000003
 2206 Fit      -0.001380
 2207 Fit      -0.000202
 2208 Fit      -0.000199
 2209 Fit      -0.001025
 2210 Fit      -0.001631
 -----------------------------------------------------------------
 Leave Link  602 at Thu May 18 13:43:21 2017, MaxMem=    33554432 cpu:         3.3
 (Enter /home/michal/g09/l9999.exe)

 Test job not archived.
 1\1\GINC-LINUX\SP\RHF\6-31G(d)\C27H46O2\MICHAL\18-May-2017\0\\#P HF/6-
 31G* SCF(Conver=6) NoSymm Test Pop=mk IOp(6/33=2) GFInput GFPrint\\MEP
  - Input generated by R.E.D.-III.x MOLECULE\\0,1\O,0,0.,0.,0.\H,0,-0.2
 3009152,0.13786481,0.92970546\O,0,-3.04437377,6.48509948,0.\H,0,-3.045
 29589,6.68476922,0.94672665\C,0,4.27467865,1.54730966,-0.41564278\C,0,
 2.84428154,1.06275193,-0.79385794\H,0,2.73879268,1.3002881,-1.86684995
 \C,0,1.69084088,1.80747671,-0.09770866\H,0,1.74259226,1.6349375,0.9874
 1499\C,0,1.80578712,3.33063334,-0.38413626\H,0,1.62744814,3.44346734,-
 1.46625624\C,0,5.13606063,0.57193545,-1.29222075\H,0,5.0426554,0.93457
 08,-2.32852407\C,0,4.34805883,3.04120213,-0.79012529\H,0,4.2576625,3.1
 3463221,-1.88207511\H,0,5.31267911,3.48208641,-0.52025882\C,0,0.688162
 44,4.17938901,0.31634991\C,0,2.92779061,-0.46828691,-0.69593967\H,0,2.
 15788751,-0.96736889,-1.28880747\H,0,2.77585885,-0.79791632,0.33736893
 \C,0,3.232577,3.85887739,-0.11186027\H,0,3.42019541,3.87925277,0.96716
 253\H,0,3.31035396,4.89789563,-0.45083478\C,0,4.36577391,-0.78781011,-
 1.18474434\H,0,4.87505516,-1.46020285,-0.48382521\H,0,4.35079392,-1.30
 447248,-2.14924557\C,0,0.3209262,1.28389412,-0.57171614\H,0,0.3739288,
 1.07418469,-1.64952433\C,0,6.65431036,0.41989912,-1.01015461\H,0,6.761
 06684,0.,0.\C,0,4.58796506,1.34123891,1.08428693\H,0,3.8654936,1.84288
 54,1.73354264\H,0,4.58764175,0.28243777,1.35946594\H,0,5.57640504,1.74
 204861,1.33214294\C,0,-0.67607787,3.51042224,0.11571976\C,0,0.6413388,
 5.59010924,-0.3501326\H,0,0.65183663,5.45512107,-1.44052032\H,0,1.5519
 4884,6.14330756,-0.09719434\C,0,-0.80458273,2.24519799,-0.30996286\H,0
 ,-1.79986287,1.82954951,-0.4672407\C,0,0.95096781,4.33360951,1.8384135
 6\H,0,1.82635244,4.96163806,2.03039544\H,0,0.10302603,4.7990965,2.3475
 4682\H,0,1.11725232,3.3615416,2.31273706\C,0,-1.907741,4.34590267,0.41
 016867\H,0,-2.81304126,3.79767778,0.13161075\H,0,-1.97574376,4.5391653
 3,1.49310546\C,0,-0.58334086,6.44184678,0.01818019\H,0,-0.5690093,6.69
 368915,1.08904887\H,0,-0.55598092,7.39194778,-0.52735189\C,0,7.2709286
 4,-0.59020972,-2.01208348\H,0,6.68778961,-1.51810993,-1.99065563\H,0,7
 .15121871,-0.17982423,-3.02605106\C,0,-1.88394867,5.70606818,-0.302796
 26\H,0,-1.9464788,5.54170699,-1.38543953\C,0,7.42172231,1.75229132,-1.
 05383543\H,0,7.28756209,2.25241503,-2.02146965\H,0,8.49514018,1.596555
 33,-0.90956316\H,0,7.09433939,2.44254688,-0.27342595\C,0,8.7528053,-0.
 96541429,-1.8097905\H,0,9.03171247,-1.63851004,-2.63036253\H,0,9.38668
 358,-0.07848466,-1.92505242\C,0,9.04846847,-1.65149045,-0.46588765\H,0
 ,8.34828728,-2.49037875,-0.33897778\H,0,8.8344177,-0.95286761,0.354029
 4\C,0,10.4872272,-2.18695016,-0.27114224\H,0,10.51260486,-2.6204135,0.
 73969235\C,0,11.54416542,-1.07059927,-0.31002022\H,0,11.62512528,-0.62
 570293,-1.30850196\H,0,12.53351199,-1.46085528,-0.04520182\H,0,11.3026
 1234,-0.26723981,0.39601003\C,0,10.84094111,-3.3165666,-1.25281851\H,0
 ,10.90203899,-2.9535695,-2.28518966\H,0,11.81347617,-3.75688318,-1.004
 65152\H,0,10.0941548,-4.11874657,-1.22366935\\Version=EM64L-G09RevD.01
 \HF=-1198.925782\RMSD=4.842e-07\Dipole=0.5714305,0.4626125,0.7856055\Q
 uadrupole=-4.2277265,-0.6424951,4.8702216,7.4217623,-2.9616748,5.94689
 04\PG=C01 [X(C27H46O2)]\\@


 THE DIFFERENCE BETWEEN A NOOSE AND A HALO IS ONLY 12 INCHES.
 Job cpu time:       0 days  0 hours 10 minutes 53.0 seconds.
 File lengths (MBytes):  RWF=    150 Int=      0 D2E=      0 Chk=     11 Scr=      1
 Normal termination of Gaussian 09 at Thu May 18 13:43:22 2017.
