 Entering Gaussian System, Link 0=/home/michal/g09/g09
 Input=JOB2-gau_m1-9-3.com
 Output=JOB2-gau_m1-9-3.log
 Initial command:
 /home/michal/g09/l1.exe "/home/michal/gauss_scratch/Gau-23206.inp" -scrdir="/home/michal/gauss_scratch/"
 Entering Link 1 = /home/michal/g09/l1.exe PID=     23207.
  
 Copyright (c) 1988,1990,1992,1993,1995,1998,2003,2009,2013,
            Gaussian, Inc.  All Rights Reserved.
  
 This is part of the Gaussian(R) 09 program.  It is based on
 the Gaussian(R) 03 system (copyright 2003, Gaussian, Inc.),
 the Gaussian(R) 98 system (copyright 1998, Gaussian, Inc.),
 the Gaussian(R) 94 system (copyright 1995, Gaussian, Inc.),
 the Gaussian 92(TM) system (copyright 1992, Gaussian, Inc.),
 the Gaussian 90(TM) system (copyright 1990, Gaussian, Inc.),
 the Gaussian 88(TM) system (copyright 1988, Gaussian, Inc.),
 the Gaussian 86(TM) system (copyright 1986, Carnegie Mellon
 University), and the Gaussian 82(TM) system (copyright 1983,
 Carnegie Mellon University). Gaussian is a federally registered
 trademark of Gaussian, Inc.
  
 This software contains proprietary and confidential information,
 including trade secrets, belonging to Gaussian, Inc.
  
 This software is provided under written license and may be
 used, copied, transmitted, or stored only in accord with that
 written license.
  
 The following legend is applicable only to US Government
 contracts under FAR:
  
                    RESTRICTED RIGHTS LEGEND
  
 Use, reproduction and disclosure by the US Government is
 subject to restrictions as set forth in subparagraphs (a)
 and (c) of the Commercial Computer Software - Restricted
 Rights clause in FAR 52.227-19.
  
 Gaussian, Inc.
 340 Quinnipiac St., Bldg. 40, Wallingford CT 06492
  
  
 ---------------------------------------------------------------
 Warning -- This program may not be used in any manner that
 competes with the business of Gaussian, Inc. or will provide
 assistance to any competitor of Gaussian, Inc.  The licensee
 of this program is prohibited from giving any competitor of
 Gaussian, Inc. access to this program.  By using this program,
 the user acknowledges that Gaussian, Inc. is engaged in the
 business of creating and licensing software in the field of
 computational chemistry and represents and warrants to the
 licensee that it is not a competitor of Gaussian, Inc. and that
 it will not use this program in any manner prohibited above.
 ---------------------------------------------------------------
  

 Cite this work as:
 Gaussian 09, Revision D.01,
 M. J. Frisch, G. W. Trucks, H. B. Schlegel, G. E. Scuseria, 
 M. A. Robb, J. R. Cheeseman, G. Scalmani, V. Barone, B. Mennucci, 
 G. A. Petersson, H. Nakatsuji, M. Caricato, X. Li, H. P. Hratchian, 
 A. F. Izmaylov, J. Bloino, G. Zheng, J. L. Sonnenberg, M. Hada, 
 M. Ehara, K. Toyota, R. Fukuda, J. Hasegawa, M. Ishida, T. Nakajima, 
 Y. Honda, O. Kitao, H. Nakai, T. Vreven, J. A. Montgomery, Jr., 
 J. E. Peralta, F. Ogliaro, M. Bearpark, J. J. Heyd, E. Brothers, 
 K. N. Kudin, V. N. Staroverov, T. Keith, R. Kobayashi, J. Normand, 
 K. Raghavachari, A. Rendell, J. C. Burant, S. S. Iyengar, J. Tomasi, 
 M. Cossi, N. Rega, J. M. Millam, M. Klene, J. E. Knox, J. B. Cross, 
 V. Bakken, C. Adamo, J. Jaramillo, R. Gomperts, R. E. Stratmann, 
 O. Yazyev, A. J. Austin, R. Cammi, C. Pomelli, J. W. Ochterski, 
 R. L. Martin, K. Morokuma, V. G. Zakrzewski, G. A. Voth, 
 P. Salvador, J. J. Dannenberg, S. Dapprich, A. D. Daniels, 
 O. Farkas, J. B. Foresman, J. V. Ortiz, J. Cioslowski, 
 and D. J. Fox, Gaussian, Inc., Wallingford CT, 2013.
 
 ******************************************
 Gaussian 09:  EM64L-G09RevD.01 24-Apr-2013
                18-May-2017 
 ******************************************
 %Mem=256MB
 %NProc=12
 Will use up to   12 processors via shared memory.
 ----------------------------------------------------------------------
 #P HF/6-31G* SCF(Conver=6) NoSymm Test Pop=mk IOp(6/33=2) GFInput GFPr
 int
 ----------------------------------------------------------------------
 1/38=1/1;
 2/12=2,15=1,17=6,18=5,40=1/2;
 3/5=1,6=6,7=1,11=9,16=1,24=110,25=1,30=1/1,2,3;
 4//1;
 5/5=2,6=6,38=5/2;
 6/7=2,8=2,9=2,10=2,15=8,20=1,28=1,33=2/1,2;
 99/5=1,9=1/99;
 Leave Link    1 at Thu May 18 12:52:48 2017, MaxMem=    33554432 cpu:         0.6
 (Enter /home/michal/g09/l101.exe)
 ----------------------------------------------
 MEP - Input generated by R.E.D.-III.x MOLECULE
 ----------------------------------------------
 Symbolic Z-matrix:
 Charge =  0 Multiplicity = 1
 O                     5.54341   4.54301   0. 
 H                     5.21145   4.60985  -0.90645 
 O                     0.        0.        0. 
 H                    -0.16055  -0.09468  -0.94943 
 C                     8.7227    1.28711  -0.1648 
 C                     7.69574   2.30309   0.40144 
 H                     7.58104   2.03163   1.46491 
 C                     6.28282   2.18902  -0.19538 
 H                     6.31371   2.4225   -1.26973 
 C                     5.7528    0.73857   0.00607 
 H                     5.62625   0.62123   1.09498 
 C                     9.98063   1.70065   0.66151 
 H                     9.73476   1.39087   1.68777 
 C                     8.19406  -0.12468   0.13688 
 H                     8.1707   -0.26824   1.22688 
 H                     8.86343  -0.89631  -0.2665 
 C                     4.32645   0.51353  -0.60831 
 C                     8.44896   3.64862   0.37731 
 H                     8.05455   4.35517   1.11142 
 H                     8.34249   4.13502  -0.59794 
 C                     6.77909  -0.3343   -0.43674 
 H                     6.84227  -0.35869  -1.52957 
 H                     6.42302  -1.32504  -0.13379 
 C                     9.9351    3.26004   0.65051 
 H                     10.58432   3.67413  -0.12603 
 H                     10.29259   3.66936   1.60127 
 C                     5.31582   3.19528   0.45714 
 H                     5.53599   3.25321   1.53265 
 C                     11.34429   1.01581   0.348 
 H                     11.10889   0.        0. 
 C                     8.94838   1.45864  -1.68331 
 H                     8.0282    1.31577  -2.25583 
 H                     9.33007   2.45214  -1.93403 
 H                     9.67203   0.72236  -2.04803 
 C                     3.40553   1.6792   -0.23007 
 C                     3.72492  -0.79618  -0.00869 
 H                     3.87722  -0.77724   1.07934 
 H                     4.28326  -1.6596   -0.38532 
 C                     3.86906   2.83504   0.26764 
 H                     3.16635   3.6187    0.55075 
 C                     4.37766   0.39961  -2.15566 
 H                     4.87276  -0.5236   -2.47207 
 H                     3.37526   0.39258  -2.59156 
 H                     4.91486   1.24425  -2.59775 
 C                     1.91514   1.47777  -0.43011 
 H                     1.36046   2.33242  -0.03063 
 H                     1.68739   1.42848  -1.50731 
 C                     2.22778  -1.00805  -0.28203 
 H                     2.04885  -1.14565  -1.35881 
 H                     1.88339  -1.92362   0.21211 
 C                     12.20134   1.70724  -0.74089 
 H                     11.56661   2.04775  -1.56576 
 H                     12.64312   2.61451  -0.3073 
 C                     1.40281   0.17996   0.21177 
 H                     1.50156   0.25859   1.30132 
 C                     12.15894   0.86765   1.64976 
 H                     12.36917   1.84995   2.09117 
 H                     13.11919   0.3703    1.48007 
 H                     11.61119   0.27868   2.39378 
 C                     13.34037   0.8534   -1.33779 
 H                     13.9845   1.52167  -1.9229 
 H                     13.97146   0.45884  -0.5325 
 C                     12.86    -0.29676  -2.23926 
 H                     12.22096   0.12342  -3.02968 
 H                     12.21946  -0.97435  -1.65911 
 C                     13.96347  -1.14815  -2.91186 
 H                     13.43553  -1.90578  -3.50994 
 C                     14.83232  -1.90431  -1.89294 
 H                     15.44332  -1.21877  -1.29459 
 H                     15.51721  -2.59328  -2.40035 
 H                     14.21688  -2.49342  -1.20279 
 C                     14.83405  -0.33479  -3.88416 
 H                     15.44998   0.40297  -3.35731 
 H                     15.51462  -0.99107  -4.43856 
 H                     14.21944   0.20326  -4.61552 
 
 NAtoms=     75 NQM=       75 NQMF=       0 NMMI=      0 NMMIF=      0
                NMic=       0 NMicF=      0.
                    Isotopes and Nuclear Properties:
 (Nuclear quadrupole moments (NQMom) in fm**2, nuclear magnetic moments (NMagM)
  in nuclear magnetons)

  Atom         1           2           3           4           5           6           7           8           9          10
 IAtWgt=          16           1          16           1          12          12           1          12           1          12
 AtmWgt=  15.9949146   1.0078250  15.9949146   1.0078250  12.0000000  12.0000000   1.0078250  12.0000000   1.0078250  12.0000000
 NucSpn=           0           1           0           1           0           0           1           0           1           0
 AtZEff=   0.0000000   0.0000000   0.0000000   0.0000000   0.0000000   0.0000000   0.0000000   0.0000000   0.0000000   0.0000000
 NQMom=    0.0000000   0.0000000   0.0000000   0.0000000   0.0000000   0.0000000   0.0000000   0.0000000   0.0000000   0.0000000
 NMagM=    0.0000000   2.7928460   0.0000000   2.7928460   0.0000000   0.0000000   2.7928460   0.0000000   2.7928460   0.0000000
 AtZNuc=   8.0000000   1.0000000   8.0000000   1.0000000   6.0000000   6.0000000   1.0000000   6.0000000   1.0000000   6.0000000

  Atom        11          12          13          14          15          16          17          18          19          20
 IAtWgt=           1          12           1          12           1           1          12          12           1           1
 AtmWgt=   1.0078250  12.0000000   1.0078250  12.0000000   1.0078250   1.0078250  12.0000000  12.0000000   1.0078250   1.0078250
 NucSpn=           1           0           1           0           1           1           0           0           1           1
 AtZEff=   0.0000000   0.0000000   0.0000000   0.0000000   0.0000000   0.0000000   0.0000000   0.0000000   0.0000000   0.0000000
 NQMom=    0.0000000   0.0000000   0.0000000   0.0000000   0.0000000   0.0000000   0.0000000   0.0000000   0.0000000   0.0000000
 NMagM=    2.7928460   0.0000000   2.7928460   0.0000000   2.7928460   2.7928460   0.0000000   0.0000000   2.7928460   2.7928460
 AtZNuc=   1.0000000   6.0000000   1.0000000   6.0000000   1.0000000   1.0000000   6.0000000   6.0000000   1.0000000   1.0000000

  Atom        21          22          23          24          25          26          27          28          29          30
 IAtWgt=          12           1           1          12           1           1          12           1          12           1
 AtmWgt=  12.0000000   1.0078250   1.0078250  12.0000000   1.0078250   1.0078250  12.0000000   1.0078250  12.0000000   1.0078250
 NucSpn=           0           1           1           0           1           1           0           1           0           1
 AtZEff=   0.0000000   0.0000000   0.0000000   0.0000000   0.0000000   0.0000000   0.0000000   0.0000000   0.0000000   0.0000000
 NQMom=    0.0000000   0.0000000   0.0000000   0.0000000   0.0000000   0.0000000   0.0000000   0.0000000   0.0000000   0.0000000
 NMagM=    0.0000000   2.7928460   2.7928460   0.0000000   2.7928460   2.7928460   0.0000000   2.7928460   0.0000000   2.7928460
 AtZNuc=   6.0000000   1.0000000   1.0000000   6.0000000   1.0000000   1.0000000   6.0000000   1.0000000   6.0000000   1.0000000

  Atom        31          32          33          34          35          36          37          38          39          40
 IAtWgt=          12           1           1           1          12          12           1           1          12           1
 AtmWgt=  12.0000000   1.0078250   1.0078250   1.0078250  12.0000000  12.0000000   1.0078250   1.0078250  12.0000000   1.0078250
 NucSpn=           0           1           1           1           0           0           1           1           0           1
 AtZEff=   0.0000000   0.0000000   0.0000000   0.0000000   0.0000000   0.0000000   0.0000000   0.0000000   0.0000000   0.0000000
 NQMom=    0.0000000   0.0000000   0.0000000   0.0000000   0.0000000   0.0000000   0.0000000   0.0000000   0.0000000   0.0000000
 NMagM=    0.0000000   2.7928460   2.7928460   2.7928460   0.0000000   0.0000000   2.7928460   2.7928460   0.0000000   2.7928460
 AtZNuc=   6.0000000   1.0000000   1.0000000   1.0000000   6.0000000   6.0000000   1.0000000   1.0000000   6.0000000   1.0000000

  Atom        41          42          43          44          45          46          47          48          49          50
 IAtWgt=          12           1           1           1          12           1           1          12           1           1
 AtmWgt=  12.0000000   1.0078250   1.0078250   1.0078250  12.0000000   1.0078250   1.0078250  12.0000000   1.0078250   1.0078250
 NucSpn=           0           1           1           1           0           1           1           0           1           1
 AtZEff=   0.0000000   0.0000000   0.0000000   0.0000000   0.0000000   0.0000000   0.0000000   0.0000000   0.0000000   0.0000000
 NQMom=    0.0000000   0.0000000   0.0000000   0.0000000   0.0000000   0.0000000   0.0000000   0.0000000   0.0000000   0.0000000
 NMagM=    0.0000000   2.7928460   2.7928460   2.7928460   0.0000000   2.7928460   2.7928460   0.0000000   2.7928460   2.7928460
 AtZNuc=   6.0000000   1.0000000   1.0000000   1.0000000   6.0000000   1.0000000   1.0000000   6.0000000   1.0000000   1.0000000

  Atom        51          52          53          54          55          56          57          58          59          60
 IAtWgt=          12           1           1          12           1          12           1           1           1          12
 AtmWgt=  12.0000000   1.0078250   1.0078250  12.0000000   1.0078250  12.0000000   1.0078250   1.0078250   1.0078250  12.0000000
 NucSpn=           0           1           1           0           1           0           1           1           1           0
 AtZEff=   0.0000000   0.0000000   0.0000000   0.0000000   0.0000000   0.0000000   0.0000000   0.0000000   0.0000000   0.0000000
 NQMom=    0.0000000   0.0000000   0.0000000   0.0000000   0.0000000   0.0000000   0.0000000   0.0000000   0.0000000   0.0000000
 NMagM=    0.0000000   2.7928460   2.7928460   0.0000000   2.7928460   0.0000000   2.7928460   2.7928460   2.7928460   0.0000000
 AtZNuc=   6.0000000   1.0000000   1.0000000   6.0000000   1.0000000   6.0000000   1.0000000   1.0000000   1.0000000   6.0000000

  Atom        61          62          63          64          65          66          67          68          69          70
 IAtWgt=           1           1          12           1           1          12           1          12           1           1
 AtmWgt=   1.0078250   1.0078250  12.0000000   1.0078250   1.0078250  12.0000000   1.0078250  12.0000000   1.0078250   1.0078250
 NucSpn=           1           1           0           1           1           0           1           0           1           1
 AtZEff=   0.0000000   0.0000000   0.0000000   0.0000000   0.0000000   0.0000000   0.0000000   0.0000000   0.0000000   0.0000000
 NQMom=    0.0000000   0.0000000   0.0000000   0.0000000   0.0000000   0.0000000   0.0000000   0.0000000   0.0000000   0.0000000
 NMagM=    2.7928460   2.7928460   0.0000000   2.7928460   2.7928460   0.0000000   2.7928460   0.0000000   2.7928460   2.7928460
 AtZNuc=   1.0000000   1.0000000   6.0000000   1.0000000   1.0000000   6.0000000   1.0000000   6.0000000   1.0000000   1.0000000

  Atom        71          72          73          74          75
 IAtWgt=           1          12           1           1           1
 AtmWgt=   1.0078250  12.0000000   1.0078250   1.0078250   1.0078250
 NucSpn=           1           0           1           1           1
 AtZEff=   0.0000000   0.0000000   0.0000000   0.0000000   0.0000000
 NQMom=    0.0000000   0.0000000   0.0000000   0.0000000   0.0000000
 NMagM=    2.7928460   0.0000000   2.7928460   2.7928460   2.7928460
 AtZNuc=   1.0000000   6.0000000   1.0000000   1.0000000   1.0000000
 Leave Link  101 at Thu May 18 12:52:48 2017, MaxMem=    33554432 cpu:         1.0
 (Enter /home/michal/g09/l202.exe)
 Symmetry turned off by external request.
 Stoichiometry    C27H46O2
 Framework group  C1[X(C27H46O2)]
 Deg. of freedom   219
 Full point group                 C1      NOp   1
                          Input orientation:                          
 ---------------------------------------------------------------------
 Center     Atomic      Atomic             Coordinates (Angstroms)
 Number     Number       Type             X           Y           Z
 ---------------------------------------------------------------------
      1          8           0        5.543410    4.543007    0.000000
      2          1           0        5.211448    4.609852   -0.906449
      3          8           0        0.000000    0.000000    0.000000
      4          1           0       -0.160548   -0.094677   -0.949434
      5          6           0        8.722704    1.287109   -0.164803
      6          6           0        7.695743    2.303091    0.401443
      7          1           0        7.581035    2.031627    1.464909
      8          6           0        6.282821    2.189019   -0.195383
      9          1           0        6.313709    2.422504   -1.269725
     10          6           0        5.752798    0.738575    0.006068
     11          1           0        5.626251    0.621227    1.094978
     12          6           0        9.980631    1.700653    0.661507
     13          1           0        9.734759    1.390870    1.687772
     14          6           0        8.194060   -0.124680    0.136876
     15          1           0        8.170697   -0.268243    1.226878
     16          1           0        8.863435   -0.896311   -0.266501
     17          6           0        4.326446    0.513532   -0.608309
     18          6           0        8.448959    3.648617    0.377313
     19          1           0        8.054547    4.355169    1.111423
     20          1           0        8.342487    4.135020   -0.597939
     21          6           0        6.779091   -0.334300   -0.436740
     22          1           0        6.842272   -0.358690   -1.529571
     23          1           0        6.423019   -1.325039   -0.133791
     24          6           0        9.935095    3.260044    0.650512
     25          1           0       10.584315    3.674126   -0.126030
     26          1           0       10.292590    3.669363    1.601271
     27          6           0        5.315824    3.195278    0.457138
     28          1           0        5.535989    3.253210    1.532649
     29          6           0       11.344287    1.015807    0.347996
     30          1           0       11.108888    0.000000    0.000000
     31          6           0        8.948385    1.458637   -1.683314
     32          1           0        8.028195    1.315773   -2.255835
     33          1           0        9.330071    2.452137   -1.934027
     34          1           0        9.672034    0.722364   -2.048030
     35          6           0        3.405532    1.679200   -0.230071
     36          6           0        3.724915   -0.796177   -0.008687
     37          1           0        3.877220   -0.777245    1.079338
     38          1           0        4.283258   -1.659599   -0.385322
     39          6           0        3.869065    2.835043    0.267644
     40          1           0        3.166353    3.618695    0.550755
     41          6           0        4.377658    0.399613   -2.155656
     42          1           0        4.872762   -0.523605   -2.472068
     43          1           0        3.375265    0.392584   -2.591561
     44          1           0        4.914859    1.244246   -2.597752
     45          6           0        1.915143    1.477771   -0.430105
     46          1           0        1.360456    2.332420   -0.030632
     47          1           0        1.687385    1.428475   -1.507306
     48          6           0        2.227777   -1.008053   -0.282025
     49          1           0        2.048847   -1.145648   -1.358813
     50          1           0        1.883392   -1.923623    0.212112
     51          6           0       12.201341    1.707236   -0.740894
     52          1           0       11.566610    2.047747   -1.565755
     53          1           0       12.643119    2.614508   -0.307304
     54          6           0        1.402814    0.179961    0.211768
     55          1           0        1.501559    0.258587    1.301317
     56          6           0       12.158942    0.867653    1.649764
     57          1           0       12.369173    1.849951    2.091175
     58          1           0       13.119186    0.370304    1.480071
     59          1           0       11.611186    0.278681    2.393783
     60          6           0       13.340368    0.853400   -1.337793
     61          1           0       13.984505    1.521670   -1.922896
     62          1           0       13.971460    0.458836   -0.532498
     63          6           0       12.860004   -0.296757   -2.239259
     64          1           0       12.220959    0.123419   -3.029679
     65          1           0       12.219461   -0.974346   -1.659114
     66          6           0       13.963471   -1.148151   -2.911856
     67          1           0       13.435530   -1.905785   -3.509936
     68          6           0       14.832323   -1.904312   -1.892939
     69          1           0       15.443318   -1.218772   -1.294594
     70          1           0       15.517209   -2.593281   -2.400347
     71          1           0       14.216883   -2.493424   -1.202792
     72          6           0       14.834046   -0.334795   -3.884158
     73          1           0       15.449977    0.402965   -3.357311
     74          1           0       15.514617   -0.991065   -4.438560
     75          1           0       14.219437    0.203260   -4.615516
 ---------------------------------------------------------------------
 Rotational constants (GHZ):      0.3341632      0.0635551      0.0579594
 Leave Link  202 at Thu May 18 12:52:48 2017, MaxMem=    33554432 cpu:         0.0
 (Enter /home/michal/g09/l301.exe)
 Standard basis: 6-31G(d) (6D, 7F)
 Ernie: Thresh=  0.10000D-02 Tol=  0.10000D-05 Strict=F.
 AO basis set in the form of general basis input (Overlap normalization):
      1 0
 S   6 1.00       0.000000000000
      0.5484671660D+04  0.1831074430D-02
      0.8252349460D+03  0.1395017220D-01
      0.1880469580D+03  0.6844507810D-01
      0.5296450000D+02  0.2327143360D+00
      0.1689757040D+02  0.4701928980D+00
      0.5799635340D+01  0.3585208530D+00
 SP   3 1.00       0.000000000000
      0.1553961625D+02 -0.1107775495D+00  0.7087426823D-01
      0.3599933586D+01 -0.1480262627D+00  0.3397528391D+00
      0.1013761750D+01  0.1130767015D+01  0.7271585773D+00
 SP   1 1.00       0.000000000000
      0.2700058226D+00  0.1000000000D+01  0.1000000000D+01
 D   1 1.00       0.000000000000
      0.8000000000D+00  0.1000000000D+01
 ****
      2 0
 S   3 1.00       0.000000000000
      0.1873113696D+02  0.3349460434D-01
      0.2825394365D+01  0.2347269535D+00
      0.6401216923D+00  0.8137573261D+00
 S   1 1.00       0.000000000000
      0.1612777588D+00  0.1000000000D+01
 ****
      3 0
 S   6 1.00       0.000000000000
      0.5484671660D+04  0.1831074430D-02
      0.8252349460D+03  0.1395017220D-01
      0.1880469580D+03  0.6844507810D-01
      0.5296450000D+02  0.2327143360D+00
      0.1689757040D+02  0.4701928980D+00
      0.5799635340D+01  0.3585208530D+00
 SP   3 1.00       0.000000000000
      0.1553961625D+02 -0.1107775495D+00  0.7087426823D-01
      0.3599933586D+01 -0.1480262627D+00  0.3397528391D+00
      0.1013761750D+01  0.1130767015D+01  0.7271585773D+00
 SP   1 1.00       0.000000000000
      0.2700058226D+00  0.1000000000D+01  0.1000000000D+01
 D   1 1.00       0.000000000000
      0.8000000000D+00  0.1000000000D+01
 ****
      4 0
 S   3 1.00       0.000000000000
      0.1873113696D+02  0.3349460434D-01
      0.2825394365D+01  0.2347269535D+00
      0.6401216923D+00  0.8137573261D+00
 S   1 1.00       0.000000000000
      0.1612777588D+00  0.1000000000D+01
 ****
      5 0
 S   6 1.00       0.000000000000
      0.3047524880D+04  0.1834737132D-02
      0.4573695180D+03  0.1403732281D-01
      0.1039486850D+03  0.6884262226D-01
      0.2921015530D+02  0.2321844432D+00
      0.9286662960D+01  0.4679413484D+00
      0.3163926960D+01  0.3623119853D+00
 SP   3 1.00       0.000000000000
      0.7868272350D+01 -0.1193324198D+00  0.6899906659D-01
      0.1881288540D+01 -0.1608541517D+00  0.3164239610D+00
      0.5442492580D+00  0.1143456438D+01  0.7443082909D+00
 SP   1 1.00       0.000000000000
      0.1687144782D+00  0.1000000000D+01  0.1000000000D+01
 D   1 1.00       0.000000000000
      0.8000000000D+00  0.1000000000D+01
 ****
      6 0
 S   6 1.00       0.000000000000
      0.3047524880D+04  0.1834737132D-02
      0.4573695180D+03  0.1403732281D-01
      0.1039486850D+03  0.6884262226D-01
      0.2921015530D+02  0.2321844432D+00
      0.9286662960D+01  0.4679413484D+00
      0.3163926960D+01  0.3623119853D+00
 SP   3 1.00       0.000000000000
      0.7868272350D+01 -0.1193324198D+00  0.6899906659D-01
      0.1881288540D+01 -0.1608541517D+00  0.3164239610D+00
      0.5442492580D+00  0.1143456438D+01  0.7443082909D+00
 SP   1 1.00       0.000000000000
      0.1687144782D+00  0.1000000000D+01  0.1000000000D+01
 D   1 1.00       0.000000000000
      0.8000000000D+00  0.1000000000D+01
 ****
      7 0
 S   3 1.00       0.000000000000
      0.1873113696D+02  0.3349460434D-01
      0.2825394365D+01  0.2347269535D+00
      0.6401216923D+00  0.8137573261D+00
 S   1 1.00       0.000000000000
      0.1612777588D+00  0.1000000000D+01
 ****
      8 0
 S   6 1.00       0.000000000000
      0.3047524880D+04  0.1834737132D-02
      0.4573695180D+03  0.1403732281D-01
      0.1039486850D+03  0.6884262226D-01
      0.2921015530D+02  0.2321844432D+00
      0.9286662960D+01  0.4679413484D+00
      0.3163926960D+01  0.3623119853D+00
 SP   3 1.00       0.000000000000
      0.7868272350D+01 -0.1193324198D+00  0.6899906659D-01
      0.1881288540D+01 -0.1608541517D+00  0.3164239610D+00
      0.5442492580D+00  0.1143456438D+01  0.7443082909D+00
 SP   1 1.00       0.000000000000
      0.1687144782D+00  0.1000000000D+01  0.1000000000D+01
 D   1 1.00       0.000000000000
      0.8000000000D+00  0.1000000000D+01
 ****
      9 0
 S   3 1.00       0.000000000000
      0.1873113696D+02  0.3349460434D-01
      0.2825394365D+01  0.2347269535D+00
      0.6401216923D+00  0.8137573261D+00
 S   1 1.00       0.000000000000
      0.1612777588D+00  0.1000000000D+01
 ****
     10 0
 S   6 1.00       0.000000000000
      0.3047524880D+04  0.1834737132D-02
      0.4573695180D+03  0.1403732281D-01
      0.1039486850D+03  0.6884262226D-01
      0.2921015530D+02  0.2321844432D+00
      0.9286662960D+01  0.4679413484D+00
      0.3163926960D+01  0.3623119853D+00
 SP   3 1.00       0.000000000000
      0.7868272350D+01 -0.1193324198D+00  0.6899906659D-01
      0.1881288540D+01 -0.1608541517D+00  0.3164239610D+00
      0.5442492580D+00  0.1143456438D+01  0.7443082909D+00
 SP   1 1.00       0.000000000000
      0.1687144782D+00  0.1000000000D+01  0.1000000000D+01
 D   1 1.00       0.000000000000
      0.8000000000D+00  0.1000000000D+01
 ****
     11 0
 S   3 1.00       0.000000000000
      0.1873113696D+02  0.3349460434D-01
      0.2825394365D+01  0.2347269535D+00
      0.6401216923D+00  0.8137573261D+00
 S   1 1.00       0.000000000000
      0.1612777588D+00  0.1000000000D+01
 ****
     12 0
 S   6 1.00       0.000000000000
      0.3047524880D+04  0.1834737132D-02
      0.4573695180D+03  0.1403732281D-01
      0.1039486850D+03  0.6884262226D-01
      0.2921015530D+02  0.2321844432D+00
      0.9286662960D+01  0.4679413484D+00
      0.3163926960D+01  0.3623119853D+00
 SP   3 1.00       0.000000000000
      0.7868272350D+01 -0.1193324198D+00  0.6899906659D-01
      0.1881288540D+01 -0.1608541517D+00  0.3164239610D+00
      0.5442492580D+00  0.1143456438D+01  0.7443082909D+00
 SP   1 1.00       0.000000000000
      0.1687144782D+00  0.1000000000D+01  0.1000000000D+01
 D   1 1.00       0.000000000000
      0.8000000000D+00  0.1000000000D+01
 ****
     13 0
 S   3 1.00       0.000000000000
      0.1873113696D+02  0.3349460434D-01
      0.2825394365D+01  0.2347269535D+00
      0.6401216923D+00  0.8137573261D+00
 S   1 1.00       0.000000000000
      0.1612777588D+00  0.1000000000D+01
 ****
     14 0
 S   6 1.00       0.000000000000
      0.3047524880D+04  0.1834737132D-02
      0.4573695180D+03  0.1403732281D-01
      0.1039486850D+03  0.6884262226D-01
      0.2921015530D+02  0.2321844432D+00
      0.9286662960D+01  0.4679413484D+00
      0.3163926960D+01  0.3623119853D+00
 SP   3 1.00       0.000000000000
      0.7868272350D+01 -0.1193324198D+00  0.6899906659D-01
      0.1881288540D+01 -0.1608541517D+00  0.3164239610D+00
      0.5442492580D+00  0.1143456438D+01  0.7443082909D+00
 SP   1 1.00       0.000000000000
      0.1687144782D+00  0.1000000000D+01  0.1000000000D+01
 D   1 1.00       0.000000000000
      0.8000000000D+00  0.1000000000D+01
 ****
     15 0
 S   3 1.00       0.000000000000
      0.1873113696D+02  0.3349460434D-01
      0.2825394365D+01  0.2347269535D+00
      0.6401216923D+00  0.8137573261D+00
 S   1 1.00       0.000000000000
      0.1612777588D+00  0.1000000000D+01
 ****
     16 0
 S   3 1.00       0.000000000000
      0.1873113696D+02  0.3349460434D-01
      0.2825394365D+01  0.2347269535D+00
      0.6401216923D+00  0.8137573261D+00
 S   1 1.00       0.000000000000
      0.1612777588D+00  0.1000000000D+01
 ****
     17 0
 S   6 1.00       0.000000000000
      0.3047524880D+04  0.1834737132D-02
      0.4573695180D+03  0.1403732281D-01
      0.1039486850D+03  0.6884262226D-01
      0.2921015530D+02  0.2321844432D+00
      0.9286662960D+01  0.4679413484D+00
      0.3163926960D+01  0.3623119853D+00
 SP   3 1.00       0.000000000000
      0.7868272350D+01 -0.1193324198D+00  0.6899906659D-01
      0.1881288540D+01 -0.1608541517D+00  0.3164239610D+00
      0.5442492580D+00  0.1143456438D+01  0.7443082909D+00
 SP   1 1.00       0.000000000000
      0.1687144782D+00  0.1000000000D+01  0.1000000000D+01
 D   1 1.00       0.000000000000
      0.8000000000D+00  0.1000000000D+01
 ****
     18 0
 S   6 1.00       0.000000000000
      0.3047524880D+04  0.1834737132D-02
      0.4573695180D+03  0.1403732281D-01
      0.1039486850D+03  0.6884262226D-01
      0.2921015530D+02  0.2321844432D+00
      0.9286662960D+01  0.4679413484D+00
      0.3163926960D+01  0.3623119853D+00
 SP   3 1.00       0.000000000000
      0.7868272350D+01 -0.1193324198D+00  0.6899906659D-01
      0.1881288540D+01 -0.1608541517D+00  0.3164239610D+00
      0.5442492580D+00  0.1143456438D+01  0.7443082909D+00
 SP   1 1.00       0.000000000000
      0.1687144782D+00  0.1000000000D+01  0.1000000000D+01
 D   1 1.00       0.000000000000
      0.8000000000D+00  0.1000000000D+01
 ****
     19 0
 S   3 1.00       0.000000000000
      0.1873113696D+02  0.3349460434D-01
      0.2825394365D+01  0.2347269535D+00
      0.6401216923D+00  0.8137573261D+00
 S   1 1.00       0.000000000000
      0.1612777588D+00  0.1000000000D+01
 ****
     20 0
 S   3 1.00       0.000000000000
      0.1873113696D+02  0.3349460434D-01
      0.2825394365D+01  0.2347269535D+00
      0.6401216923D+00  0.8137573261D+00
 S   1 1.00       0.000000000000
      0.1612777588D+00  0.1000000000D+01
 ****
     21 0
 S   6 1.00       0.000000000000
      0.3047524880D+04  0.1834737132D-02
      0.4573695180D+03  0.1403732281D-01
      0.1039486850D+03  0.6884262226D-01
      0.2921015530D+02  0.2321844432D+00
      0.9286662960D+01  0.4679413484D+00
      0.3163926960D+01  0.3623119853D+00
 SP   3 1.00       0.000000000000
      0.7868272350D+01 -0.1193324198D+00  0.6899906659D-01
      0.1881288540D+01 -0.1608541517D+00  0.3164239610D+00
      0.5442492580D+00  0.1143456438D+01  0.7443082909D+00
 SP   1 1.00       0.000000000000
      0.1687144782D+00  0.1000000000D+01  0.1000000000D+01
 D   1 1.00       0.000000000000
      0.8000000000D+00  0.1000000000D+01
 ****
     22 0
 S   3 1.00       0.000000000000
      0.1873113696D+02  0.3349460434D-01
      0.2825394365D+01  0.2347269535D+00
      0.6401216923D+00  0.8137573261D+00
 S   1 1.00       0.000000000000
      0.1612777588D+00  0.1000000000D+01
 ****
     23 0
 S   3 1.00       0.000000000000
      0.1873113696D+02  0.3349460434D-01
      0.2825394365D+01  0.2347269535D+00
      0.6401216923D+00  0.8137573261D+00
 S   1 1.00       0.000000000000
      0.1612777588D+00  0.1000000000D+01
 ****
     24 0
 S   6 1.00       0.000000000000
      0.3047524880D+04  0.1834737132D-02
      0.4573695180D+03  0.1403732281D-01
      0.1039486850D+03  0.6884262226D-01
      0.2921015530D+02  0.2321844432D+00
      0.9286662960D+01  0.4679413484D+00
      0.3163926960D+01  0.3623119853D+00
 SP   3 1.00       0.000000000000
      0.7868272350D+01 -0.1193324198D+00  0.6899906659D-01
      0.1881288540D+01 -0.1608541517D+00  0.3164239610D+00
      0.5442492580D+00  0.1143456438D+01  0.7443082909D+00
 SP   1 1.00       0.000000000000
      0.1687144782D+00  0.1000000000D+01  0.1000000000D+01
 D   1 1.00       0.000000000000
      0.8000000000D+00  0.1000000000D+01
 ****
     25 0
 S   3 1.00       0.000000000000
      0.1873113696D+02  0.3349460434D-01
      0.2825394365D+01  0.2347269535D+00
      0.6401216923D+00  0.8137573261D+00
 S   1 1.00       0.000000000000
      0.1612777588D+00  0.1000000000D+01
 ****
     26 0
 S   3 1.00       0.000000000000
      0.1873113696D+02  0.3349460434D-01
      0.2825394365D+01  0.2347269535D+00
      0.6401216923D+00  0.8137573261D+00
 S   1 1.00       0.000000000000
      0.1612777588D+00  0.1000000000D+01
 ****
     27 0
 S   6 1.00       0.000000000000
      0.3047524880D+04  0.1834737132D-02
      0.4573695180D+03  0.1403732281D-01
      0.1039486850D+03  0.6884262226D-01
      0.2921015530D+02  0.2321844432D+00
      0.9286662960D+01  0.4679413484D+00
      0.3163926960D+01  0.3623119853D+00
 SP   3 1.00       0.000000000000
      0.7868272350D+01 -0.1193324198D+00  0.6899906659D-01
      0.1881288540D+01 -0.1608541517D+00  0.3164239610D+00
      0.5442492580D+00  0.1143456438D+01  0.7443082909D+00
 SP   1 1.00       0.000000000000
      0.1687144782D+00  0.1000000000D+01  0.1000000000D+01
 D   1 1.00       0.000000000000
      0.8000000000D+00  0.1000000000D+01
 ****
     28 0
 S   3 1.00       0.000000000000
      0.1873113696D+02  0.3349460434D-01
      0.2825394365D+01  0.2347269535D+00
      0.6401216923D+00  0.8137573261D+00
 S   1 1.00       0.000000000000
      0.1612777588D+00  0.1000000000D+01
 ****
     29 0
 S   6 1.00       0.000000000000
      0.3047524880D+04  0.1834737132D-02
      0.4573695180D+03  0.1403732281D-01
      0.1039486850D+03  0.6884262226D-01
      0.2921015530D+02  0.2321844432D+00
      0.9286662960D+01  0.4679413484D+00
      0.3163926960D+01  0.3623119853D+00
 SP   3 1.00       0.000000000000
      0.7868272350D+01 -0.1193324198D+00  0.6899906659D-01
      0.1881288540D+01 -0.1608541517D+00  0.3164239610D+00
      0.5442492580D+00  0.1143456438D+01  0.7443082909D+00
 SP   1 1.00       0.000000000000
      0.1687144782D+00  0.1000000000D+01  0.1000000000D+01
 D   1 1.00       0.000000000000
      0.8000000000D+00  0.1000000000D+01
 ****
     30 0
 S   3 1.00       0.000000000000
      0.1873113696D+02  0.3349460434D-01
      0.2825394365D+01  0.2347269535D+00
      0.6401216923D+00  0.8137573261D+00
 S   1 1.00       0.000000000000
      0.1612777588D+00  0.1000000000D+01
 ****
     31 0
 S   6 1.00       0.000000000000
      0.3047524880D+04  0.1834737132D-02
      0.4573695180D+03  0.1403732281D-01
      0.1039486850D+03  0.6884262226D-01
      0.2921015530D+02  0.2321844432D+00
      0.9286662960D+01  0.4679413484D+00
      0.3163926960D+01  0.3623119853D+00
 SP   3 1.00       0.000000000000
      0.7868272350D+01 -0.1193324198D+00  0.6899906659D-01
      0.1881288540D+01 -0.1608541517D+00  0.3164239610D+00
      0.5442492580D+00  0.1143456438D+01  0.7443082909D+00
 SP   1 1.00       0.000000000000
      0.1687144782D+00  0.1000000000D+01  0.1000000000D+01
 D   1 1.00       0.000000000000
      0.8000000000D+00  0.1000000000D+01
 ****
     32 0
 S   3 1.00       0.000000000000
      0.1873113696D+02  0.3349460434D-01
      0.2825394365D+01  0.2347269535D+00
      0.6401216923D+00  0.8137573261D+00
 S   1 1.00       0.000000000000
      0.1612777588D+00  0.1000000000D+01
 ****
     33 0
 S   3 1.00       0.000000000000
      0.1873113696D+02  0.3349460434D-01
      0.2825394365D+01  0.2347269535D+00
      0.6401216923D+00  0.8137573261D+00
 S   1 1.00       0.000000000000
      0.1612777588D+00  0.1000000000D+01
 ****
     34 0
 S   3 1.00       0.000000000000
      0.1873113696D+02  0.3349460434D-01
      0.2825394365D+01  0.2347269535D+00
      0.6401216923D+00  0.8137573261D+00
 S   1 1.00       0.000000000000
      0.1612777588D+00  0.1000000000D+01
 ****
     35 0
 S   6 1.00       0.000000000000
      0.3047524880D+04  0.1834737132D-02
      0.4573695180D+03  0.1403732281D-01
      0.1039486850D+03  0.6884262226D-01
      0.2921015530D+02  0.2321844432D+00
      0.9286662960D+01  0.4679413484D+00
      0.3163926960D+01  0.3623119853D+00
 SP   3 1.00       0.000000000000
      0.7868272350D+01 -0.1193324198D+00  0.6899906659D-01
      0.1881288540D+01 -0.1608541517D+00  0.3164239610D+00
      0.5442492580D+00  0.1143456438D+01  0.7443082909D+00
 SP   1 1.00       0.000000000000
      0.1687144782D+00  0.1000000000D+01  0.1000000000D+01
 D   1 1.00       0.000000000000
      0.8000000000D+00  0.1000000000D+01
 ****
     36 0
 S   6 1.00       0.000000000000
      0.3047524880D+04  0.1834737132D-02
      0.4573695180D+03  0.1403732281D-01
      0.1039486850D+03  0.6884262226D-01
      0.2921015530D+02  0.2321844432D+00
      0.9286662960D+01  0.4679413484D+00
      0.3163926960D+01  0.3623119853D+00
 SP   3 1.00       0.000000000000
      0.7868272350D+01 -0.1193324198D+00  0.6899906659D-01
      0.1881288540D+01 -0.1608541517D+00  0.3164239610D+00
      0.5442492580D+00  0.1143456438D+01  0.7443082909D+00
 SP   1 1.00       0.000000000000
      0.1687144782D+00  0.1000000000D+01  0.1000000000D+01
 D   1 1.00       0.000000000000
      0.8000000000D+00  0.1000000000D+01
 ****
     37 0
 S   3 1.00       0.000000000000
      0.1873113696D+02  0.3349460434D-01
      0.2825394365D+01  0.2347269535D+00
      0.6401216923D+00  0.8137573261D+00
 S   1 1.00       0.000000000000
      0.1612777588D+00  0.1000000000D+01
 ****
     38 0
 S   3 1.00       0.000000000000
      0.1873113696D+02  0.3349460434D-01
      0.2825394365D+01  0.2347269535D+00
      0.6401216923D+00  0.8137573261D+00
 S   1 1.00       0.000000000000
      0.1612777588D+00  0.1000000000D+01
 ****
     39 0
 S   6 1.00       0.000000000000
      0.3047524880D+04  0.1834737132D-02
      0.4573695180D+03  0.1403732281D-01
      0.1039486850D+03  0.6884262226D-01
      0.2921015530D+02  0.2321844432D+00
      0.9286662960D+01  0.4679413484D+00
      0.3163926960D+01  0.3623119853D+00
 SP   3 1.00       0.000000000000
      0.7868272350D+01 -0.1193324198D+00  0.6899906659D-01
      0.1881288540D+01 -0.1608541517D+00  0.3164239610D+00
      0.5442492580D+00  0.1143456438D+01  0.7443082909D+00
 SP   1 1.00       0.000000000000
      0.1687144782D+00  0.1000000000D+01  0.1000000000D+01
 D   1 1.00       0.000000000000
      0.8000000000D+00  0.1000000000D+01
 ****
     40 0
 S   3 1.00       0.000000000000
      0.1873113696D+02  0.3349460434D-01
      0.2825394365D+01  0.2347269535D+00
      0.6401216923D+00  0.8137573261D+00
 S   1 1.00       0.000000000000
      0.1612777588D+00  0.1000000000D+01
 ****
     41 0
 S   6 1.00       0.000000000000
      0.3047524880D+04  0.1834737132D-02
      0.4573695180D+03  0.1403732281D-01
      0.1039486850D+03  0.6884262226D-01
      0.2921015530D+02  0.2321844432D+00
      0.9286662960D+01  0.4679413484D+00
      0.3163926960D+01  0.3623119853D+00
 SP   3 1.00       0.000000000000
      0.7868272350D+01 -0.1193324198D+00  0.6899906659D-01
      0.1881288540D+01 -0.1608541517D+00  0.3164239610D+00
      0.5442492580D+00  0.1143456438D+01  0.7443082909D+00
 SP   1 1.00       0.000000000000
      0.1687144782D+00  0.1000000000D+01  0.1000000000D+01
 D   1 1.00       0.000000000000
      0.8000000000D+00  0.1000000000D+01
 ****
     42 0
 S   3 1.00       0.000000000000
      0.1873113696D+02  0.3349460434D-01
      0.2825394365D+01  0.2347269535D+00
      0.6401216923D+00  0.8137573261D+00
 S   1 1.00       0.000000000000
      0.1612777588D+00  0.1000000000D+01
 ****
     43 0
 S   3 1.00       0.000000000000
      0.1873113696D+02  0.3349460434D-01
      0.2825394365D+01  0.2347269535D+00
      0.6401216923D+00  0.8137573261D+00
 S   1 1.00       0.000000000000
      0.1612777588D+00  0.1000000000D+01
 ****
     44 0
 S   3 1.00       0.000000000000
      0.1873113696D+02  0.3349460434D-01
      0.2825394365D+01  0.2347269535D+00
      0.6401216923D+00  0.8137573261D+00
 S   1 1.00       0.000000000000
      0.1612777588D+00  0.1000000000D+01
 ****
     45 0
 S   6 1.00       0.000000000000
      0.3047524880D+04  0.1834737132D-02
      0.4573695180D+03  0.1403732281D-01
      0.1039486850D+03  0.6884262226D-01
      0.2921015530D+02  0.2321844432D+00
      0.9286662960D+01  0.4679413484D+00
      0.3163926960D+01  0.3623119853D+00
 SP   3 1.00       0.000000000000
      0.7868272350D+01 -0.1193324198D+00  0.6899906659D-01
      0.1881288540D+01 -0.1608541517D+00  0.3164239610D+00
      0.5442492580D+00  0.1143456438D+01  0.7443082909D+00
 SP   1 1.00       0.000000000000
      0.1687144782D+00  0.1000000000D+01  0.1000000000D+01
 D   1 1.00       0.000000000000
      0.8000000000D+00  0.1000000000D+01
 ****
     46 0
 S   3 1.00       0.000000000000
      0.1873113696D+02  0.3349460434D-01
      0.2825394365D+01  0.2347269535D+00
      0.6401216923D+00  0.8137573261D+00
 S   1 1.00       0.000000000000
      0.1612777588D+00  0.1000000000D+01
 ****
     47 0
 S   3 1.00       0.000000000000
      0.1873113696D+02  0.3349460434D-01
      0.2825394365D+01  0.2347269535D+00
      0.6401216923D+00  0.8137573261D+00
 S   1 1.00       0.000000000000
      0.1612777588D+00  0.1000000000D+01
 ****
     48 0
 S   6 1.00       0.000000000000
      0.3047524880D+04  0.1834737132D-02
      0.4573695180D+03  0.1403732281D-01
      0.1039486850D+03  0.6884262226D-01
      0.2921015530D+02  0.2321844432D+00
      0.9286662960D+01  0.4679413484D+00
      0.3163926960D+01  0.3623119853D+00
 SP   3 1.00       0.000000000000
      0.7868272350D+01 -0.1193324198D+00  0.6899906659D-01
      0.1881288540D+01 -0.1608541517D+00  0.3164239610D+00
      0.5442492580D+00  0.1143456438D+01  0.7443082909D+00
 SP   1 1.00       0.000000000000
      0.1687144782D+00  0.1000000000D+01  0.1000000000D+01
 D   1 1.00       0.000000000000
      0.8000000000D+00  0.1000000000D+01
 ****
     49 0
 S   3 1.00       0.000000000000
      0.1873113696D+02  0.3349460434D-01
      0.2825394365D+01  0.2347269535D+00
      0.6401216923D+00  0.8137573261D+00
 S   1 1.00       0.000000000000
      0.1612777588D+00  0.1000000000D+01
 ****
     50 0
 S   3 1.00       0.000000000000
      0.1873113696D+02  0.3349460434D-01
      0.2825394365D+01  0.2347269535D+00
      0.6401216923D+00  0.8137573261D+00
 S   1 1.00       0.000000000000
      0.1612777588D+00  0.1000000000D+01
 ****
     51 0
 S   6 1.00       0.000000000000
      0.3047524880D+04  0.1834737132D-02
      0.4573695180D+03  0.1403732281D-01
      0.1039486850D+03  0.6884262226D-01
      0.2921015530D+02  0.2321844432D+00
      0.9286662960D+01  0.4679413484D+00
      0.3163926960D+01  0.3623119853D+00
 SP   3 1.00       0.000000000000
      0.7868272350D+01 -0.1193324198D+00  0.6899906659D-01
      0.1881288540D+01 -0.1608541517D+00  0.3164239610D+00
      0.5442492580D+00  0.1143456438D+01  0.7443082909D+00
 SP   1 1.00       0.000000000000
      0.1687144782D+00  0.1000000000D+01  0.1000000000D+01
 D   1 1.00       0.000000000000
      0.8000000000D+00  0.1000000000D+01
 ****
     52 0
 S   3 1.00       0.000000000000
      0.1873113696D+02  0.3349460434D-01
      0.2825394365D+01  0.2347269535D+00
      0.6401216923D+00  0.8137573261D+00
 S   1 1.00       0.000000000000
      0.1612777588D+00  0.1000000000D+01
 ****
     53 0
 S   3 1.00       0.000000000000
      0.1873113696D+02  0.3349460434D-01
      0.2825394365D+01  0.2347269535D+00
      0.6401216923D+00  0.8137573261D+00
 S   1 1.00       0.000000000000
      0.1612777588D+00  0.1000000000D+01
 ****
     54 0
 S   6 1.00       0.000000000000
      0.3047524880D+04  0.1834737132D-02
      0.4573695180D+03  0.1403732281D-01
      0.1039486850D+03  0.6884262226D-01
      0.2921015530D+02  0.2321844432D+00
      0.9286662960D+01  0.4679413484D+00
      0.3163926960D+01  0.3623119853D+00
 SP   3 1.00       0.000000000000
      0.7868272350D+01 -0.1193324198D+00  0.6899906659D-01
      0.1881288540D+01 -0.1608541517D+00  0.3164239610D+00
      0.5442492580D+00  0.1143456438D+01  0.7443082909D+00
 SP   1 1.00       0.000000000000
      0.1687144782D+00  0.1000000000D+01  0.1000000000D+01
 D   1 1.00       0.000000000000
      0.8000000000D+00  0.1000000000D+01
 ****
     55 0
 S   3 1.00       0.000000000000
      0.1873113696D+02  0.3349460434D-01
      0.2825394365D+01  0.2347269535D+00
      0.6401216923D+00  0.8137573261D+00
 S   1 1.00       0.000000000000
      0.1612777588D+00  0.1000000000D+01
 ****
     56 0
 S   6 1.00       0.000000000000
      0.3047524880D+04  0.1834737132D-02
      0.4573695180D+03  0.1403732281D-01
      0.1039486850D+03  0.6884262226D-01
      0.2921015530D+02  0.2321844432D+00
      0.9286662960D+01  0.4679413484D+00
      0.3163926960D+01  0.3623119853D+00
 SP   3 1.00       0.000000000000
      0.7868272350D+01 -0.1193324198D+00  0.6899906659D-01
      0.1881288540D+01 -0.1608541517D+00  0.3164239610D+00
      0.5442492580D+00  0.1143456438D+01  0.7443082909D+00
 SP   1 1.00       0.000000000000
      0.1687144782D+00  0.1000000000D+01  0.1000000000D+01
 D   1 1.00       0.000000000000
      0.8000000000D+00  0.1000000000D+01
 ****
     57 0
 S   3 1.00       0.000000000000
      0.1873113696D+02  0.3349460434D-01
      0.2825394365D+01  0.2347269535D+00
      0.6401216923D+00  0.8137573261D+00
 S   1 1.00       0.000000000000
      0.1612777588D+00  0.1000000000D+01
 ****
     58 0
 S   3 1.00       0.000000000000
      0.1873113696D+02  0.3349460434D-01
      0.2825394365D+01  0.2347269535D+00
      0.6401216923D+00  0.8137573261D+00
 S   1 1.00       0.000000000000
      0.1612777588D+00  0.1000000000D+01
 ****
     59 0
 S   3 1.00       0.000000000000
      0.1873113696D+02  0.3349460434D-01
      0.2825394365D+01  0.2347269535D+00
      0.6401216923D+00  0.8137573261D+00
 S   1 1.00       0.000000000000
      0.1612777588D+00  0.1000000000D+01
 ****
     60 0
 S   6 1.00       0.000000000000
      0.3047524880D+04  0.1834737132D-02
      0.4573695180D+03  0.1403732281D-01
      0.1039486850D+03  0.6884262226D-01
      0.2921015530D+02  0.2321844432D+00
      0.9286662960D+01  0.4679413484D+00
      0.3163926960D+01  0.3623119853D+00
 SP   3 1.00       0.000000000000
      0.7868272350D+01 -0.1193324198D+00  0.6899906659D-01
      0.1881288540D+01 -0.1608541517D+00  0.3164239610D+00
      0.5442492580D+00  0.1143456438D+01  0.7443082909D+00
 SP   1 1.00       0.000000000000
      0.1687144782D+00  0.1000000000D+01  0.1000000000D+01
 D   1 1.00       0.000000000000
      0.8000000000D+00  0.1000000000D+01
 ****
     61 0
 S   3 1.00       0.000000000000
      0.1873113696D+02  0.3349460434D-01
      0.2825394365D+01  0.2347269535D+00
      0.6401216923D+00  0.8137573261D+00
 S   1 1.00       0.000000000000
      0.1612777588D+00  0.1000000000D+01
 ****
     62 0
 S   3 1.00       0.000000000000
      0.1873113696D+02  0.3349460434D-01
      0.2825394365D+01  0.2347269535D+00
      0.6401216923D+00  0.8137573261D+00
 S   1 1.00       0.000000000000
      0.1612777588D+00  0.1000000000D+01
 ****
     63 0
 S   6 1.00       0.000000000000
      0.3047524880D+04  0.1834737132D-02
      0.4573695180D+03  0.1403732281D-01
      0.1039486850D+03  0.6884262226D-01
      0.2921015530D+02  0.2321844432D+00
      0.9286662960D+01  0.4679413484D+00
      0.3163926960D+01  0.3623119853D+00
 SP   3 1.00       0.000000000000
      0.7868272350D+01 -0.1193324198D+00  0.6899906659D-01
      0.1881288540D+01 -0.1608541517D+00  0.3164239610D+00
      0.5442492580D+00  0.1143456438D+01  0.7443082909D+00
 SP   1 1.00       0.000000000000
      0.1687144782D+00  0.1000000000D+01  0.1000000000D+01
 D   1 1.00       0.000000000000
      0.8000000000D+00  0.1000000000D+01
 ****
     64 0
 S   3 1.00       0.000000000000
      0.1873113696D+02  0.3349460434D-01
      0.2825394365D+01  0.2347269535D+00
      0.6401216923D+00  0.8137573261D+00
 S   1 1.00       0.000000000000
      0.1612777588D+00  0.1000000000D+01
 ****
     65 0
 S   3 1.00       0.000000000000
      0.1873113696D+02  0.3349460434D-01
      0.2825394365D+01  0.2347269535D+00
      0.6401216923D+00  0.8137573261D+00
 S   1 1.00       0.000000000000
      0.1612777588D+00  0.1000000000D+01
 ****
     66 0
 S   6 1.00       0.000000000000
      0.3047524880D+04  0.1834737132D-02
      0.4573695180D+03  0.1403732281D-01
      0.1039486850D+03  0.6884262226D-01
      0.2921015530D+02  0.2321844432D+00
      0.9286662960D+01  0.4679413484D+00
      0.3163926960D+01  0.3623119853D+00
 SP   3 1.00       0.000000000000
      0.7868272350D+01 -0.1193324198D+00  0.6899906659D-01
      0.1881288540D+01 -0.1608541517D+00  0.3164239610D+00
      0.5442492580D+00  0.1143456438D+01  0.7443082909D+00
 SP   1 1.00       0.000000000000
      0.1687144782D+00  0.1000000000D+01  0.1000000000D+01
 D   1 1.00       0.000000000000
      0.8000000000D+00  0.1000000000D+01
 ****
     67 0
 S   3 1.00       0.000000000000
      0.1873113696D+02  0.3349460434D-01
      0.2825394365D+01  0.2347269535D+00
      0.6401216923D+00  0.8137573261D+00
 S   1 1.00       0.000000000000
      0.1612777588D+00  0.1000000000D+01
 ****
     68 0
 S   6 1.00       0.000000000000
      0.3047524880D+04  0.1834737132D-02
      0.4573695180D+03  0.1403732281D-01
      0.1039486850D+03  0.6884262226D-01
      0.2921015530D+02  0.2321844432D+00
      0.9286662960D+01  0.4679413484D+00
      0.3163926960D+01  0.3623119853D+00
 SP   3 1.00       0.000000000000
      0.7868272350D+01 -0.1193324198D+00  0.6899906659D-01
      0.1881288540D+01 -0.1608541517D+00  0.3164239610D+00
      0.5442492580D+00  0.1143456438D+01  0.7443082909D+00
 SP   1 1.00       0.000000000000
      0.1687144782D+00  0.1000000000D+01  0.1000000000D+01
 D   1 1.00       0.000000000000
      0.8000000000D+00  0.1000000000D+01
 ****
     69 0
 S   3 1.00       0.000000000000
      0.1873113696D+02  0.3349460434D-01
      0.2825394365D+01  0.2347269535D+00
      0.6401216923D+00  0.8137573261D+00
 S   1 1.00       0.000000000000
      0.1612777588D+00  0.1000000000D+01
 ****
     70 0
 S   3 1.00       0.000000000000
      0.1873113696D+02  0.3349460434D-01
      0.2825394365D+01  0.2347269535D+00
      0.6401216923D+00  0.8137573261D+00
 S   1 1.00       0.000000000000
      0.1612777588D+00  0.1000000000D+01
 ****
     71 0
 S   3 1.00       0.000000000000
      0.1873113696D+02  0.3349460434D-01
      0.2825394365D+01  0.2347269535D+00
      0.6401216923D+00  0.8137573261D+00
 S   1 1.00       0.000000000000
      0.1612777588D+00  0.1000000000D+01
 ****
     72 0
 S   6 1.00       0.000000000000
      0.3047524880D+04  0.1834737132D-02
      0.4573695180D+03  0.1403732281D-01
      0.1039486850D+03  0.6884262226D-01
      0.2921015530D+02  0.2321844432D+00
      0.9286662960D+01  0.4679413484D+00
      0.3163926960D+01  0.3623119853D+00
 SP   3 1.00       0.000000000000
      0.7868272350D+01 -0.1193324198D+00  0.6899906659D-01
      0.1881288540D+01 -0.1608541517D+00  0.3164239610D+00
      0.5442492580D+00  0.1143456438D+01  0.7443082909D+00
 SP   1 1.00       0.000000000000
      0.1687144782D+00  0.1000000000D+01  0.1000000000D+01
 D   1 1.00       0.000000000000
      0.8000000000D+00  0.1000000000D+01
 ****
     73 0
 S   3 1.00       0.000000000000
      0.1873113696D+02  0.3349460434D-01
      0.2825394365D+01  0.2347269535D+00
      0.6401216923D+00  0.8137573261D+00
 S   1 1.00       0.000000000000
      0.1612777588D+00  0.1000000000D+01
 ****
     74 0
 S   3 1.00       0.000000000000
      0.1873113696D+02  0.3349460434D-01
      0.2825394365D+01  0.2347269535D+00
      0.6401216923D+00  0.8137573261D+00
 S   1 1.00       0.000000000000
      0.1612777588D+00  0.1000000000D+01
 ****
     75 0
 S   3 1.00       0.000000000000
      0.1873113696D+02  0.3349460434D-01
      0.2825394365D+01  0.2347269535D+00
      0.6401216923D+00  0.8137573261D+00
 S   1 1.00       0.000000000000
      0.1612777588D+00  0.1000000000D+01
 ****

 AO basis set (Overlap normalization):
 Atom O1       Shell     1 S   6     bf    1 -     1         10.475527630471          8.585039295447          0.000000000000
      0.5484671660D+04  0.1831074430D-02
      0.8252349460D+03  0.1395017220D-01
      0.1880469580D+03  0.6844507810D-01
      0.5296450000D+02  0.2327143360D+00
      0.1689757040D+02  0.4701928980D+00
      0.5799635340D+01  0.3585208530D+00
 Atom O1       Shell     2 SP   3    bf    2 -     5         10.475527630471          8.585039295447          0.000000000000
      0.1553961625D+02 -0.1107775495D+00  0.7087426823D-01
      0.3599933586D+01 -0.1480262627D+00  0.3397528391D+00
      0.1013761750D+01  0.1130767015D+01  0.7271585773D+00
 Atom O1       Shell     3 SP   1    bf    6 -     9         10.475527630471          8.585039295447          0.000000000000
      0.2700058226D+00  0.1000000000D+01  0.1000000000D+01
 Atom O1       Shell     4 D   1     bf   10 -    15         10.475527630471          8.585039295447          0.000000000000
      0.8000000000D+00  0.1000000000D+01
 Atom H2       Shell     5 S   3     bf   16 -    16          9.848209437980          8.711356961656         -1.712939909894
      0.1873113696D+02  0.3349460434D-01
      0.2825394365D+01  0.2347269535D+00
      0.6401216923D+00  0.8137573261D+00
 Atom H2       Shell     6 S   1     bf   17 -    17          9.848209437980          8.711356961656         -1.712939909894
      0.1612777588D+00  0.1000000000D+01
 Atom O3       Shell     7 S   6     bf   18 -    18          0.000000000000          0.000000000000          0.000000000000
      0.5484671660D+04  0.1831074430D-02
      0.8252349460D+03  0.1395017220D-01
      0.1880469580D+03  0.6844507810D-01
      0.5296450000D+02  0.2327143360D+00
      0.1689757040D+02  0.4701928980D+00
      0.5799635340D+01  0.3585208530D+00
 Atom O3       Shell     8 SP   3    bf   19 -    22          0.000000000000          0.000000000000          0.000000000000
      0.1553961625D+02 -0.1107775495D+00  0.7087426823D-01
      0.3599933586D+01 -0.1480262627D+00  0.3397528391D+00
      0.1013761750D+01  0.1130767015D+01  0.7271585773D+00
 Atom O3       Shell     9 SP   1    bf   23 -    26          0.000000000000          0.000000000000          0.000000000000
      0.2700058226D+00  0.1000000000D+01  0.1000000000D+01
 Atom O3       Shell    10 D   1     bf   27 -    32          0.000000000000          0.000000000000          0.000000000000
      0.8000000000D+00  0.1000000000D+01
 Atom H4       Shell    11 S   3     bf   33 -    33         -0.303391959052         -0.178914149104         -1.794170033380
      0.1873113696D+02  0.3349460434D-01
      0.2825394365D+01  0.2347269535D+00
      0.6401216923D+00  0.8137573261D+00
 Atom H4       Shell    12 S   1     bf   34 -    34         -0.303391959052         -0.178914149104         -1.794170033380
      0.1612777588D+00  0.1000000000D+01
 Atom C5       Shell    13 S   6     bf   35 -    35         16.483522416322          2.432284136782         -0.311433065001
      0.3047524880D+04  0.1834737132D-02
      0.4573695180D+03  0.1403732281D-01
      0.1039486850D+03  0.6884262226D-01
      0.2921015530D+02  0.2321844432D+00
      0.9286662960D+01  0.4679413484D+00
      0.3163926960D+01  0.3623119853D+00
 Atom C5       Shell    14 SP   3    bf   36 -    39         16.483522416322          2.432284136782         -0.311433065001
      0.7868272350D+01 -0.1193324198D+00  0.6899906659D-01
      0.1881288540D+01 -0.1608541517D+00  0.3164239610D+00
      0.5442492580D+00  0.1143456438D+01  0.7443082909D+00
 Atom C5       Shell    15 SP   1    bf   40 -    43         16.483522416322          2.432284136782         -0.311433065001
      0.1687144782D+00  0.1000000000D+01  0.1000000000D+01
 Atom C5       Shell    16 D   1     bf   44 -    49         16.483522416322          2.432284136782         -0.311433065001
      0.8000000000D+00  0.1000000000D+01
 Atom C6       Shell    17 S   6     bf   50 -    50         14.542845978770          4.352210682196          0.758617138991
      0.3047524880D+04  0.1834737132D-02
      0.4573695180D+03  0.1403732281D-01
      0.1039486850D+03  0.6884262226D-01
      0.2921015530D+02  0.2321844432D+00
      0.9286662960D+01  0.4679413484D+00
      0.3163926960D+01  0.3623119853D+00
 Atom C6       Shell    18 SP   3    bf   51 -    54         14.542845978770          4.352210682196          0.758617138991
      0.7868272350D+01 -0.1193324198D+00  0.6899906659D-01
      0.1881288540D+01 -0.1608541517D+00  0.3164239610D+00
      0.5442492580D+00  0.1143456438D+01  0.7443082909D+00
 Atom C6       Shell    19 SP   1    bf   55 -    58         14.542845978770          4.352210682196          0.758617138991
      0.1687144782D+00  0.1000000000D+01  0.1000000000D+01
 Atom C6       Shell    20 D   1     bf   59 -    64         14.542845978770          4.352210682196          0.758617138991
      0.8000000000D+00  0.1000000000D+01
 Atom H7       Shell    21 S   3     bf   65 -    65         14.326080331766          3.839218369614          2.768276932983
      0.1873113696D+02  0.3349460434D-01
      0.2825394365D+01  0.2347269535D+00
      0.6401216923D+00  0.8137573261D+00
 Atom H7       Shell    22 S   1     bf   66 -    66         14.326080331766          3.839218369614          2.768276932983
      0.1612777588D+00  0.1000000000D+01
 Atom C8       Shell    23 S   6     bf   67 -    67         11.872811636655          4.136647146676         -0.369220738967
      0.3047524880D+04  0.1834737132D-02
      0.4573695180D+03  0.1403732281D-01
      0.1039486850D+03  0.6884262226D-01
      0.2921015530D+02  0.2321844432D+00
      0.9286662960D+01  0.4679413484D+00
      0.3163926960D+01  0.3623119853D+00
 Atom C8       Shell    24 SP   3    bf   68 -    71         11.872811636655          4.136647146676         -0.369220738967
      0.7868272350D+01 -0.1193324198D+00  0.6899906659D-01
      0.1881288540D+01 -0.1608541517D+00  0.3164239610D+00
      0.5442492580D+00  0.1143456438D+01  0.7443082909D+00
 Atom C8       Shell    25 SP   1    bf   72 -    75         11.872811636655          4.136647146676         -0.369220738967
      0.1687144782D+00  0.1000000000D+01  0.1000000000D+01
 Atom C8       Shell    26 D   1     bf   76 -    81         11.872811636655          4.136647146676         -0.369220738967
      0.8000000000D+00  0.1000000000D+01
 Atom H9       Shell    27 S   3     bf   82 -    82         11.931181327372          4.577869909505         -2.399432721948
      0.1873113696D+02  0.3349460434D-01
      0.2825394365D+01  0.2347269535D+00
      0.6401216923D+00  0.8137573261D+00
 Atom H9       Shell    28 S   1     bf   83 -    83         11.931181327372          4.577869909505         -2.399432721948
      0.1612777588D+00  0.1000000000D+01
 Atom C10      Shell    29 S   6     bf   84 -    84         10.871212698915          1.395704384110          0.011466895969
      0.3047524880D+04  0.1834737132D-02
      0.4573695180D+03  0.1403732281D-01
      0.1039486850D+03  0.6884262226D-01
      0.2921015530D+02  0.2321844432D+00
      0.9286662960D+01  0.4679413484D+00
      0.3163926960D+01  0.3623119853D+00
 Atom C10      Shell    30 SP   3    bf   85 -    88         10.871212698915          1.395704384110          0.011466895969
      0.7868272350D+01 -0.1193324198D+00  0.6899906659D-01
      0.1881288540D+01 -0.1608541517D+00  0.3164239610D+00
      0.5442492580D+00  0.1143456438D+01  0.7443082909D+00
 Atom C10      Shell    31 SP   1    bf   89 -    92         10.871212698915          1.395704384110          0.011466895969
      0.1687144782D+00  0.1000000000D+01  0.1000000000D+01
 Atom C10      Shell    32 D   1     bf   93 -    98         10.871212698915          1.395704384110          0.011466895969
      0.8000000000D+00  0.1000000000D+01
 Atom H11      Shell    33 S   3     bf   99 -    99         10.632073639360          1.173949217608          2.069209259631
      0.1873113696D+02  0.3349460434D-01
      0.2825394365D+01  0.2347269535D+00
      0.6401216923D+00  0.8137573261D+00
 Atom H11      Shell    34 S   1     bf  100 -   100         10.632073639360          1.173949217608          2.069209259631
      0.1612777588D+00  0.1000000000D+01
 Atom C12      Shell    35 S   6     bf  101 -   101         18.860658354115          3.213768379276          1.250067386240
      0.3047524880D+04  0.1834737132D-02
      0.4573695180D+03  0.1403732281D-01
      0.1039486850D+03  0.6884262226D-01
      0.2921015530D+02  0.2321844432D+00
      0.9286662960D+01  0.4679413484D+00
      0.3163926960D+01  0.3623119853D+00
 Atom C12      Shell    36 SP   3    bf  102 -   105         18.860658354115          3.213768379276          1.250067386240
      0.7868272350D+01 -0.1193324198D+00  0.6899906659D-01
      0.1881288540D+01 -0.1608541517D+00  0.3164239610D+00
      0.5442492580D+00  0.1143456438D+01  0.7443082909D+00
 Atom C12      Shell    37 SP   1    bf  106 -   109         18.860658354115          3.213768379276          1.250067386240
      0.1687144782D+00  0.1000000000D+01  0.1000000000D+01
 Atom C12      Shell    38 D   1     bf  110 -   115         18.860658354115          3.213768379276          1.250067386240
      0.8000000000D+00  0.1000000000D+01
 Atom H13      Shell    39 S   3     bf  116 -   116         18.396028252877          2.628363008501          3.189426439013
      0.1873113696D+02  0.3349460434D-01
      0.2825394365D+01  0.2347269535D+00
      0.6401216923D+00  0.8137573261D+00
 Atom H13      Shell    40 S   1     bf  117 -   117         18.396028252877          2.628363008501          3.189426439013
      0.1612777588D+00  0.1000000000D+01
 Atom C14      Shell    41 S   6     bf  118 -   118         15.484528579440         -0.235611488885          0.258657247096
      0.3047524880D+04  0.1834737132D-02
      0.4573695180D+03  0.1403732281D-01
      0.1039486850D+03  0.6884262226D-01
      0.2921015530D+02  0.2321844432D+00
      0.9286662960D+01  0.4679413484D+00
      0.3163926960D+01  0.3623119853D+00
 Atom C14      Shell    42 SP   3    bf  119 -   122         15.484528579440         -0.235611488885          0.258657247096
      0.7868272350D+01 -0.1193324198D+00  0.6899906659D-01
      0.1881288540D+01 -0.1608541517D+00  0.3164239610D+00
      0.5442492580D+00  0.1143456438D+01  0.7443082909D+00
 Atom C14      Shell    43 SP   1    bf  123 -   126         15.484528579440         -0.235611488885          0.258657247096
      0.1687144782D+00  0.1000000000D+01  0.1000000000D+01
 Atom C14      Shell    44 D   1     bf  127 -   132         15.484528579440         -0.235611488885          0.258657247096
      0.8000000000D+00  0.1000000000D+01
 Atom H15      Shell    45 S   3     bf  133 -   133         15.440378832208         -0.506906185009          2.318464231045
      0.1873113696D+02  0.3349460434D-01
      0.2825394365D+01  0.2347269535D+00
      0.6401216923D+00  0.8137573261D+00
 Atom H15      Shell    46 S   1     bf  134 -   134         15.440378832208         -0.506906185009          2.318464231045
      0.1612777588D+00  0.1000000000D+01
 Atom H16      Shell    47 S   3     bf  135 -   135         16.749464066332         -1.693782849016         -0.503614338777
      0.1873113696D+02  0.3349460434D-01
      0.2825394365D+01  0.2347269535D+00
      0.6401216923D+00  0.8137573261D+00
 Atom H16      Shell    48 S   1     bf  136 -   136         16.749464066332         -1.693782849016         -0.503614338777
      0.1612777588D+00  0.1000000000D+01
 Atom C17      Shell    49 S   6     bf  137 -   137          8.175797275034          0.970434916062         -1.149536828354
      0.3047524880D+04  0.1834737132D-02
      0.4573695180D+03  0.1403732281D-01
      0.1039486850D+03  0.6884262226D-01
      0.2921015530D+02  0.2321844432D+00
      0.9286662960D+01  0.4679413484D+00
      0.3163926960D+01  0.3623119853D+00
 Atom C17      Shell    50 SP   3    bf  138 -   141          8.175797275034          0.970434916062         -1.149536828354
      0.7868272350D+01 -0.1193324198D+00  0.6899906659D-01
      0.1881288540D+01 -0.1608541517D+00  0.3164239610D+00
      0.5442492580D+00  0.1143456438D+01  0.7443082909D+00
 Atom C17      Shell    51 SP   1    bf  142 -   145          8.175797275034          0.970434916062         -1.149536828354
      0.1687144782D+00  0.1000000000D+01  0.1000000000D+01
 Atom C17      Shell    52 D   1     bf  146 -   151          8.175797275034          0.970434916062         -1.149536828354
      0.8000000000D+00  0.1000000000D+01
 Atom C18      Shell    53 S   6     bf  152 -   152         15.966217710911          6.894887460709          0.713018992268
      0.3047524880D+04  0.1834737132D-02
      0.4573695180D+03  0.1403732281D-01
      0.1039486850D+03  0.6884262226D-01
      0.2921015530D+02  0.2321844432D+00
      0.9286662960D+01  0.4679413484D+00
      0.3163926960D+01  0.3623119853D+00
 Atom C18      Shell    54 SP   3    bf  153 -   156         15.966217710911          6.894887460709          0.713018992268
      0.7868272350D+01 -0.1193324198D+00  0.6899906659D-01
      0.1881288540D+01 -0.1608541517D+00  0.3164239610D+00
      0.5442492580D+00  0.1143456438D+01  0.7443082909D+00
 Atom C18      Shell    55 SP   1    bf  157 -   160         15.966217710911          6.894887460709          0.713018992268
      0.1687144782D+00  0.1000000000D+01  0.1000000000D+01
 Atom C18      Shell    56 D   1     bf  161 -   166         15.966217710911          6.894887460709          0.713018992268
      0.8000000000D+00  0.1000000000D+01
 Atom H19      Shell    57 S   3     bf  167 -   167         15.220887009593          8.230075859851          2.100285768092
      0.1873113696D+02  0.3349460434D-01
      0.2825394365D+01  0.2347269535D+00
      0.6401216923D+00  0.8137573261D+00
 Atom H19      Shell    58 S   1     bf  168 -   168         15.220887009593          8.230075859851          2.100285768092
      0.1612777588D+00  0.1000000000D+01
 Atom H20      Shell    59 S   3     bf  169 -   169         15.765014771193          7.814054465834         -1.129940897480
      0.1873113696D+02  0.3349460434D-01
      0.2825394365D+01  0.2347269535D+00
      0.6401216923D+00  0.8137573261D+00
 Atom H20      Shell    60 S   1     bf  170 -   170         15.765014771193          7.814054465834         -1.129940897480
      0.1612777588D+00  0.1000000000D+01
 Atom C21      Shell    61 S   6     bf  171 -   171         12.810625930136         -0.631736315498         -0.825319879448
      0.3047524880D+04  0.1834737132D-02
      0.4573695180D+03  0.1403732281D-01
      0.1039486850D+03  0.6884262226D-01
      0.2921015530D+02  0.2321844432D+00
      0.9286662960D+01  0.4679413484D+00
      0.3163926960D+01  0.3623119853D+00
 Atom C21      Shell    62 SP   3    bf  172 -   175         12.810625930136         -0.631736315498         -0.825319879448
      0.7868272350D+01 -0.1193324198D+00  0.6899906659D-01
      0.1881288540D+01 -0.1608541517D+00  0.3164239610D+00
      0.5442492580D+00  0.1143456438D+01  0.7443082909D+00
 Atom C21      Shell    63 SP   1    bf  176 -   179         12.810625930136         -0.631736315498         -0.825319879448
      0.1687144782D+00  0.1000000000D+01  0.1000000000D+01
 Atom C21      Shell    64 D   1     bf  180 -   185         12.810625930136         -0.631736315498         -0.825319879448
      0.8000000000D+00  0.1000000000D+01
 Atom H22      Shell    65 S   3     bf  186 -   186         12.930019583102         -0.677825753221         -2.890470064037
      0.1873113696D+02  0.3349460434D-01
      0.2825394365D+01  0.2347269535D+00
      0.6401216923D+00  0.8137573261D+00
 Atom H22      Shell    66 S   1     bf  187 -   187         12.930019583102         -0.677825753221         -2.890470064037
      0.1612777588D+00  0.1000000000D+01
 Atom H23      Shell    67 S   3     bf  188 -   188         12.137746572862         -2.503960541934         -0.252828878168
      0.1873113696D+02  0.3349460434D-01
      0.2825394365D+01  0.2347269535D+00
      0.6401216923D+00  0.8137573261D+00
 Atom H23      Shell    68 S   1     bf  189 -   189         12.137746572862         -2.503960541934         -0.252828878168
      0.1612777588D+00  0.1000000000D+01
 Atom C24      Shell    69 S   6     bf  190 -   190         18.774608767585          6.160590378952          1.229289526156
      0.3047524880D+04  0.1834737132D-02
      0.4573695180D+03  0.1403732281D-01
      0.1039486850D+03  0.6884262226D-01
      0.2921015530D+02  0.2321844432D+00
      0.9286662960D+01  0.4679413484D+00
      0.3163926960D+01  0.3623119853D+00
 Atom C24      Shell    70 SP   3    bf  191 -   194         18.774608767585          6.160590378952          1.229289526156
      0.7868272350D+01 -0.1193324198D+00  0.6899906659D-01
      0.1881288540D+01 -0.1608541517D+00  0.3164239610D+00
      0.5442492580D+00  0.1143456438D+01  0.7443082909D+00
 Atom C24      Shell    71 SP   1    bf  195 -   198         18.774608767585          6.160590378952          1.229289526156
      0.1687144782D+00  0.1000000000D+01  0.1000000000D+01
 Atom C24      Shell    72 D   1     bf  199 -   204         18.774608767585          6.160590378952          1.229289526156
      0.8000000000D+00  0.1000000000D+01
 Atom H25      Shell    73 S   3     bf  205 -   205         20.001457107728          6.943092031098         -0.238162524678
      0.1873113696D+02  0.3349460434D-01
      0.2825394365D+01  0.2347269535D+00
      0.6401216923D+00  0.8137573261D+00
 Atom H25      Shell    74 S   1     bf  206 -   206         20.001457107728          6.943092031098         -0.238162524678
      0.1612777588D+00  0.1000000000D+01
 Atom H26      Shell    75 S   3     bf  207 -   207         19.450176846098          6.934090566329          3.025963730121
      0.1873113696D+02  0.3349460434D-01
      0.2825394365D+01  0.2347269535D+00
      0.6401216923D+00  0.8137573261D+00
 Atom H26      Shell    76 S   1     bf  208 -   208         19.450176846098          6.934090566329          3.025963730121
      0.1612777588D+00  0.1000000000D+01
 Atom C27      Shell    77 S   6     bf  209 -   209         10.045451228265          6.038199790414          0.863866059572
      0.3047524880D+04  0.1834737132D-02
      0.4573695180D+03  0.1403732281D-01
      0.1039486850D+03  0.6884262226D-01
      0.2921015530D+02  0.2321844432D+00
      0.9286662960D+01  0.4679413484D+00
      0.3163926960D+01  0.3623119853D+00
 Atom C27      Shell    78 SP   3    bf  210 -   213         10.045451228265          6.038199790414          0.863866059572
      0.7868272350D+01 -0.1193324198D+00  0.6899906659D-01
      0.1881288540D+01 -0.1608541517D+00  0.3164239610D+00
      0.5442492580D+00  0.1143456438D+01  0.7443082909D+00
 Atom C27      Shell    79 SP   1    bf  214 -   217         10.045451228265          6.038199790414          0.863866059572
      0.1687144782D+00  0.1000000000D+01  0.1000000000D+01
 Atom C27      Shell    80 D   1     bf  218 -   223         10.045451228265          6.038199790414          0.863866059572
      0.8000000000D+00  0.1000000000D+01
 Atom H28      Shell    81 S   3     bf  224 -   224         10.461503046873          6.147675839381          2.896287113505
      0.1873113696D+02  0.3349460434D-01
      0.2825394365D+01  0.2347269535D+00
      0.6401216923D+00  0.8137573261D+00
 Atom H28      Shell    82 S   1     bf  225 -   225         10.461503046873          6.147675839381          2.896287113505
      0.1612777588D+00  0.1000000000D+01
 Atom C29      Shell    83 S   6     bf  226 -   226         21.437594998143          1.919596448053          0.657618061305
      0.3047524880D+04  0.1834737132D-02
      0.4573695180D+03  0.1403732281D-01
      0.1039486850D+03  0.6884262226D-01
      0.2921015530D+02  0.2321844432D+00
      0.9286662960D+01  0.4679413484D+00
      0.3163926960D+01  0.3623119853D+00
 Atom C29      Shell    84 SP   3    bf  227 -   230         21.437594998143          1.919596448053          0.657618061305
      0.7868272350D+01 -0.1193324198D+00  0.6899906659D-01
      0.1881288540D+01 -0.1608541517D+00  0.3164239610D+00
      0.5442492580D+00  0.1143456438D+01  0.7443082909D+00
 Atom C29      Shell    85 SP   1    bf  231 -   234         21.437594998143          1.919596448053          0.657618061305
      0.1687144782D+00  0.1000000000D+01  0.1000000000D+01
 Atom C29      Shell    86 D   1     bf  235 -   240         21.437594998143          1.919596448053          0.657618061305
      0.8000000000D+00  0.1000000000D+01
 Atom H30      Shell    87 S   3     bf  241 -   241         20.992755261701          0.000000000000          0.000000000000
      0.1873113696D+02  0.3349460434D-01
      0.2825394365D+01  0.2347269535D+00
      0.6401216923D+00  0.8137573261D+00
 Atom H30      Shell    88 S   1     bf  242 -   242         20.992755261701          0.000000000000          0.000000000000
      0.1612777588D+00  0.1000000000D+01
 Atom C31      Shell    89 S   6     bf  243 -   243         16.909996603677          2.756425024212         -3.181003060365
      0.3047524880D+04  0.1834737132D-02
      0.4573695180D+03  0.1403732281D-01
      0.1039486850D+03  0.6884262226D-01
      0.2921015530D+02  0.2321844432D+00
      0.9286662960D+01  0.4679413484D+00
      0.3163926960D+01  0.3623119853D+00
 Atom C31      Shell    90 SP   3    bf  244 -   247         16.909996603677          2.756425024212         -3.181003060365
      0.7868272350D+01 -0.1193324198D+00  0.6899906659D-01
      0.1881288540D+01 -0.1608541517D+00  0.3164239610D+00
      0.5442492580D+00  0.1143456438D+01  0.7443082909D+00
 Atom C31      Shell    91 SP   1    bf  248 -   251         16.909996603677          2.756425024212         -3.181003060365
      0.1687144782D+00  0.1000000000D+01  0.1000000000D+01
 Atom C31      Shell    92 D   1     bf  252 -   257         16.909996603677          2.756425024212         -3.181003060365
      0.8000000000D+00  0.1000000000D+01
 Atom H32      Shell    93 S   3     bf  258 -   258         15.171090496114          2.486451095477         -4.262909462807
      0.1873113696D+02  0.3349460434D-01
      0.2825394365D+01  0.2347269535D+00
      0.6401216923D+00  0.8137573261D+00
 Atom H32      Shell    94 S   1     bf  259 -   259         15.171090496114          2.486451095477         -4.262909462807
      0.1612777588D+00  0.1000000000D+01
 Atom H33      Shell    95 S   3     bf  260 -   260         17.631279141557          4.633867011268         -3.654780910072
      0.1873113696D+02  0.3349460434D-01
      0.2825394365D+01  0.2347269535D+00
      0.6401216923D+00  0.8137573261D+00
 Atom H33      Shell    96 S   1     bf  261 -   261         17.631279141557          4.633867011268         -3.654780910072
      0.1612777588D+00  0.1000000000D+01
 Atom H34      Shell    97 S   3     bf  262 -   262         18.277495067808          1.365070789660         -3.870216473338
      0.1873113696D+02  0.3349460434D-01
      0.2825394365D+01  0.2347269535D+00
      0.6401216923D+00  0.8137573261D+00
 Atom H34      Shell    98 S   1     bf  263 -   263         18.277495067808          1.365070789660         -3.870216473338
      0.1612777588D+00  0.1000000000D+01
 Atom C35      Shell    99 S   6     bf  264 -   264          6.435523062443          3.173228575876         -0.434771559064
      0.3047524880D+04  0.1834737132D-02
      0.4573695180D+03  0.1403732281D-01
      0.1039486850D+03  0.6884262226D-01
      0.2921015530D+02  0.2321844432D+00
      0.9286662960D+01  0.4679413484D+00
      0.3163926960D+01  0.3623119853D+00
 Atom C35      Shell   100 SP   3    bf  265 -   268          6.435523062443          3.173228575876         -0.434771559064
      0.7868272350D+01 -0.1193324198D+00  0.6899906659D-01
      0.1881288540D+01 -0.1608541517D+00  0.3164239610D+00
      0.5442492580D+00  0.1143456438D+01  0.7443082909D+00
 Atom C35      Shell   101 SP   1    bf  269 -   272          6.435523062443          3.173228575876         -0.434771559064
      0.1687144782D+00  0.1000000000D+01  0.1000000000D+01
 Atom C35      Shell   102 D   1     bf  273 -   278          6.435523062443          3.173228575876         -0.434771559064
      0.8000000000D+00  0.1000000000D+01
 Atom C36      Shell   103 S   6     bf  279 -   279          7.039069312764         -1.504556502200         -0.016416806807
      0.3047524880D+04  0.1834737132D-02
      0.4573695180D+03  0.1403732281D-01
      0.1039486850D+03  0.6884262226D-01
      0.2921015530D+02  0.2321844432D+00
      0.9286662960D+01  0.4679413484D+00
      0.3163926960D+01  0.3623119853D+00
 Atom C36      Shell   104 SP   3    bf  280 -   283          7.039069312764         -1.504556502200         -0.016416806807
      0.7868272350D+01 -0.1193324198D+00  0.6899906659D-01
      0.1881288540D+01 -0.1608541517D+00  0.3164239610D+00
      0.5442492580D+00  0.1143456438D+01  0.7443082909D+00
 Atom C36      Shell   105 SP   1    bf  284 -   287          7.039069312764         -1.504556502200         -0.016416806807
      0.1687144782D+00  0.1000000000D+01  0.1000000000D+01
 Atom C36      Shell   106 D   1     bf  288 -   293          7.039069312764         -1.504556502200         -0.016416806807
      0.8000000000D+00  0.1000000000D+01
 Atom H37      Shell   107 S   3     bf  294 -   294          7.326883541207         -1.468779640134          2.039653489378
      0.1873113696D+02  0.3349460434D-01
      0.2825394365D+01  0.2347269535D+00
      0.6401216923D+00  0.8137573261D+00
 Atom H37      Shell   108 S   1     bf  295 -   295          7.326883541207         -1.468779640134          2.039653489378
      0.1612777588D+00  0.1000000000D+01
 Atom H38      Shell   109 S   3     bf  296 -   296          8.094185370176         -3.136187638205         -0.728153241948
      0.1873113696D+02  0.3349460434D-01
      0.2825394365D+01  0.2347269535D+00
      0.6401216923D+00  0.8137573261D+00
 Atom H38      Shell   110 S   1     bf  297 -   297          8.094185370176         -3.136187638205         -0.728153241948
      0.1612777588D+00  0.1000000000D+01
 Atom C39      Shell   111 S   6     bf  298 -   298          7.311473202539          5.357453937886          0.505774560309
      0.3047524880D+04  0.1834737132D-02
[...]
 1578 Fit       0.001564
 1579 Fit       0.002589
 1580 Fit       0.002528
 1581 Fit       0.000384
 1582 Fit       0.004476
 1583 Fit       0.003622
 1584 Fit       0.001956
 1585 Fit      -0.000312
 1586 Fit       0.003349
 1587 Fit       0.001752
 1588 Fit      -0.000303
 1589 Fit       0.001384
 1590 Fit      -0.001923
 1591 Fit      -0.002350
 1592 Fit      -0.002050
 1593 Fit      -0.001610
 1594 Fit      -0.002458
 1595 Fit      -0.001961
 1596 Fit       0.000211
 1597 Fit      -0.000936
 1598 Fit       0.000887
 1599 Fit       0.002177
 1600 Fit       0.002713
 1601 Fit      -0.000616
 1602 Fit       0.000858
 1603 Fit       0.001560
 1604 Fit       0.001728
 1605 Fit      -0.001093
 1606 Fit      -0.000726
 1607 Fit      -0.000056
 1608 Fit       0.003441
 1609 Fit       0.001900
 1610 Fit       0.000917
 1611 Fit      -0.001381
 1612 Fit       0.002267
 1613 Fit       0.003110
 1614 Fit       0.002605
 1615 Fit       0.000744
 1616 Fit      -0.001685
 1617 Fit       0.000515
 1618 Fit       0.001856
 1619 Fit      -0.000413
 1620 Fit      -0.000237
 1621 Fit       0.001562
 1622 Fit       0.003239
 1623 Fit      -0.000440
 1624 Fit       0.001773
 1625 Fit       0.003369
 1626 Fit       0.003884
 1627 Fit       0.002895
 1628 Fit       0.001053
 1629 Fit       0.000311
 1630 Fit       0.002484
 1631 Fit       0.002594
 1632 Fit       0.000472
 1633 Fit       0.000716
 1634 Fit      -0.017436
 1635 Fit      -0.017031
 1636 Fit      -0.023201
 1637 Fit      -0.024107
 1638 Fit      -0.021369
 1639 Fit      -0.014726
 1640 Fit      -0.025212
 1641 Fit      -0.023763
 1642 Fit      -0.020460
 1643 Fit      -0.014272
 1644 Fit      -0.021938
 1645 Fit      -0.019746
 1646 Fit      -0.016680
 1647 Fit      -0.012626
 1648 Fit      -0.006899
 1649 Fit      -0.015100
 1650 Fit      -0.012286
 1651 Fit      -0.007946
 1652 Fit      -0.000635
 1653 Fit       0.003414
 1654 Fit       0.006512
 1655 Fit       0.003156
 1656 Fit       0.004978
 1657 Fit       0.008245
 1658 Fit       0.011293
 1659 Fit       0.012938
 1660 Fit       0.013248
 1661 Fit       0.012625
 1662 Fit       0.015048
 1663 Fit       0.016823
 1664 Fit       0.018079
 1665 Fit       0.017143
 1666 Fit      -0.017685
 1667 Fit      -0.022089
 1668 Fit      -0.019015
 1669 Fit      -0.020008
 1670 Fit      -0.024286
 1671 Fit      -0.025480
 1672 Fit      -0.024673
 1673 Fit      -0.021558
 1674 Fit      -0.014776
 1675 Fit      -0.019013
 1676 Fit      -0.022614
 1677 Fit      -0.023420
 1678 Fit      -0.023077
 1679 Fit      -0.022139
 1680 Fit      -0.019845
 1681 Fit      -0.014325
 1682 Fit      -0.015310
 1683 Fit      -0.016639
 1684 Fit      -0.016219
 1685 Fit      -0.015407
 1686 Fit      -0.014737
 1687 Fit      -0.013763
 1688 Fit      -0.011268
 1689 Fit      -0.004900
 1690 Fit      -0.005496
 1691 Fit      -0.004192
 1692 Fit      -0.002736
 1693 Fit      -0.001959
 1694 Fit      -0.001322
 1695 Fit       0.000376
 1696 Fit       0.000890
 1697 Fit       0.002083
 1698 Fit       0.002973
 1699 Fit       0.003636
 1700 Fit       0.004787
 1701 Fit       0.011904
 1702 Fit       0.011950
 1703 Fit       0.012660
 1704 Fit       0.013559
 1705 Fit       0.015083
 1706 Fit       0.019565
 1707 Fit       0.018856
 1708 Fit       0.020050
 1709 Fit       0.023202
 1710 Fit       0.023108
 1711 Fit       0.002524
 1712 Fit       0.000228
 1713 Fit       0.001433
 1714 Fit       0.003906
 1715 Fit       0.004468
 1716 Fit       0.003806
 1717 Fit       0.007389
 1718 Fit       0.009609
 1719 Fit       0.014697
 1720 Fit       0.005178
 1721 Fit       0.005765
 1722 Fit       0.004167
 1723 Fit       0.004528
 1724 Fit       0.006158
 1725 Fit       0.005775
 1726 Fit       0.001137
 1727 Fit      -0.000616
 1728 Fit       0.000581
 1729 Fit       0.002584
 1730 Fit       0.003073
 1731 Fit       0.003070
 1732 Fit       0.001816
 1733 Fit       0.001379
 1734 Fit       0.004356
 1735 Fit       0.003972
 1736 Fit       0.005182
 1737 Fit       0.004387
 1738 Fit       0.003683
 1739 Fit       0.004752
 1740 Fit       0.003518
 1741 Fit       0.002647
 1742 Fit       0.002735
 1743 Fit       0.002061
 1744 Fit       0.003801
 1745 Fit       0.003675
 1746 Fit       0.004091
 1747 Fit       0.004667
 1748 Fit       0.004794
 1749 Fit       0.005524
 1750 Fit       0.004940
 1751 Fit       0.005201
 1752 Fit       0.004669
 1753 Fit      -0.001854
 1754 Fit      -0.008550
 1755 Fit      -0.007889
 1756 Fit      -0.011983
 1757 Fit      -0.021404
 1758 Fit      -0.003192
 1759 Fit      -0.004700
 1760 Fit      -0.006461
 1761 Fit      -0.004052
 1762 Fit      -0.006801
 1763 Fit      -0.009935
 1764 Fit      -0.014311
 1765 Fit      -0.008052
 1766 Fit      -0.010539
 1767 Fit      -0.016391
 1768 Fit      -0.021968
 1769 Fit      -0.004767
 1770 Fit      -0.007560
 1771 Fit      -0.012098
 1772 Fit       0.000223
 1773 Fit      -0.002125
 1774 Fit      -0.003598
 1775 Fit      -0.001465
 1776 Fit       0.001486
 1777 Fit       0.002129
 1778 Fit       0.006010
 1779 Fit       0.007043
 1780 Fit       0.005115
 1781 Fit       0.008207
 1782 Fit       0.006024
 1783 Fit       0.004788
 1784 Fit       0.007028
 1785 Fit       0.007965
 1786 Fit       0.005789
 1787 Fit       0.004693
 1788 Fit       0.006194
 1789 Fit       0.004754
 1790 Fit       0.007600
 1791 Fit       0.005938
 1792 Fit       0.004258
 1793 Fit       0.008486
 1794 Fit       0.006240
 1795 Fit       0.004845
 1796 Fit       0.007986
 1797 Fit      -0.003311
 1798 Fit      -0.005004
 1799 Fit      -0.007146
 1800 Fit      -0.007026
 1801 Fit      -0.003133
 1802 Fit      -0.001550
 1803 Fit      -0.003182
 1804 Fit      -0.000306
 1805 Fit      -0.000500
 1806 Fit      -0.001568
 1807 Fit       0.001518
 1808 Fit      -0.000618
 1809 Fit      -0.000155
 1810 Fit      -0.000820
 1811 Fit      -0.001768
 1812 Fit      -0.001297
 1813 Fit      -0.000409
 1814 Fit      -0.000889
 1815 Fit      -0.000657
 1816 Fit      -0.001889
 1817 Fit      -0.003317
 1818 Fit      -0.001313
 1819 Fit      -0.002699
 1820 Fit      -0.004255
 1821 Fit      -0.006244
 1822 Fit       0.000707
 1823 Fit       0.000982
 1824 Fit      -0.002540
 1825 Fit      -0.002863
 1826 Fit      -0.000517
 1827 Fit       0.002182
 1828 Fit       0.003456
 1829 Fit      -0.009386
 1830 Fit      -0.010863
 1831 Fit      -0.006796
 1832 Fit       0.001473
 1833 Fit       0.003328
 1834 Fit       0.005079
 1835 Fit       0.003351
 1836 Fit       0.001754
 1837 Fit       0.001723
 1838 Fit       0.002834
 1839 Fit       0.003202
 1840 Fit       0.002086
 1841 Fit       0.002098
 1842 Fit       0.009569
 1843 Fit       0.006052
 1844 Fit       0.005632
 1845 Fit       0.007311
 1846 Fit       0.005826
 1847 Fit       0.004085
 1848 Fit       0.002741
 1849 Fit       0.002160
 1850 Fit       0.003028
 1851 Fit       0.002974
 1852 Fit       0.003042
 1853 Fit       0.003897
 1854 Fit       0.002555
 1855 Fit       0.002768
 1856 Fit       0.004456
 1857 Fit       0.003498
 1858 Fit       0.002686
 1859 Fit       0.005217
 1860 Fit       0.005379
 1861 Fit       0.005267
 1862 Fit       0.006187
 1863 Fit       0.005472
 1864 Fit       0.004487
 1865 Fit       0.004881
 1866 Fit       0.004822
 1867 Fit       0.005429
 1868 Fit       0.004418
 1869 Fit       0.004746
 1870 Fit       0.005154
 1871 Fit       0.005877
 1872 Fit       0.006422
 1873 Fit       0.006608
 1874 Fit       0.007349
 1875 Fit       0.007501
 1876 Fit       0.008350
 1877 Fit       0.009123
 1878 Fit       0.008699
 1879 Fit       0.009459
 1880 Fit      -0.001744
 1881 Fit      -0.003163
 1882 Fit      -0.003452
 1883 Fit      -0.002641
 1884 Fit      -0.002706
 1885 Fit       0.005550
 1886 Fit       0.008862
 1887 Fit      -0.002594
 1888 Fit      -0.001905
 1889 Fit      -0.005515
 1890 Fit      -0.000675
 1891 Fit       0.000635
 1892 Fit      -0.004851
 1893 Fit       0.000531
 1894 Fit       0.002786
 1895 Fit      -0.002506
 1896 Fit       0.001907
 1897 Fit       0.003284
 1898 Fit       0.003393
 1899 Fit       0.008369
 1900 Fit       0.009762
 1901 Fit       0.006967
 1902 Fit       0.006128
 1903 Fit       0.007032
 1904 Fit       0.006897
 1905 Fit       0.006203
 1906 Fit       0.006221
 1907 Fit       0.009581
 1908 Fit       0.009284
 1909 Fit       0.009206
 1910 Fit       0.008579
 1911 Fit       0.007948
 1912 Fit       0.008453
 1913 Fit       0.008327
 1914 Fit       0.008329
 1915 Fit       0.008095
 1916 Fit       0.006711
 1917 Fit       0.007231
 1918 Fit       0.007279
 1919 Fit       0.011355
 1920 Fit       0.014965
 1921 Fit       0.015827
 1922 Fit       0.012941
 1923 Fit       0.009035
 1924 Fit       0.010931
 1925 Fit       0.009421
 1926 Fit       0.007790
 1927 Fit       0.015100
 1928 Fit       0.009842
 1929 Fit       0.011306
 1930 Fit       0.010836
 1931 Fit       0.008599
 1932 Fit       0.007419
 1933 Fit       0.008552
 1934 Fit       0.007955
 1935 Fit       0.006802
 1936 Fit       0.003942
 1937 Fit       0.003867
 1938 Fit       0.003940
 1939 Fit       0.006085
 1940 Fit      -0.001353
 1941 Fit      -0.006494
 1942 Fit      -0.001109
 1943 Fit      -0.008230
 1944 Fit       0.003380
 1945 Fit       0.000388
 1946 Fit      -0.005109
 1947 Fit       0.003429
 1948 Fit       0.001479
 1949 Fit      -0.002342
 1950 Fit       0.003602
 1951 Fit       0.002765
 1952 Fit       0.007218
 1953 Fit       0.007133
 1954 Fit       0.008273
 1955 Fit       0.012704
 1956 Fit       0.010376
 1957 Fit       0.011054
 1958 Fit       0.015367
 1959 Fit       0.019295
 1960 Fit       0.007823
 1961 Fit       0.005391
 1962 Fit       0.005754
 1963 Fit       0.007328
 1964 Fit       0.006393
 1965 Fit       0.018481
 1966 Fit       0.010916
 1967 Fit       0.008750
 1968 Fit       0.008933
 1969 Fit       0.017793
 1970 Fit       0.012550
 1971 Fit       0.010853
 1972 Fit       0.002167
 1973 Fit      -0.004922
 1974 Fit       0.000193
 1975 Fit       0.003610
 1976 Fit      -0.010919
 1977 Fit      -0.001806
 1978 Fit       0.002480
 1979 Fit       0.004450
 1980 Fit      -0.009372
 1981 Fit      -0.000965
 1982 Fit       0.002782
 1983 Fit       0.004684
 1984 Fit       0.005914
 1985 Fit      -0.005208
 1986 Fit       0.000585
 1987 Fit       0.003406
 1988 Fit       0.005113
 1989 Fit       0.004555
 1990 Fit      -0.000604
 1991 Fit       0.000272
 1992 Fit       0.000610
 1993 Fit       0.002206
 1994 Fit       0.001844
 1995 Fit       0.002759
 1996 Fit      -0.000256
 1997 Fit      -0.000257
 1998 Fit      -0.000215
 1999 Fit       0.000031
 2000 Fit      -0.000617
 2001 Fit      -0.000081
 2002 Fit      -0.000061
 2003 Fit      -0.000464
 2004 Fit      -0.000525
 2005 Fit      -0.000278
 2006 Fit       0.002851
 2007 Fit       0.000163
 2008 Fit      -0.002836
 2009 Fit      -0.005653
 2010 Fit      -0.002699
 2011 Fit       0.002153
 2012 Fit      -0.000728
 2013 Fit      -0.002293
 2014 Fit      -0.002549
 2015 Fit      -0.007493
 2016 Fit      -0.014301
 2017 Fit      -0.016126
 2018 Fit      -0.010048
 2019 Fit      -0.001679
 2020 Fit       0.004112
 2021 Fit      -0.002620
 2022 Fit      -0.001996
 2023 Fit      -0.002592
 2024 Fit      -0.001417
 2025 Fit      -0.002236
 2026 Fit      -0.002158
 2027 Fit      -0.001086
 2028 Fit      -0.001686
 2029 Fit      -0.000228
 2030 Fit      -0.001110
 2031 Fit       0.001088
 2032 Fit      -0.002203
 2033 Fit      -0.002226
 2034 Fit      -0.001023
 2035 Fit      -0.001081
 2036 Fit      -0.002262
 2037 Fit      -0.000935
 2038 Fit      -0.000132
 2039 Fit       0.000061
 2040 Fit      -0.001132
 2041 Fit      -0.000191
 2042 Fit       0.000006
 2043 Fit      -0.001244
 2044 Fit      -0.000122
 2045 Fit      -0.000468
 2046 Fit      -0.000752
 2047 Fit      -0.000751
 2048 Fit      -0.000234
 2049 Fit       0.001027
 2050 Fit      -0.000611
 2051 Fit       0.000237
 2052 Fit       0.000976
 2053 Fit       0.001512
 2054 Fit      -0.000342
 2055 Fit      -0.001952
 2056 Fit      -0.000864
 2057 Fit       0.001178
 2058 Fit       0.001353
 2059 Fit      -0.000182
 2060 Fit       0.003020
 2061 Fit       0.002590
 2062 Fit       0.001469
 2063 Fit      -0.000172
 2064 Fit       0.002542
 2065 Fit       0.001566
 2066 Fit       0.000122
 2067 Fit       0.001229
 2068 Fit      -0.000955
 2069 Fit       0.000006
 2070 Fit       0.001309
 2071 Fit       0.000731
 2072 Fit       0.000455
 2073 Fit       0.000124
 2074 Fit       0.002143
 2075 Fit       0.001366
 2076 Fit       0.000773
 2077 Fit       0.001201
 2078 Fit       0.000841
 2079 Fit       0.001007
 2080 Fit       0.002117
 2081 Fit       0.000330
 2082 Fit       0.000333
 2083 Fit       0.002212
 2084 Fit       0.002886
 2085 Fit       0.003040
 2086 Fit       0.002980
 2087 Fit       0.003051
 2088 Fit       0.002456
 2089 Fit       0.003572
 2090 Fit       0.003340
 2091 Fit       0.002681
 2092 Fit       0.005395
 2093 Fit       0.004456
 2094 Fit       0.005233
 2095 Fit       0.004324
 2096 Fit       0.004640
 2097 Fit       0.003967
 2098 Fit       0.003265
 2099 Fit       0.002865
 2100 Fit       0.002648
 2101 Fit       0.001662
 2102 Fit       0.002903
 2103 Fit       0.002866
 2104 Fit       0.002304
 2105 Fit       0.001644
 2106 Fit       0.002400
 2107 Fit       0.002721
 2108 Fit       0.002811
 2109 Fit       0.002404
 2110 Fit       0.001953
 2111 Fit       0.002021
 2112 Fit       0.002121
 2113 Fit       0.001433
 2114 Fit       0.000263
 2115 Fit      -0.000726
 2116 Fit      -0.001095
 2117 Fit      -0.001523
 2118 Fit      -0.001112
 2119 Fit      -0.001542
 2120 Fit      -0.001595
 2121 Fit      -0.001203
 2122 Fit      -0.000640
 2123 Fit      -0.001269
 2124 Fit       0.001282
 2125 Fit       0.000143
 2126 Fit       0.001274
 2127 Fit       0.000862
 2128 Fit       0.002470
 2129 Fit       0.000573
 2130 Fit       0.001769
 2131 Fit      -0.000948
 2132 Fit      -0.000039
 2133 Fit       0.001158
 2134 Fit       0.001804
 2135 Fit      -0.000968
 2136 Fit       0.000240
 2137 Fit      -0.001206
 2138 Fit      -0.000627
 2139 Fit       0.000248
 2140 Fit       0.000600
 2141 Fit       0.000289
 2142 Fit       0.000595
 2143 Fit       0.000756
 2144 Fit       0.001530
 2145 Fit       0.001901
 2146 Fit       0.001595
 2147 Fit       0.001946
 2148 Fit       0.001886
 2149 Fit       0.002523
 2150 Fit       0.002586
 2151 Fit       0.002266
 2152 Fit       0.003019
 2153 Fit       0.000801
 2154 Fit       0.001892
 2155 Fit       0.001896
 2156 Fit       0.000408
 2157 Fit       0.003588
 2158 Fit       0.002979
 2159 Fit       0.001714
 2160 Fit       0.000041
 2161 Fit       0.004062
 2162 Fit       0.002918
 2163 Fit       0.001567
 2164 Fit      -0.000004
 2165 Fit       0.003329
 2166 Fit       0.002133
 2167 Fit       0.000712
 2168 Fit      -0.001211
 2169 Fit      -0.001295
 2170 Fit      -0.000306
 2171 Fit      -0.001650
 2172 Fit      -0.001648
 2173 Fit      -0.001160
 2174 Fit      -0.001613
 2175 Fit      -0.001185
 2176 Fit       0.000517
 2177 Fit      -0.000240
 2178 Fit      -0.000582
 2179 Fit       0.001086
 2180 Fit       0.001722
 2181 Fit      -0.000006
 2182 Fit       0.001031
 2183 Fit       0.001597
 2184 Fit       0.001987
 2185 Fit      -0.001023
 2186 Fit      -0.000105
 2187 Fit       0.000433
 2188 Fit       0.000542
 2189 Fit       0.000489
 2190 Fit      -0.000580
 2191 Fit       0.000949
 2192 Fit       0.000351
 2193 Fit      -0.001163
 2194 Fit       0.002199
 2195 Fit       0.002897
 2196 Fit       0.002701
 2197 Fit       0.001729
 2198 Fit       0.000738
 2199 Fit      -0.000900
 2200 Fit       0.001821
 2201 Fit       0.002355
 2202 Fit       0.001963
 2203 Fit       0.000499
 2204 Fit       0.000519
 2205 Fit       0.001317
 2206 Fit      -0.000190
 2207 Fit      -0.000084
 2208 Fit       0.001378
 2209 Fit       0.002664
 2210 Fit      -0.000058
 2211 Fit       0.001583
 2212 Fit       0.002802
 2213 Fit       0.003207
 2214 Fit       0.002537
 2215 Fit       0.001179
 2216 Fit       0.000369
 2217 Fit       0.001922
 2218 Fit       0.002079
 2219 Fit       0.000664
 2220 Fit       0.000688
 -----------------------------------------------------------------
 Leave Link  602 at Thu May 18 12:53:43 2017, MaxMem=    33554432 cpu:         3.3
 (Enter /home/michal/g09/l9999.exe)

 Test job not archived.
 1\1\GINC-LINUX\SP\RHF\6-31G(d)\C27H46O2\MICHAL\18-May-2017\0\\#P HF/6-
 31G* SCF(Conver=6) NoSymm Test Pop=mk IOp(6/33=2) GFInput GFPrint\\MEP
  - Input generated by R.E.D.-III.x MOLECULE\\0,1\O,0,5.54341047,4.5430
 0713,0.\H,0,5.21144798,4.60985156,-0.90644876\O,0,0.,0.,0.\H,0,-0.1605
 4811,-0.09467729,-0.94943389\C,0,8.72270438,1.28710933,-0.16480328\C,0
 ,7.69574264,2.3030907,0.4014429\H,0,7.5810352,2.03162686,1.46490906\C,
 0,6.28282132,2.18901939,-0.1953832\H,0,6.31370923,2.42250442,-1.269725
 11\C,0,5.75279799,0.73857495,0.00606802\H,0,5.62625105,0.62122717,1.09
 497838\C,0,9.98063054,1.70065298,0.66150717\H,0,9.73475888,1.3908698,1
 .68777178\C,0,8.19405961,-0.12468023,0.13687552\H,0,8.17069657,-0.2682
 432,1.22687843\H,0,8.86343464,-0.89631128,-0.26650123\C,0,4.32644558,0
 .51353204,-0.60830869\C,0,8.44895852,3.6486173,0.3773134\H,0,8.0545465
 ,4.35516857,1.11142336\H,0,8.34248651,4.13501953,-0.59793897\C,0,6.779
 09127,-0.33430046,-0.43674047\H,0,6.84227167,-0.35868994,-1.52957088\H
 ,0,6.42301885,-1.32503885,-0.13379128\C,0,9.93509506,3.26004402,0.6505
 12\H,0,10.58431524,3.67412606,-0.12603018\H,0,10.29259029,3.66936269,1
 .60127104\C,0,5.31582384,3.19527771,0.45713823\H,0,5.53598898,3.253209
 94,1.53264913\C,0,11.34428668,1.01580669,0.34799649\H,0,11.10888763,0.
 ,0.\C,0,8.9483848,1.4586373,-1.68331432\H,0,8.02819532,1.31577325,-2.2
 5583453\H,0,9.33007108,2.45213681,-1.93402676\H,0,9.67203382,0.7223643
 5,-2.04803035\C,0,3.40553213,1.67920024,-0.2300712\C,0,3.72491505,-0.7
 9617701,-0.0086874\H,0,3.87721978,-0.77724471,1.07933814\H,0,4.2832584
 2,-1.65959902,-0.3853221\C,0,3.86906498,2.83504252,0.26764437\H,0,3.16
 635326,3.61869505,0.55075495\C,0,4.37765784,0.39961349,-2.15565591\H,0
 ,4.87276248,-0.52360465,-2.47206811\H,0,3.37526455,0.39258404,-2.59156
 068\H,0,4.91485857,1.24424613,-2.59775152\C,0,1.91514268,1.47777125,-0
 .4301054\H,0,1.36045579,2.33241978,-0.03063151\H,0,1.68738517,1.428475
 42,-1.50730565\C,0,2.2277774,-1.00805276,-0.28202523\H,0,2.04884666,-1
 .14564848,-1.35881298\H,0,1.88339244,-1.92362256,0.21211162\C,0,12.201
 34107,1.70723633,-0.74089426\H,0,11.56660957,2.04774654,-1.56575522\H,
 0,12.64311899,2.61450766,-0.30730376\C,0,1.4028138,0.17996128,0.211767
 96\H,0,1.50155916,0.25858748,1.30131722\C,0,12.15894202,0.86765272,1.6
 4976432\H,0,12.36917268,1.84995131,2.09117454\H,0,13.11918587,0.370304
 ,1.48007092\H,0,11.61118619,0.27868085,2.39378282\C,0,13.34036819,0.85
 339997,-1.33779323\H,0,13.98450463,1.52167044,-1.92289638\H,0,13.97145
 988,0.45883555,-0.53249795\C,0,12.86000395,-0.2967571,-2.23925943\H,0,
 12.22095899,0.12341875,-3.02967934\H,0,12.21946111,-0.97434639,-1.6591
 1361\C,0,13.96347059,-1.14815121,-2.91185638\H,0,13.4355295,-1.9057845
 2,-3.5099355\C,0,14.83232332,-1.9043118,-1.89293864\H,0,15.44331797,-1
 .21877174,-1.29459428\H,0,15.51720937,-2.59328124,-2.40034691\H,0,14.2
 1688263,-2.4934237,-1.20279156\C,0,14.83404648,-0.33479454,-3.88415759
 \H,0,15.44997682,0.40296533,-3.35731139\H,0,15.51461731,-0.991065,-4.4
 3856\H,0,14.21943727,0.20326007,-4.61551607\\Version=EM64L-G09RevD.01\
 HF=-1198.9227506\RMSD=4.952e-07\Dipole=0.2284336,-0.6424818,-0.8819498
 \Quadrupole=-2.1185579,-4.2683613,6.3869192,-8.6456019,-3.1273867,-2.9
 540101\PG=C01 [X(C27H46O2)]\\@


 THOSE WHO TRY TO PASS CHEMISTRY OFF AS A NEW SCIENCE
 SHOW HOW LITTLE KNOWLEDGE THEY HAVE OF THE CHARACTER
 AND LITERATURE OF THE ANCIENTS.
   -- NICOLAS LEFEVRE
 "COURS DE CHYMIE" J.-N.LELOUP, PARIS, 1751
 Job cpu time:       0 days  0 hours 10 minutes 54.7 seconds.
 File lengths (MBytes):  RWF=    150 Int=      0 D2E=      0 Chk=     11 Scr=      1
 Normal termination of Gaussian 09 at Thu May 18 12:53:43 2017.
