 Entering Gaussian System, Link 0=/scratch/michal/g09//g09
 Input=JOB2-gau_m1-7-1.com
 Output=JOB2-gau_m1-7-1.log
 Initial command:
 /scratch/michal/g09/l1.exe /scratch/michal/gauss_scratch/Gau-6603.inp -scrdir=/scratch/michal/gauss_scratch/
 Entering Link 1 = /scratch/michal/g09/l1.exe PID=      6605.
  
 Copyright (c) 1988,1990,1992,1993,1995,1998,2003,2009,2011,
            Gaussian, Inc.  All Rights Reserved.
  
 This is part of the Gaussian(R) 09 program.  It is based on
 the Gaussian(R) 03 system (copyright 2003, Gaussian, Inc.),
 the Gaussian(R) 98 system (copyright 1998, Gaussian, Inc.),
 the Gaussian(R) 94 system (copyright 1995, Gaussian, Inc.),
 the Gaussian 92(TM) system (copyright 1992, Gaussian, Inc.),
 the Gaussian 90(TM) system (copyright 1990, Gaussian, Inc.),
 the Gaussian 88(TM) system (copyright 1988, Gaussian, Inc.),
 the Gaussian 86(TM) system (copyright 1986, Carnegie Mellon
 University), and the Gaussian 82(TM) system (copyright 1983,
 Carnegie Mellon University). Gaussian is a federally registered
 trademark of Gaussian, Inc.
  
 This software contains proprietary and confidential information,
 including trade secrets, belonging to Gaussian, Inc.
  
 This software is provided under written license and may be
 used, copied, transmitted, or stored only in accord with that
 written license.
  
 The following legend is applicable only to US Government
 contracts under FAR:
  
                    RESTRICTED RIGHTS LEGEND
  
 Use, reproduction and disclosure by the US Government is
 subject to restrictions as set forth in subparagraphs (a)
 and (c) of the Commercial Computer Software - Restricted
 Rights clause in FAR 52.227-19.
  
 Gaussian, Inc.
 340 Quinnipiac St., Bldg. 40, Wallingford CT 06492
  
  
 ---------------------------------------------------------------
 Warning -- This program may not be used in any manner that
 competes with the business of Gaussian, Inc. or will provide
 assistance to any competitor of Gaussian, Inc.  The licensee
 of this program is prohibited from giving any competitor of
 Gaussian, Inc. access to this program.  By using this program,
 the user acknowledges that Gaussian, Inc. is engaged in the
 business of creating and licensing software in the field of
 computational chemistry and represents and warrants to the
 licensee that it is not a competitor of Gaussian, Inc. and that
 it will not use this program in any manner prohibited above.
 ---------------------------------------------------------------
  

 Cite this work as:
 Gaussian 09, Revision C.01,
 M. J. Frisch, G. W. Trucks, H. B. Schlegel, G. E. Scuseria, 
 M. A. Robb, J. R. Cheeseman, G. Scalmani, V. Barone, B. Mennucci, 
 G. A. Petersson, H. Nakatsuji, M. Caricato, X. Li, H. P. Hratchian, 
 A. F. Izmaylov, J. Bloino, G. Zheng, J. L. Sonnenberg, M. Hada, 
 M. Ehara, K. Toyota, R. Fukuda, J. Hasegawa, M. Ishida, T. Nakajima, 
 Y. Honda, O. Kitao, H. Nakai, T. Vreven, J. A. Montgomery, Jr., 
 J. E. Peralta, F. Ogliaro, M. Bearpark, J. J. Heyd, E. Brothers, 
 K. N. Kudin, V. N. Staroverov, T. Keith, R. Kobayashi, J. Normand, 
 K. Raghavachari, A. Rendell, J. C. Burant, S. S. Iyengar, J. Tomasi, 
 M. Cossi, N. Rega, J. M. Millam, M. Klene, J. E. Knox, J. B. Cross, 
 V. Bakken, C. Adamo, J. Jaramillo, R. Gomperts, R. E. Stratmann, 
 O. Yazyev, A. J. Austin, R. Cammi, C. Pomelli, J. W. Ochterski, 
 R. L. Martin, K. Morokuma, V. G. Zakrzewski, G. A. Voth, 
 P. Salvador, J. J. Dannenberg, S. Dapprich, A. D. Daniels, 
 O. Farkas, J. B. Foresman, J. V. Ortiz, J. Cioslowski, 
 and D. J. Fox, Gaussian, Inc., Wallingford CT, 2010.
 
 ******************************************
 Gaussian 09:  EM64L-G09RevC.01 23-Sep-2011
                17-May-2017 
 ******************************************
 %Mem=256MB
 %NProc=48
 Will use up to   48 processors via shared memory.
 ----------------------------------------------------------------------
 #P HF/6-31G* SCF(Conver=6) NoSymm Test Pop=chelpg IOp(6/33=2) GFInput 
 GFPrint
 ----------------------------------------------------------------------
 1/38=1/1;
 2/12=2,15=1,17=6,18=5,40=1/2;
 3/5=1,6=6,7=1,11=9,16=1,24=110,25=1,30=1/1,2,3;
 4//1;
 5/5=2,6=6,38=5/2;
 6/7=2,8=2,9=2,10=2,15=8,20=3,28=1,33=2/1,2;
 99/5=1,9=1/99;
 Leave Link    1 at Wed May 17 12:11:23 2017, MaxMem=   33554432 cpu:       3.5
 (Enter /scratch/michal/g09/l101.exe)
 ----------------------------------------------
 MEP - Input generated by R.E.D.-III.x MOLECULE
 ----------------------------------------------
 Charge =  0 Multiplicity = 1
 Symbolic Z-Matrix:
 O                     0.        0.        0. 
 H                     0.96654   0.        0. 
 O                     4.35479  -1.27672  -4.95217 
 H                     4.0798   -1.08105  -5.85896 
 C                    -1.23257   4.10711  -0.73194 
 C                    -1.13367   2.57319  -0.50339 
 H                    -0.43759   2.44721   0.33802 
 C                    -0.52863   1.78091  -1.66837 
 H                    -1.18899   1.8671   -2.54352 
 C                     0.87323   2.33365  -2.03114 
 H                     1.52609   2.08151  -1.17888 
 C                    -1.91005   4.53029   0.61806 
 H                    -1.12781   4.42785   1.38494 
 C                     0.20797   4.60588  -0.9646 
 H                     0.79029   4.43828  -0.04709 
 H                     0.23995   5.68227  -1.16166 
 C                     1.49561   1.61105  -3.277 
 C                    -2.51774   2.16879   0.0254 
 H                    -2.47144   1.25582   0.62553 
 H                    -3.21422   1.97616  -0.80079 
 C                     0.88292   3.8767   -2.14481 
 H                     0.3846    4.18375  -3.07013 
 H                     1.91632   4.23268  -2.22795 
 C                    -2.96877   3.40318   0.85534 
 H                    -3.96149   3.74295   0.53696 
 H                    -3.05396   3.1627    1.91951 
 C                    -0.4492    0.27318  -1.3484 
 H                    -1.46434  -0.13976  -1.36676 
 C                    -2.51155   5.95034   0.75933 
 H                    -3.3024    6.04307   0. 
 C                    -2.13934   4.47711  -1.92778 
 H                    -1.80652   4.01636  -2.8614 
 H                    -3.17567   4.16513  -1.76704 
 H                    -2.14626   5.56059  -2.08842 
 C                     1.28113   0.09489  -3.17812 
 C                     3.03071   1.88859  -3.30034 
 H                     3.42929   1.70213  -2.29336 
 H                     3.20368   2.94966  -3.50958 
 C                     0.41094  -0.47269  -2.32665 
 H                     0.32818  -1.55876  -2.29641 
 C                     0.85865   2.10735  -4.60367 
 H                     1.1376    3.14382  -4.81569 
 H                     1.1846    1.50598  -5.4559 
 H                    -0.23316   2.04691  -4.56608 
 C                     2.10128  -0.77539  -4.11279 
 H                     1.94176  -1.83327  -3.88226 
 H                     1.76618  -0.62516  -5.15153 
 C                     3.82952   1.03824  -4.29993 
 H                     3.53801   1.28234  -5.33215 
 H                     4.89841   1.26438  -4.21435 
 C                    -3.25195   6.14288   2.11522 
 H                    -3.67143   7.15769   2.12421 
 H                    -4.1206    5.47373   2.11451 
 C                     3.60248  -0.45363  -4.05724 
 H                     3.98619  -0.71829  -3.06418 
 C                    -1.50195   7.08092   0.48118 
 H                    -0.56958   6.95079   1.03962 
 H                    -1.9243    8.05287   0.75987 
 H                    -1.24158   7.13536  -0.57944 
 C                    -2.49292   5.88967   3.43761 
 H                    -3.24723   5.77287   4.22644 
 H                    -1.98475   4.9187    3.3859 
 C                    -1.46536   6.94069   3.90466 
 H                    -0.63438   6.99182   3.19163 
 H                    -1.02569   6.58132   4.84745 
 C                    -1.99173   8.37191   4.14395 
 H                    -2.42127   8.74475   3.20332 
 C                    -0.83042   9.30635   4.52006 
 H                    -0.36111   8.9879    5.45986 
 H                    -1.17631   10.33763   4.65472 
 H                    -0.05432   9.31101   3.74607 
 C                    -3.09274   8.4235    5.21534 
 H                    -2.72285   8.03382   6.17281 
 H                    -3.42638   9.45382   5.38363 
 H                    -3.97193   7.83519   4.9337 
 
 NAtoms=     75 NQM=        0 NQMF=       0 NMMI=     75 NMMIF=      0
                NMic=       0 NMicF=      0.
                    Isotopes and Nuclear Properties:
 (Nuclear quadrupole moments (NQMom) in fm**2, nuclear magnetic moments (NMagM)
  in nuclear magnetons)

  Atom         1           2           3           4           5           6           7           8           9          10
 IAtWgt=          16           1          16           1          12          12           1          12           1          12
 AtmWgt=  15.9949146   1.0078250  15.9949146   1.0078250  12.0000000  12.0000000   1.0078250  12.0000000   1.0078250  12.0000000
 NucSpn=           0           1           0           1           0           0           1           0           1           0
 AtZEff=   0.0000000   0.0000000   0.0000000   0.0000000   0.0000000   0.0000000   0.0000000   0.0000000   0.0000000   0.0000000
 NQMom=    0.0000000   0.0000000   0.0000000   0.0000000   0.0000000   0.0000000   0.0000000   0.0000000   0.0000000   0.0000000
 NMagM=    0.0000000   2.7928460   0.0000000   2.7928460   0.0000000   0.0000000   2.7928460   0.0000000   2.7928460   0.0000000

  Atom        11          12          13          14          15          16          17          18          19          20
 IAtWgt=           1          12           1          12           1           1          12          12           1           1
 AtmWgt=   1.0078250  12.0000000   1.0078250  12.0000000   1.0078250   1.0078250  12.0000000  12.0000000   1.0078250   1.0078250
 NucSpn=           1           0           1           0           1           1           0           0           1           1
 AtZEff=   0.0000000   0.0000000   0.0000000   0.0000000   0.0000000   0.0000000   0.0000000   0.0000000   0.0000000   0.0000000
 NQMom=    0.0000000   0.0000000   0.0000000   0.0000000   0.0000000   0.0000000   0.0000000   0.0000000   0.0000000   0.0000000
 NMagM=    2.7928460   0.0000000   2.7928460   0.0000000   2.7928460   2.7928460   0.0000000   0.0000000   2.7928460   2.7928460

  Atom        21          22          23          24          25          26          27          28          29          30
 IAtWgt=          12           1           1          12           1           1          12           1          12           1
 AtmWgt=  12.0000000   1.0078250   1.0078250  12.0000000   1.0078250   1.0078250  12.0000000   1.0078250  12.0000000   1.0078250
 NucSpn=           0           1           1           0           1           1           0           1           0           1
 AtZEff=   0.0000000   0.0000000   0.0000000   0.0000000   0.0000000   0.0000000   0.0000000   0.0000000   0.0000000   0.0000000
 NQMom=    0.0000000   0.0000000   0.0000000   0.0000000   0.0000000   0.0000000   0.0000000   0.0000000   0.0000000   0.0000000
 NMagM=    0.0000000   2.7928460   2.7928460   0.0000000   2.7928460   2.7928460   0.0000000   2.7928460   0.0000000   2.7928460

  Atom        31          32          33          34          35          36          37          38          39          40
 IAtWgt=          12           1           1           1          12          12           1           1          12           1
 AtmWgt=  12.0000000   1.0078250   1.0078250   1.0078250  12.0000000  12.0000000   1.0078250   1.0078250  12.0000000   1.0078250
 NucSpn=           0           1           1           1           0           0           1           1           0           1
 AtZEff=   0.0000000   0.0000000   0.0000000   0.0000000   0.0000000   0.0000000   0.0000000   0.0000000   0.0000000   0.0000000
 NQMom=    0.0000000   0.0000000   0.0000000   0.0000000   0.0000000   0.0000000   0.0000000   0.0000000   0.0000000   0.0000000
 NMagM=    0.0000000   2.7928460   2.7928460   2.7928460   0.0000000   0.0000000   2.7928460   2.7928460   0.0000000   2.7928460

  Atom        41          42          43          44          45          46          47          48          49          50
 IAtWgt=          12           1           1           1          12           1           1          12           1           1
 AtmWgt=  12.0000000   1.0078250   1.0078250   1.0078250  12.0000000   1.0078250   1.0078250  12.0000000   1.0078250   1.0078250
 NucSpn=           0           1           1           1           0           1           1           0           1           1
 AtZEff=   0.0000000   0.0000000   0.0000000   0.0000000   0.0000000   0.0000000   0.0000000   0.0000000   0.0000000   0.0000000
 NQMom=    0.0000000   0.0000000   0.0000000   0.0000000   0.0000000   0.0000000   0.0000000   0.0000000   0.0000000   0.0000000
 NMagM=    0.0000000   2.7928460   2.7928460   2.7928460   0.0000000   2.7928460   2.7928460   0.0000000   2.7928460   2.7928460

  Atom        51          52          53          54          55          56          57          58          59          60
 IAtWgt=          12           1           1          12           1          12           1           1           1          12
 AtmWgt=  12.0000000   1.0078250   1.0078250  12.0000000   1.0078250  12.0000000   1.0078250   1.0078250   1.0078250  12.0000000
 NucSpn=           0           1           1           0           1           0           1           1           1           0
 AtZEff=   0.0000000   0.0000000   0.0000000   0.0000000   0.0000000   0.0000000   0.0000000   0.0000000   0.0000000   0.0000000
 NQMom=    0.0000000   0.0000000   0.0000000   0.0000000   0.0000000   0.0000000   0.0000000   0.0000000   0.0000000   0.0000000
 NMagM=    0.0000000   2.7928460   2.7928460   0.0000000   2.7928460   0.0000000   2.7928460   2.7928460   2.7928460   0.0000000

  Atom        61          62          63          64          65          66          67          68          69          70
 IAtWgt=           1           1          12           1           1          12           1          12           1           1
 AtmWgt=   1.0078250   1.0078250  12.0000000   1.0078250   1.0078250  12.0000000   1.0078250  12.0000000   1.0078250   1.0078250
 NucSpn=           1           1           0           1           1           0           1           0           1           1
 AtZEff=   0.0000000   0.0000000   0.0000000   0.0000000   0.0000000   0.0000000   0.0000000   0.0000000   0.0000000   0.0000000
 NQMom=    0.0000000   0.0000000   0.0000000   0.0000000   0.0000000   0.0000000   0.0000000   0.0000000   0.0000000   0.0000000
 NMagM=    2.7928460   2.7928460   0.0000000   2.7928460   2.7928460   0.0000000   2.7928460   0.0000000   2.7928460   2.7928460

  Atom        71          72          73          74          75
 IAtWgt=           1          12           1           1           1
 AtmWgt=   1.0078250  12.0000000   1.0078250   1.0078250   1.0078250
 NucSpn=           1           0           1           1           1
 AtZEff=   0.0000000   0.0000000   0.0000000   0.0000000   0.0000000
 NQMom=    0.0000000   0.0000000   0.0000000   0.0000000   0.0000000
 NMagM=    2.7928460   0.0000000   2.7928460   2.7928460   2.7928460
 Leave Link  101 at Wed May 17 12:11:23 2017, MaxMem=   33554432 cpu:       6.6
 (Enter /scratch/michal/g09/l202.exe)
 Symmetry turned off by external request.
 Stoichiometry    C27H46O2
 Framework group  C1[X(C27H46O2)]
 Deg. of freedom   219
 Full point group                 C1      NOp   1
                          Input orientation:                          
 ---------------------------------------------------------------------
 Center     Atomic      Atomic             Coordinates (Angstroms)
 Number     Number       Type             X           Y           Z
 ---------------------------------------------------------------------
      1          8           0        0.000000    0.000000    0.000000
      2          1           0        0.966543    0.000000    0.000000
      3          8           0        4.354790   -1.276723   -4.952167
      4          1           0        4.079800   -1.081053   -5.858957
      5          6           0       -1.232575    4.107107   -0.731939
      6          6           0       -1.133668    2.573187   -0.503386
      7          1           0       -0.437595    2.447210    0.338017
      8          6           0       -0.528627    1.780908   -1.668373
      9          1           0       -1.188991    1.867101   -2.543519
     10          6           0        0.873226    2.333650   -2.031141
     11          1           0        1.526088    2.081509   -1.178885
     12          6           0       -1.910054    4.530288    0.618059
     13          1           0       -1.127813    4.427855    1.384939
     14          6           0        0.207974    4.605885   -0.964601
     15          1           0        0.790286    4.438279   -0.047092
     16          1           0        0.239952    5.682275   -1.161663
     17          6           0        1.495606    1.611052   -3.277001
     18          6           0       -2.517740    2.168789    0.025399
     19          1           0       -2.471441    1.255818    0.625529
     20          1           0       -3.214216    1.976159   -0.800792
     21          6           0        0.882916    3.876704   -2.144807
     22          1           0        0.384602    4.183751   -3.070127
     23          1           0        1.916323    4.232678   -2.227945
     24          6           0       -2.968772    3.403176    0.855342
     25          1           0       -3.961493    3.742954    0.536958
     26          1           0       -3.053956    3.162700    1.919513
     27          6           0       -0.449195    0.273177   -1.348398
     28          1           0       -1.464342   -0.139765   -1.366763
     29          6           0       -2.511553    5.950338    0.759330
     30          1           0       -3.302405    6.043071    0.000000
     31          6           0       -2.139336    4.477108   -1.927784
     32          1           0       -1.806519    4.016356   -2.861395
     33          1           0       -3.175673    4.165128   -1.767040
     34          1           0       -2.146261    5.560589   -2.088415
     35          6           0        1.281133    0.094888   -3.178121
     36          6           0        3.030711    1.888588   -3.300343
     37          1           0        3.429287    1.702128   -2.293356
     38          1           0        3.203682    2.949659   -3.509576
     39          6           0        0.410941   -0.472688   -2.326655
     40          1           0        0.328184   -1.558757   -2.296413
     41          6           0        0.858646    2.107347   -4.603672
     42          1           0        1.137601    3.143825   -4.815694
     43          1           0        1.184601    1.505977   -5.455898
     44          1           0       -0.233164    2.046909   -4.566085
     45          6           0        2.101276   -0.775390   -4.112789
     46          1           0        1.941759   -1.833274   -3.882255
     47          1           0        1.766178   -0.625162   -5.151528
     48          6           0        3.829524    1.038238   -4.299928
     49          1           0        3.538005    1.282339   -5.332150
     50          1           0        4.898405    1.264385   -4.214349
     51          6           0       -3.251951    6.142882    2.115220
     52          1           0       -3.671434    7.157692    2.124209
     53          1           0       -4.120601    5.473733    2.114513
     54          6           0        3.602478   -0.453630   -4.057236
     55          1           0        3.986187   -0.718286   -3.064181
     56          6           0       -1.501952    7.080922    0.481182
     57          1           0       -0.569583    6.950791    1.039618
     58          1           0       -1.924301    8.052870    0.759872
     59          1           0       -1.241581    7.135363   -0.579443
     60          6           0       -2.492921    5.889673    3.437615
     61          1           0       -3.247226    5.772866    4.226442
     62          1           0       -1.984754    4.918696    3.385904
     63          6           0       -1.465363    6.940691    3.904662
     64          1           0       -0.634380    6.991818    3.191633
     65          1           0       -1.025687    6.581318    4.847450
     66          6           0       -1.991732    8.371908    4.143953
     67          1           0       -2.421268    8.744750    3.203324
     68          6           0       -0.830422    9.306350    4.520061
     69          1           0       -0.361112    8.987903    5.459857
     70          1           0       -1.176305   10.337634    4.654724
     71          1           0       -0.054322    9.311012    3.746068
     72          6           0       -3.092736    8.423499    5.215339
     73          1           0       -2.722847    8.033816    6.172809
     74          1           0       -3.426379    9.453822    5.383626
     75          1           0       -3.971926    7.835185    4.933702
 ---------------------------------------------------------------------
 Rotational constants (GHZ):      0.4009456      0.0607716      0.0582267
 Leave Link  202 at Wed May 17 12:11:23 2017, MaxMem=   33554432 cpu:       0.2
 (Enter /scratch/michal/g09/l301.exe)
 Standard basis: 6-31G(d) (6D, 7F)
 Ernie: Thresh=  0.10000D-02 Tol=  0.10000D-05 Strict=F.
 AO basis set in the form of general basis input (Overlap normalization):
      1 0
 S   6 1.00       0.000000000000
      0.5484671660D+04  0.1831074430D-02
      0.8252349460D+03  0.1395017220D-01
      0.1880469580D+03  0.6844507810D-01
      0.5296450000D+02  0.2327143360D+00
      0.1689757040D+02  0.4701928980D+00
      0.5799635340D+01  0.3585208530D+00
 SP   3 1.00       0.000000000000
      0.1553961625D+02 -0.1107775495D+00  0.7087426823D-01
      0.3599933586D+01 -0.1480262627D+00  0.3397528391D+00
      0.1013761750D+01  0.1130767015D+01  0.7271585773D+00
 SP   1 1.00       0.000000000000
      0.2700058226D+00  0.1000000000D+01  0.1000000000D+01
 D   1 1.00       0.000000000000
      0.8000000000D+00  0.1000000000D+01
 ****
      2 0
 S   3 1.00       0.000000000000
      0.1873113696D+02  0.3349460434D-01
      0.2825394365D+01  0.2347269535D+00
      0.6401216923D+00  0.8137573261D+00
 S   1 1.00       0.000000000000
      0.1612777588D+00  0.1000000000D+01
 ****
      3 0
 S   6 1.00       0.000000000000
      0.5484671660D+04  0.1831074430D-02
      0.8252349460D+03  0.1395017220D-01
      0.1880469580D+03  0.6844507810D-01
      0.5296450000D+02  0.2327143360D+00
      0.1689757040D+02  0.4701928980D+00
      0.5799635340D+01  0.3585208530D+00
 SP   3 1.00       0.000000000000
      0.1553961625D+02 -0.1107775495D+00  0.7087426823D-01
      0.3599933586D+01 -0.1480262627D+00  0.3397528391D+00
      0.1013761750D+01  0.1130767015D+01  0.7271585773D+00
 SP   1 1.00       0.000000000000
      0.2700058226D+00  0.1000000000D+01  0.1000000000D+01
 D   1 1.00       0.000000000000
      0.8000000000D+00  0.1000000000D+01
 ****
      4 0
 S   3 1.00       0.000000000000
      0.1873113696D+02  0.3349460434D-01
      0.2825394365D+01  0.2347269535D+00
      0.6401216923D+00  0.8137573261D+00
 S   1 1.00       0.000000000000
      0.1612777588D+00  0.1000000000D+01
 ****
      5 0
 S   6 1.00       0.000000000000
      0.3047524880D+04  0.1834737132D-02
      0.4573695180D+03  0.1403732281D-01
      0.1039486850D+03  0.6884262226D-01
      0.2921015530D+02  0.2321844432D+00
      0.9286662960D+01  0.4679413484D+00
      0.3163926960D+01  0.3623119853D+00
 SP   3 1.00       0.000000000000
      0.7868272350D+01 -0.1193324198D+00  0.6899906659D-01
      0.1881288540D+01 -0.1608541517D+00  0.3164239610D+00
      0.5442492580D+00  0.1143456438D+01  0.7443082909D+00
 SP   1 1.00       0.000000000000
      0.1687144782D+00  0.1000000000D+01  0.1000000000D+01
 D   1 1.00       0.000000000000
      0.8000000000D+00  0.1000000000D+01
 ****
      6 0
 S   6 1.00       0.000000000000
      0.3047524880D+04  0.1834737132D-02
      0.4573695180D+03  0.1403732281D-01
      0.1039486850D+03  0.6884262226D-01
      0.2921015530D+02  0.2321844432D+00
      0.9286662960D+01  0.4679413484D+00
      0.3163926960D+01  0.3623119853D+00
 SP   3 1.00       0.000000000000
      0.7868272350D+01 -0.1193324198D+00  0.6899906659D-01
      0.1881288540D+01 -0.1608541517D+00  0.3164239610D+00
      0.5442492580D+00  0.1143456438D+01  0.7443082909D+00
 SP   1 1.00       0.000000000000
      0.1687144782D+00  0.1000000000D+01  0.1000000000D+01
 D   1 1.00       0.000000000000
      0.8000000000D+00  0.1000000000D+01
 ****
      7 0
 S   3 1.00       0.000000000000
      0.1873113696D+02  0.3349460434D-01
      0.2825394365D+01  0.2347269535D+00
      0.6401216923D+00  0.8137573261D+00
 S   1 1.00       0.000000000000
      0.1612777588D+00  0.1000000000D+01
 ****
      8 0
 S   6 1.00       0.000000000000
      0.3047524880D+04  0.1834737132D-02
      0.4573695180D+03  0.1403732281D-01
      0.1039486850D+03  0.6884262226D-01
      0.2921015530D+02  0.2321844432D+00
      0.9286662960D+01  0.4679413484D+00
      0.3163926960D+01  0.3623119853D+00
 SP   3 1.00       0.000000000000
      0.7868272350D+01 -0.1193324198D+00  0.6899906659D-01
      0.1881288540D+01 -0.1608541517D+00  0.3164239610D+00
      0.5442492580D+00  0.1143456438D+01  0.7443082909D+00
 SP   1 1.00       0.000000000000
      0.1687144782D+00  0.1000000000D+01  0.1000000000D+01
 D   1 1.00       0.000000000000
      0.8000000000D+00  0.1000000000D+01
 ****
      9 0
 S   3 1.00       0.000000000000
      0.1873113696D+02  0.3349460434D-01
      0.2825394365D+01  0.2347269535D+00
      0.6401216923D+00  0.8137573261D+00
 S   1 1.00       0.000000000000
      0.1612777588D+00  0.1000000000D+01
 ****
     10 0
 S   6 1.00       0.000000000000
      0.3047524880D+04  0.1834737132D-02
      0.4573695180D+03  0.1403732281D-01
      0.1039486850D+03  0.6884262226D-01
      0.2921015530D+02  0.2321844432D+00
      0.9286662960D+01  0.4679413484D+00
      0.3163926960D+01  0.3623119853D+00
 SP   3 1.00       0.000000000000
      0.7868272350D+01 -0.1193324198D+00  0.6899906659D-01
      0.1881288540D+01 -0.1608541517D+00  0.3164239610D+00
      0.5442492580D+00  0.1143456438D+01  0.7443082909D+00
 SP   1 1.00       0.000000000000
      0.1687144782D+00  0.1000000000D+01  0.1000000000D+01
 D   1 1.00       0.000000000000
      0.8000000000D+00  0.1000000000D+01
 ****
     11 0
 S   3 1.00       0.000000000000
      0.1873113696D+02  0.3349460434D-01
      0.2825394365D+01  0.2347269535D+00
      0.6401216923D+00  0.8137573261D+00
 S   1 1.00       0.000000000000
      0.1612777588D+00  0.1000000000D+01
 ****
     12 0
 S   6 1.00       0.000000000000
      0.3047524880D+04  0.1834737132D-02
      0.4573695180D+03  0.1403732281D-01
      0.1039486850D+03  0.6884262226D-01
      0.2921015530D+02  0.2321844432D+00
      0.9286662960D+01  0.4679413484D+00
      0.3163926960D+01  0.3623119853D+00
 SP   3 1.00       0.000000000000
      0.7868272350D+01 -0.1193324198D+00  0.6899906659D-01
      0.1881288540D+01 -0.1608541517D+00  0.3164239610D+00
      0.5442492580D+00  0.1143456438D+01  0.7443082909D+00
 SP   1 1.00       0.000000000000
      0.1687144782D+00  0.1000000000D+01  0.1000000000D+01
 D   1 1.00       0.000000000000
      0.8000000000D+00  0.1000000000D+01
 ****
     13 0
 S   3 1.00       0.000000000000
      0.1873113696D+02  0.3349460434D-01
      0.2825394365D+01  0.2347269535D+00
      0.6401216923D+00  0.8137573261D+00
 S   1 1.00       0.000000000000
      0.1612777588D+00  0.1000000000D+01
 ****
     14 0
 S   6 1.00       0.000000000000
      0.3047524880D+04  0.1834737132D-02
      0.4573695180D+03  0.1403732281D-01
      0.1039486850D+03  0.6884262226D-01
      0.2921015530D+02  0.2321844432D+00
      0.9286662960D+01  0.4679413484D+00
      0.3163926960D+01  0.3623119853D+00
 SP   3 1.00       0.000000000000
      0.7868272350D+01 -0.1193324198D+00  0.6899906659D-01
      0.1881288540D+01 -0.1608541517D+00  0.3164239610D+00
      0.5442492580D+00  0.1143456438D+01  0.7443082909D+00
 SP   1 1.00       0.000000000000
      0.1687144782D+00  0.1000000000D+01  0.1000000000D+01
 D   1 1.00       0.000000000000
      0.8000000000D+00  0.1000000000D+01
 ****
     15 0
 S   3 1.00       0.000000000000
      0.1873113696D+02  0.3349460434D-01
      0.2825394365D+01  0.2347269535D+00
      0.6401216923D+00  0.8137573261D+00
 S   1 1.00       0.000000000000
      0.1612777588D+00  0.1000000000D+01
 ****
     16 0
 S   3 1.00       0.000000000000
      0.1873113696D+02  0.3349460434D-01
      0.2825394365D+01  0.2347269535D+00
      0.6401216923D+00  0.8137573261D+00
 S   1 1.00       0.000000000000
      0.1612777588D+00  0.1000000000D+01
 ****
     17 0
 S   6 1.00       0.000000000000
      0.3047524880D+04  0.1834737132D-02
      0.4573695180D+03  0.1403732281D-01
      0.1039486850D+03  0.6884262226D-01
      0.2921015530D+02  0.2321844432D+00
      0.9286662960D+01  0.4679413484D+00
      0.3163926960D+01  0.3623119853D+00
 SP   3 1.00       0.000000000000
      0.7868272350D+01 -0.1193324198D+00  0.6899906659D-01
      0.1881288540D+01 -0.1608541517D+00  0.3164239610D+00
      0.5442492580D+00  0.1143456438D+01  0.7443082909D+00
 SP   1 1.00       0.000000000000
      0.1687144782D+00  0.1000000000D+01  0.1000000000D+01
 D   1 1.00       0.000000000000
      0.8000000000D+00  0.1000000000D+01
 ****
     18 0
 S   6 1.00       0.000000000000
      0.3047524880D+04  0.1834737132D-02
      0.4573695180D+03  0.1403732281D-01
      0.1039486850D+03  0.6884262226D-01
      0.2921015530D+02  0.2321844432D+00
      0.9286662960D+01  0.4679413484D+00
      0.3163926960D+01  0.3623119853D+00
 SP   3 1.00       0.000000000000
      0.7868272350D+01 -0.1193324198D+00  0.6899906659D-01
      0.1881288540D+01 -0.1608541517D+00  0.3164239610D+00
      0.5442492580D+00  0.1143456438D+01  0.7443082909D+00
 SP   1 1.00       0.000000000000
      0.1687144782D+00  0.1000000000D+01  0.1000000000D+01
 D   1 1.00       0.000000000000
      0.8000000000D+00  0.1000000000D+01
 ****
     19 0
 S   3 1.00       0.000000000000
      0.1873113696D+02  0.3349460434D-01
      0.2825394365D+01  0.2347269535D+00
      0.6401216923D+00  0.8137573261D+00
 S   1 1.00       0.000000000000
      0.1612777588D+00  0.1000000000D+01
 ****
     20 0
 S   3 1.00       0.000000000000
      0.1873113696D+02  0.3349460434D-01
      0.2825394365D+01  0.2347269535D+00
      0.6401216923D+00  0.8137573261D+00
 S   1 1.00       0.000000000000
      0.1612777588D+00  0.1000000000D+01
 ****
     21 0
 S   6 1.00       0.000000000000
      0.3047524880D+04  0.1834737132D-02
      0.4573695180D+03  0.1403732281D-01
      0.1039486850D+03  0.6884262226D-01
      0.2921015530D+02  0.2321844432D+00
      0.9286662960D+01  0.4679413484D+00
      0.3163926960D+01  0.3623119853D+00
 SP   3 1.00       0.000000000000
      0.7868272350D+01 -0.1193324198D+00  0.6899906659D-01
      0.1881288540D+01 -0.1608541517D+00  0.3164239610D+00
      0.5442492580D+00  0.1143456438D+01  0.7443082909D+00
 SP   1 1.00       0.000000000000
      0.1687144782D+00  0.1000000000D+01  0.1000000000D+01
 D   1 1.00       0.000000000000
      0.8000000000D+00  0.1000000000D+01
 ****
     22 0
 S   3 1.00       0.000000000000
      0.1873113696D+02  0.3349460434D-01
      0.2825394365D+01  0.2347269535D+00
      0.6401216923D+00  0.8137573261D+00
 S   1 1.00       0.000000000000
      0.1612777588D+00  0.1000000000D+01
 ****
     23 0
 S   3 1.00       0.000000000000
      0.1873113696D+02  0.3349460434D-01
      0.2825394365D+01  0.2347269535D+00
      0.6401216923D+00  0.8137573261D+00
 S   1 1.00       0.000000000000
      0.1612777588D+00  0.1000000000D+01
 ****
     24 0
 S   6 1.00       0.000000000000
      0.3047524880D+04  0.1834737132D-02
      0.4573695180D+03  0.1403732281D-01
      0.1039486850D+03  0.6884262226D-01
      0.2921015530D+02  0.2321844432D+00
      0.9286662960D+01  0.4679413484D+00
      0.3163926960D+01  0.3623119853D+00
 SP   3 1.00       0.000000000000
      0.7868272350D+01 -0.1193324198D+00  0.6899906659D-01
      0.1881288540D+01 -0.1608541517D+00  0.3164239610D+00
      0.5442492580D+00  0.1143456438D+01  0.7443082909D+00
 SP   1 1.00       0.000000000000
      0.1687144782D+00  0.1000000000D+01  0.1000000000D+01
 D   1 1.00       0.000000000000
      0.8000000000D+00  0.1000000000D+01
 ****
     25 0
 S   3 1.00       0.000000000000
      0.1873113696D+02  0.3349460434D-01
      0.2825394365D+01  0.2347269535D+00
      0.6401216923D+00  0.8137573261D+00
 S   1 1.00       0.000000000000
      0.1612777588D+00  0.1000000000D+01
 ****
     26 0
 S   3 1.00       0.000000000000
      0.1873113696D+02  0.3349460434D-01
      0.2825394365D+01  0.2347269535D+00
      0.6401216923D+00  0.8137573261D+00
 S   1 1.00       0.000000000000
      0.1612777588D+00  0.1000000000D+01
 ****
     27 0
 S   6 1.00       0.000000000000
      0.3047524880D+04  0.1834737132D-02
      0.4573695180D+03  0.1403732281D-01
      0.1039486850D+03  0.6884262226D-01
      0.2921015530D+02  0.2321844432D+00
      0.9286662960D+01  0.4679413484D+00
      0.3163926960D+01  0.3623119853D+00
 SP   3 1.00       0.000000000000
      0.7868272350D+01 -0.1193324198D+00  0.6899906659D-01
      0.1881288540D+01 -0.1608541517D+00  0.3164239610D+00
      0.5442492580D+00  0.1143456438D+01  0.7443082909D+00
 SP   1 1.00       0.000000000000
      0.1687144782D+00  0.1000000000D+01  0.1000000000D+01
 D   1 1.00       0.000000000000
      0.8000000000D+00  0.1000000000D+01
 ****
     28 0
 S   3 1.00       0.000000000000
      0.1873113696D+02  0.3349460434D-01
      0.2825394365D+01  0.2347269535D+00
      0.6401216923D+00  0.8137573261D+00
 S   1 1.00       0.000000000000
      0.1612777588D+00  0.1000000000D+01
 ****
     29 0
 S   6 1.00       0.000000000000
      0.3047524880D+04  0.1834737132D-02
      0.4573695180D+03  0.1403732281D-01
      0.1039486850D+03  0.6884262226D-01
      0.2921015530D+02  0.2321844432D+00
      0.9286662960D+01  0.4679413484D+00
      0.3163926960D+01  0.3623119853D+00
 SP   3 1.00       0.000000000000
      0.7868272350D+01 -0.1193324198D+00  0.6899906659D-01
      0.1881288540D+01 -0.1608541517D+00  0.3164239610D+00
      0.5442492580D+00  0.1143456438D+01  0.7443082909D+00
 SP   1 1.00       0.000000000000
      0.1687144782D+00  0.1000000000D+01  0.1000000000D+01
 D   1 1.00       0.000000000000
      0.8000000000D+00  0.1000000000D+01
 ****
     30 0
 S   3 1.00       0.000000000000
      0.1873113696D+02  0.3349460434D-01
      0.2825394365D+01  0.2347269535D+00
      0.6401216923D+00  0.8137573261D+00
 S   1 1.00       0.000000000000
      0.1612777588D+00  0.1000000000D+01
 ****
     31 0
 S   6 1.00       0.000000000000
      0.3047524880D+04  0.1834737132D-02
      0.4573695180D+03  0.1403732281D-01
      0.1039486850D+03  0.6884262226D-01
      0.2921015530D+02  0.2321844432D+00
      0.9286662960D+01  0.4679413484D+00
      0.3163926960D+01  0.3623119853D+00
 SP   3 1.00       0.000000000000
      0.7868272350D+01 -0.1193324198D+00  0.6899906659D-01
      0.1881288540D+01 -0.1608541517D+00  0.3164239610D+00
      0.5442492580D+00  0.1143456438D+01  0.7443082909D+00
 SP   1 1.00       0.000000000000
      0.1687144782D+00  0.1000000000D+01  0.1000000000D+01
 D   1 1.00       0.000000000000
      0.8000000000D+00  0.1000000000D+01
 ****
     32 0
 S   3 1.00       0.000000000000
      0.1873113696D+02  0.3349460434D-01
      0.2825394365D+01  0.2347269535D+00
      0.6401216923D+00  0.8137573261D+00
 S   1 1.00       0.000000000000
      0.1612777588D+00  0.1000000000D+01
 ****
     33 0
 S   3 1.00       0.000000000000
      0.1873113696D+02  0.3349460434D-01
      0.2825394365D+01  0.2347269535D+00
      0.6401216923D+00  0.8137573261D+00
 S   1 1.00       0.000000000000
      0.1612777588D+00  0.1000000000D+01
 ****
     34 0
 S   3 1.00       0.000000000000
      0.1873113696D+02  0.3349460434D-01
      0.2825394365D+01  0.2347269535D+00
      0.6401216923D+00  0.8137573261D+00
 S   1 1.00       0.000000000000
      0.1612777588D+00  0.1000000000D+01
 ****
     35 0
 S   6 1.00       0.000000000000
      0.3047524880D+04  0.1834737132D-02
      0.4573695180D+03  0.1403732281D-01
      0.1039486850D+03  0.6884262226D-01
      0.2921015530D+02  0.2321844432D+00
      0.9286662960D+01  0.4679413484D+00
      0.3163926960D+01  0.3623119853D+00
 SP   3 1.00       0.000000000000
      0.7868272350D+01 -0.1193324198D+00  0.6899906659D-01
      0.1881288540D+01 -0.1608541517D+00  0.3164239610D+00
      0.5442492580D+00  0.1143456438D+01  0.7443082909D+00
 SP   1 1.00       0.000000000000
      0.1687144782D+00  0.1000000000D+01  0.1000000000D+01
 D   1 1.00       0.000000000000
      0.8000000000D+00  0.1000000000D+01
 ****
     36 0
 S   6 1.00       0.000000000000
      0.3047524880D+04  0.1834737132D-02
      0.4573695180D+03  0.1403732281D-01
      0.1039486850D+03  0.6884262226D-01
      0.2921015530D+02  0.2321844432D+00
      0.9286662960D+01  0.4679413484D+00
      0.3163926960D+01  0.3623119853D+00
 SP   3 1.00       0.000000000000
      0.7868272350D+01 -0.1193324198D+00  0.6899906659D-01
      0.1881288540D+01 -0.1608541517D+00  0.3164239610D+00
      0.5442492580D+00  0.1143456438D+01  0.7443082909D+00
 SP   1 1.00       0.000000000000
      0.1687144782D+00  0.1000000000D+01  0.1000000000D+01
 D   1 1.00       0.000000000000
      0.8000000000D+00  0.1000000000D+01
 ****
     37 0
 S   3 1.00       0.000000000000
      0.1873113696D+02  0.3349460434D-01
      0.2825394365D+01  0.2347269535D+00
      0.6401216923D+00  0.8137573261D+00
 S   1 1.00       0.000000000000
      0.1612777588D+00  0.1000000000D+01
 ****
     38 0
 S   3 1.00       0.000000000000
      0.1873113696D+02  0.3349460434D-01
      0.2825394365D+01  0.2347269535D+00
      0.6401216923D+00  0.8137573261D+00
 S   1 1.00       0.000000000000
      0.1612777588D+00  0.1000000000D+01
 ****
     39 0
 S   6 1.00       0.000000000000
      0.3047524880D+04  0.1834737132D-02
      0.4573695180D+03  0.1403732281D-01
      0.1039486850D+03  0.6884262226D-01
      0.2921015530D+02  0.2321844432D+00
      0.9286662960D+01  0.4679413484D+00
      0.3163926960D+01  0.3623119853D+00
 SP   3 1.00       0.000000000000
      0.7868272350D+01 -0.1193324198D+00  0.6899906659D-01
      0.1881288540D+01 -0.1608541517D+00  0.3164239610D+00
      0.5442492580D+00  0.1143456438D+01  0.7443082909D+00
 SP   1 1.00       0.000000000000
      0.1687144782D+00  0.1000000000D+01  0.1000000000D+01
 D   1 1.00       0.000000000000
      0.8000000000D+00  0.1000000000D+01
 ****
     40 0
 S   3 1.00       0.000000000000
      0.1873113696D+02  0.3349460434D-01
      0.2825394365D+01  0.2347269535D+00
      0.6401216923D+00  0.8137573261D+00
 S   1 1.00       0.000000000000
      0.1612777588D+00  0.1000000000D+01
 ****
     41 0
 S   6 1.00       0.000000000000
      0.3047524880D+04  0.1834737132D-02
      0.4573695180D+03  0.1403732281D-01
      0.1039486850D+03  0.6884262226D-01
      0.2921015530D+02  0.2321844432D+00
      0.9286662960D+01  0.4679413484D+00
      0.3163926960D+01  0.3623119853D+00
 SP   3 1.00       0.000000000000
      0.7868272350D+01 -0.1193324198D+00  0.6899906659D-01
      0.1881288540D+01 -0.1608541517D+00  0.3164239610D+00
      0.5442492580D+00  0.1143456438D+01  0.7443082909D+00
 SP   1 1.00       0.000000000000
      0.1687144782D+00  0.1000000000D+01  0.1000000000D+01
 D   1 1.00       0.000000000000
      0.8000000000D+00  0.1000000000D+01
 ****
     42 0
 S   3 1.00       0.000000000000
      0.1873113696D+02  0.3349460434D-01
      0.2825394365D+01  0.2347269535D+00
      0.6401216923D+00  0.8137573261D+00
 S   1 1.00       0.000000000000
      0.1612777588D+00  0.1000000000D+01
 ****
     43 0
 S   3 1.00       0.000000000000
      0.1873113696D+02  0.3349460434D-01
      0.2825394365D+01  0.2347269535D+00
      0.6401216923D+00  0.8137573261D+00
 S   1 1.00       0.000000000000
      0.1612777588D+00  0.1000000000D+01
 ****
     44 0
 S   3 1.00       0.000000000000
      0.1873113696D+02  0.3349460434D-01
      0.2825394365D+01  0.2347269535D+00
      0.6401216923D+00  0.8137573261D+00
 S   1 1.00       0.000000000000
      0.1612777588D+00  0.1000000000D+01
 ****
     45 0
 S   6 1.00       0.000000000000
      0.3047524880D+04  0.1834737132D-02
      0.4573695180D+03  0.1403732281D-01
      0.1039486850D+03  0.6884262226D-01
      0.2921015530D+02  0.2321844432D+00
      0.9286662960D+01  0.4679413484D+00
      0.3163926960D+01  0.3623119853D+00
 SP   3 1.00       0.000000000000
      0.7868272350D+01 -0.1193324198D+00  0.6899906659D-01
      0.1881288540D+01 -0.1608541517D+00  0.3164239610D+00
      0.5442492580D+00  0.1143456438D+01  0.7443082909D+00
 SP   1 1.00       0.000000000000
      0.1687144782D+00  0.1000000000D+01  0.1000000000D+01
 D   1 1.00       0.000000000000
      0.8000000000D+00  0.1000000000D+01
 ****
     46 0
 S   3 1.00       0.000000000000
      0.1873113696D+02  0.3349460434D-01
      0.2825394365D+01  0.2347269535D+00
      0.6401216923D+00  0.8137573261D+00
 S   1 1.00       0.000000000000
      0.1612777588D+00  0.1000000000D+01
 ****
     47 0
 S   3 1.00       0.000000000000
      0.1873113696D+02  0.3349460434D-01
      0.2825394365D+01  0.2347269535D+00
      0.6401216923D+00  0.8137573261D+00
 S   1 1.00       0.000000000000
      0.1612777588D+00  0.1000000000D+01
 ****
     48 0
 S   6 1.00       0.000000000000
      0.3047524880D+04  0.1834737132D-02
      0.4573695180D+03  0.1403732281D-01
      0.1039486850D+03  0.6884262226D-01
      0.2921015530D+02  0.2321844432D+00
      0.9286662960D+01  0.4679413484D+00
      0.3163926960D+01  0.3623119853D+00
 SP   3 1.00       0.000000000000
      0.7868272350D+01 -0.1193324198D+00  0.6899906659D-01
      0.1881288540D+01 -0.1608541517D+00  0.3164239610D+00
      0.5442492580D+00  0.1143456438D+01  0.7443082909D+00
 SP   1 1.00       0.000000000000
      0.1687144782D+00  0.1000000000D+01  0.1000000000D+01
 D   1 1.00       0.000000000000
      0.8000000000D+00  0.1000000000D+01
 ****
     49 0
 S   3 1.00       0.000000000000
      0.1873113696D+02  0.3349460434D-01
      0.2825394365D+01  0.2347269535D+00
      0.6401216923D+00  0.8137573261D+00
 S   1 1.00       0.000000000000
      0.1612777588D+00  0.1000000000D+01
 ****
     50 0
 S   3 1.00       0.000000000000
      0.1873113696D+02  0.3349460434D-01
      0.2825394365D+01  0.2347269535D+00
      0.6401216923D+00  0.8137573261D+00
 S   1 1.00       0.000000000000
      0.1612777588D+00  0.1000000000D+01
 ****
     51 0
 S   6 1.00       0.000000000000
      0.3047524880D+04  0.1834737132D-02
      0.4573695180D+03  0.1403732281D-01
      0.1039486850D+03  0.6884262226D-01
      0.2921015530D+02  0.2321844432D+00
      0.9286662960D+01  0.4679413484D+00
      0.3163926960D+01  0.3623119853D+00
 SP   3 1.00       0.000000000000
      0.7868272350D+01 -0.1193324198D+00  0.6899906659D-01
      0.1881288540D+01 -0.1608541517D+00  0.3164239610D+00
      0.5442492580D+00  0.1143456438D+01  0.7443082909D+00
 SP   1 1.00       0.000000000000
      0.1687144782D+00  0.1000000000D+01  0.1000000000D+01
 D   1 1.00       0.000000000000
      0.8000000000D+00  0.1000000000D+01
 ****
     52 0
 S   3 1.00       0.000000000000
      0.1873113696D+02  0.3349460434D-01
      0.2825394365D+01  0.2347269535D+00
      0.6401216923D+00  0.8137573261D+00
 S   1 1.00       0.000000000000
      0.1612777588D+00  0.1000000000D+01
 ****
     53 0
 S   3 1.00       0.000000000000
      0.1873113696D+02  0.3349460434D-01
      0.2825394365D+01  0.2347269535D+00
      0.6401216923D+00  0.8137573261D+00
 S   1 1.00       0.000000000000
      0.1612777588D+00  0.1000000000D+01
 ****
     54 0
 S   6 1.00       0.000000000000
      0.3047524880D+04  0.1834737132D-02
      0.4573695180D+03  0.1403732281D-01
      0.1039486850D+03  0.6884262226D-01
      0.2921015530D+02  0.2321844432D+00
      0.9286662960D+01  0.4679413484D+00
      0.3163926960D+01  0.3623119853D+00
 SP   3 1.00       0.000000000000
      0.7868272350D+01 -0.1193324198D+00  0.6899906659D-01
      0.1881288540D+01 -0.1608541517D+00  0.3164239610D+00
      0.5442492580D+00  0.1143456438D+01  0.7443082909D+00
 SP   1 1.00       0.000000000000
      0.1687144782D+00  0.1000000000D+01  0.1000000000D+01
 D   1 1.00       0.000000000000
      0.8000000000D+00  0.1000000000D+01
 ****
     55 0
 S   3 1.00       0.000000000000
      0.1873113696D+02  0.3349460434D-01
      0.2825394365D+01  0.2347269535D+00
      0.6401216923D+00  0.8137573261D+00
 S   1 1.00       0.000000000000
      0.1612777588D+00  0.1000000000D+01
 ****
     56 0
 S   6 1.00       0.000000000000
      0.3047524880D+04  0.1834737132D-02
      0.4573695180D+03  0.1403732281D-01
      0.1039486850D+03  0.6884262226D-01
      0.2921015530D+02  0.2321844432D+00
      0.9286662960D+01  0.4679413484D+00
      0.3163926960D+01  0.3623119853D+00
 SP   3 1.00       0.000000000000
      0.7868272350D+01 -0.1193324198D+00  0.6899906659D-01
      0.1881288540D+01 -0.1608541517D+00  0.3164239610D+00
      0.5442492580D+00  0.1143456438D+01  0.7443082909D+00
 SP   1 1.00       0.000000000000
      0.1687144782D+00  0.1000000000D+01  0.1000000000D+01
 D   1 1.00       0.000000000000
      0.8000000000D+00  0.1000000000D+01
 ****
     57 0
 S   3 1.00       0.000000000000
      0.1873113696D+02  0.3349460434D-01
      0.2825394365D+01  0.2347269535D+00
      0.6401216923D+00  0.8137573261D+00
 S   1 1.00       0.000000000000
      0.1612777588D+00  0.1000000000D+01
 ****
     58 0
 S   3 1.00       0.000000000000
      0.1873113696D+02  0.3349460434D-01
      0.2825394365D+01  0.2347269535D+00
      0.6401216923D+00  0.8137573261D+00
 S   1 1.00       0.000000000000
      0.1612777588D+00  0.1000000000D+01
 ****
     59 0
 S   3 1.00       0.000000000000
      0.1873113696D+02  0.3349460434D-01
      0.2825394365D+01  0.2347269535D+00
      0.6401216923D+00  0.8137573261D+00
 S   1 1.00       0.000000000000
      0.1612777588D+00  0.1000000000D+01
 ****
     60 0
 S   6 1.00       0.000000000000
      0.3047524880D+04  0.1834737132D-02
      0.4573695180D+03  0.1403732281D-01
      0.1039486850D+03  0.6884262226D-01
      0.2921015530D+02  0.2321844432D+00
      0.9286662960D+01  0.4679413484D+00
      0.3163926960D+01  0.3623119853D+00
 SP   3 1.00       0.000000000000
      0.7868272350D+01 -0.1193324198D+00  0.6899906659D-01
      0.1881288540D+01 -0.1608541517D+00  0.3164239610D+00
      0.5442492580D+00  0.1143456438D+01  0.7443082909D+00
 SP   1 1.00       0.000000000000
      0.1687144782D+00  0.1000000000D+01  0.1000000000D+01
 D   1 1.00       0.000000000000
      0.8000000000D+00  0.1000000000D+01
 ****
     61 0
 S   3 1.00       0.000000000000
      0.1873113696D+02  0.3349460434D-01
      0.2825394365D+01  0.2347269535D+00
      0.6401216923D+00  0.8137573261D+00
 S   1 1.00       0.000000000000
      0.1612777588D+00  0.1000000000D+01
 ****
     62 0
 S   3 1.00       0.000000000000
      0.1873113696D+02  0.3349460434D-01
      0.2825394365D+01  0.2347269535D+00
      0.6401216923D+00  0.8137573261D+00
 S   1 1.00       0.000000000000
      0.1612777588D+00  0.1000000000D+01
 ****
     63 0
 S   6 1.00       0.000000000000
      0.3047524880D+04  0.1834737132D-02
      0.4573695180D+03  0.1403732281D-01
      0.1039486850D+03  0.6884262226D-01
      0.2921015530D+02  0.2321844432D+00
      0.9286662960D+01  0.4679413484D+00
      0.3163926960D+01  0.3623119853D+00
 SP   3 1.00       0.000000000000
      0.7868272350D+01 -0.1193324198D+00  0.6899906659D-01
      0.1881288540D+01 -0.1608541517D+00  0.3164239610D+00
      0.5442492580D+00  0.1143456438D+01  0.7443082909D+00
 SP   1 1.00       0.000000000000
      0.1687144782D+00  0.1000000000D+01  0.1000000000D+01
 D   1 1.00       0.000000000000
      0.8000000000D+00  0.1000000000D+01
 ****
     64 0
 S   3 1.00       0.000000000000
      0.1873113696D+02  0.3349460434D-01
      0.2825394365D+01  0.2347269535D+00
      0.6401216923D+00  0.8137573261D+00
 S   1 1.00       0.000000000000
      0.1612777588D+00  0.1000000000D+01
 ****
     65 0
 S   3 1.00       0.000000000000
      0.1873113696D+02  0.3349460434D-01
      0.2825394365D+01  0.2347269535D+00
      0.6401216923D+00  0.8137573261D+00
 S   1 1.00       0.000000000000
      0.1612777588D+00  0.1000000000D+01
 ****
     66 0
 S   6 1.00       0.000000000000
      0.3047524880D+04  0.1834737132D-02
      0.4573695180D+03  0.1403732281D-01
      0.1039486850D+03  0.6884262226D-01
      0.2921015530D+02  0.2321844432D+00
      0.9286662960D+01  0.4679413484D+00
      0.3163926960D+01  0.3623119853D+00
 SP   3 1.00       0.000000000000
      0.7868272350D+01 -0.1193324198D+00  0.6899906659D-01
      0.1881288540D+01 -0.1608541517D+00  0.3164239610D+00
      0.5442492580D+00  0.1143456438D+01  0.7443082909D+00
 SP   1 1.00       0.000000000000
      0.1687144782D+00  0.1000000000D+01  0.1000000000D+01
 D   1 1.00       0.000000000000
      0.8000000000D+00  0.1000000000D+01
 ****
     67 0
 S   3 1.00       0.000000000000
      0.1873113696D+02  0.3349460434D-01
      0.2825394365D+01  0.2347269535D+00
      0.6401216923D+00  0.8137573261D+00
 S   1 1.00       0.000000000000
      0.1612777588D+00  0.1000000000D+01
 ****
     68 0
 S   6 1.00       0.000000000000
      0.3047524880D+04  0.1834737132D-02
      0.4573695180D+03  0.1403732281D-01
      0.1039486850D+03  0.6884262226D-01
      0.2921015530D+02  0.2321844432D+00
      0.9286662960D+01  0.4679413484D+00
      0.3163926960D+01  0.3623119853D+00
 SP   3 1.00       0.000000000000
      0.7868272350D+01 -0.1193324198D+00  0.6899906659D-01
      0.1881288540D+01 -0.1608541517D+00  0.3164239610D+00
      0.5442492580D+00  0.1143456438D+01  0.7443082909D+00
 SP   1 1.00       0.000000000000
      0.1687144782D+00  0.1000000000D+01  0.1000000000D+01
 D   1 1.00       0.000000000000
      0.8000000000D+00  0.1000000000D+01
 ****
     69 0
 S   3 1.00       0.000000000000
      0.1873113696D+02  0.3349460434D-01
      0.2825394365D+01  0.2347269535D+00
      0.6401216923D+00  0.8137573261D+00
 S   1 1.00       0.000000000000
      0.1612777588D+00  0.1000000000D+01
 ****
     70 0
 S   3 1.00       0.000000000000
      0.1873113696D+02  0.3349460434D-01
      0.2825394365D+01  0.2347269535D+00
      0.6401216923D+00  0.8137573261D+00
 S   1 1.00       0.000000000000
      0.1612777588D+00  0.1000000000D+01
 ****
     71 0
 S   3 1.00       0.000000000000
      0.1873113696D+02  0.3349460434D-01
      0.2825394365D+01  0.2347269535D+00
      0.6401216923D+00  0.8137573261D+00
 S   1 1.00       0.000000000000
      0.1612777588D+00  0.1000000000D+01
 ****
     72 0
 S   6 1.00       0.000000000000
      0.3047524880D+04  0.1834737132D-02
      0.4573695180D+03  0.1403732281D-01
      0.1039486850D+03  0.6884262226D-01
      0.2921015530D+02  0.2321844432D+00
      0.9286662960D+01  0.4679413484D+00
      0.3163926960D+01  0.3623119853D+00
 SP   3 1.00       0.000000000000
      0.7868272350D+01 -0.1193324198D+00  0.6899906659D-01
      0.1881288540D+01 -0.1608541517D+00  0.3164239610D+00
      0.5442492580D+00  0.1143456438D+01  0.7443082909D+00
 SP   1 1.00       0.000000000000
      0.1687144782D+00  0.1000000000D+01  0.1000000000D+01
 D   1 1.00       0.000000000000
      0.8000000000D+00  0.1000000000D+01
 ****
     73 0
 S   3 1.00       0.000000000000
      0.1873113696D+02  0.3349460434D-01
      0.2825394365D+01  0.2347269535D+00
      0.6401216923D+00  0.8137573261D+00
 S   1 1.00       0.000000000000
      0.1612777588D+00  0.1000000000D+01
 ****
     74 0
 S   3 1.00       0.000000000000
      0.1873113696D+02  0.3349460434D-01
      0.2825394365D+01  0.2347269535D+00
      0.6401216923D+00  0.8137573261D+00
 S   1 1.00       0.000000000000
      0.1612777588D+00  0.1000000000D+01
 ****
     75 0
 S   3 1.00       0.000000000000
      0.1873113696D+02  0.3349460434D-01
      0.2825394365D+01  0.2347269535D+00
      0.6401216923D+00  0.8137573261D+00
 S   1 1.00       0.000000000000
      0.1612777588D+00  0.1000000000D+01
 ****

 AO basis set (Overlap normalization):
 Atom O1       Shell     1 S   6     bf    1 -     1          0.000000000000          0.000000000000          0.000000000000
      0.5484671660D+04  0.1831074430D-02
      0.8252349460D+03  0.1395017220D-01
      0.1880469580D+03  0.6844507810D-01
      0.5296450000D+02  0.2327143360D+00
      0.1689757040D+02  0.4701928980D+00
      0.5799635340D+01  0.3585208530D+00
 Atom O1       Shell     2 SP   3    bf    2 -     5          0.000000000000          0.000000000000          0.000000000000
      0.1553961625D+02 -0.1107775495D+00  0.7087426823D-01
      0.3599933586D+01 -0.1480262627D+00  0.3397528391D+00
      0.1013761750D+01  0.1130767015D+01  0.7271585773D+00
 Atom O1       Shell     3 SP   1    bf    6 -     9          0.000000000000          0.000000000000          0.000000000000
      0.2700058226D+00  0.1000000000D+01  0.1000000000D+01
 Atom O1       Shell     4 D   1     bf   10 -    15          0.000000000000          0.000000000000          0.000000000000
      0.8000000000D+00  0.1000000000D+01
 Atom H2       Shell     5 S   3     bf   16 -    16          1.826501868014          0.000000000000          0.000000000000
      0.1873113696D+02  0.3349460434D-01
      0.2825394365D+01  0.2347269535D+00
      0.6401216923D+00  0.8137573261D+00
 Atom H2       Shell     6 S   1     bf   17 -    17          1.826501868014          0.000000000000          0.000000000000
      0.1612777588D+00  0.1000000000D+01
 Atom O3       Shell     7 S   6     bf   18 -    18          8.229359880414         -2.412656779762         -9.358239526595
      0.5484671660D+04  0.1831074430D-02
      0.8252349460D+03  0.1395017220D-01
      0.1880469580D+03  0.6844507810D-01
      0.5296450000D+02  0.2327143360D+00
      0.1689757040D+02  0.4701928980D+00
      0.5799635340D+01  0.3585208530D+00
 Atom O3       Shell     8 SP   3    bf   19 -    22          8.229359880414         -2.412656779762         -9.358239526595
      0.1553961625D+02 -0.1107775495D+00  0.7087426823D-01
      0.3599933586D+01 -0.1480262627D+00  0.3397528391D+00
      0.1013761750D+01  0.1130767015D+01  0.7271585773D+00
 Atom O3       Shell     9 SP   1    bf   23 -    26          8.229359880414         -2.412656779762         -9.358239526595
      0.2700058226D+00  0.1000000000D+01  0.1000000000D+01
 Atom O3       Shell    10 D   1     bf   27 -    32          8.229359880414         -2.412656779762         -9.358239526595
      0.8000000000D+00  0.1000000000D+01
 Atom H4       Shell    11 S   3     bf   33 -    33          7.709704884817         -2.042894161826        -11.071823303977
      0.1873113696D+02  0.3349460434D-01
      0.2825394365D+01  0.2347269535D+00
      0.6401216923D+00  0.8137573261D+00
 Atom H4       Shell    12 S   1     bf   34 -    34          7.709704884817         -2.042894161826        -11.071823303977
      0.1612777588D+00  0.1000000000D+01
 Atom C5       Shell    13 S   6     bf   35 -    35         -2.329228545735          7.761307485149         -1.383165163047
      0.3047524880D+04  0.1834737132D-02
      0.4573695180D+03  0.1403732281D-01
      0.1039486850D+03  0.6884262226D-01
      0.2921015530D+02  0.2321844432D+00
      0.9286662960D+01  0.4679413484D+00
      0.3163926960D+01  0.3623119853D+00
 Atom C5       Shell    14 SP   3    bf   36 -    39         -2.329228545735          7.761307485149         -1.383165163047
      0.7868272350D+01 -0.1193324198D+00  0.6899906659D-01
      0.1881288540D+01 -0.1608541517D+00  0.3164239610D+00
      0.5442492580D+00  0.1143456438D+01  0.7443082909D+00
 Atom C5       Shell    15 SP   1    bf   40 -    43         -2.329228545735          7.761307485149         -1.383165163047
      0.1687144782D+00  0.1000000000D+01  0.1000000000D+01
 Atom C5       Shell    16 D   1     bf   44 -    49         -2.329228545735          7.761307485149         -1.383165163047
      0.8000000000D+00  0.1000000000D+01
 Atom C6       Shell    17 S   6     bf   50 -    50         -2.142322310178          4.862618302962         -0.951260998827
      0.3047524880D+04  0.1834737132D-02
      0.4573695180D+03  0.1403732281D-01
      0.1039486850D+03  0.6884262226D-01
      0.2921015530D+02  0.2321844432D+00
      0.9286662960D+01  0.4679413484D+00
      0.3163926960D+01  0.3623119853D+00
 Atom C6       Shell    18 SP   3    bf   51 -    54         -2.142322310178          4.862618302962         -0.951260998827
      0.7868272350D+01 -0.1193324198D+00  0.6899906659D-01
      0.1881288540D+01 -0.1608541517D+00  0.3164239610D+00
      0.5442492580D+00  0.1143456438D+01  0.7443082909D+00
 Atom C6       Shell    19 SP   1    bf   55 -    58         -2.142322310178          4.862618302962         -0.951260998827
      0.1687144782D+00  0.1000000000D+01  0.1000000000D+01
 Atom C6       Shell    20 D   1     bf   59 -    64         -2.142322310178          4.862618302962         -0.951260998827
      0.8000000000D+00  0.1000000000D+01
 Atom H7       Shell    21 S   3     bf   65 -    65         -0.826933932332          4.624556632967          0.638758821266
      0.1873113696D+02  0.3349460434D-01
      0.2825394365D+01  0.2347269535D+00
      0.6401216923D+00  0.8137573261D+00
 Atom H7       Shell    22 S   1     bf   66 -    66         -0.826933932332          4.624556632967          0.638758821266
      0.1612777588D+00  0.1000000000D+01
 Atom C8       Shell    23 S   6     bf   67 -    67         -0.998960993442          3.365428841399         -3.152768700008
      0.3047524880D+04  0.1834737132D-02
      0.4573695180D+03  0.1403732281D-01
      0.1039486850D+03  0.6884262226D-01
      0.2921015530D+02  0.2321844432D+00
      0.9286662960D+01  0.4679413484D+00
      0.3163926960D+01  0.3623119853D+00
 Atom C8       Shell    24 SP   3    bf   68 -    71         -0.998960993442          3.365428841399         -3.152768700008
      0.7868272350D+01 -0.1193324198D+00  0.6899906659D-01
      0.1881288540D+01 -0.1608541517D+00  0.3164239610D+00
      0.5442492580D+00  0.1143456438D+01  0.7443082909D+00
 Atom C8       Shell    25 SP   1    bf   72 -    75         -0.998960993442          3.365428841399         -3.152768700008
      0.1687144782D+00  0.1000000000D+01  0.1000000000D+01
 Atom C8       Shell    26 D   1     bf   76 -    81         -0.998960993442          3.365428841399         -3.152768700008
      0.8000000000D+00  0.1000000000D+01
 Atom H9       Shell    27 S   3     bf   82 -    82         -2.246867175493          3.528308626471         -4.806554437175
      0.1873113696D+02  0.3349460434D-01
      0.2825394365D+01  0.2347269535D+00
      0.6401216923D+00  0.8137573261D+00
 Atom H9       Shell    28 S   1     bf   83 -    83         -2.246867175493          3.528308626471         -4.806554437175
      0.1612777588D+00  0.1000000000D+01
 Atom C10      Shell    29 S   6     bf   84 -    84          1.650158199985          4.409958747502         -3.838299433591
      0.3047524880D+04  0.1834737132D-02
      0.4573695180D+03  0.1403732281D-01
      0.1039486850D+03  0.6884262226D-01
      0.2921015530D+02  0.2321844432D+00
      0.9286662960D+01  0.4679413484D+00
      0.3163926960D+01  0.3623119853D+00
 Atom C10      Shell    30 SP   3    bf   85 -    88          1.650158199985          4.409958747502         -3.838299433591
      0.7868272350D+01 -0.1193324198D+00  0.6899906659D-01
      0.1881288540D+01 -0.1608541517D+00  0.3164239610D+00
      0.5442492580D+00  0.1143456438D+01  0.7443082909D+00
 Atom C10      Shell    31 SP   1    bf   89 -    92          1.650158199985          4.409958747502         -3.838299433591
      0.1687144782D+00  0.1000000000D+01  0.1000000000D+01
 Atom C10      Shell    32 D   1     bf   93 -    98          1.650158199985          4.409958747502         -3.838299433591
      0.8000000000D+00  0.1000000000D+01
 Atom H11      Shell    33 S   3     bf   99 -    99          2.883887562101          3.933481348424         -2.227769092968
      0.1873113696D+02  0.3349460434D-01
      0.2825394365D+01  0.2347269535D+00
      0.6401216923D+00  0.8137573261D+00
 Atom H11      Shell    34 S   1     bf  100 -   100          2.883887562101          3.933481348424         -2.227769092968
      0.1612777588D+00  0.1000000000D+01
 Atom C12      Shell    35 S   6     bf  101 -   101         -3.609479110201          8.561002678235          1.167961412486
      0.3047524880D+04  0.1834737132D-02
      0.4573695180D+03  0.1403732281D-01
      0.1039486850D+03  0.6884262226D-01
      0.2921015530D+02  0.2321844432D+00
      0.9286662960D+01  0.4679413484D+00
      0.3163926960D+01  0.3623119853D+00
 Atom C12      Shell    36 SP   3    bf  102 -   105         -3.609479110201          8.561002678235          1.167961412486
      0.7868272350D+01 -0.1193324198D+00  0.6899906659D-01
      0.1881288540D+01 -0.1608541517D+00  0.3164239610D+00
      0.5442492580D+00  0.1143456438D+01  0.7443082909D+00
 Atom C12      Shell    37 SP   1    bf  106 -   109         -3.609479110201          8.561002678235          1.167961412486
      0.1687144782D+00  0.1000000000D+01  0.1000000000D+01
 Atom C12      Shell    38 D   1     bf  110 -   115         -3.609479110201          8.561002678235          1.167961412486
      0.8000000000D+00  0.1000000000D+01
 Atom H13      Shell    39 S   3     bf  116 -   116         -2.131258530588          8.367432965978          2.617155061705
      0.1873113696D+02  0.3349460434D-01
      0.2825394365D+01  0.2347269535D+00
      0.6401216923D+00  0.8137573261D+00
 Atom H13      Shell    40 S   1     bf  117 -   117         -2.131258530588          8.367432965978          2.617155061705
      0.1612777588D+00  0.1000000000D+01
 Atom C14      Shell    41 S   6     bf  118 -   118          0.393014507473          8.703860625956         -1.822830942720
      0.3047524880D+04  0.1834737132D-02
      0.4573695180D+03  0.1403732281D-01
      0.1039486850D+03  0.6884262226D-01
      0.2921015530D+02  0.2321844432D+00
      0.9286662960D+01  0.4679413484D+00
      0.3163926960D+01  0.3623119853D+00
 Atom C14      Shell    42 SP   3    bf  119 -   122          0.393014507473          8.703860625956         -1.822830942720
      0.7868272350D+01 -0.1193324198D+00  0.6899906659D-01
      0.1881288540D+01 -0.1608541517D+00  0.3164239610D+00
      0.5442492580D+00  0.1143456438D+01  0.7443082909D+00
 Atom C14      Shell    43 SP   1    bf  123 -   126          0.393014507473          8.703860625956         -1.822830942720
      0.1687144782D+00  0.1000000000D+01  0.1000000000D+01
 Atom C14      Shell    44 D   1     bf  127 -   132          0.393014507473          8.703860625956         -1.822830942720
      0.8000000000D+00  0.1000000000D+01
 Atom H15      Shell    45 S   3     bf  133 -   133          1.493424068859          8.387130885372         -0.088991058639
      0.1873113696D+02  0.3349460434D-01
      0.2825394365D+01  0.2347269535D+00
      0.6401216923D+00  0.8137573261D+00
 Atom H15      Shell    46 S   1     bf  134 -   134          1.493424068859          8.387130885372         -0.088991058639
      0.1612777588D+00  0.1000000000D+01
 Atom H16      Shell    47 S   3     bf  135 -   135          0.453443092607         10.737943297181         -2.195224437378
      0.1873113696D+02  0.3349460434D-01
      0.2825394365D+01  0.2347269535D+00
      0.6401216923D+00  0.8137573261D+00
 Atom H16      Shell    48 S   1     bf  136 -   136          0.453443092607         10.737943297181         -2.195224437378
      0.1612777588D+00  0.1000000000D+01
 Atom C17      Shell    49 S   6     bf  137 -   137          2.826286479694          3.044447349297         -6.192634578370
      0.3047524880D+04  0.1834737132D-02
      0.4573695180D+03  0.1403732281D-01
      0.1039486850D+03  0.6884262226D-01
      0.2921015530D+02  0.2321844432D+00
      0.9286662960D+01  0.4679413484D+00
      0.3163926960D+01  0.3623119853D+00
 Atom C17      Shell    50 SP   3    bf  138 -   141          2.826286479694          3.044447349297         -6.192634578370
      0.7868272350D+01 -0.1193324198D+00  0.6899906659D-01
      0.1881288540D+01 -0.1608541517D+00  0.3164239610D+00
      0.5442492580D+00  0.1143456438D+01  0.7443082909D+00
 Atom C17      Shell    51 SP   1    bf  142 -   145          2.826286479694          3.044447349297         -6.192634578370
      0.1687144782D+00  0.1000000000D+01  0.1000000000D+01
 Atom C17      Shell    52 D   1     bf  146 -   151          2.826286479694          3.044447349297         -6.192634578370
      0.8000000000D+00  0.1000000000D+01
 Atom C18      Shell    53 S   6     bf  152 -   152         -4.757838525791          4.098416928761          0.047996341467
      0.3047524880D+04  0.1834737132D-02
      0.4573695180D+03  0.1403732281D-01
      0.1039486850D+03  0.6884262226D-01
      0.2921015530D+02  0.2321844432D+00
      0.9286662960D+01  0.4679413484D+00
      0.3163926960D+01  0.3623119853D+00
 Atom C18      Shell    54 SP   3    bf  153 -   156         -4.757838525791          4.098416928761          0.047996341467
      0.7868272350D+01 -0.1193324198D+00  0.6899906659D-01
      0.1881288540D+01 -0.1608541517D+00  0.3164239610D+00
      0.5442492580D+00  0.1143456438D+01  0.7443082909D+00
 Atom C18      Shell    55 SP   1    bf  157 -   160         -4.757838525791          4.098416928761          0.047996341467
      0.1687144782D+00  0.1000000000D+01  0.1000000000D+01
 Atom C18      Shell    56 D   1     bf  161 -   166         -4.757838525791          4.098416928761          0.047996341467
      0.8000000000D+00  0.1000000000D+01
 Atom H19      Shell    57 S   3     bf  167 -   167         -4.670346549099          2.373151544728          1.182079083993
      0.1873113696D+02  0.3349460434D-01
      0.2825394365D+01  0.2347269535D+00
      0.6401216923D+00  0.8137573261D+00
 Atom H19      Shell    58 S   1     bf  168 -   168         -4.670346549099          2.373151544728          1.182079083993
      0.1612777588D+00  0.1000000000D+01
 Atom H20      Shell    59 S   3     bf  169 -   169         -6.073987253843          3.734399531804         -1.513276756824
      0.1873113696D+02  0.3349460434D-01
      0.2825394365D+01  0.2347269535D+00
      0.6401216923D+00  0.8137573261D+00
 Atom H20      Shell    60 S   1     bf  170 -   170         -6.073987253843          3.734399531804         -1.513276756824
      0.1612777588D+00  0.1000000000D+01
 Atom C21      Shell    61 S   6     bf  171 -   171          1.668469854083          7.325908310242         -4.053098593787
      0.3047524880D+04  0.1834737132D-02
      0.4573695180D+03  0.1403732281D-01
      0.1039486850D+03  0.6884262226D-01
      0.2921015530D+02  0.2321844432D+00
      0.9286662960D+01  0.4679413484D+00
      0.3163926960D+01  0.3623119853D+00
 Atom C21      Shell    62 SP   3    bf  172 -   175          1.668469854083          7.325908310242         -4.053098593787
      0.7868272350D+01 -0.1193324198D+00  0.6899906659D-01
      0.1881288540D+01 -0.1608541517D+00  0.3164239610D+00
      0.5442492580D+00  0.1143456438D+01  0.7443082909D+00
 Atom C21      Shell    63 SP   1    bf  176 -   179          1.668469854083          7.325908310242         -4.053098593787
      0.1687144782D+00  0.1000000000D+01  0.1000000000D+01
 Atom C21      Shell    64 D   1     bf  180 -   185          1.668469854083          7.325908310242         -4.053098593787
      0.8000000000D+00  0.1000000000D+01
 Atom H22      Shell    65 S   3     bf  186 -   186          0.726792393468          7.906143654878         -5.801698372801
      0.1873113696D+02  0.3349460434D-01
      0.2825394365D+01  0.2347269535D+00
      0.6401216923D+00  0.8137573261D+00
 Atom H22      Shell    66 S   1     bf  187 -   187          0.726792393468          7.906143654878         -5.801698372801
      0.1612777588D+00  0.1000000000D+01
 Atom H23      Shell    67 S   3     bf  188 -   188          3.621326086787          7.998601850745         -4.210206040310
      0.1873113696D+02  0.3349460434D-01
      0.2825394365D+01  0.2347269535D+00
      0.6401216923D+00  0.8137573261D+00
 Atom H23      Shell    68 S   1     bf  189 -   189          3.621326086787          7.998601850745         -4.210206040310
      0.1612777588D+00  0.1000000000D+01
 Atom C24      Shell    69 S   6     bf  190 -   190         -5.610166182157          6.431070017297          1.616362659078
      0.3047524880D+04  0.1834737132D-02
      0.4573695180D+03  0.1403732281D-01
      0.1039486850D+03  0.6884262226D-01
      0.2921015530D+02  0.2321844432D+00
      0.9286662960D+01  0.4679413484D+00
      0.3163926960D+01  0.3623119853D+00
 Atom C24      Shell    70 SP   3    bf  191 -   194         -5.610166182157          6.431070017297          1.616362659078
      0.7868272350D+01 -0.1193324198D+00  0.6899906659D-01
      0.1881288540D+01 -0.1608541517D+00  0.3164239610D+00
      0.5442492580D+00  0.1143456438D+01  0.7443082909D+00
 Atom C24      Shell    71 SP   1    bf  195 -   198         -5.610166182157          6.431070017297          1.616362659078
      0.1687144782D+00  0.1000000000D+01  0.1000000000D+01
 Atom C24      Shell    72 D   1     bf  199 -   204         -5.610166182157          6.431070017297          1.616362659078
      0.8000000000D+00  0.1000000000D+01
 Atom H25      Shell    73 S   3     bf  205 -   205         -7.486136885138          7.073158252551          1.014704415239
      0.1873113696D+02  0.3349460434D-01
      0.2825394365D+01  0.2347269535D+00
      0.6401216923D+00  0.8137573261D+00
 Atom H25      Shell    74 S   1     bf  206 -   206         -7.486136885138          7.073158252551          1.014704415239
      0.1612777588D+00  0.1000000000D+01
 Atom H26      Shell    75 S   3     bf  207 -   207         -5.771140991006          5.976636065690          3.627353859616
      0.1873113696D+02  0.3349460434D-01
      0.2825394365D+01  0.2347269535D+00
      0.6401216923D+00  0.8137573261D+00
 Atom H26      Shell    76 S   1     bf  208 -   208         -5.771140991006          5.976636065690          3.627353859616
      0.1612777588D+00  0.1000000000D+01
 Atom C27      Shell    77 S   6     bf  209 -   209         -0.848855889310          0.516229243372         -2.548102711364
      0.3047524880D+04  0.1834737132D-02
      0.4573695180D+03  0.1403732281D-01
      0.1039486850D+03  0.6884262226D-01
      0.2921015530D+02  0.2321844432D+00
      0.9286662960D+01  0.4679413484D+00
      0.3163926960D+01  0.3623119853D+00
 Atom C27      Shell    78 SP   3    bf  210 -   213         -0.848855889310          0.516229243372         -2.548102711364
      0.7868272350D+01 -0.1193324198D+00  0.6899906659D-01
      0.1881288540D+01 -0.1608541517D+00  0.3164239610D+00
      0.5442492580D+00  0.1143456438D+01  0.7443082909D+00
 Atom C27      Shell    79 SP   1    bf  214 -   217         -0.848855889310          0.516229243372         -2.548102711364
      0.1687144782D+00  0.1000000000D+01  0.1000000000D+01
 Atom C27      Shell    80 D   1     bf  218 -   223         -0.848855889310          0.516229243372         -2.548102711364
      0.8000000000D+00  0.1000000000D+01
 Atom H28      Shell    81 S   3     bf  224 -   224         -2.767205288190         -0.264116949353         -2.582807267232
      0.1873113696D+02  0.3349460434D-01
      0.2825394365D+01  0.2347269535D+00
      0.6401216923D+00  0.8137573261D+00
 Atom H28      Shell    82 S   1     bf  225 -   225         -2.767205288190         -0.264116949353         -2.582807267232
      0.1612777588D+00  0.1000000000D+01
 Atom C29      Shell    83 S   6     bf  226 -   226         -4.746147924042         11.244508556698          1.434926670450
      0.3047524880D+04  0.1834737132D-02
      0.4573695180D+03  0.1403732281D-01
      0.1039486850D+03  0.6884262226D-01
      0.2921015530D+02  0.2321844432D+00
      0.9286662960D+01  0.4679413484D+00
      0.3163926960D+01  0.3623119853D+00
 Atom C29      Shell    84 SP   3    bf  227 -   230         -4.746147924042         11.244508556698          1.434926670450
      0.7868272350D+01 -0.1193324198D+00  0.6899906659D-01
      0.1881288540D+01 -0.1608541517D+00  0.3164239610D+00
      0.5442492580D+00  0.1143456438D+01  0.7443082909D+00
 Atom C29      Shell    85 SP   1    bf  231 -   234         -4.746147924042         11.244508556698          1.434926670450
      0.1687144782D+00  0.1000000000D+01  0.1000000000D+01
 Atom C29      Shell    86 D   1     bf  235 -   240         -4.746147924042         11.244508556698          1.434926670450
      0.8000000000D+00  0.1000000000D+01
 Atom H30      Shell    87 S   3     bf  241 -   241         -6.240640954283         11.419748813638          0.000000000000
      0.1873113696D+02  0.3349460434D-01
      0.2825394365D+01  0.2347269535D+00
      0.6401216923D+00  0.8137573261D+00
 Atom H30      Shell    88 S   1     bf  242 -   242         -6.240640954283         11.419748813638          0.000000000000
      0.1612777588D+00  0.1000000000D+01
 Atom C31      Shell    89 S   6     bf  243 -   243         -4.042759165120          8.460508440886         -3.642982934085
      0.3047524880D+04  0.1834737132D-02
      0.4573695180D+03  0.1403732281D-01
      0.1039486850D+03  0.6884262226D-01
      0.2921015530D+02  0.2321844432D+00
      0.9286662960D+01  0.4679413484D+00
      0.3163926960D+01  0.3623119853D+00
 Atom C31      Shell    90 SP   3    bf  244 -   247         -4.042759165120          8.460508440886         -3.642982934085
      0.7868272350D+01 -0.1193324198D+00  0.6899906659D-01
      0.1881288540D+01 -0.1608541517D+00  0.3164239610D+00
      0.5442492580D+00  0.1143456438D+01  0.7443082909D+00
 Atom C31      Shell    91 SP   1    bf  248 -   251         -4.042759165120          8.460508440886         -3.642982934085
      0.1687144782D+00  0.1000000000D+01  0.1000000000D+01
 Atom C31      Shell    92 D   1     bf  252 -   257         -4.042759165120          8.460508440886         -3.642982934085
      0.8000000000D+00  0.1000000000D+01
 Atom H32      Shell    93 S   3     bf  258 -   258         -3.413827052026          7.589813175631         -5.407253645002
      0.1873113696D+02  0.3349460434D-01
      0.2825394365D+01  0.2347269535D+00
      0.6401216923D+00  0.8137573261D+00
 Atom H32      Shell    94 S   1     bf  259 -   259         -3.413827052026          7.589813175631         -5.407253645002
      0.1612777588D+00  0.1000000000D+01
 Atom H33      Shell    95 S   3     bf  260 -   260         -6.001153051284          7.870951096133         -3.339221420190
      0.1873113696D+02  0.3349460434D-01
      0.2825394365D+01  0.2347269535D+00
      0.6401216923D+00  0.8137573261D+00
 Atom H33      Shell    96 S   1     bf  261 -   261         -6.001153051284          7.870951096133         -3.339221420190
      0.1612777588D+00  0.1000000000D+01
 Atom H34      Shell    97 S   3     bf  262 -   262         -4.055845877639         10.507989988488         -3.946532798653
      0.1873113696D+02  0.3349460434D-01
      0.2825394365D+01  0.2347269535D+00
      0.6401216923D+00  0.8137573261D+00
 Atom H34      Shell    98 S   1     bf  263 -   263         -4.055845877639         10.507989988488         -3.946532798653
      0.1612777588D+00  0.1000000000D+01
 Atom C35      Shell    99 S   6     bf  264 -   264          2.420990207446          0.179311955352         -6.005778061508
      0.3047524880D+04  0.1834737132D-02
      0.4573695180D+03  0.1403732281D-01
      0.1039486850D+03  0.6884262226D-01
      0.2921015530D+02  0.2321844432D+00
      0.9286662960D+01  0.4679413484D+00
      0.3163926960D+01  0.3623119853D+00
 Atom C35      Shell   100 SP   3    bf  265 -   268          2.420990207446          0.179311955352         -6.005778061508
      0.7868272350D+01 -0.1193324198D+00  0.6899906659D-01
      0.1881288540D+01 -0.1608541517D+00  0.3164239610D+00
      0.5442492580D+00  0.1143456438D+01  0.7443082909D+00
 Atom C35      Shell   101 SP   1    bf  269 -   272          2.420990207446          0.179311955352         -6.005778061508
      0.1687144782D+00  0.1000000000D+01  0.1000000000D+01
 Atom C35      Shell   102 D   1     bf  273 -   278          2.420990207446          0.179311955352         -6.005778061508
      0.8000000000D+00  0.1000000000D+01
 Atom C36      Shell   103 S   6     bf  279 -   279          5.727213267698          3.568914060060         -6.236744546867
      0.3047524880D+04  0.1834737132D-02
      0.4573695180D+03  0.1403732281D-01
      0.1039486850D+03  0.6884262226D-01
      0.2921015530D+02  0.2321844432D+00
      0.9286662960D+01  0.4679413484D+00
      0.3163926960D+01  0.3623119853D+00
 Atom C36      Shell   104 SP   3    bf  280 -   283          5.727213267698          3.568914060060         -6.236744546867
      0.7868272350D+01 -0.1193324198D+00  0.6899906659D-01
      0.1881288540D+01 -0.1608541517D+00  0.3164239610D+00
      0.5442492580D+00  0.1143456438D+01  0.7443082909D+00
 Atom C36      Shell   105 SP   1    bf  284 -   287          5.727213267698          3.568914060060         -6.236744546867
      0.1687144782D+00  0.1000000000D+01  0.1000000000D+01
 Atom C36      Shell   106 D   1     bf  288 -   293          5.727213267698          3.568914060060         -6.236744546867
      0.8000000000D+00  0.1000000000D+01
 Atom H37      Shell   107 S   3     bf  294 -   294          6.480412958709          3.216554912740         -4.333815048669
      0.1873113696D+02  0.3349460434D-01
      0.2825394365D+01  0.2347269535D+00
      0.6401216923D+00  0.8137573261D+00
 Atom H37      Shell   108 S   1     bf  295 -   295          6.480412958709          3.216554912740         -4.333815048669
      0.1612777588D+00  0.1000000000D+01
 Atom H38      Shell   109 S   3     bf  296 -   296          6.054082333849          5.574047166278         -6.632136594377
      0.1873113696D+02  0.3349460434D-01
      0.2825394365D+01  0.2347269535D+00
      0.6401216923D+00  0.8137573261D+00
 Atom H38      Shell   110 S   1     bf  297 -   297          6.054082333849          5.574047166278         -6.632136594377
      0.1612777588D+00  0.1000000000D+01
 Atom C39      Shell   111 S   6     bf  298 -   298          0.776566532589         -0.893251697781         -4.396739829743
      0.3047524880D+04  0.1834737132D-02
      0.4573695180D+03  0.1403732281D-01
      0.1039486850D+03  0.6884262226D-01
      0.2921015530D+02  0.2321844432D+00
      0.9286662960D+01  0.4679413484D+00
      0.3163926960D+01  0.3623119853D+00
 Atom C39      Shell   112 SP   3    bf  299 -   302          0.776566532589         -0.893251697781         -4.396739829743
      0.7868272350D+01 -0.1193324198D+00  0.6899906659D-01
      0.1881288540D+01 -0.1608541517D+00  0.3164239610D+00
      0.5442492580D+00  0.1143456438D+01  0.7443082909D+00
 Atom C39      Shell   113 SP   1    bf  303 -   306          0.776566532589         -0.893251697781         -4.396739829743
      0.1687144782D+00  0.1000000000D+01  0.1000000000D+01
 Atom C39      Shell   114 D   1     bf  307 -   312          0.776566532589         -0.893251697781         -4.396739829743
      0.8000000000D+00  0.1000000000D+01
 Atom H40      Shell   115 S   3     bf  313 -   313          0.620177200894         -2.945624423534         -4.339590750930
[...]
 **** Fit       0.004899
 **** Fit       0.005218
 **** Fit       0.005581
 **** Fit       0.005915
 **** Fit       0.006140
 **** Fit       0.006205
 **** Fit       0.006112
 **** Fit       0.005905
 **** Fit       0.005645
 **** Fit       0.005380
 **** Fit       0.004912
 **** Fit       0.005139
 **** Fit       0.005385
 **** Fit       0.005605
 **** Fit       0.005755
 **** Fit       0.005806
 **** Fit       0.005752
 **** Fit       0.005613
 **** Fit       0.005423
 **** Fit       0.005244
 **** Fit       0.005399
 **** Fit       0.005504
 **** Fit       0.005539
 **** Fit      -0.022356
 **** Fit      -0.024133
 **** Fit      -0.024925
 **** Fit      -0.024653
 **** Fit      -0.018485
 **** Fit      -0.022084
 **** Fit      -0.025208
 **** Fit      -0.027406
 **** Fit      -0.028338
 **** Fit      -0.027901
 **** Fit      -0.026260
 **** Fit      -0.023764
 **** Fit      -0.015572
 **** Fit      -0.019862
 **** Fit      -0.024177
 **** Fit      -0.027966
 **** Fit      -0.030624
 **** Fit      -0.031689
 **** Fit      -0.031034
 **** Fit      -0.028904
 **** Fit      -0.025788
 **** Fit      -0.022223
 **** Fit      -0.011615
 **** Fit      -0.015955
 **** Fit      -0.020854
 **** Fit      -0.025868
 **** Fit      -0.030315
 **** Fit      -0.033420
 **** Fit      -0.034587
 **** Fit      -0.033667
 **** Fit      -0.031008
 **** Fit      -0.027262
 **** Fit      -0.023102
 **** Fit      -0.007414
 **** Fit      -0.011196
 **** Fit      -0.015876
 **** Fit      -0.021258
 **** Fit      -0.026845
 **** Fit      -0.031835
 **** Fit      -0.035293
 **** Fit      -0.036500
 **** Fit      -0.035300
 **** Fit      -0.032152
 **** Fit      -0.027866
 **** Fit      -0.023235
 **** Fit      -0.018815
 **** Fit      -0.014900
 **** Fit      -0.011594
 **** Fit      -0.006572
 **** Fit      -0.010418
 **** Fit      -0.015255
 **** Fit      -0.020891
 **** Fit      -0.026795
 **** Fit      -0.032080
 **** Fit      -0.035700
 **** Fit      -0.036862
 **** Fit      -0.035423
 **** Fit      -0.031936
 **** Fit      -0.027325
 **** Fit      -0.022452
 **** Fit      -0.017892
 **** Fit      -0.013923
 **** Fit      -0.010621
 **** Fit      -0.007958
 **** Fit      -0.002768
 **** Fit      -0.005550
 **** Fit      -0.009300
 **** Fit      -0.014062
 **** Fit      -0.019643
 **** Fit      -0.025500
 **** Fit      -0.030723
 **** Fit      -0.034246
 **** Fit      -0.035277
 **** Fit      -0.033705
 **** Fit      -0.030131
 **** Fit      -0.025508
 **** Fit      -0.020701
 **** Fit      -0.016263
 **** Fit      -0.012442
 **** Fit      -0.009296
 **** Fit      -0.006782
 **** Fit      -0.004818
 **** Fit      -0.004408
 **** Fit      -0.007904
 **** Fit      -0.012347
 **** Fit      -0.017542
 **** Fit      -0.022962
 **** Fit      -0.027744
 **** Fit      -0.030903
 **** Fit      -0.031734
 **** Fit      -0.030171
 **** Fit      -0.026796
 **** Fit      -0.022500
 **** Fit      -0.018075
 **** Fit      -0.014018
 **** Fit      -0.010542
 **** Fit      -0.007692
 **** Fit      -0.005425
 **** Fit      -0.003664
 **** Fit      -0.003212
 **** Fit      -0.006324
 **** Fit      -0.010247
 **** Fit      -0.014783
 **** Fit      -0.019449
 **** Fit      -0.023493
 **** Fit      -0.026090
 **** Fit      -0.026680
 **** Fit      -0.025243
 **** Fit      -0.022295
 **** Fit      -0.018590
 **** Fit      -0.014796
 **** Fit      -0.011323
 **** Fit      -0.008348
 **** Fit      -0.005905
 **** Fit      -0.003961
 **** Fit      -0.002452
 **** Fit      -0.002027
 **** Fit      -0.004672
 **** Fit      -0.007955
 **** Fit      -0.011679
 **** Fit      -0.015422
 **** Fit      -0.018577
 **** Fit      -0.020513
 **** Fit      -0.020833
 **** Fit      -0.019567
 **** Fit      -0.017145
 **** Fit      -0.014165
 **** Fit      -0.011138
 **** Fit      -0.008373
 **** Fit      -0.005998
 **** Fit      -0.004036
 **** Fit      -0.002463
 **** Fit      -0.001237
 **** Fit      -0.005674
 **** Fit      -0.008557
 **** Fit      -0.011360
 **** Fit      -0.013613
 **** Fit      -0.014868
 **** Fit      -0.014881
 **** Fit      -0.013739
 **** Fit      -0.011814
 **** Fit      -0.009568
 **** Fit      -0.007352
 **** Fit      -0.005349
 **** Fit      -0.003622
 **** Fit      -0.002175
 **** Fit      -0.000997
 **** Fit      -0.005676
 **** Fit      -0.007622
 **** Fit      -0.009047
 **** Fit      -0.009644
 **** Fit      -0.009293
 **** Fit      -0.008159
 **** Fit      -0.006618
 **** Fit      -0.005039
 **** Fit      -0.003623
 **** Fit      -0.002397
 **** Fit      -0.001331
 **** Fit      -0.000405
 **** Fit       0.000380
 **** Fit      -0.001729
 **** Fit      -0.003185
 **** Fit      -0.004410
 **** Fit      -0.005125
 **** Fit      -0.005111
 **** Fit      -0.004347
 **** Fit      -0.003095
 **** Fit      -0.001797
 **** Fit      -0.000793
 **** Fit      -0.000132
 **** Fit       0.000341
 **** Fit       0.000767
 **** Fit       0.001198
 **** Fit       0.001616
 **** Fit       0.001991
 **** Fit      -0.000201
 **** Fit      -0.001139
 **** Fit      -0.001801
 **** Fit      -0.001954
 **** Fit      -0.001432
 **** Fit      -0.000280
 **** Fit       0.001142
 **** Fit       0.002297
 **** Fit       0.002841
 **** Fit       0.002860
 **** Fit       0.002680
 **** Fit       0.002555
 **** Fit       0.002560
 **** Fit       0.002664
 **** Fit       0.002810
 **** Fit       0.001021
 **** Fit       0.000466
 **** Fit       0.000206
 **** Fit       0.000436
 **** Fit       0.001284
 **** Fit       0.002664
 **** Fit       0.004166
 **** Fit       0.005203
 **** Fit       0.005437
 **** Fit       0.005033
 **** Fit       0.004420
 **** Fit       0.003916
 **** Fit       0.003617
 **** Fit       0.003488
 **** Fit       0.003459
 **** Fit       0.001965
 **** Fit       0.001674
 **** Fit       0.001663
 **** Fit       0.002088
 **** Fit       0.003034
 **** Fit       0.004398
 **** Fit       0.005790
 **** Fit       0.006675
 **** Fit       0.006760
 **** Fit       0.006215
 **** Fit       0.005454
 **** Fit       0.004794
 **** Fit       0.004342
 **** Fit       0.004076
 **** Fit       0.003932
 **** Fit       0.002672
 **** Fit       0.002548
 **** Fit       0.002664
 **** Fit       0.003127
 **** Fit       0.003985
 **** Fit       0.005133
 **** Fit       0.006258
 **** Fit       0.006957
 **** Fit       0.007011
 **** Fit       0.006540
 **** Fit       0.005861
 **** Fit       0.005231
 **** Fit       0.004758
 **** Fit       0.004441
 **** Fit       0.004239
 **** Fit       0.003186
 **** Fit       0.003161
 **** Fit       0.003320
 **** Fit       0.003732
 **** Fit       0.004412
 **** Fit       0.005271
 **** Fit       0.006090
 **** Fit       0.006605
 **** Fit       0.006671
 **** Fit       0.006355
 **** Fit       0.005854
 **** Fit       0.005349
 **** Fit       0.004933
 **** Fit       0.004625
 **** Fit       0.003577
 **** Fit       0.003738
 **** Fit       0.004069
 **** Fit       0.004568
 **** Fit       0.005167
 **** Fit       0.005727
 **** Fit       0.006090
 **** Fit       0.006167
 **** Fit       0.005986
 **** Fit       0.005655
 **** Fit       0.005286
 **** Fit       0.004952
 **** Fit       0.004681
 **** Fit       0.003999
 **** Fit       0.004254
 **** Fit       0.004610
 **** Fit       0.005017
 **** Fit       0.005391
 **** Fit       0.005642
 **** Fit       0.005716
 **** Fit       0.005620
 **** Fit       0.005408
 **** Fit       0.005147
 **** Fit       0.004888
 **** Fit       0.004354
 **** Fit       0.004609
 **** Fit       0.004887
 **** Fit       0.005140
 **** Fit       0.005313
 **** Fit       0.005373
 **** Fit       0.005320
 **** Fit       0.005181
 **** Fit       0.004992
 **** Fit       0.004588
 **** Fit       0.004784
 **** Fit       0.004959
 **** Fit       0.005079
 **** Fit       0.005124
 **** Fit       0.005090
 **** Fit      -0.022575
 **** Fit      -0.024396
 **** Fit      -0.025157
 **** Fit      -0.024783
 **** Fit      -0.020982
 **** Fit      -0.023958
 **** Fit      -0.026012
 **** Fit      -0.026826
 **** Fit      -0.026315
 **** Fit      -0.024655
 **** Fit      -0.017690
 **** Fit      -0.021452
 **** Fit      -0.024699
 **** Fit      -0.026920
 **** Fit      -0.027749
 **** Fit      -0.027100
 **** Fit      -0.025193
 **** Fit      -0.022446
 **** Fit      -0.017281
 **** Fit      -0.021187
 **** Fit      -0.024558
 **** Fit      -0.026840
 **** Fit      -0.027638
 **** Fit      -0.026872
 **** Fit      -0.024802
 **** Fit      -0.021892
 **** Fit      -0.012379
 **** Fit      -0.016237
 **** Fit      -0.020083
 **** Fit      -0.023388
 **** Fit      -0.025595
 **** Fit      -0.026314
 **** Fit      -0.025480
 **** Fit      -0.023370
 **** Fit      -0.020464
 **** Fit      -0.014591
 **** Fit      -0.018164
 **** Fit      -0.021207
 **** Fit      -0.023204
 **** Fit      -0.023802
 **** Fit      -0.022958
 **** Fit      -0.020946
 **** Fit      -0.018218
 **** Fit      -0.012473
 **** Fit      -0.015597
 **** Fit      -0.018220
 **** Fit      -0.019898
 **** Fit      -0.020345
 **** Fit      -0.019541
 **** Fit      -0.017738
 **** Fit      -0.015331
 **** Fit      -0.012712
 **** Fit      -0.012650
 **** Fit      -0.014758
 **** Fit      -0.016054
 **** Fit      -0.016326
 **** Fit      -0.015584
 **** Fit      -0.014047
 **** Fit      -0.012043
 **** Fit      -0.009886
 **** Fit      -0.007803
 **** Fit      -0.005921
 **** Fit      -0.009612
 **** Fit      -0.011179
 **** Fit      -0.012069
 **** Fit      -0.012147
 **** Fit      -0.011453
 **** Fit      -0.010185
 **** Fit      -0.008604
 **** Fit      -0.006942
 **** Fit      -0.005355
 **** Fit      -0.003922
 **** Fit      -0.002677
 **** Fit      -0.005291
 **** Fit      -0.006725
 **** Fit      -0.007777
 **** Fit      -0.008270
 **** Fit      -0.008134
 **** Fit      -0.007452
 **** Fit      -0.006412
 **** Fit      -0.005228
 **** Fit      -0.004053
 **** Fit      -0.002963
 **** Fit      -0.001982
 **** Fit      -0.001118
 **** Fit      -0.003203
 **** Fit      -0.004153
 **** Fit      -0.004751
 **** Fit      -0.004879
 **** Fit      -0.004527
 **** Fit      -0.003816
 **** Fit      -0.002950
 **** Fit      -0.002110
 **** Fit      -0.001380
 **** Fit      -0.000754
 **** Fit      -0.000198
 **** Fit       0.000309
 **** Fit       0.000766
 **** Fit      -0.001427
 **** Fit      -0.001985
 **** Fit      -0.002214
 **** Fit      -0.002042
 **** Fit      -0.001500
 **** Fit      -0.000748
 **** Fit      -0.000010
 **** Fit       0.000553
 **** Fit       0.000913
 **** Fit       0.001147
 **** Fit       0.001341
 **** Fit       0.001542
 **** Fit       0.001754
 **** Fit       0.000018
 **** Fit      -0.000247
 **** Fit      -0.000213
 **** Fit       0.000165
 **** Fit       0.000825
 **** Fit       0.001587
 **** Fit       0.002222
 **** Fit       0.002582
 **** Fit       0.002679
 **** Fit       0.002632
 **** Fit       0.002563
 **** Fit       0.002535
 **** Fit       0.002557
 **** Fit       0.001147
 **** Fit       0.001077
 **** Fit       0.001267
 **** Fit       0.001739
 **** Fit       0.002419
 **** Fit       0.003132
 **** Fit       0.003667
 **** Fit       0.003898
 **** Fit       0.003851
 **** Fit       0.003654
 **** Fit       0.003436
 **** Fit       0.003268
 **** Fit       0.003166
 **** Fit       0.001995
 **** Fit       0.002038
 **** Fit       0.002293
 **** Fit       0.002762
 **** Fit       0.003376
 **** Fit       0.003985
 **** Fit       0.004419
 **** Fit       0.004577
 **** Fit       0.004484
 **** Fit       0.004248
 **** Fit       0.003982
 **** Fit       0.003755
 **** Fit       0.003587
 **** Fit       0.002613
 **** Fit       0.002709
 **** Fit       0.002965
 **** Fit       0.003374
 **** Fit       0.003875
 **** Fit       0.004356
 **** Fit       0.004692
 **** Fit       0.004812
 **** Fit       0.004728
 **** Fit       0.004518
 **** Fit       0.004269
 **** Fit       0.004038
 **** Fit       0.003163
 **** Fit       0.003389
 **** Fit       0.003717
 **** Fit       0.004101
 **** Fit       0.004460
 **** Fit       0.004712
 **** Fit       0.004806
 **** Fit       0.004748
 **** Fit       0.004586
 **** Fit       0.004379
 **** Fit       0.004173
 **** Fit       0.003650
 **** Fit       0.003903
 **** Fit       0.004186
 **** Fit       0.004446
 **** Fit       0.004630
 **** Fit       0.004704
 **** Fit       0.004668
 **** Fit       0.004550
 **** Fit       0.004387
 **** Fit       0.004000
 **** Fit       0.004206
 **** Fit       0.004393
 **** Fit       0.004525
 **** Fit       0.004582
 **** Fit       0.004559
 **** Fit       0.004472
 **** Fit      -0.020702
 **** Fit      -0.021270
 **** Fit      -0.019660
 **** Fit      -0.020177
 **** Fit      -0.012995
 **** Fit      -0.012550
 **** Fit      -0.011552
 **** Fit      -0.010185
 **** Fit      -0.008644
 **** Fit      -0.009880
 **** Fit      -0.009980
 **** Fit      -0.009552
 **** Fit      -0.008704
 **** Fit      -0.007588
 **** Fit      -0.006354
 **** Fit      -0.005119
 **** Fit      -0.006666
 **** Fit      -0.007066
 **** Fit      -0.007035
 **** Fit      -0.006612
 **** Fit      -0.005901
 **** Fit      -0.005027
 **** Fit      -0.004099
 **** Fit      -0.003189
 **** Fit      -0.002339
 **** Fit      -0.003827
 **** Fit      -0.004320
 **** Fit      -0.004493
 **** Fit      -0.004335
 **** Fit      -0.003906
 **** Fit      -0.003310
 **** Fit      -0.002651
 **** Fit      -0.002003
 **** Fit      -0.001395
 **** Fit      -0.000836
 **** Fit      -0.000326
 **** Fit      -0.002044
 **** Fit      -0.002291
 **** Fit      -0.002274
 **** Fit      -0.002009
 **** Fit      -0.001572
 **** Fit      -0.001069
 **** Fit      -0.000590
 **** Fit      -0.000177
 **** Fit       0.000174
 **** Fit       0.000483
 **** Fit       0.000769
 **** Fit      -0.000565
 **** Fit      -0.000628
 **** Fit      -0.000474
 **** Fit      -0.000138
 **** Fit       0.000296
 **** Fit       0.000721
 **** Fit       0.001062
 **** Fit       0.001296
 **** Fit       0.001451
 **** Fit       0.001568
 **** Fit       0.001679
 **** Fit       0.000608
 **** Fit       0.000667
 **** Fit       0.000898
 **** Fit       0.001260
 **** Fit       0.001667
 **** Fit       0.002023
 **** Fit       0.002263
 **** Fit       0.002378
 **** Fit       0.002407
 **** Fit       0.002398
 **** Fit       0.002388
 **** Fit       0.001502
 **** Fit       0.001625
 **** Fit       0.001881
 **** Fit       0.002226
 **** Fit       0.002585
 **** Fit       0.002877
 **** Fit       0.003048
 **** Fit       0.003096
 **** Fit       0.003058
 **** Fit       0.002981
 **** Fit       0.002903
 **** Fit       0.002305
 **** Fit       0.002547
 **** Fit       0.002848
 **** Fit       0.003146
 **** Fit       0.003379
 **** Fit       0.003504
 **** Fit       0.003521
 **** Fit       0.003459
 **** Fit       0.003357
 **** Fit       0.002771
 **** Fit       0.002981
 **** Fit       0.003227
 **** Fit       0.003464
 **** Fit       0.003643
 **** Fit       0.003737
 **** Fit       0.003742
 **** Fit       0.003679
 **** Fit       0.003450
 **** Fit       0.003631
 **** Fit       0.003767
 **** Fit       0.003837
 **** Fit       0.003837
 **** Fit      -0.006063
 **** Fit      -0.005797
 **** Fit      -0.005304
 **** Fit      -0.004661
 **** Fit      -0.003941
 **** Fit      -0.004062
 **** Fit      -0.004002
 **** Fit      -0.003734
 **** Fit      -0.003316
 **** Fit      -0.002812
 **** Fit      -0.002275
 **** Fit      -0.001741
 **** Fit      -0.002309
 **** Fit      -0.002182
 **** Fit      -0.001913
 **** Fit      -0.001560
 **** Fit      -0.001175
 **** Fit      -0.000795
 **** Fit      -0.000438
 **** Fit      -0.000835
 **** Fit      -0.000661
 **** Fit      -0.000398
 **** Fit      -0.000099
 **** Fit       0.000189
 **** Fit       0.000442
 **** Fit       0.000659
 **** Fit       0.000343
 **** Fit       0.000541
 **** Fit       0.000789
 **** Fit       0.001039
 **** Fit       0.001251
 **** Fit       0.001412
 **** Fit       0.001528
 **** Fit       0.001243
 **** Fit       0.001441
 **** Fit       0.001664
 **** Fit       0.001870
 **** Fit       0.002026
 **** Fit       0.002125
 **** Fit       0.002175
 **** Fit       0.002083
 **** Fit       0.002275
 **** Fit       0.002441
 **** Fit       0.002557
 **** Fit       0.002616
 -----------------------------------------------------------------
 Leave Link  602 at Wed May 17 12:12:51 2017, MaxMem=   33554432 cpu:      99.8
 (Enter /scratch/michal/g09/l9999.exe)

 Test job not archived.
 1\1\GINC-RZEPICHA\SP\RHF\6-31G(d)\C27H46O2\MICHAL\17-May-2017\0\\#P HF
 /6-31G* SCF(Conver=6) NoSymm Test Pop=chelpg IOp(6/33=2) GFInput GFPri
 nt\\MEP - Input generated by R.E.D.-III.x MOLECULE\\0,1\O,0,0.,0.,0.\H
 ,0,0.96654316,0.,0.\O,0,4.35478969,-1.27672298,-4.95216707\H,0,4.07980
 011,-1.08105303,-5.85895655\C,0,-1.23257466,4.10710703,-0.73193948\C,0
 ,-1.13366814,2.57318678,-0.50338564\H,0,-0.43759459,2.44720997,0.33801
 661\C,0,-0.52862739,1.78090824,-1.66837334\H,0,-1.1889909,1.86710051,-
 2.54351906\C,0,0.87322611,2.33364966,-2.03114058\H,0,1.52608757,2.0815
 0868,-1.17888463\C,0,-1.91005408,4.5302875,0.61805856\H,0,-1.12781344,
 4.42785482,1.38493881\C,0,0.20797432,4.60588467,-0.96460059\H,0,0.7902
 8598,4.43827851,-0.04709204\H,0,0.23995175,5.68227486,-1.16166274\C,0,
 1.49560639,1.61105215,-3.27700108\C,0,-2.51773971,2.16878883,0.0253985
 7\H,0,-2.47144095,1.25581771,0.62552931\H,0,-3.21421562,1.97615912,-0.
 80079157\C,0,0.88291622,3.87670371,-2.1448074\H,0,0.38460197,4.1837510
 3,-3.07012655\H,0,1.91632323,4.2326778,-2.22794508\C,0,-2.96877208,3.4
 0317568,0.85534228\H,0,-3.96149302,3.74295414,0.53695845\H,0,-3.053956
 28,3.16269959,1.91951299\C,0,-0.44919519,0.27317675,-1.34839788\H,0,-1
 .46434197,-0.13976467,-1.36676274\C,0,-2.51155331,5.95033765,0.7593304
 9\H,0,-3.30240496,6.0430708,0.\C,0,-2.13933601,4.47710824,-1.92778354\
 H,0,-1.80651947,4.01635615,-2.86139539\H,0,-3.17567342,4.16512793,-1.7
 6703987\H,0,-2.1462612,5.56058881,-2.08841521\C,0,1.28113284,0.0948878
 ,-3.17812087\C,0,3.03071073,1.88858798,-3.30034307\H,0,3.42928684,1.70
 212755,-2.29335615\H,0,3.20368239,2.94965872,-3.50957553\C,0,0.4109413
 1,-0.47268844,-2.32665451\H,0,0.32818364,-1.55875731,-2.29641252\C,0,0
 .8586461,2.107347,-4.60367177\H,0,1.13760071,3.14382475,-4.81569443\H,
 0,1.18460121,1.50597747,-5.45589767\H,0,-0.23316378,2.04690867,-4.5660
 8474\C,0,2.1012764,-0.7753897,-4.11278936\H,0,1.94175933,-1.83327397,-
 3.88225534\H,0,1.76617825,-0.62516177,-5.1515282\C,0,3.82952385,1.0382
 3777,-4.29992774\H,0,3.53800504,1.2823393,-5.3321504\H,0,4.89840502,1.
 26438457,-4.21434926\C,0,-3.25195132,6.14288242,2.1152204\H,0,-3.67143
 396,7.15769203,2.12420858\H,0,-4.1206005,5.47373334,2.11451314\C,0,3.6
 0247837,-0.45362986,-4.05723599\H,0,3.98618715,-0.71828615,-3.06418099
 \C,0,-1.50195226,7.08092167,0.48118152\H,0,-0.56958337,6.95079073,1.03
 961845\H,0,-1.9243013,8.05287022,0.75987193\H,0,-1.2415806,7.13536289,
 -0.57944261\C,0,-2.49292092,5.8896726,3.43761499\H,0,-3.24722614,5.772
 86643,4.22644191\H,0,-1.98475393,4.91869552,3.38590401\C,0,-1.46536273
 ,6.94069073,3.90466154\H,0,-0.63437993,6.99181796,3.19163266\H,0,-1.02
 568676,6.58131841,4.84744978\C,0,-1.99173217,8.3719077,4.14395263\H,0,
 -2.42126762,8.74474978,3.20332431\C,0,-0.83042235,9.30635019,4.5200613
 9\H,0,-0.36111245,8.98790299,5.4598569\H,0,-1.17630541,10.33763397,4.6
 5472442\H,0,-0.05432155,9.31101174,3.74606785\C,0,-3.09273593,8.423498
 77,5.21533903\H,0,-2.7228473,8.03381649,6.17280936\H,0,-3.42637915,9.4
 5382232,5.3836261\H,0,-3.97192612,7.83518506,4.93370185\\Version=EM64L
 -G09RevC.01\HF=-1198.9210793\RMSD=4.888e-07\Dipole=-0.0380577,0.652910
 3,-0.7994209\Quadrupole=-5.1991063,-1.9586203,7.1577267,4.9972478,2.64
 85172,-5.700395\PG=C01 [X(C27H46O2)]\\@


 IF THERE IS ONE WAY BETTER THAN ANOTHER IT IS THE WAY OF NATURE.

                          -- ARISTOTLE
 Job cpu time:  0 days  0 hours 44 minutes 59.3 seconds.
 File lengths (MBytes):  RWF=    151 Int=      0 D2E=      0 Chk=     11 Scr=      1
 Normal termination of Gaussian 09 at Wed May 17 12:12:51 2017.
