 Entering Gaussian System, Link 0=/scratch/michal/g09//g09
 Input=JOB2-gau_m1-7-3.com
 Output=JOB2-gau_m1-7-3.log
 Initial command:
 /scratch/michal/g09/l1.exe /scratch/michal/gauss_scratch/Gau-7643.inp -scrdir=/scratch/michal/gauss_scratch/
 Entering Link 1 = /scratch/michal/g09/l1.exe PID=      7645.
  
 Copyright (c) 1988,1990,1992,1993,1995,1998,2003,2009,2011,
            Gaussian, Inc.  All Rights Reserved.
  
 This is part of the Gaussian(R) 09 program.  It is based on
 the Gaussian(R) 03 system (copyright 2003, Gaussian, Inc.),
 the Gaussian(R) 98 system (copyright 1998, Gaussian, Inc.),
 the Gaussian(R) 94 system (copyright 1995, Gaussian, Inc.),
 the Gaussian 92(TM) system (copyright 1992, Gaussian, Inc.),
 the Gaussian 90(TM) system (copyright 1990, Gaussian, Inc.),
 the Gaussian 88(TM) system (copyright 1988, Gaussian, Inc.),
 the Gaussian 86(TM) system (copyright 1986, Carnegie Mellon
 University), and the Gaussian 82(TM) system (copyright 1983,
 Carnegie Mellon University). Gaussian is a federally registered
 trademark of Gaussian, Inc.
  
 This software contains proprietary and confidential information,
 including trade secrets, belonging to Gaussian, Inc.
  
 This software is provided under written license and may be
 used, copied, transmitted, or stored only in accord with that
 written license.
  
 The following legend is applicable only to US Government
 contracts under FAR:
  
                    RESTRICTED RIGHTS LEGEND
  
 Use, reproduction and disclosure by the US Government is
 subject to restrictions as set forth in subparagraphs (a)
 and (c) of the Commercial Computer Software - Restricted
 Rights clause in FAR 52.227-19.
  
 Gaussian, Inc.
 340 Quinnipiac St., Bldg. 40, Wallingford CT 06492
  
  
 ---------------------------------------------------------------
 Warning -- This program may not be used in any manner that
 competes with the business of Gaussian, Inc. or will provide
 assistance to any competitor of Gaussian, Inc.  The licensee
 of this program is prohibited from giving any competitor of
 Gaussian, Inc. access to this program.  By using this program,
 the user acknowledges that Gaussian, Inc. is engaged in the
 business of creating and licensing software in the field of
 computational chemistry and represents and warrants to the
 licensee that it is not a competitor of Gaussian, Inc. and that
 it will not use this program in any manner prohibited above.
 ---------------------------------------------------------------
  

 Cite this work as:
 Gaussian 09, Revision C.01,
 M. J. Frisch, G. W. Trucks, H. B. Schlegel, G. E. Scuseria, 
 M. A. Robb, J. R. Cheeseman, G. Scalmani, V. Barone, B. Mennucci, 
 G. A. Petersson, H. Nakatsuji, M. Caricato, X. Li, H. P. Hratchian, 
 A. F. Izmaylov, J. Bloino, G. Zheng, J. L. Sonnenberg, M. Hada, 
 M. Ehara, K. Toyota, R. Fukuda, J. Hasegawa, M. Ishida, T. Nakajima, 
 Y. Honda, O. Kitao, H. Nakai, T. Vreven, J. A. Montgomery, Jr., 
 J. E. Peralta, F. Ogliaro, M. Bearpark, J. J. Heyd, E. Brothers, 
 K. N. Kudin, V. N. Staroverov, T. Keith, R. Kobayashi, J. Normand, 
 K. Raghavachari, A. Rendell, J. C. Burant, S. S. Iyengar, J. Tomasi, 
 M. Cossi, N. Rega, J. M. Millam, M. Klene, J. E. Knox, J. B. Cross, 
 V. Bakken, C. Adamo, J. Jaramillo, R. Gomperts, R. E. Stratmann, 
 O. Yazyev, A. J. Austin, R. Cammi, C. Pomelli, J. W. Ochterski, 
 R. L. Martin, K. Morokuma, V. G. Zakrzewski, G. A. Voth, 
 P. Salvador, J. J. Dannenberg, S. Dapprich, A. D. Daniels, 
 O. Farkas, J. B. Foresman, J. V. Ortiz, J. Cioslowski, 
 and D. J. Fox, Gaussian, Inc., Wallingford CT, 2010.
 
 ******************************************
 Gaussian 09:  EM64L-G09RevC.01 23-Sep-2011
                17-May-2017 
 ******************************************
 %Mem=256MB
 %NProc=48
 Will use up to   48 processors via shared memory.
 ----------------------------------------------------------------------
 #P HF/6-31G* SCF(Conver=6) NoSymm Test Pop=chelpg IOp(6/33=2) GFInput 
 GFPrint
 ----------------------------------------------------------------------
 1/38=1/1;
 2/12=2,15=1,17=6,18=5,40=1/2;
 3/5=1,6=6,7=1,11=9,16=1,24=110,25=1,30=1/1,2,3;
 4//1;
 5/5=2,6=6,38=5/2;
 6/7=2,8=2,9=2,10=2,15=8,20=3,28=1,33=2/1,2;
 99/5=1,9=1/99;
 Leave Link    1 at Wed May 17 12:14:16 2017, MaxMem=   33554432 cpu:       9.4
 (Enter /scratch/michal/g09/l101.exe)
 ----------------------------------------------
 MEP - Input generated by R.E.D.-III.x MOLECULE
 ----------------------------------------------
 Charge =  0 Multiplicity = 1
 Symbolic Z-Matrix:
 O                     5.74809   3.47529   0. 
 H                     5.11517   3.31099   0.71177 
 O                     0.        0.        0. 
 H                    -0.08147  -0.74093  -0.6169 
 C                     8.81619   0.41105   0.3471 
 C                     7.88802   1.58446  -0.07307 
 H                     7.70968   2.15988   0.84641 
 C                     6.5025    1.1668   -0.5799 
 H                     6.61825   0.58744  -1.50744 
 C                     5.77689   0.29645   0.4776 
 H                     5.55248   0.97135   1.32039 
 C                     10.09645   1.22161   0.75267 
 H                     9.84487   1.71266   1.70454 
 C                     8.08656  -0.33557   1.48214 
 H                     7.9889    0.34213   2.34247 
 H                     8.65596  -1.20279   1.83169 
 C                     4.38939  -0.22929  -0.0324 
 C                     8.76514   2.47297  -0.96749 
 H                     8.41748   3.50975  -0.97443 
 H                     8.75074   2.12147  -2.0072 
 C                     6.68832  -0.81828   1.0439 
 H                     6.81497  -1.60907   0.29729 
 H                     6.19924  -1.29197   1.90295 
 C                     10.18467   2.32639  -0.35153 
 H                     10.91259   2.03751  -1.11899 
 H                     10.5406   3.27249   0.06769 
 C                     5.64219   2.39226  -0.95415 
 H                     6.04067   2.82736  -1.87788 
 C                     11.43907   0.47764   0.95802 
 H                     11.69342   0.        0. 
 C                     9.13513  -0.54835  -0.82208 
 H                     8.23339  -0.97356  -1.27013 
 H                     9.68654  -0.04733  -1.62338 
 H                     9.74987  -1.3873   -0.47851 
 C                     3.62263   0.89158  -0.74672 
 C                     3.548    -0.69255   1.19706 
 H                     3.59674   0.09381   1.96317 
 H                     4.01033  -1.58232   1.63766 
 C                     4.19776   2.03552  -1.1529 
 H                     3.58491   2.79698  -1.63447 
 C                     4.55531  -1.4137   -1.02322 
 H                     4.93166  -2.30708  -0.51598 
 H                     3.60451  -1.68485  -1.48865 
 H                     5.24835  -1.1605   -1.83112 
 C                     2.14497   0.65633  -1.00128 
 H                     1.68484   1.55711  -1.41911 
 H                     2.01853  -0.13963  -1.75249 
 C                     2.06929  -0.98452   0.89951 
 H                     1.97584  -1.84586   0.22172 
 H                     1.54716  -1.25528   1.82419 
 C                     12.61865   1.45723   1.22764 
 H                     13.5324   0.85717   1.332 
 H                     12.7683   2.05136   0.31828 
 C                     1.38688   0.22645   0.26392 
 H                     1.3905    1.05748   0.98003 
 C                     11.36788  -0.65071   2.00522 
 H                     10.91237  -0.3177    2.94315 
 H                     12.37088  -1.02625   2.2369 
 H                     10.78228  -1.49976   1.64207 
 C                     12.52315   2.45541   2.40385 
 H                     13.27804   3.23317   2.23035 
 H                     11.56068   2.98016   2.35919 
 C                     12.70598   1.91705   3.83751 
 H                     11.89186   1.22505   4.08226 
 H                     12.59238   2.76541   4.52938 
 C                     14.04791   1.22386   4.15598 
 H                     14.16422   0.36634   3.47817 
 C                     14.03167   0.67475   5.59177 
 H                     13.92302   1.48857   6.32031 
 H                     14.96075   0.14223   5.82532 
 H                     13.19859  -0.02105   5.74426 
 C                     15.25491   2.15278   3.9486 
 H                     15.17425   3.04389   4.58487 
 H                     16.18961   1.64318   4.20906 
 H                     15.34308   2.49118   2.91124 
 
 NAtoms=     75 NQM=        0 NQMF=       0 NMMI=     75 NMMIF=      0
                NMic=       0 NMicF=      0.
                    Isotopes and Nuclear Properties:
 (Nuclear quadrupole moments (NQMom) in fm**2, nuclear magnetic moments (NMagM)
  in nuclear magnetons)

  Atom         1           2           3           4           5           6           7           8           9          10
 IAtWgt=          16           1          16           1          12          12           1          12           1          12
 AtmWgt=  15.9949146   1.0078250  15.9949146   1.0078250  12.0000000  12.0000000   1.0078250  12.0000000   1.0078250  12.0000000
 NucSpn=           0           1           0           1           0           0           1           0           1           0
 AtZEff=   0.0000000   0.0000000   0.0000000   0.0000000   0.0000000   0.0000000   0.0000000   0.0000000   0.0000000   0.0000000
 NQMom=    0.0000000   0.0000000   0.0000000   0.0000000   0.0000000   0.0000000   0.0000000   0.0000000   0.0000000   0.0000000
 NMagM=    0.0000000   2.7928460   0.0000000   2.7928460   0.0000000   0.0000000   2.7928460   0.0000000   2.7928460   0.0000000

  Atom        11          12          13          14          15          16          17          18          19          20
 IAtWgt=           1          12           1          12           1           1          12          12           1           1
 AtmWgt=   1.0078250  12.0000000   1.0078250  12.0000000   1.0078250   1.0078250  12.0000000  12.0000000   1.0078250   1.0078250
 NucSpn=           1           0           1           0           1           1           0           0           1           1
 AtZEff=   0.0000000   0.0000000   0.0000000   0.0000000   0.0000000   0.0000000   0.0000000   0.0000000   0.0000000   0.0000000
 NQMom=    0.0000000   0.0000000   0.0000000   0.0000000   0.0000000   0.0000000   0.0000000   0.0000000   0.0000000   0.0000000
 NMagM=    2.7928460   0.0000000   2.7928460   0.0000000   2.7928460   2.7928460   0.0000000   0.0000000   2.7928460   2.7928460

  Atom        21          22          23          24          25          26          27          28          29          30
 IAtWgt=          12           1           1          12           1           1          12           1          12           1
 AtmWgt=  12.0000000   1.0078250   1.0078250  12.0000000   1.0078250   1.0078250  12.0000000   1.0078250  12.0000000   1.0078250
 NucSpn=           0           1           1           0           1           1           0           1           0           1
 AtZEff=   0.0000000   0.0000000   0.0000000   0.0000000   0.0000000   0.0000000   0.0000000   0.0000000   0.0000000   0.0000000
 NQMom=    0.0000000   0.0000000   0.0000000   0.0000000   0.0000000   0.0000000   0.0000000   0.0000000   0.0000000   0.0000000
 NMagM=    0.0000000   2.7928460   2.7928460   0.0000000   2.7928460   2.7928460   0.0000000   2.7928460   0.0000000   2.7928460

  Atom        31          32          33          34          35          36          37          38          39          40
 IAtWgt=          12           1           1           1          12          12           1           1          12           1
 AtmWgt=  12.0000000   1.0078250   1.0078250   1.0078250  12.0000000  12.0000000   1.0078250   1.0078250  12.0000000   1.0078250
 NucSpn=           0           1           1           1           0           0           1           1           0           1
 AtZEff=   0.0000000   0.0000000   0.0000000   0.0000000   0.0000000   0.0000000   0.0000000   0.0000000   0.0000000   0.0000000
 NQMom=    0.0000000   0.0000000   0.0000000   0.0000000   0.0000000   0.0000000   0.0000000   0.0000000   0.0000000   0.0000000
 NMagM=    0.0000000   2.7928460   2.7928460   2.7928460   0.0000000   0.0000000   2.7928460   2.7928460   0.0000000   2.7928460

  Atom        41          42          43          44          45          46          47          48          49          50
 IAtWgt=          12           1           1           1          12           1           1          12           1           1
 AtmWgt=  12.0000000   1.0078250   1.0078250   1.0078250  12.0000000   1.0078250   1.0078250  12.0000000   1.0078250   1.0078250
 NucSpn=           0           1           1           1           0           1           1           0           1           1
 AtZEff=   0.0000000   0.0000000   0.0000000   0.0000000   0.0000000   0.0000000   0.0000000   0.0000000   0.0000000   0.0000000
 NQMom=    0.0000000   0.0000000   0.0000000   0.0000000   0.0000000   0.0000000   0.0000000   0.0000000   0.0000000   0.0000000
 NMagM=    0.0000000   2.7928460   2.7928460   2.7928460   0.0000000   2.7928460   2.7928460   0.0000000   2.7928460   2.7928460

  Atom        51          52          53          54          55          56          57          58          59          60
 IAtWgt=          12           1           1          12           1          12           1           1           1          12
 AtmWgt=  12.0000000   1.0078250   1.0078250  12.0000000   1.0078250  12.0000000   1.0078250   1.0078250   1.0078250  12.0000000
 NucSpn=           0           1           1           0           1           0           1           1           1           0
 AtZEff=   0.0000000   0.0000000   0.0000000   0.0000000   0.0000000   0.0000000   0.0000000   0.0000000   0.0000000   0.0000000
 NQMom=    0.0000000   0.0000000   0.0000000   0.0000000   0.0000000   0.0000000   0.0000000   0.0000000   0.0000000   0.0000000
 NMagM=    0.0000000   2.7928460   2.7928460   0.0000000   2.7928460   0.0000000   2.7928460   2.7928460   2.7928460   0.0000000

  Atom        61          62          63          64          65          66          67          68          69          70
 IAtWgt=           1           1          12           1           1          12           1          12           1           1
 AtmWgt=   1.0078250   1.0078250  12.0000000   1.0078250   1.0078250  12.0000000   1.0078250  12.0000000   1.0078250   1.0078250
 NucSpn=           1           1           0           1           1           0           1           0           1           1
 AtZEff=   0.0000000   0.0000000   0.0000000   0.0000000   0.0000000   0.0000000   0.0000000   0.0000000   0.0000000   0.0000000
 NQMom=    0.0000000   0.0000000   0.0000000   0.0000000   0.0000000   0.0000000   0.0000000   0.0000000   0.0000000   0.0000000
 NMagM=    2.7928460   2.7928460   0.0000000   2.7928460   2.7928460   0.0000000   2.7928460   0.0000000   2.7928460   2.7928460

  Atom        71          72          73          74          75
 IAtWgt=           1          12           1           1           1
 AtmWgt=   1.0078250  12.0000000   1.0078250   1.0078250   1.0078250
 NucSpn=           1           0           1           1           1
 AtZEff=   0.0000000   0.0000000   0.0000000   0.0000000   0.0000000
 NQMom=    0.0000000   0.0000000   0.0000000   0.0000000   0.0000000
 NMagM=    2.7928460   0.0000000   2.7928460   2.7928460   2.7928460
 Leave Link  101 at Wed May 17 12:14:16 2017, MaxMem=   33554432 cpu:      10.9
 (Enter /scratch/michal/g09/l202.exe)
 Symmetry turned off by external request.
 Stoichiometry    C27H46O2
 Framework group  C1[X(C27H46O2)]
 Deg. of freedom   219
 Full point group                 C1      NOp   1
                          Input orientation:                          
 ---------------------------------------------------------------------
 Center     Atomic      Atomic             Coordinates (Angstroms)
 Number     Number       Type             X           Y           Z
 ---------------------------------------------------------------------
      1          8           0        5.748088    3.475293    0.000000
      2          1           0        5.115167    3.310988    0.711773
      3          8           0        0.000000    0.000000    0.000000
      4          1           0       -0.081470   -0.740927   -0.616898
      5          6           0        8.816187    0.411048    0.347103
      6          6           0        7.888016    1.584457   -0.073067
      7          1           0        7.709682    2.159876    0.846409
      8          6           0        6.502497    1.166801   -0.579898
      9          1           0        6.618252    0.587439   -1.507437
     10          6           0        5.776892    0.296450    0.477601
     11          1           0        5.552476    0.971354    1.320385
     12          6           0       10.096446    1.221610    0.752666
     13          1           0        9.844865    1.712664    1.704544
     14          6           0        8.086563   -0.335572    1.482136
     15          1           0        7.988896    0.342133    2.342472
     16          1           0        8.655961   -1.202791    1.831691
     17          6           0        4.389388   -0.229292   -0.032400
     18          6           0        8.765144    2.472973   -0.967488
     19          1           0        8.417484    3.509747   -0.974435
     20          1           0        8.750743    2.121467   -2.007205
     21          6           0        6.688323   -0.818285    1.043897
     22          1           0        6.814965   -1.609072    0.297285
     23          1           0        6.199240   -1.291974    1.902952
     24          6           0       10.184671    2.326388   -0.351530
     25          1           0       10.912591    2.037507   -1.118989
     26          1           0       10.540596    3.272495    0.067688
     27          6           0        5.642189    2.392261   -0.954152
     28          1           0        6.040668    2.827360   -1.877885
     29          6           0       11.439071    0.477641    0.958017
     30          1           0       11.693416    0.000000    0.000000
     31          6           0        9.135132   -0.548353   -0.822077
     32          1           0        8.233389   -0.973556   -1.270132
     33          1           0        9.686539   -0.047328   -1.623382
     34          1           0        9.749872   -1.387301   -0.478505
     35          6           0        3.622626    0.891579   -0.746720
     36          6           0        3.548002   -0.692548    1.197063
     37          1           0        3.596742    0.093811    1.963167
     38          1           0        4.010329   -1.582319    1.637664
     39          6           0        4.197761    2.035524   -1.152900
     40          1           0        3.584907    2.796979   -1.634466
     41          6           0        4.555312   -1.413704   -1.023218
     42          1           0        4.931662   -2.307085   -0.515984
     43          1           0        3.604506   -1.684846   -1.488655
     44          1           0        5.248346   -1.160501   -1.831120
     45          6           0        2.144966    0.656325   -1.001283
     46          1           0        1.684844    1.557114   -1.419109
     47          1           0        2.018531   -0.139627   -1.752490
     48          6           0        2.069292   -0.984519    0.899509
     49          1           0        1.975842   -1.845864    0.221715
     50          1           0        1.547162   -1.255281    1.824193
     51          6           0       12.618654    1.457228    1.227635
     52          1           0       13.532396    0.857172    1.332004
     53          1           0       12.768300    2.051359    0.318280
     54          6           0        1.386876    0.226451    0.263916
     55          1           0        1.390503    1.057478    0.980027
     56          6           0       11.367876   -0.650714    2.005217
     57          1           0       10.912373   -0.317697    2.943147
     58          1           0       12.370884   -1.026253    2.236897
     59          1           0       10.782281   -1.499763    1.642071
     60          6           0       12.523150    2.455413    2.403847
     61          1           0       13.278042    3.233169    2.230347
     62          1           0       11.560679    2.980162    2.359192
     63          6           0       12.705980    1.917049    3.837508
     64          1           0       11.891864    1.225047    4.082264
     65          1           0       12.592380    2.765412    4.529380
     66          6           0       14.047909    1.223863    4.155984
     67          1           0       14.164216    0.366343    3.478175
     68          6           0       14.031670    0.674748    5.591773
     69          1           0       13.923016    1.488569    6.320310
     70          1           0       14.960753    0.142228    5.825316
     71          1           0       13.198588   -0.021055    5.744260
     72          6           0       15.254907    2.152782    3.948603
     73          1           0       15.174250    3.043893    4.584870
     74          1           0       16.189613    1.643183    4.209059
     75          1           0       15.343083    2.491176    2.911240
 ---------------------------------------------------------------------
 Rotational constants (GHZ):      0.4009456      0.0607716      0.0582267
 Leave Link  202 at Wed May 17 12:14:16 2017, MaxMem=   33554432 cpu:       2.0
 (Enter /scratch/michal/g09/l301.exe)
 Standard basis: 6-31G(d) (6D, 7F)
 Ernie: Thresh=  0.10000D-02 Tol=  0.10000D-05 Strict=F.
 AO basis set in the form of general basis input (Overlap normalization):
      1 0
 S   6 1.00       0.000000000000
      0.5484671660D+04  0.1831074430D-02
      0.8252349460D+03  0.1395017220D-01
      0.1880469580D+03  0.6844507810D-01
      0.5296450000D+02  0.2327143360D+00
      0.1689757040D+02  0.4701928980D+00
      0.5799635340D+01  0.3585208530D+00
 SP   3 1.00       0.000000000000
      0.1553961625D+02 -0.1107775495D+00  0.7087426823D-01
      0.3599933586D+01 -0.1480262627D+00  0.3397528391D+00
      0.1013761750D+01  0.1130767015D+01  0.7271585773D+00
 SP   1 1.00       0.000000000000
      0.2700058226D+00  0.1000000000D+01  0.1000000000D+01
 D   1 1.00       0.000000000000
      0.8000000000D+00  0.1000000000D+01
 ****
      2 0
 S   3 1.00       0.000000000000
      0.1873113696D+02  0.3349460434D-01
      0.2825394365D+01  0.2347269535D+00
      0.6401216923D+00  0.8137573261D+00
 S   1 1.00       0.000000000000
      0.1612777588D+00  0.1000000000D+01
 ****
      3 0
 S   6 1.00       0.000000000000
      0.5484671660D+04  0.1831074430D-02
      0.8252349460D+03  0.1395017220D-01
      0.1880469580D+03  0.6844507810D-01
      0.5296450000D+02  0.2327143360D+00
      0.1689757040D+02  0.4701928980D+00
      0.5799635340D+01  0.3585208530D+00
 SP   3 1.00       0.000000000000
      0.1553961625D+02 -0.1107775495D+00  0.7087426823D-01
      0.3599933586D+01 -0.1480262627D+00  0.3397528391D+00
      0.1013761750D+01  0.1130767015D+01  0.7271585773D+00
 SP   1 1.00       0.000000000000
      0.2700058226D+00  0.1000000000D+01  0.1000000000D+01
 D   1 1.00       0.000000000000
      0.8000000000D+00  0.1000000000D+01
 ****
      4 0
 S   3 1.00       0.000000000000
      0.1873113696D+02  0.3349460434D-01
      0.2825394365D+01  0.2347269535D+00
      0.6401216923D+00  0.8137573261D+00
 S   1 1.00       0.000000000000
      0.1612777588D+00  0.1000000000D+01
 ****
      5 0
 S   6 1.00       0.000000000000
      0.3047524880D+04  0.1834737132D-02
      0.4573695180D+03  0.1403732281D-01
      0.1039486850D+03  0.6884262226D-01
      0.2921015530D+02  0.2321844432D+00
      0.9286662960D+01  0.4679413484D+00
      0.3163926960D+01  0.3623119853D+00
 SP   3 1.00       0.000000000000
      0.7868272350D+01 -0.1193324198D+00  0.6899906659D-01
      0.1881288540D+01 -0.1608541517D+00  0.3164239610D+00
      0.5442492580D+00  0.1143456438D+01  0.7443082909D+00
 SP   1 1.00       0.000000000000
      0.1687144782D+00  0.1000000000D+01  0.1000000000D+01
 D   1 1.00       0.000000000000
      0.8000000000D+00  0.1000000000D+01
 ****
      6 0
 S   6 1.00       0.000000000000
      0.3047524880D+04  0.1834737132D-02
      0.4573695180D+03  0.1403732281D-01
      0.1039486850D+03  0.6884262226D-01
      0.2921015530D+02  0.2321844432D+00
      0.9286662960D+01  0.4679413484D+00
      0.3163926960D+01  0.3623119853D+00
 SP   3 1.00       0.000000000000
      0.7868272350D+01 -0.1193324198D+00  0.6899906659D-01
      0.1881288540D+01 -0.1608541517D+00  0.3164239610D+00
      0.5442492580D+00  0.1143456438D+01  0.7443082909D+00
 SP   1 1.00       0.000000000000
      0.1687144782D+00  0.1000000000D+01  0.1000000000D+01
 D   1 1.00       0.000000000000
      0.8000000000D+00  0.1000000000D+01
 ****
      7 0
 S   3 1.00       0.000000000000
      0.1873113696D+02  0.3349460434D-01
      0.2825394365D+01  0.2347269535D+00
      0.6401216923D+00  0.8137573261D+00
 S   1 1.00       0.000000000000
      0.1612777588D+00  0.1000000000D+01
 ****
      8 0
 S   6 1.00       0.000000000000
      0.3047524880D+04  0.1834737132D-02
      0.4573695180D+03  0.1403732281D-01
      0.1039486850D+03  0.6884262226D-01
      0.2921015530D+02  0.2321844432D+00
      0.9286662960D+01  0.4679413484D+00
      0.3163926960D+01  0.3623119853D+00
 SP   3 1.00       0.000000000000
      0.7868272350D+01 -0.1193324198D+00  0.6899906659D-01
      0.1881288540D+01 -0.1608541517D+00  0.3164239610D+00
      0.5442492580D+00  0.1143456438D+01  0.7443082909D+00
 SP   1 1.00       0.000000000000
      0.1687144782D+00  0.1000000000D+01  0.1000000000D+01
 D   1 1.00       0.000000000000
      0.8000000000D+00  0.1000000000D+01
 ****
      9 0
 S   3 1.00       0.000000000000
      0.1873113696D+02  0.3349460434D-01
      0.2825394365D+01  0.2347269535D+00
      0.6401216923D+00  0.8137573261D+00
 S   1 1.00       0.000000000000
      0.1612777588D+00  0.1000000000D+01
 ****
     10 0
 S   6 1.00       0.000000000000
      0.3047524880D+04  0.1834737132D-02
      0.4573695180D+03  0.1403732281D-01
      0.1039486850D+03  0.6884262226D-01
      0.2921015530D+02  0.2321844432D+00
      0.9286662960D+01  0.4679413484D+00
      0.3163926960D+01  0.3623119853D+00
 SP   3 1.00       0.000000000000
      0.7868272350D+01 -0.1193324198D+00  0.6899906659D-01
      0.1881288540D+01 -0.1608541517D+00  0.3164239610D+00
      0.5442492580D+00  0.1143456438D+01  0.7443082909D+00
 SP   1 1.00       0.000000000000
      0.1687144782D+00  0.1000000000D+01  0.1000000000D+01
 D   1 1.00       0.000000000000
      0.8000000000D+00  0.1000000000D+01
 ****
     11 0
 S   3 1.00       0.000000000000
      0.1873113696D+02  0.3349460434D-01
      0.2825394365D+01  0.2347269535D+00
      0.6401216923D+00  0.8137573261D+00
 S   1 1.00       0.000000000000
      0.1612777588D+00  0.1000000000D+01
 ****
     12 0
 S   6 1.00       0.000000000000
      0.3047524880D+04  0.1834737132D-02
      0.4573695180D+03  0.1403732281D-01
      0.1039486850D+03  0.6884262226D-01
      0.2921015530D+02  0.2321844432D+00
      0.9286662960D+01  0.4679413484D+00
      0.3163926960D+01  0.3623119853D+00
 SP   3 1.00       0.000000000000
      0.7868272350D+01 -0.1193324198D+00  0.6899906659D-01
      0.1881288540D+01 -0.1608541517D+00  0.3164239610D+00
      0.5442492580D+00  0.1143456438D+01  0.7443082909D+00
 SP   1 1.00       0.000000000000
      0.1687144782D+00  0.1000000000D+01  0.1000000000D+01
 D   1 1.00       0.000000000000
      0.8000000000D+00  0.1000000000D+01
 ****
     13 0
 S   3 1.00       0.000000000000
      0.1873113696D+02  0.3349460434D-01
      0.2825394365D+01  0.2347269535D+00
      0.6401216923D+00  0.8137573261D+00
 S   1 1.00       0.000000000000
      0.1612777588D+00  0.1000000000D+01
 ****
     14 0
 S   6 1.00       0.000000000000
      0.3047524880D+04  0.1834737132D-02
      0.4573695180D+03  0.1403732281D-01
      0.1039486850D+03  0.6884262226D-01
      0.2921015530D+02  0.2321844432D+00
      0.9286662960D+01  0.4679413484D+00
      0.3163926960D+01  0.3623119853D+00
 SP   3 1.00       0.000000000000
      0.7868272350D+01 -0.1193324198D+00  0.6899906659D-01
      0.1881288540D+01 -0.1608541517D+00  0.3164239610D+00
      0.5442492580D+00  0.1143456438D+01  0.7443082909D+00
 SP   1 1.00       0.000000000000
      0.1687144782D+00  0.1000000000D+01  0.1000000000D+01
 D   1 1.00       0.000000000000
      0.8000000000D+00  0.1000000000D+01
 ****
     15 0
 S   3 1.00       0.000000000000
      0.1873113696D+02  0.3349460434D-01
      0.2825394365D+01  0.2347269535D+00
      0.6401216923D+00  0.8137573261D+00
 S   1 1.00       0.000000000000
      0.1612777588D+00  0.1000000000D+01
 ****
     16 0
 S   3 1.00       0.000000000000
      0.1873113696D+02  0.3349460434D-01
      0.2825394365D+01  0.2347269535D+00
      0.6401216923D+00  0.8137573261D+00
 S   1 1.00       0.000000000000
      0.1612777588D+00  0.1000000000D+01
 ****
     17 0
 S   6 1.00       0.000000000000
      0.3047524880D+04  0.1834737132D-02
      0.4573695180D+03  0.1403732281D-01
      0.1039486850D+03  0.6884262226D-01
      0.2921015530D+02  0.2321844432D+00
      0.9286662960D+01  0.4679413484D+00
      0.3163926960D+01  0.3623119853D+00
 SP   3 1.00       0.000000000000
      0.7868272350D+01 -0.1193324198D+00  0.6899906659D-01
      0.1881288540D+01 -0.1608541517D+00  0.3164239610D+00
      0.5442492580D+00  0.1143456438D+01  0.7443082909D+00
 SP   1 1.00       0.000000000000
      0.1687144782D+00  0.1000000000D+01  0.1000000000D+01
 D   1 1.00       0.000000000000
      0.8000000000D+00  0.1000000000D+01
 ****
     18 0
 S   6 1.00       0.000000000000
      0.3047524880D+04  0.1834737132D-02
      0.4573695180D+03  0.1403732281D-01
      0.1039486850D+03  0.6884262226D-01
      0.2921015530D+02  0.2321844432D+00
      0.9286662960D+01  0.4679413484D+00
      0.3163926960D+01  0.3623119853D+00
 SP   3 1.00       0.000000000000
      0.7868272350D+01 -0.1193324198D+00  0.6899906659D-01
      0.1881288540D+01 -0.1608541517D+00  0.3164239610D+00
      0.5442492580D+00  0.1143456438D+01  0.7443082909D+00
 SP   1 1.00       0.000000000000
      0.1687144782D+00  0.1000000000D+01  0.1000000000D+01
 D   1 1.00       0.000000000000
      0.8000000000D+00  0.1000000000D+01
 ****
     19 0
 S   3 1.00       0.000000000000
      0.1873113696D+02  0.3349460434D-01
      0.2825394365D+01  0.2347269535D+00
      0.6401216923D+00  0.8137573261D+00
 S   1 1.00       0.000000000000
      0.1612777588D+00  0.1000000000D+01
 ****
     20 0
 S   3 1.00       0.000000000000
      0.1873113696D+02  0.3349460434D-01
      0.2825394365D+01  0.2347269535D+00
      0.6401216923D+00  0.8137573261D+00
 S   1 1.00       0.000000000000
      0.1612777588D+00  0.1000000000D+01
 ****
     21 0
 S   6 1.00       0.000000000000
      0.3047524880D+04  0.1834737132D-02
      0.4573695180D+03  0.1403732281D-01
      0.1039486850D+03  0.6884262226D-01
      0.2921015530D+02  0.2321844432D+00
      0.9286662960D+01  0.4679413484D+00
      0.3163926960D+01  0.3623119853D+00
 SP   3 1.00       0.000000000000
      0.7868272350D+01 -0.1193324198D+00  0.6899906659D-01
      0.1881288540D+01 -0.1608541517D+00  0.3164239610D+00
      0.5442492580D+00  0.1143456438D+01  0.7443082909D+00
 SP   1 1.00       0.000000000000
      0.1687144782D+00  0.1000000000D+01  0.1000000000D+01
 D   1 1.00       0.000000000000
      0.8000000000D+00  0.1000000000D+01
 ****
     22 0
 S   3 1.00       0.000000000000
      0.1873113696D+02  0.3349460434D-01
      0.2825394365D+01  0.2347269535D+00
      0.6401216923D+00  0.8137573261D+00
 S   1 1.00       0.000000000000
      0.1612777588D+00  0.1000000000D+01
 ****
     23 0
 S   3 1.00       0.000000000000
      0.1873113696D+02  0.3349460434D-01
      0.2825394365D+01  0.2347269535D+00
      0.6401216923D+00  0.8137573261D+00
 S   1 1.00       0.000000000000
      0.1612777588D+00  0.1000000000D+01
 ****
     24 0
 S   6 1.00       0.000000000000
      0.3047524880D+04  0.1834737132D-02
      0.4573695180D+03  0.1403732281D-01
      0.1039486850D+03  0.6884262226D-01
      0.2921015530D+02  0.2321844432D+00
      0.9286662960D+01  0.4679413484D+00
      0.3163926960D+01  0.3623119853D+00
 SP   3 1.00       0.000000000000
      0.7868272350D+01 -0.1193324198D+00  0.6899906659D-01
      0.1881288540D+01 -0.1608541517D+00  0.3164239610D+00
      0.5442492580D+00  0.1143456438D+01  0.7443082909D+00
 SP   1 1.00       0.000000000000
      0.1687144782D+00  0.1000000000D+01  0.1000000000D+01
 D   1 1.00       0.000000000000
      0.8000000000D+00  0.1000000000D+01
 ****
     25 0
 S   3 1.00       0.000000000000
      0.1873113696D+02  0.3349460434D-01
      0.2825394365D+01  0.2347269535D+00
      0.6401216923D+00  0.8137573261D+00
 S   1 1.00       0.000000000000
      0.1612777588D+00  0.1000000000D+01
 ****
     26 0
 S   3 1.00       0.000000000000
      0.1873113696D+02  0.3349460434D-01
      0.2825394365D+01  0.2347269535D+00
      0.6401216923D+00  0.8137573261D+00
 S   1 1.00       0.000000000000
      0.1612777588D+00  0.1000000000D+01
 ****
     27 0
 S   6 1.00       0.000000000000
      0.3047524880D+04  0.1834737132D-02
      0.4573695180D+03  0.1403732281D-01
      0.1039486850D+03  0.6884262226D-01
      0.2921015530D+02  0.2321844432D+00
      0.9286662960D+01  0.4679413484D+00
      0.3163926960D+01  0.3623119853D+00
 SP   3 1.00       0.000000000000
      0.7868272350D+01 -0.1193324198D+00  0.6899906659D-01
      0.1881288540D+01 -0.1608541517D+00  0.3164239610D+00
      0.5442492580D+00  0.1143456438D+01  0.7443082909D+00
 SP   1 1.00       0.000000000000
      0.1687144782D+00  0.1000000000D+01  0.1000000000D+01
 D   1 1.00       0.000000000000
      0.8000000000D+00  0.1000000000D+01
 ****
     28 0
 S   3 1.00       0.000000000000
      0.1873113696D+02  0.3349460434D-01
      0.2825394365D+01  0.2347269535D+00
      0.6401216923D+00  0.8137573261D+00
 S   1 1.00       0.000000000000
      0.1612777588D+00  0.1000000000D+01
 ****
     29 0
 S   6 1.00       0.000000000000
      0.3047524880D+04  0.1834737132D-02
      0.4573695180D+03  0.1403732281D-01
      0.1039486850D+03  0.6884262226D-01
      0.2921015530D+02  0.2321844432D+00
      0.9286662960D+01  0.4679413484D+00
      0.3163926960D+01  0.3623119853D+00
 SP   3 1.00       0.000000000000
      0.7868272350D+01 -0.1193324198D+00  0.6899906659D-01
      0.1881288540D+01 -0.1608541517D+00  0.3164239610D+00
      0.5442492580D+00  0.1143456438D+01  0.7443082909D+00
 SP   1 1.00       0.000000000000
      0.1687144782D+00  0.1000000000D+01  0.1000000000D+01
 D   1 1.00       0.000000000000
      0.8000000000D+00  0.1000000000D+01
 ****
     30 0
 S   3 1.00       0.000000000000
      0.1873113696D+02  0.3349460434D-01
      0.2825394365D+01  0.2347269535D+00
      0.6401216923D+00  0.8137573261D+00
 S   1 1.00       0.000000000000
      0.1612777588D+00  0.1000000000D+01
 ****
     31 0
 S   6 1.00       0.000000000000
      0.3047524880D+04  0.1834737132D-02
      0.4573695180D+03  0.1403732281D-01
      0.1039486850D+03  0.6884262226D-01
      0.2921015530D+02  0.2321844432D+00
      0.9286662960D+01  0.4679413484D+00
      0.3163926960D+01  0.3623119853D+00
 SP   3 1.00       0.000000000000
      0.7868272350D+01 -0.1193324198D+00  0.6899906659D-01
      0.1881288540D+01 -0.1608541517D+00  0.3164239610D+00
      0.5442492580D+00  0.1143456438D+01  0.7443082909D+00
 SP   1 1.00       0.000000000000
      0.1687144782D+00  0.1000000000D+01  0.1000000000D+01
 D   1 1.00       0.000000000000
      0.8000000000D+00  0.1000000000D+01
 ****
     32 0
 S   3 1.00       0.000000000000
      0.1873113696D+02  0.3349460434D-01
      0.2825394365D+01  0.2347269535D+00
      0.6401216923D+00  0.8137573261D+00
 S   1 1.00       0.000000000000
      0.1612777588D+00  0.1000000000D+01
 ****
     33 0
 S   3 1.00       0.000000000000
      0.1873113696D+02  0.3349460434D-01
      0.2825394365D+01  0.2347269535D+00
      0.6401216923D+00  0.8137573261D+00
 S   1 1.00       0.000000000000
      0.1612777588D+00  0.1000000000D+01
 ****
     34 0
 S   3 1.00       0.000000000000
      0.1873113696D+02  0.3349460434D-01
      0.2825394365D+01  0.2347269535D+00
      0.6401216923D+00  0.8137573261D+00
 S   1 1.00       0.000000000000
      0.1612777588D+00  0.1000000000D+01
 ****
     35 0
 S   6 1.00       0.000000000000
      0.3047524880D+04  0.1834737132D-02
      0.4573695180D+03  0.1403732281D-01
      0.1039486850D+03  0.6884262226D-01
      0.2921015530D+02  0.2321844432D+00
      0.9286662960D+01  0.4679413484D+00
      0.3163926960D+01  0.3623119853D+00
 SP   3 1.00       0.000000000000
      0.7868272350D+01 -0.1193324198D+00  0.6899906659D-01
      0.1881288540D+01 -0.1608541517D+00  0.3164239610D+00
      0.5442492580D+00  0.1143456438D+01  0.7443082909D+00
 SP   1 1.00       0.000000000000
      0.1687144782D+00  0.1000000000D+01  0.1000000000D+01
 D   1 1.00       0.000000000000
      0.8000000000D+00  0.1000000000D+01
 ****
     36 0
 S   6 1.00       0.000000000000
      0.3047524880D+04  0.1834737132D-02
      0.4573695180D+03  0.1403732281D-01
      0.1039486850D+03  0.6884262226D-01
      0.2921015530D+02  0.2321844432D+00
      0.9286662960D+01  0.4679413484D+00
      0.3163926960D+01  0.3623119853D+00
 SP   3 1.00       0.000000000000
      0.7868272350D+01 -0.1193324198D+00  0.6899906659D-01
      0.1881288540D+01 -0.1608541517D+00  0.3164239610D+00
      0.5442492580D+00  0.1143456438D+01  0.7443082909D+00
 SP   1 1.00       0.000000000000
      0.1687144782D+00  0.1000000000D+01  0.1000000000D+01
 D   1 1.00       0.000000000000
      0.8000000000D+00  0.1000000000D+01
 ****
     37 0
 S   3 1.00       0.000000000000
      0.1873113696D+02  0.3349460434D-01
      0.2825394365D+01  0.2347269535D+00
      0.6401216923D+00  0.8137573261D+00
 S   1 1.00       0.000000000000
      0.1612777588D+00  0.1000000000D+01
 ****
     38 0
 S   3 1.00       0.000000000000
      0.1873113696D+02  0.3349460434D-01
      0.2825394365D+01  0.2347269535D+00
      0.6401216923D+00  0.8137573261D+00
 S   1 1.00       0.000000000000
      0.1612777588D+00  0.1000000000D+01
 ****
     39 0
 S   6 1.00       0.000000000000
      0.3047524880D+04  0.1834737132D-02
      0.4573695180D+03  0.1403732281D-01
      0.1039486850D+03  0.6884262226D-01
      0.2921015530D+02  0.2321844432D+00
      0.9286662960D+01  0.4679413484D+00
      0.3163926960D+01  0.3623119853D+00
 SP   3 1.00       0.000000000000
      0.7868272350D+01 -0.1193324198D+00  0.6899906659D-01
      0.1881288540D+01 -0.1608541517D+00  0.3164239610D+00
      0.5442492580D+00  0.1143456438D+01  0.7443082909D+00
 SP   1 1.00       0.000000000000
      0.1687144782D+00  0.1000000000D+01  0.1000000000D+01
 D   1 1.00       0.000000000000
      0.8000000000D+00  0.1000000000D+01
 ****
     40 0
 S   3 1.00       0.000000000000
      0.1873113696D+02  0.3349460434D-01
      0.2825394365D+01  0.2347269535D+00
      0.6401216923D+00  0.8137573261D+00
 S   1 1.00       0.000000000000
      0.1612777588D+00  0.1000000000D+01
 ****
     41 0
 S   6 1.00       0.000000000000
      0.3047524880D+04  0.1834737132D-02
      0.4573695180D+03  0.1403732281D-01
      0.1039486850D+03  0.6884262226D-01
      0.2921015530D+02  0.2321844432D+00
      0.9286662960D+01  0.4679413484D+00
      0.3163926960D+01  0.3623119853D+00
 SP   3 1.00       0.000000000000
      0.7868272350D+01 -0.1193324198D+00  0.6899906659D-01
      0.1881288540D+01 -0.1608541517D+00  0.3164239610D+00
      0.5442492580D+00  0.1143456438D+01  0.7443082909D+00
 SP   1 1.00       0.000000000000
      0.1687144782D+00  0.1000000000D+01  0.1000000000D+01
 D   1 1.00       0.000000000000
      0.8000000000D+00  0.1000000000D+01
 ****
     42 0
 S   3 1.00       0.000000000000
      0.1873113696D+02  0.3349460434D-01
      0.2825394365D+01  0.2347269535D+00
      0.6401216923D+00  0.8137573261D+00
 S   1 1.00       0.000000000000
      0.1612777588D+00  0.1000000000D+01
 ****
     43 0
 S   3 1.00       0.000000000000
      0.1873113696D+02  0.3349460434D-01
      0.2825394365D+01  0.2347269535D+00
      0.6401216923D+00  0.8137573261D+00
 S   1 1.00       0.000000000000
      0.1612777588D+00  0.1000000000D+01
 ****
     44 0
 S   3 1.00       0.000000000000
      0.1873113696D+02  0.3349460434D-01
      0.2825394365D+01  0.2347269535D+00
      0.6401216923D+00  0.8137573261D+00
 S   1 1.00       0.000000000000
      0.1612777588D+00  0.1000000000D+01
 ****
     45 0
 S   6 1.00       0.000000000000
      0.3047524880D+04  0.1834737132D-02
      0.4573695180D+03  0.1403732281D-01
      0.1039486850D+03  0.6884262226D-01
      0.2921015530D+02  0.2321844432D+00
      0.9286662960D+01  0.4679413484D+00
      0.3163926960D+01  0.3623119853D+00
 SP   3 1.00       0.000000000000
      0.7868272350D+01 -0.1193324198D+00  0.6899906659D-01
      0.1881288540D+01 -0.1608541517D+00  0.3164239610D+00
      0.5442492580D+00  0.1143456438D+01  0.7443082909D+00
 SP   1 1.00       0.000000000000
      0.1687144782D+00  0.1000000000D+01  0.1000000000D+01
 D   1 1.00       0.000000000000
      0.8000000000D+00  0.1000000000D+01
 ****
     46 0
 S   3 1.00       0.000000000000
      0.1873113696D+02  0.3349460434D-01
      0.2825394365D+01  0.2347269535D+00
      0.6401216923D+00  0.8137573261D+00
 S   1 1.00       0.000000000000
      0.1612777588D+00  0.1000000000D+01
 ****
     47 0
 S   3 1.00       0.000000000000
      0.1873113696D+02  0.3349460434D-01
      0.2825394365D+01  0.2347269535D+00
      0.6401216923D+00  0.8137573261D+00
 S   1 1.00       0.000000000000
      0.1612777588D+00  0.1000000000D+01
 ****
     48 0
 S   6 1.00       0.000000000000
      0.3047524880D+04  0.1834737132D-02
      0.4573695180D+03  0.1403732281D-01
      0.1039486850D+03  0.6884262226D-01
      0.2921015530D+02  0.2321844432D+00
      0.9286662960D+01  0.4679413484D+00
      0.3163926960D+01  0.3623119853D+00
 SP   3 1.00       0.000000000000
      0.7868272350D+01 -0.1193324198D+00  0.6899906659D-01
      0.1881288540D+01 -0.1608541517D+00  0.3164239610D+00
      0.5442492580D+00  0.1143456438D+01  0.7443082909D+00
 SP   1 1.00       0.000000000000
      0.1687144782D+00  0.1000000000D+01  0.1000000000D+01
 D   1 1.00       0.000000000000
      0.8000000000D+00  0.1000000000D+01
 ****
     49 0
 S   3 1.00       0.000000000000
      0.1873113696D+02  0.3349460434D-01
      0.2825394365D+01  0.2347269535D+00
      0.6401216923D+00  0.8137573261D+00
 S   1 1.00       0.000000000000
      0.1612777588D+00  0.1000000000D+01
 ****
     50 0
 S   3 1.00       0.000000000000
      0.1873113696D+02  0.3349460434D-01
      0.2825394365D+01  0.2347269535D+00
      0.6401216923D+00  0.8137573261D+00
 S   1 1.00       0.000000000000
      0.1612777588D+00  0.1000000000D+01
 ****
     51 0
 S   6 1.00       0.000000000000
      0.3047524880D+04  0.1834737132D-02
      0.4573695180D+03  0.1403732281D-01
      0.1039486850D+03  0.6884262226D-01
      0.2921015530D+02  0.2321844432D+00
      0.9286662960D+01  0.4679413484D+00
      0.3163926960D+01  0.3623119853D+00
 SP   3 1.00       0.000000000000
      0.7868272350D+01 -0.1193324198D+00  0.6899906659D-01
      0.1881288540D+01 -0.1608541517D+00  0.3164239610D+00
      0.5442492580D+00  0.1143456438D+01  0.7443082909D+00
 SP   1 1.00       0.000000000000
      0.1687144782D+00  0.1000000000D+01  0.1000000000D+01
 D   1 1.00       0.000000000000
      0.8000000000D+00  0.1000000000D+01
 ****
     52 0
 S   3 1.00       0.000000000000
      0.1873113696D+02  0.3349460434D-01
      0.2825394365D+01  0.2347269535D+00
      0.6401216923D+00  0.8137573261D+00
 S   1 1.00       0.000000000000
      0.1612777588D+00  0.1000000000D+01
 ****
     53 0
 S   3 1.00       0.000000000000
      0.1873113696D+02  0.3349460434D-01
      0.2825394365D+01  0.2347269535D+00
      0.6401216923D+00  0.8137573261D+00
 S   1 1.00       0.000000000000
      0.1612777588D+00  0.1000000000D+01
 ****
     54 0
 S   6 1.00       0.000000000000
      0.3047524880D+04  0.1834737132D-02
      0.4573695180D+03  0.1403732281D-01
      0.1039486850D+03  0.6884262226D-01
      0.2921015530D+02  0.2321844432D+00
      0.9286662960D+01  0.4679413484D+00
      0.3163926960D+01  0.3623119853D+00
 SP   3 1.00       0.000000000000
      0.7868272350D+01 -0.1193324198D+00  0.6899906659D-01
      0.1881288540D+01 -0.1608541517D+00  0.3164239610D+00
      0.5442492580D+00  0.1143456438D+01  0.7443082909D+00
 SP   1 1.00       0.000000000000
      0.1687144782D+00  0.1000000000D+01  0.1000000000D+01
 D   1 1.00       0.000000000000
      0.8000000000D+00  0.1000000000D+01
 ****
     55 0
 S   3 1.00       0.000000000000
      0.1873113696D+02  0.3349460434D-01
      0.2825394365D+01  0.2347269535D+00
      0.6401216923D+00  0.8137573261D+00
 S   1 1.00       0.000000000000
      0.1612777588D+00  0.1000000000D+01
 ****
     56 0
 S   6 1.00       0.000000000000
      0.3047524880D+04  0.1834737132D-02
      0.4573695180D+03  0.1403732281D-01
      0.1039486850D+03  0.6884262226D-01
      0.2921015530D+02  0.2321844432D+00
      0.9286662960D+01  0.4679413484D+00
      0.3163926960D+01  0.3623119853D+00
 SP   3 1.00       0.000000000000
      0.7868272350D+01 -0.1193324198D+00  0.6899906659D-01
      0.1881288540D+01 -0.1608541517D+00  0.3164239610D+00
      0.5442492580D+00  0.1143456438D+01  0.7443082909D+00
 SP   1 1.00       0.000000000000
      0.1687144782D+00  0.1000000000D+01  0.1000000000D+01
 D   1 1.00       0.000000000000
      0.8000000000D+00  0.1000000000D+01
 ****
     57 0
 S   3 1.00       0.000000000000
      0.1873113696D+02  0.3349460434D-01
      0.2825394365D+01  0.2347269535D+00
      0.6401216923D+00  0.8137573261D+00
 S   1 1.00       0.000000000000
      0.1612777588D+00  0.1000000000D+01
 ****
     58 0
 S   3 1.00       0.000000000000
      0.1873113696D+02  0.3349460434D-01
      0.2825394365D+01  0.2347269535D+00
      0.6401216923D+00  0.8137573261D+00
 S   1 1.00       0.000000000000
      0.1612777588D+00  0.1000000000D+01
 ****
     59 0
 S   3 1.00       0.000000000000
      0.1873113696D+02  0.3349460434D-01
      0.2825394365D+01  0.2347269535D+00
      0.6401216923D+00  0.8137573261D+00
 S   1 1.00       0.000000000000
      0.1612777588D+00  0.1000000000D+01
 ****
     60 0
 S   6 1.00       0.000000000000
      0.3047524880D+04  0.1834737132D-02
      0.4573695180D+03  0.1403732281D-01
      0.1039486850D+03  0.6884262226D-01
      0.2921015530D+02  0.2321844432D+00
      0.9286662960D+01  0.4679413484D+00
      0.3163926960D+01  0.3623119853D+00
 SP   3 1.00       0.000000000000
      0.7868272350D+01 -0.1193324198D+00  0.6899906659D-01
      0.1881288540D+01 -0.1608541517D+00  0.3164239610D+00
      0.5442492580D+00  0.1143456438D+01  0.7443082909D+00
 SP   1 1.00       0.000000000000
      0.1687144782D+00  0.1000000000D+01  0.1000000000D+01
 D   1 1.00       0.000000000000
      0.8000000000D+00  0.1000000000D+01
 ****
     61 0
 S   3 1.00       0.000000000000
      0.1873113696D+02  0.3349460434D-01
      0.2825394365D+01  0.2347269535D+00
      0.6401216923D+00  0.8137573261D+00
 S   1 1.00       0.000000000000
      0.1612777588D+00  0.1000000000D+01
 ****
     62 0
 S   3 1.00       0.000000000000
      0.1873113696D+02  0.3349460434D-01
      0.2825394365D+01  0.2347269535D+00
      0.6401216923D+00  0.8137573261D+00
 S   1 1.00       0.000000000000
      0.1612777588D+00  0.1000000000D+01
 ****
     63 0
 S   6 1.00       0.000000000000
      0.3047524880D+04  0.1834737132D-02
      0.4573695180D+03  0.1403732281D-01
      0.1039486850D+03  0.6884262226D-01
      0.2921015530D+02  0.2321844432D+00
      0.9286662960D+01  0.4679413484D+00
      0.3163926960D+01  0.3623119853D+00
 SP   3 1.00       0.000000000000
      0.7868272350D+01 -0.1193324198D+00  0.6899906659D-01
      0.1881288540D+01 -0.1608541517D+00  0.3164239610D+00
      0.5442492580D+00  0.1143456438D+01  0.7443082909D+00
 SP   1 1.00       0.000000000000
      0.1687144782D+00  0.1000000000D+01  0.1000000000D+01
 D   1 1.00       0.000000000000
      0.8000000000D+00  0.1000000000D+01
 ****
     64 0
 S   3 1.00       0.000000000000
      0.1873113696D+02  0.3349460434D-01
      0.2825394365D+01  0.2347269535D+00
      0.6401216923D+00  0.8137573261D+00
 S   1 1.00       0.000000000000
      0.1612777588D+00  0.1000000000D+01
 ****
     65 0
 S   3 1.00       0.000000000000
      0.1873113696D+02  0.3349460434D-01
      0.2825394365D+01  0.2347269535D+00
      0.6401216923D+00  0.8137573261D+00
 S   1 1.00       0.000000000000
      0.1612777588D+00  0.1000000000D+01
 ****
     66 0
 S   6 1.00       0.000000000000
      0.3047524880D+04  0.1834737132D-02
      0.4573695180D+03  0.1403732281D-01
      0.1039486850D+03  0.6884262226D-01
      0.2921015530D+02  0.2321844432D+00
      0.9286662960D+01  0.4679413484D+00
      0.3163926960D+01  0.3623119853D+00
 SP   3 1.00       0.000000000000
      0.7868272350D+01 -0.1193324198D+00  0.6899906659D-01
      0.1881288540D+01 -0.1608541517D+00  0.3164239610D+00
      0.5442492580D+00  0.1143456438D+01  0.7443082909D+00
 SP   1 1.00       0.000000000000
      0.1687144782D+00  0.1000000000D+01  0.1000000000D+01
 D   1 1.00       0.000000000000
      0.8000000000D+00  0.1000000000D+01
 ****
     67 0
 S   3 1.00       0.000000000000
      0.1873113696D+02  0.3349460434D-01
      0.2825394365D+01  0.2347269535D+00
      0.6401216923D+00  0.8137573261D+00
 S   1 1.00       0.000000000000
      0.1612777588D+00  0.1000000000D+01
 ****
     68 0
 S   6 1.00       0.000000000000
      0.3047524880D+04  0.1834737132D-02
      0.4573695180D+03  0.1403732281D-01
      0.1039486850D+03  0.6884262226D-01
      0.2921015530D+02  0.2321844432D+00
      0.9286662960D+01  0.4679413484D+00
      0.3163926960D+01  0.3623119853D+00
 SP   3 1.00       0.000000000000
      0.7868272350D+01 -0.1193324198D+00  0.6899906659D-01
      0.1881288540D+01 -0.1608541517D+00  0.3164239610D+00
      0.5442492580D+00  0.1143456438D+01  0.7443082909D+00
 SP   1 1.00       0.000000000000
      0.1687144782D+00  0.1000000000D+01  0.1000000000D+01
 D   1 1.00       0.000000000000
      0.8000000000D+00  0.1000000000D+01
 ****
     69 0
 S   3 1.00       0.000000000000
      0.1873113696D+02  0.3349460434D-01
      0.2825394365D+01  0.2347269535D+00
      0.6401216923D+00  0.8137573261D+00
 S   1 1.00       0.000000000000
      0.1612777588D+00  0.1000000000D+01
 ****
     70 0
 S   3 1.00       0.000000000000
      0.1873113696D+02  0.3349460434D-01
      0.2825394365D+01  0.2347269535D+00
      0.6401216923D+00  0.8137573261D+00
 S   1 1.00       0.000000000000
      0.1612777588D+00  0.1000000000D+01
 ****
     71 0
 S   3 1.00       0.000000000000
      0.1873113696D+02  0.3349460434D-01
      0.2825394365D+01  0.2347269535D+00
      0.6401216923D+00  0.8137573261D+00
 S   1 1.00       0.000000000000
      0.1612777588D+00  0.1000000000D+01
 ****
     72 0
 S   6 1.00       0.000000000000
      0.3047524880D+04  0.1834737132D-02
      0.4573695180D+03  0.1403732281D-01
      0.1039486850D+03  0.6884262226D-01
      0.2921015530D+02  0.2321844432D+00
      0.9286662960D+01  0.4679413484D+00
      0.3163926960D+01  0.3623119853D+00
 SP   3 1.00       0.000000000000
      0.7868272350D+01 -0.1193324198D+00  0.6899906659D-01
      0.1881288540D+01 -0.1608541517D+00  0.3164239610D+00
      0.5442492580D+00  0.1143456438D+01  0.7443082909D+00
 SP   1 1.00       0.000000000000
      0.1687144782D+00  0.1000000000D+01  0.1000000000D+01
 D   1 1.00       0.000000000000
      0.8000000000D+00  0.1000000000D+01
 ****
     73 0
 S   3 1.00       0.000000000000
      0.1873113696D+02  0.3349460434D-01
      0.2825394365D+01  0.2347269535D+00
      0.6401216923D+00  0.8137573261D+00
 S   1 1.00       0.000000000000
      0.1612777588D+00  0.1000000000D+01
 ****
     74 0
 S   3 1.00       0.000000000000
      0.1873113696D+02  0.3349460434D-01
      0.2825394365D+01  0.2347269535D+00
      0.6401216923D+00  0.8137573261D+00
 S   1 1.00       0.000000000000
      0.1612777588D+00  0.1000000000D+01
 ****
     75 0
 S   3 1.00       0.000000000000
      0.1873113696D+02  0.3349460434D-01
      0.2825394365D+01  0.2347269535D+00
      0.6401216923D+00  0.8137573261D+00
 S   1 1.00       0.000000000000
      0.1612777588D+00  0.1000000000D+01
 ****

 AO basis set (Overlap normalization):
 Atom O1       Shell     1 S   6     bf    1 -     1         10.862311748678          6.567351623589          0.000000000000
      0.5484671660D+04  0.1831074430D-02
      0.8252349460D+03  0.1395017220D-01
      0.1880469580D+03  0.6844507810D-01
      0.5296450000D+02  0.2327143360D+00
      0.1689757040D+02  0.4701928980D+00
      0.5799635340D+01  0.3585208530D+00
 Atom O1       Shell     2 SP   3    bf    2 -     5         10.862311748678          6.567351623589          0.000000000000
      0.1553961625D+02 -0.1107775495D+00  0.7087426823D-01
      0.3599933586D+01 -0.1480262627D+00  0.3397528391D+00
      0.1013761750D+01  0.1130767015D+01  0.7271585773D+00
 Atom O1       Shell     3 SP   1    bf    6 -     9         10.862311748678          6.567351623589          0.000000000000
      0.2700058226D+00  0.1000000000D+01  0.1000000000D+01
 Atom O1       Shell     4 D   1     bf   10 -    15         10.862311748678          6.567351623589          0.000000000000
      0.8000000000D+00  0.1000000000D+01
 Atom H2       Shell     5 S   3     bf   16 -    16          9.666264262645          6.256861078394          1.345055812015
      0.1873113696D+02  0.3349460434D-01
      0.2825394365D+01  0.2347269535D+00
      0.6401216923D+00  0.8137573261D+00
 Atom H2       Shell     6 S   1     bf   17 -    17          9.666264262645          6.256861078394          1.345055812015
      0.1612777588D+00  0.1000000000D+01
 Atom O3       Shell     7 S   6     bf   18 -    18          0.000000000000          0.000000000000          0.000000000000
      0.5484671660D+04  0.1831074430D-02
      0.8252349460D+03  0.1395017220D-01
      0.1880469580D+03  0.6844507810D-01
      0.5296450000D+02  0.2327143360D+00
      0.1689757040D+02  0.4701928980D+00
      0.5799635340D+01  0.3585208530D+00
 Atom O3       Shell     8 SP   3    bf   19 -    22          0.000000000000          0.000000000000          0.000000000000
      0.1553961625D+02 -0.1107775495D+00  0.7087426823D-01
      0.3599933586D+01 -0.1480262627D+00  0.3397528391D+00
      0.1013761750D+01  0.1130767015D+01  0.7271585773D+00
 Atom O3       Shell     9 SP   1    bf   23 -    26          0.000000000000          0.000000000000          0.000000000000
      0.2700058226D+00  0.1000000000D+01  0.1000000000D+01
 Atom O3       Shell    10 D   1     bf   27 -    32          0.000000000000          0.000000000000          0.000000000000
      0.8000000000D+00  0.1000000000D+01
 Atom H4       Shell    11 S   3     bf   33 -    33         -0.153955666793         -1.400149586892         -1.165767478240
      0.1873113696D+02  0.3349460434D-01
      0.2825394365D+01  0.2347269535D+00
      0.6401216923D+00  0.8137573261D+00
 Atom H4       Shell    12 S   1     bf   34 -    34         -0.153955666793         -1.400149586892         -1.165767478240
      0.1612777588D+00  0.1000000000D+01
 Atom C5       Shell    13 S   6     bf   35 -    35         16.660178134827          0.776769016744          0.655929685492
      0.3047524880D+04  0.1834737132D-02
      0.4573695180D+03  0.1403732281D-01
      0.1039486850D+03  0.6884262226D-01
      0.2921015530D+02  0.2321844432D+00
      0.9286662960D+01  0.4679413484D+00
      0.3163926960D+01  0.3623119853D+00
 Atom C5       Shell    14 SP   3    bf   36 -    39         16.660178134827          0.776769016744          0.655929685492
      0.7868272350D+01 -0.1193324198D+00  0.6899906659D-01
      0.1881288540D+01 -0.1608541517D+00  0.3164239610D+00
      0.5442492580D+00  0.1143456438D+01  0.7443082909D+00
 Atom C5       Shell    15 SP   1    bf   40 -    43         16.660178134827          0.776769016744          0.655929685492
      0.1687144782D+00  0.1000000000D+01  0.1000000000D+01
 Atom C5       Shell    16 D   1     bf   44 -    49         16.660178134827          0.776769016744          0.655929685492
      0.8000000000D+00  0.1000000000D+01
 Atom C6       Shell    17 S   6     bf   50 -    50         14.906189102546          2.994189137929         -0.138075731180
      0.3047524880D+04  0.1834737132D-02
      0.4573695180D+03  0.1403732281D-01
      0.1039486850D+03  0.6884262226D-01
      0.2921015530D+02  0.2321844432D+00
      0.9286662960D+01  0.4679413484D+00
      0.3163926960D+01  0.3623119853D+00
 Atom C6       Shell    18 SP   3    bf   51 -    54         14.906189102546          2.994189137929         -0.138075731180
      0.7868272350D+01 -0.1193324198D+00  0.6899906659D-01
      0.1881288540D+01 -0.1608541517D+00  0.3164239610D+00
      0.5442492580D+00  0.1143456438D+01  0.7443082909D+00
 Atom C6       Shell    19 SP   1    bf   55 -    58         14.906189102546          2.994189137929         -0.138075731180
      0.1687144782D+00  0.1000000000D+01  0.1000000000D+01
 Atom C6       Shell    20 D   1     bf   59 -    64         14.906189102546          2.994189137929         -0.138075731180
      0.8000000000D+00  0.1000000000D+01
 Atom H7       Shell    21 S   3     bf   65 -    65         14.569187192590          4.081574291068          1.599481830019
      0.1873113696D+02  0.3349460434D-01
      0.2825394365D+01  0.2347269535D+00
      0.6401216923D+00  0.8137573261D+00
 Atom H7       Shell    22 S   1     bf   66 -    66         14.569187192590          4.081574291068          1.599481830019
      0.1612777588D+00  0.1000000000D+01
 Atom C8       Shell    23 S   6     bf   67 -    67         12.287938528808          2.204933623481         -1.095847743604
      0.3047524880D+04  0.1834737132D-02
      0.4573695180D+03  0.1403732281D-01
      0.1039486850D+03  0.6884262226D-01
      0.2921015530D+02  0.2321844432D+00
      0.9286662960D+01  0.4679413484D+00
      0.3163926960D+01  0.3623119853D+00
 Atom C8       Shell    24 SP   3    bf   68 -    71         12.287938528808          2.204933623481         -1.095847743604
      0.7868272350D+01 -0.1193324198D+00  0.6899906659D-01
      0.1881288540D+01 -0.1608541517D+00  0.3164239610D+00
      0.5442492580D+00  0.1143456438D+01  0.7443082909D+00
 Atom C8       Shell    25 SP   1    bf   72 -    75         12.287938528808          2.204933623481         -1.095847743604
      0.1687144782D+00  0.1000000000D+01  0.1000000000D+01
 Atom C8       Shell    26 D   1     bf   76 -    81         12.287938528808          2.204933623481         -1.095847743604
      0.8000000000D+00  0.1000000000D+01
 Atom H9       Shell    27 S   3     bf   82 -    82         12.506684174162          1.110098943160         -2.848643867366
      0.1873113696D+02  0.3349460434D-01
      0.2825394365D+01  0.2347269535D+00
      0.6401216923D+00  0.8137573261D+00
 Atom H9       Shell    28 S   1     bf   83 -    83         12.506684174162          1.110098943160         -2.848643867366
      0.1612777588D+00  0.1000000000D+01
 Atom C10      Shell    29 S   6     bf   84 -    84         10.916744591840          0.560208537306          0.902535166381
      0.3047524880D+04  0.1834737132D-02
      0.4573695180D+03  0.1403732281D-01
      0.1039486850D+03  0.6884262226D-01
      0.2921015530D+02  0.2321844432D+00
      0.9286662960D+01  0.4679413484D+00
      0.3163926960D+01  0.3623119853D+00
 Atom C10      Shell    30 SP   3    bf   85 -    88         10.916744591840          0.560208537306          0.902535166381
      0.7868272350D+01 -0.1193324198D+00  0.6899906659D-01
      0.1881288540D+01 -0.1608541517D+00  0.3164239610D+00
      0.5442492580D+00  0.1143456438D+01  0.7443082909D+00
 Atom C10      Shell    31 SP   1    bf   89 -    92         10.916744591840          0.560208537306          0.902535166381
      0.1687144782D+00  0.1000000000D+01  0.1000000000D+01
 Atom C10      Shell    32 D   1     bf   93 -    98         10.916744591840          0.560208537306          0.902535166381
      0.8000000000D+00  0.1000000000D+01
 Atom H11      Shell    33 S   3     bf   99 -    99         10.492659207290          1.835592830213          2.495166096662
      0.1873113696D+02  0.3349460434D-01
      0.2825394365D+01  0.2347269535D+00
      0.6401216923D+00  0.8137573261D+00
 Atom H11      Shell    34 S   1     bf  100 -   100         10.492659207290          1.835592830213          2.495166096662
      0.1612777588D+00  0.1000000000D+01
 Atom C12      Shell    35 S   6     bf  101 -   101         19.079517156270          2.308508492373          1.422332779610
      0.3047524880D+04  0.1834737132D-02
      0.4573695180D+03  0.1403732281D-01
      0.1039486850D+03  0.6884262226D-01
      0.2921015530D+02  0.2321844432D+00
      0.9286662960D+01  0.4679413484D+00
      0.3163926960D+01  0.3623119853D+00
 Atom C12      Shell    36 SP   3    bf  102 -   105         19.079517156270          2.308508492373          1.422332779610
      0.7868272350D+01 -0.1193324198D+00  0.6899906659D-01
      0.1881288540D+01 -0.1608541517D+00  0.3164239610D+00
      0.5442492580D+00  0.1143456438D+01  0.7443082909D+00
 Atom C12      Shell    37 SP   1    bf  106 -   109         19.079517156270          2.308508492373          1.422332779610
      0.1687144782D+00  0.1000000000D+01  0.1000000000D+01
 Atom C12      Shell    38 D   1     bf  110 -   115         19.079517156270          2.308508492373          1.422332779610
      0.8000000000D+00  0.1000000000D+01
 Atom H13      Shell    39 S   3     bf  116 -   116         18.604098835307          3.236465010584          3.221121700501
      0.1873113696D+02  0.3349460434D-01
      0.2825394365D+01  0.2347269535D+00
      0.6401216923D+00  0.8137573261D+00
 Atom H13      Shell    40 S   1     bf  117 -   117         18.604098835307          3.236465010584          3.221121700501
      0.1612777588D+00  0.1000000000D+01
 Atom C14      Shell    41 S   6     bf  118 -   118         15.281389483018         -0.634138535358          2.800830942718
      0.3047524880D+04  0.1834737132D-02
      0.4573695180D+03  0.1403732281D-01
      0.1039486850D+03  0.6884262226D-01
      0.2921015530D+02  0.2321844432D+00
      0.9286662960D+01  0.4679413484D+00
      0.3163926960D+01  0.3623119853D+00
 Atom C14      Shell    42 SP   3    bf  119 -   122         15.281389483018         -0.634138535358          2.800830942718
      0.7868272350D+01 -0.1193324198D+00  0.6899906659D-01
      0.1881288540D+01 -0.1608541517D+00  0.3164239610D+00
      0.5442492580D+00  0.1143456438D+01  0.7443082909D+00
 Atom C14      Shell    43 SP   1    bf  123 -   126         15.281389483018         -0.634138535358          2.800830942718
      0.1687144782D+00  0.1000000000D+01  0.1000000000D+01
 Atom C14      Shell    44 D   1     bf  127 -   132         15.281389483018         -0.634138535358          2.800830942718
      0.8000000000D+00  0.1000000000D+01
 Atom H15      Shell    45 S   3     bf  133 -   133         15.096825638592          0.646537897790          4.426630346083
      0.1873113696D+02  0.3349460434D-01
      0.2825394365D+01  0.2347269535D+00
      0.6401216923D+00  0.8137573261D+00
 Atom H15      Shell    46 S   1     bf  134 -   134         15.096825638592          0.646537897790          4.426630346083
      0.1612777588D+00  0.1000000000D+01
 Atom H16      Shell    47 S   3     bf  135 -   135         16.357396519521         -2.272944734723          3.461394312277
      0.1873113696D+02  0.3349460434D-01
      0.2825394365D+01  0.2347269535D+00
      0.6401216923D+00  0.8137573261D+00
 Atom H16      Shell    48 S   1     bf  136 -   136         16.357396519521         -2.272944734723          3.461394312277
      0.1612777588D+00  0.1000000000D+01
 Atom C17      Shell    49 S   6     bf  137 -   137          8.294742004660         -0.433299405715         -0.061226994425
      0.3047524880D+04  0.1834737132D-02
      0.4573695180D+03  0.1403732281D-01
      0.1039486850D+03  0.6884262226D-01
      0.2921015530D+02  0.2321844432D+00
      0.9286662960D+01  0.4679413484D+00
      0.3163926960D+01  0.3623119853D+00
 Atom C17      Shell    50 SP   3    bf  138 -   141          8.294742004660         -0.433299405715         -0.061226994425
      0.7868272350D+01 -0.1193324198D+00  0.6899906659D-01
      0.1881288540D+01 -0.1608541517D+00  0.3164239610D+00
      0.5442492580D+00  0.1143456438D+01  0.7443082909D+00
 Atom C17      Shell    51 SP   1    bf  142 -   145          8.294742004660         -0.433299405715         -0.061226994425
      0.1687144782D+00  0.1000000000D+01  0.1000000000D+01
 Atom C17      Shell    52 D   1     bf  146 -   151          8.294742004660         -0.433299405715         -0.061226994425
      0.8000000000D+00  0.1000000000D+01
 Atom C18      Shell    53 S   6     bf  152 -   152         16.563721013902          4.673241892993         -1.828286941114
      0.3047524880D+04  0.1834737132D-02
      0.4573695180D+03  0.1403732281D-01
      0.1039486850D+03  0.6884262226D-01
      0.2921015530D+02  0.2321844432D+00
      0.9286662960D+01  0.4679413484D+00
      0.3163926960D+01  0.3623119853D+00
 Atom C18      Shell    54 SP   3    bf  153 -   156         16.563721013902          4.673241892993         -1.828286941114
      0.7868272350D+01 -0.1193324198D+00  0.6899906659D-01
      0.1881288540D+01 -0.1608541517D+00  0.3164239610D+00
      0.5442492580D+00  0.1143456438D+01  0.7443082909D+00
 Atom C18      Shell    55 SP   1    bf  157 -   160         16.563721013902          4.673241892993         -1.828286941114
      0.1687144782D+00  0.1000000000D+01  0.1000000000D+01
 Atom C18      Shell    56 D   1     bf  161 -   166         16.563721013902          4.673241892993         -1.828286941114
      0.8000000000D+00  0.1000000000D+01
 Atom H19      Shell    57 S   3     bf  167 -   167         15.906739091104          6.632461513888         -1.841415095326
      0.1873113696D+02  0.3349460434D-01
      0.2825394365D+01  0.2347269535D+00
      0.6401216923D+00  0.8137573261D+00
 Atom H19      Shell    58 S   1     bf  168 -   168         15.906739091104          6.632461513888         -1.841415095326
      0.1612777588D+00  0.1000000000D+01
 Atom H20      Shell    59 S   3     bf  169 -   169         16.536508220595          4.008992196872         -3.793067213435
      0.1873113696D+02  0.3349460434D-01
      0.2825394365D+01  0.2347269535D+00
      0.6401216923D+00  0.8137573261D+00
 Atom H20      Shell    60 S   1     bf  170 -   170         16.536508220595          4.008992196872         -3.793067213435
      0.1612777588D+00  0.1000000000D+01
 Atom C21      Shell    61 S   6     bf  171 -   171         12.639099551965         -1.546334057320          1.972678855126
      0.3047524880D+04  0.1834737132D-02
      0.4573695180D+03  0.1403732281D-01
      0.1039486850D+03  0.6884262226D-01
      0.2921015530D+02  0.2321844432D+00
      0.9286662960D+01  0.4679413484D+00
      0.3163926960D+01  0.3623119853D+00
 Atom C21      Shell    62 SP   3    bf  172 -   175         12.639099551965         -1.546334057320          1.972678855126
      0.7868272350D+01 -0.1193324198D+00  0.6899906659D-01
      0.1881288540D+01 -0.1608541517D+00  0.3164239610D+00
      0.5442492580D+00  0.1143456438D+01  0.7443082909D+00
 Atom C21      Shell    63 SP   1    bf  176 -   179         12.639099551965         -1.546334057320          1.972678855126
      0.1687144782D+00  0.1000000000D+01  0.1000000000D+01
 Atom C21      Shell    64 D   1     bf  180 -   185         12.639099551965         -1.546334057320          1.972678855126
      0.8000000000D+00  0.1000000000D+01
 Atom H22      Shell    65 S   3     bf  186 -   186         12.878418192194         -3.040704765588          0.561787857025
      0.1873113696D+02  0.3349460434D-01
      0.2825394365D+01  0.2347269535D+00
      0.6401216923D+00  0.8137573261D+00
 Atom H22      Shell    66 S   1     bf  187 -   187         12.878418192194         -3.040704765588          0.561787857025
      0.1612777588D+00  0.1000000000D+01
 Atom H23      Shell    67 S   3     bf  188 -   188         11.714866191078         -2.441476728453          3.596057802774
      0.1873113696D+02  0.3349460434D-01
      0.2825394365D+01  0.2347269535D+00
      0.6401216923D+00  0.8137573261D+00
 Atom H23      Shell    68 S   1     bf  189 -   189         11.714866191078         -2.441476728453          3.596057802774
      0.1612777588D+00  0.1000000000D+01
 Atom C24      Shell    69 S   6     bf  190 -   190         19.246238376625          4.396236803544         -0.664296107795
      0.3047524880D+04  0.1834737132D-02
      0.4573695180D+03  0.1403732281D-01
      0.1039486850D+03  0.6884262226D-01
      0.2921015530D+02  0.2321844432D+00
      0.9286662960D+01  0.4679413484D+00
      0.3163926960D+01  0.3623119853D+00
 Atom C24      Shell    70 SP   3    bf  191 -   194         19.246238376625          4.396236803544         -0.664296107795
      0.7868272350D+01 -0.1193324198D+00  0.6899906659D-01
      0.1881288540D+01 -0.1608541517D+00  0.3164239610D+00
      0.5442492580D+00  0.1143456438D+01  0.7443082909D+00
 Atom C24      Shell    71 SP   1    bf  195 -   198         19.246238376625          4.396236803544         -0.664296107795
      0.1687144782D+00  0.1000000000D+01  0.1000000000D+01
 Atom C24      Shell    72 D   1     bf  199 -   204         19.246238376625          4.396236803544         -0.664296107795
      0.8000000000D+00  0.1000000000D+01
 Atom H25      Shell    73 S   3     bf  205 -   205         20.621808560268          3.850330639577         -2.114581980924
      0.1873113696D+02  0.3349460434D-01
      0.2825394365D+01  0.2347269535D+00
      0.6401216923D+00  0.8137573261D+00
 Atom H25      Shell    74 S   1     bf  206 -   206         20.621808560268          3.850330639577         -2.114581980924
      0.1612777588D+00  0.1000000000D+01
 Atom H26      Shell    75 S   3     bf  207 -   207         19.918840548869          6.184118697628          0.127911763586
      0.1873113696D+02  0.3349460434D-01
      0.2825394365D+01  0.2347269535D+00
      0.6401216923D+00  0.8137573261D+00
 Atom H26      Shell    76 S   1     bf  208 -   208         19.918840548869          6.184118697628          0.127911763586
      0.1612777588D+00  0.1000000000D+01
 Atom C27      Shell    77 S   6     bf  209 -   209         10.662191943288          4.520717315801         -1.803085232152
      0.3047524880D+04  0.1834737132D-02
      0.4573695180D+03  0.1403732281D-01
      0.1039486850D+03  0.6884262226D-01
      0.2921015530D+02  0.2321844432D+00
      0.9286662960D+01  0.4679413484D+00
      0.3163926960D+01  0.3623119853D+00
 Atom C27      Shell    78 SP   3    bf  210 -   213         10.662191943288          4.520717315801         -1.803085232152
      0.7868272350D+01 -0.1193324198D+00  0.6899906659D-01
      0.1881288540D+01 -0.1608541517D+00  0.3164239610D+00
      0.5442492580D+00  0.1143456438D+01  0.7443082909D+00
 Atom C27      Shell    79 SP   1    bf  214 -   217         10.662191943288          4.520717315801         -1.803085232152
      0.1687144782D+00  0.1000000000D+01  0.1000000000D+01
 Atom C27      Shell    80 D   1     bf  218 -   223         10.662191943288          4.520717315801         -1.803085232152
      0.8000000000D+00  0.1000000000D+01
 Atom H28      Shell    81 S   3     bf  224 -   224         11.415208784398          5.342936551507         -3.548688321259
      0.1873113696D+02  0.3349460434D-01
      0.2825394365D+01  0.2347269535D+00
      0.6401216923D+00  0.8137573261D+00
 Atom H28      Shell    82 S   1     bf  225 -   225         11.415208784398          5.342936551507         -3.548688321259
      0.1612777588D+00  0.1000000000D+01
 Atom C29      Shell    83 S   6     bf  226 -   226         21.616710856614          0.902610150714          1.810389741751
      0.3047524880D+04  0.1834737132D-02
      0.4573695180D+03  0.1403732281D-01
      0.1039486850D+03  0.6884262226D-01
      0.2921015530D+02  0.2321844432D+00
      0.9286662960D+01  0.4679413484D+00
      0.3163926960D+01  0.3623119853D+00
 Atom C29      Shell    84 SP   3    bf  227 -   230         21.616710856614          0.902610150714          1.810389741751
      0.7868272350D+01 -0.1193324198D+00  0.6899906659D-01
      0.1881288540D+01 -0.1608541517D+00  0.3164239610D+00
      0.5442492580D+00  0.1143456438D+01  0.7443082909D+00
 Atom C29      Shell    85 SP   1    bf  231 -   234         21.616710856614          0.902610150714          1.810389741751
      0.1687144782D+00  0.1000000000D+01  0.1000000000D+01
 Atom C29      Shell    86 D   1     bf  235 -   240         21.616710856614          0.902610150714          1.810389741751
      0.8000000000D+00  0.1000000000D+01
 Atom H30      Shell    87 S   3     bf  241 -   241         22.097353136499          0.000000000000          0.000000000000
      0.1873113696D+02  0.3349460434D-01
      0.2825394365D+01  0.2347269535D+00
      0.6401216923D+00  0.8137573261D+00
 Atom H30      Shell    88 S   1     bf  242 -   242         22.097353136499          0.000000000000          0.000000000000
      0.1612777588D+00  0.1000000000D+01
 Atom C31      Shell    89 S   6     bf  243 -   243         17.262897592171         -1.036237390989         -1.553500673603
      0.3047524880D+04  0.1834737132D-02
      0.4573695180D+03  0.1403732281D-01
      0.1039486850D+03  0.6884262226D-01
      0.2921015530D+02  0.2321844432D+00
      0.9286662960D+01  0.4679413484D+00
      0.3163926960D+01  0.3623119853D+00
 Atom C31      Shell    90 SP   3    bf  244 -   247         17.262897592171         -1.036237390989         -1.553500673603
      0.7868272350D+01 -0.1193324198D+00  0.6899906659D-01
      0.1881288540D+01 -0.1608541517D+00  0.3164239610D+00
      0.5442492580D+00  0.1143456438D+01  0.7443082909D+00
 Atom C31      Shell    91 SP   1    bf  248 -   251         17.262897592171         -1.036237390989         -1.553500673603
      0.1687144782D+00  0.1000000000D+01  0.1000000000D+01
 Atom C31      Shell    92 D   1     bf  252 -   257         17.262897592171         -1.036237390989         -1.553500673603
      0.8000000000D+00  0.1000000000D+01
 Atom H32      Shell    93 S   3     bf  258 -   258         15.558850695664         -1.839754082747         -2.400201349155
      0.1873113696D+02  0.3349460434D-01
      0.2825394365D+01  0.2347269535D+00
      0.6401216923D+00  0.8137573261D+00
 Atom H32      Shell    94 S   1     bf  259 -   259         15.558850695664         -1.839754082747         -2.400201349155
      0.1612777588D+00  0.1000000000D+01
 Atom H33      Shell    95 S   3     bf  260 -   260         18.304906471331         -0.089436183629         -3.067746519782
      0.1873113696D+02  0.3349460434D-01
      0.2825394365D+01  0.2347269535D+00
      0.6401216923D+00  0.8137573261D+00
 Atom H33      Shell    96 S   1     bf  261 -   261         18.304906471331         -0.089436183629         -3.067746519782
      0.1612777588D+00  0.1000000000D+01
 Atom H34      Shell    97 S   3     bf  262 -   262         18.424587305978         -2.621619615283         -0.904243648881
      0.1873113696D+02  0.3349460434D-01
      0.2825394365D+01  0.2347269535D+00
      0.6401216923D+00  0.8137573261D+00
 Atom H34      Shell    98 S   1     bf  263 -   263         18.424587305978         -2.621619615283         -0.904243648881
      0.1612777588D+00  0.1000000000D+01
 Atom C35      Shell    99 S   6     bf  264 -   264          6.845770776207          1.684839965757         -1.411097053839
      0.3047524880D+04  0.1834737132D-02
      0.4573695180D+03  0.1403732281D-01
      0.1039486850D+03  0.6884262226D-01
      0.2921015530D+02  0.2321844432D+00
      0.9286662960D+01  0.4679413484D+00
      0.3163926960D+01  0.3623119853D+00
 Atom C35      Shell   100 SP   3    bf  265 -   268          6.845770776207          1.684839965757         -1.411097053839
      0.7868272350D+01 -0.1193324198D+00  0.6899906659D-01
      0.1881288540D+01 -0.1608541517D+00  0.3164239610D+00
      0.5442492580D+00  0.1143456438D+01  0.7443082909D+00
 Atom C35      Shell   101 SP   1    bf  269 -   272          6.845770776207          1.684839965757         -1.411097053839
      0.1687144782D+00  0.1000000000D+01  0.1000000000D+01
 Atom C35      Shell   102 D   1     bf  273 -   278          6.845770776207          1.684839965757         -1.411097053839
      0.8000000000D+00  0.1000000000D+01
 Atom C36      Shell   103 S   6     bf  279 -   279          6.704752117828         -1.308726545206          2.262121139324
      0.3047524880D+04  0.1834737132D-02
      0.4573695180D+03  0.1403732281D-01
      0.1039486850D+03  0.6884262226D-01
      0.2921015530D+02  0.2321844432D+00
      0.9286662960D+01  0.4679413484D+00
      0.3163926960D+01  0.3623119853D+00
 Atom C36      Shell   104 SP   3    bf  280 -   283          6.704752117828         -1.308726545206          2.262121139324
      0.7868272350D+01 -0.1193324198D+00  0.6899906659D-01
      0.1881288540D+01 -0.1608541517D+00  0.3164239610D+00
      0.5442492580D+00  0.1143456438D+01  0.7443082909D+00
 Atom C36      Shell   105 SP   1    bf  284 -   287          6.704752117828         -1.308726545206          2.262121139324
      0.1687144782D+00  0.1000000000D+01  0.1000000000D+01
 Atom C36      Shell   106 D   1     bf  288 -   293          6.704752117828         -1.308726545206          2.262121139324
      0.8000000000D+00  0.1000000000D+01
 Atom H37      Shell   107 S   3     bf  294 -   294          6.796857955360          0.177278024218          3.709848436653
      0.1873113696D+02  0.3349460434D-01
      0.2825394365D+01  0.2347269535D+00
      0.6401216923D+00  0.8137573261D+00
 Atom H37      Shell   108 S   1     bf  295 -   295          6.796857955360          0.177278024218          3.709848436653
      0.1612777588D+00  0.1000000000D+01
 Atom H38      Shell   109 S   3     bf  296 -   296          7.578424400940         -2.990150075088          3.094736722248
      0.1873113696D+02  0.3349460434D-01
      0.2825394365D+01  0.2347269535D+00
      0.6401216923D+00  0.8137573261D+00
 Atom H38      Shell   110 S   1     bf  297 -   297          7.578424400940         -2.990150075088          3.094736722248
      0.1612777588D+00  0.1000000000D+01
 Atom C39      Shell   111 S   6     bf  298 -   298          7.932617773137          3.846582084334         -2.178665088529
      0.3047524880D+04  0.1834737132D-02
      0.4573695180D+03  0.1403732281D-01
      0.1039486850D+03  0.6884262226D-01
      0.2921015530D+02  0.2321844432D+00
      0.9286662960D+01  0.4679413484D+00
      0.3163926960D+01  0.3623119853D+00
 Atom C39      Shell   112 SP   3    bf  299 -   302          7.932617773137          3.846582084334         -2.178665088529
      0.7868272350D+01 -0.1193324198D+00  0.6899906659D-01
      0.1881288540D+01 -0.1608541517D+00  0.3164239610D+00
      0.5442492580D+00  0.1143456438D+01  0.7443082909D+00
 Atom C39      Shell   113 SP   1    bf  303 -   306          7.932617773137          3.846582084334         -2.178665088529
      0.1687144782D+00  0.1000000000D+01  0.1000000000D+01
 Atom C39      Shell   114 D   1     bf  307 -   312          7.932617773137          3.846582084334         -2.178665088529
      0.8000000000D+00  0.1000000000D+01
[...]
 **** Fit      -0.000891
 **** Fit      -0.001234
 **** Fit      -0.001662
 **** Fit      -0.002110
 **** Fit      -0.002408
 **** Fit      -0.002228
 **** Fit      -0.001102
 **** Fit       0.001327
 **** Fit       0.003505
 **** Fit       0.001446
 **** Fit       0.000185
 **** Fit      -0.000476
 **** Fit      -0.000791
 **** Fit      -0.000928
 **** Fit      -0.000929
 **** Fit      -0.001302
 **** Fit      -0.001791
 **** Fit      -0.002350
 **** Fit      -0.002827
 **** Fit      -0.002927
 **** Fit      -0.002228
 **** Fit      -0.000413
 **** Fit       0.001629
 **** Fit       0.000132
 **** Fit      -0.000722
 **** Fit      -0.001107
 **** Fit      -0.001233
 **** Fit      -0.001239
 **** Fit      -0.000923
 **** Fit      -0.001301
 **** Fit      -0.001817
 **** Fit      -0.002442
 **** Fit      -0.003061
 **** Fit      -0.003438
 **** Fit      -0.003257
 **** Fit      -0.002296
 **** Fit      -0.000752
 **** Fit       0.000616
 **** Fit       0.001006
 **** Fit       0.000391
 **** Fit      -0.000560
 **** Fit      -0.001274
 **** Fit      -0.001608
 **** Fit      -0.001671
 **** Fit      -0.001599
 **** Fit      -0.001477
 **** Fit      -0.000893
 **** Fit      -0.001255
 **** Fit      -0.001764
 **** Fit      -0.002404
 **** Fit      -0.003094
 **** Fit      -0.003660
 **** Fit      -0.003882
 **** Fit      -0.003619
 **** Fit      -0.002972
 **** Fit      -0.002312
 **** Fit      -0.002005
 **** Fit      -0.002084
 **** Fit      -0.002280
 **** Fit      -0.002356
 **** Fit      -0.002264
 **** Fit      -0.002067
 **** Fit      -0.001839
 **** Fit      -0.001622
 **** Fit      -0.000859
 **** Fit      -0.001196
 **** Fit      -0.001673
 **** Fit      -0.002286
 **** Fit      -0.002976
 **** Fit      -0.003618
 **** Fit      -0.004058
 **** Fit      -0.004194
 **** Fit      -0.004063
 **** Fit      -0.003813
 **** Fit      -0.003587
 **** Fit      -0.003407
 **** Fit      -0.003203
 **** Fit      -0.002927
 **** Fit      -0.002594
 **** Fit      -0.002250
 **** Fit      -0.001937
 **** Fit      -0.000838
 **** Fit      -0.001144
 **** Fit      -0.001577
 **** Fit      -0.002136
 **** Fit      -0.002776
 **** Fit      -0.003405
 **** Fit      -0.003909
 **** Fit      -0.004211
 **** Fit      -0.004302
 **** Fit      -0.004234
 **** Fit      -0.004056
 **** Fit      -0.003789
 **** Fit      -0.003442
 **** Fit      -0.003040
 **** Fit      -0.002625
 **** Fit      -0.002239
 **** Fit      -0.001109
 **** Fit      -0.001492
 **** Fit      -0.001982
 **** Fit      -0.002543
 **** Fit      -0.003107
 **** Fit      -0.003587
 **** Fit      -0.003916
 **** Fit      -0.004070
 **** Fit      -0.004059
 **** Fit      -0.003902
 **** Fit      -0.003626
 **** Fit      -0.003262
 **** Fit      -0.002857
 **** Fit      -0.002457
 **** Fit      -0.002094
 **** Fit      -0.001086
 **** Fit      -0.001418
 **** Fit      -0.001835
 **** Fit      -0.002307
 **** Fit      -0.002781
 **** Fit      -0.003193
 **** Fit      -0.003487
 **** Fit      -0.003633
 **** Fit      -0.003626
 **** Fit      -0.003480
 **** Fit      -0.003224
 **** Fit      -0.002895
 **** Fit      -0.002538
 **** Fit      -0.002192
 **** Fit      -0.001881
 **** Fit      -0.001696
 **** Fit      -0.002079
 **** Fit      -0.002461
 **** Fit      -0.002792
 **** Fit      -0.003027
 **** Fit      -0.003140
 **** Fit      -0.003123
 **** Fit      -0.002990
 **** Fit      -0.002765
 **** Fit      -0.002487
 **** Fit      -0.002191
 **** Fit      -0.001908
 **** Fit      -0.002672
 **** Fit      -0.002646
 **** Fit      -0.002527
 **** Fit      -0.002339
 **** Fit      -0.002112
 **** Fit      -0.001875
 **** Fit       0.000805
 **** Fit       0.001019
 **** Fit       0.001210
 **** Fit       0.001350
 **** Fit       0.001422
 **** Fit       0.001424
 **** Fit       0.000330
 **** Fit       0.000568
 **** Fit       0.000861
 **** Fit       0.001169
 **** Fit       0.001434
 **** Fit       0.001608
 **** Fit       0.001668
 **** Fit       0.001623
 **** Fit       0.001499
 **** Fit       0.001324
 **** Fit      -0.000019
 **** Fit       0.000193
 **** Fit       0.000520
 **** Fit       0.000939
 **** Fit       0.001382
 **** Fit       0.001752
 **** Fit       0.001964
 **** Fit       0.001988
 **** Fit       0.001854
 **** Fit       0.001624
 **** Fit       0.001352
 **** Fit       0.001073
 **** Fit      -0.000368
 **** Fit      -0.000256
 **** Fit       0.000005
 **** Fit       0.000442
 **** Fit       0.001032
 **** Fit       0.001670
 **** Fit       0.002189
 **** Fit       0.002444
 **** Fit       0.002393
 **** Fit       0.002113
 **** Fit       0.001726
 **** Fit       0.001325
 **** Fit       0.000960
 **** Fit      -0.000651
 **** Fit      -0.000554
 **** Fit      -0.000256
 **** Fit       0.000302
 **** Fit       0.001104
 **** Fit       0.001998
 **** Fit       0.002714
 **** Fit       0.003011
 **** Fit       0.002840
 **** Fit       0.002355
 **** Fit       0.001767
 **** Fit       0.001220
 **** Fit       0.000771
 **** Fit       0.000418
 **** Fit      -0.000878
 **** Fit      -0.000965
 **** Fit      -0.000912
 **** Fit      -0.000609
 **** Fit       0.000045
 **** Fit       0.001055
 **** Fit       0.002224
 **** Fit       0.003158
 **** Fit       0.003492
 **** Fit       0.003171
 **** Fit       0.002457
 **** Fit       0.001670
 **** Fit       0.000999
 **** Fit       0.000494
 **** Fit       0.000134
 **** Fit      -0.001123
 **** Fit      -0.001288
 **** Fit      -0.001313
 **** Fit      -0.001062
 **** Fit      -0.000393
 **** Fit       0.000729
 **** Fit       0.002085
 **** Fit       0.003177
 **** Fit       0.003534
 **** Fit       0.003100
 **** Fit       0.002232
 **** Fit       0.001335
 **** Fit       0.000621
 **** Fit       0.000124
 **** Fit      -0.000200
 **** Fit      -0.001330
 **** Fit      -0.001583
 **** Fit      -0.001718
 **** Fit      -0.001586
 **** Fit      -0.001028
 **** Fit       0.000017
 **** Fit       0.001341
 **** Fit       0.002433
 **** Fit       0.002795
 **** Fit       0.002372
 **** Fit       0.001538
 **** Fit       0.000707
 **** Fit       0.000081
 **** Fit      -0.000324
 **** Fit      -0.000562
 **** Fit      -0.001156
 **** Fit      -0.001480
 **** Fit      -0.001813
 **** Fit      -0.002067
 **** Fit      -0.002103
 **** Fit      -0.001768
 **** Fit      -0.000993
 **** Fit       0.000056
 **** Fit       0.000960
 **** Fit       0.001305
 **** Fit       0.001032
 **** Fit       0.000439
 **** Fit      -0.000145
 **** Fit      -0.000562
 **** Fit      -0.000804
 **** Fit      -0.000919
 **** Fit      -0.001204
 **** Fit      -0.001561
 **** Fit      -0.001954
 **** Fit      -0.002310
 **** Fit      -0.002513
 **** Fit      -0.002436
 **** Fit      -0.002017
 **** Fit      -0.001361
 **** Fit      -0.000744
 **** Fit      -0.000443
 **** Fit      -0.000509
 **** Fit      -0.000773
 **** Fit      -0.001034
 **** Fit      -0.001192
 **** Fit      -0.001246
 **** Fit      -0.001229
 **** Fit      -0.001214
 **** Fit      -0.001580
 **** Fit      -0.002002
 **** Fit      -0.002423
 **** Fit      -0.002750
 **** Fit      -0.002884
 **** Fit      -0.002774
 **** Fit      -0.002470
 **** Fit      -0.002121
 **** Fit      -0.001877
 **** Fit      -0.001784
 **** Fit      -0.001772
 **** Fit      -0.001755
 **** Fit      -0.001690
 **** Fit      -0.001584
 **** Fit      -0.001457
 **** Fit      -0.001198
 **** Fit      -0.001555
 **** Fit      -0.001976
 **** Fit      -0.002417
 **** Fit      -0.002808
 **** Fit      -0.003071
 **** Fit      -0.003159
 **** Fit      -0.003088
 **** Fit      -0.002922
 **** Fit      -0.002736
 **** Fit      -0.002560
 **** Fit      -0.002386
 **** Fit      -0.002197
 **** Fit      -0.001991
 **** Fit      -0.001782
 **** Fit      -0.001504
 **** Fit      -0.001902
 **** Fit      -0.002328
 **** Fit      -0.002729
 **** Fit      -0.003042
 **** Fit      -0.003226
 **** Fit      -0.003274
 **** Fit      -0.003209
 **** Fit      -0.003064
 **** Fit      -0.002865
 **** Fit      -0.002626
 **** Fit      -0.002363
 **** Fit      -0.002096
 **** Fit      -0.001842
 **** Fit      -0.001443
 **** Fit      -0.001802
 **** Fit      -0.002190
 **** Fit      -0.002564
 **** Fit      -0.002875
 **** Fit      -0.003084
 **** Fit      -0.003176
 **** Fit      -0.003155
 **** Fit      -0.003037
 **** Fit      -0.002842
 **** Fit      -0.002596
 **** Fit      -0.002323
 **** Fit      -0.002049
 **** Fit      -0.002030
 **** Fit      -0.002357
 **** Fit      -0.002635
 **** Fit      -0.002831
 **** Fit      -0.002926
 **** Fit      -0.002918
 **** Fit      -0.002816
 **** Fit      -0.002639
 **** Fit      -0.002412
 **** Fit       0.000719
 **** Fit       0.000941
 **** Fit       0.001130
 **** Fit       0.001254
 **** Fit       0.001297
 **** Fit       0.001262
 **** Fit       0.000203
 **** Fit       0.000445
 **** Fit       0.000738
 **** Fit       0.001038
 **** Fit       0.001287
 **** Fit       0.001435
 **** Fit       0.001464
 **** Fit       0.001383
 **** Fit       0.001228
 **** Fit      -0.000149
 **** Fit       0.000052
 **** Fit       0.000355
 **** Fit       0.000737
 **** Fit       0.001133
 **** Fit       0.001456
 **** Fit       0.001631
 **** Fit       0.001632
 **** Fit       0.001487
 **** Fit       0.001255
 **** Fit       0.000991
 **** Fit      -0.000374
 **** Fit      -0.000155
 **** Fit       0.000206
 **** Fit       0.000680
 **** Fit       0.001185
 **** Fit       0.001592
 **** Fit       0.001793
 **** Fit       0.001756
 **** Fit       0.001533
 **** Fit       0.001216
 **** Fit       0.000884
 **** Fit       0.000581
 **** Fit      -0.000711
 **** Fit      -0.000643
 **** Fit      -0.000427
 **** Fit      -0.000034
 **** Fit       0.000515
 **** Fit       0.001114
 **** Fit       0.001599
 **** Fit       0.001823
 **** Fit       0.001748
 **** Fit       0.001455
 **** Fit       0.001068
 **** Fit       0.000688
 **** Fit       0.000364
 **** Fit      -0.000961
 **** Fit      -0.000943
 **** Fit      -0.000767
 **** Fit      -0.000387
 **** Fit       0.000182
 **** Fit       0.000827
 **** Fit       0.001356
 **** Fit       0.001594
 **** Fit       0.001502
 **** Fit       0.001177
 **** Fit       0.000768
 **** Fit       0.000386
 **** Fit       0.000078
 **** Fit      -0.000150
 **** Fit      -0.001200
 **** Fit      -0.001252
 **** Fit      -0.001151
 **** Fit      -0.000843
 **** Fit      -0.000333
 **** Fit       0.000274
 **** Fit       0.000786
 **** Fit       0.001027
 **** Fit       0.000954
 **** Fit       0.000666
 **** Fit       0.000308
 **** Fit      -0.000016
 **** Fit      -0.000263
 **** Fit      -0.000433
 **** Fit      -0.001403
 **** Fit      -0.001532
 **** Fit      -0.001532
 **** Fit      -0.001345
 **** Fit      -0.000968
 **** Fit      -0.000483
 **** Fit      -0.000050
 **** Fit       0.000178
 **** Fit       0.000161
 **** Fit      -0.000026
 **** Fit      -0.000266
 **** Fit      -0.000477
 **** Fit      -0.000627
 **** Fit      -0.000717
 **** Fit      -0.001550
 **** Fit      -0.001751
 **** Fit      -0.001853
 **** Fit      -0.001804
 **** Fit      -0.001592
 **** Fit      -0.001272
 **** Fit      -0.000956
 **** Fit      -0.000753
 **** Fit      -0.000702
 **** Fit      -0.000760
 **** Fit      -0.000854
 **** Fit      -0.000930
 **** Fit      -0.000969
 **** Fit      -0.001888
 **** Fit      -0.002072
 **** Fit      -0.002142
 **** Fit      -0.002081
 **** Fit      -0.001917
 **** Fit      -0.001716
 **** Fit      -0.001547
 **** Fit      -0.001443
 **** Fit      -0.001388
 **** Fit      -0.001351
 **** Fit      -0.001306
 **** Fit      -0.001247
 **** Fit      -0.001940
 **** Fit      -0.002175
 **** Fit      -0.002326
 **** Fit      -0.002372
 **** Fit      -0.002323
 **** Fit      -0.002212
 **** Fit      -0.002078
 **** Fit      -0.001945
 **** Fit      -0.001817
 **** Fit      -0.001691
 **** Fit      -0.001562
 **** Fit      -0.002177
 **** Fit      -0.002368
 **** Fit      -0.002475
 **** Fit      -0.002495
 **** Fit      -0.002441
 **** Fit      -0.002334
 **** Fit      -0.002194
 **** Fit      -0.002034
 **** Fit      -0.001862
 **** Fit      -0.002434
 **** Fit      -0.002486
 **** Fit      -0.002463
 **** Fit      -0.002377
 **** Fit      -0.002242
 **** Fit      -0.002076
 **** Fit       0.000561
 **** Fit       0.000764
 **** Fit       0.000931
 **** Fit       0.001035
 **** Fit       0.001061
 **** Fit       0.001014
 **** Fit       0.000265
 **** Fit       0.000514
 **** Fit       0.000766
 **** Fit       0.000972
 **** Fit       0.001092
 **** Fit       0.001109
 **** Fit       0.001033
 **** Fit       0.000893
 **** Fit      -0.000112
 **** Fit       0.000124
 **** Fit       0.000416
 **** Fit       0.000715
 **** Fit       0.000959
 **** Fit       0.001094
 **** Fit       0.001100
 **** Fit       0.000995
 **** Fit       0.000819
 **** Fit       0.000615
 **** Fit      -0.000477
 **** Fit      -0.000326
 **** Fit      -0.000081
 **** Fit       0.000238
 **** Fit       0.000573
 **** Fit       0.000847
 **** Fit       0.000995
 **** Fit       0.000992
 **** Fit       0.000865
 **** Fit       0.000666
 **** Fit       0.000446
 **** Fit      -0.000708
 **** Fit      -0.000584
 **** Fit      -0.000355
 **** Fit      -0.000039
 **** Fit       0.000305
 **** Fit       0.000591
 **** Fit       0.000746
 **** Fit       0.000744
 **** Fit       0.000615
 **** Fit       0.000418
 **** Fit       0.000206
 **** Fit      -0.000946
 **** Fit      -0.000870
 **** Fit      -0.000687
 **** Fit      -0.000410
 **** Fit      -0.000094
 **** Fit       0.000179
 **** Fit       0.000334
 **** Fit       0.000346
 **** Fit       0.000242
 **** Fit       0.000077
 **** Fit      -0.000096
 **** Fit      -0.000247
 **** Fit      -0.001170
 **** Fit      -0.001156
 **** Fit      -0.001042
 **** Fit      -0.000836
 **** Fit      -0.000580
 **** Fit      -0.000347
 **** Fit      -0.000199
 **** Fit      -0.000163
 **** Fit      -0.000219
 **** Fit      -0.000323
 **** Fit      -0.000433
 **** Fit      -0.001407
 **** Fit      -0.001371
 **** Fit      -0.001250
 **** Fit      -0.001074
 **** Fit      -0.000895
 **** Fit      -0.000762
 **** Fit      -0.000700
 **** Fit      -0.000698
 **** Fit      -0.000729
 **** Fit      -0.000765
 **** Fit      -0.001596
 **** Fit      -0.001631
 **** Fit      -0.001590
 **** Fit      -0.001492
 **** Fit      -0.001369
 **** Fit      -0.001256
 **** Fit      -0.001173
 **** Fit      -0.001119
 **** Fit      -0.001082
 **** Fit      -0.001049
 **** Fit      -0.001797
 **** Fit      -0.001819
 **** Fit      -0.001783
 **** Fit      -0.001707
 **** Fit      -0.001614
 **** Fit      -0.001519
 **** Fit      -0.001429
 **** Fit      -0.001343
 **** Fit      -0.001931
 **** Fit      -0.001937
 **** Fit      -0.001895
 **** Fit      -0.001819
 **** Fit      -0.001722
 **** Fit      -0.001613
 **** Fit       0.000645
 **** Fit       0.000727
 **** Fit       0.000241
 **** Fit       0.000426
 **** Fit       0.000578
 **** Fit       0.000669
 **** Fit       0.000686
 **** Fit       0.000635
 **** Fit      -0.000114
 **** Fit       0.000079
 **** Fit       0.000278
 **** Fit       0.000442
 **** Fit       0.000540
 **** Fit       0.000557
 **** Fit       0.000501
 **** Fit      -0.000328
 **** Fit      -0.000142
 **** Fit       0.000056
 **** Fit       0.000223
 **** Fit       0.000325
 **** Fit       0.000345
 **** Fit       0.000293
 **** Fit       0.000193
 **** Fit      -0.000576
 **** Fit      -0.000415
 **** Fit      -0.000235
 **** Fit      -0.000077
 **** Fit       0.000024
 **** Fit       0.000052
 **** Fit       0.000016
 **** Fit      -0.000062
 **** Fit      -0.000836
 **** Fit      -0.000714
 **** Fit      -0.000568
 **** Fit      -0.000432
 **** Fit      -0.000335
 **** Fit      -0.000295
 **** Fit      -0.000306
 **** Fit      -0.000351
 **** Fit      -0.001079
 **** Fit      -0.001006
 **** Fit      -0.000901
 **** Fit      -0.000793
 **** Fit      -0.000706
 **** Fit      -0.000654
 **** Fit      -0.000636
 **** Fit      -0.001253
 **** Fit      -0.001191
 **** Fit      -0.001113
 **** Fit      -0.001037
 **** Fit      -0.000975
 **** Fit      -0.000931
 **** Fit      -0.001356
 **** Fit      -0.001292
 -----------------------------------------------------------------
 Leave Link  602 at Wed May 17 12:15:42 2017, MaxMem=   33554432 cpu:      89.5
 (Enter /scratch/michal/g09/l9999.exe)

 Test job not archived.
 1\1\GINC-RZEPICHA\SP\RHF\6-31G(d)\C27H46O2\MICHAL\17-May-2017\0\\#P HF
 /6-31G* SCF(Conver=6) NoSymm Test Pop=chelpg IOp(6/33=2) GFInput GFPri
 nt\\MEP - Input generated by R.E.D.-III.x MOLECULE\\0,1\O,0,5.74808781
 ,3.4752928,0.\H,0,5.11516674,3.31098828,0.71177288\O,0,0.,0.,0.\H,0,-0
 .08146983,-0.74092725,-0.61689758\C,0,8.81618656,0.41104846,0.34710304
 \C,0,7.88801554,1.58445665,-0.07306653\H,0,7.70968181,2.15987609,0.846
 40933\C,0,6.50249701,1.16680062,-0.57989765\H,0,6.61825222,0.58743906,
 -1.50743741\C,0,5.77689243,0.29644959,0.47760104\H,0,5.55247611,0.9713
 5389,1.32038503\C,0,10.09644563,1.22161008,0.75266609\H,0,9.84486509,1
 .71266352,1.70454419\C,0,8.08656303,-0.33557166,1.4821359\H,0,7.988896
 05,0.34213312,2.34247189\H,0,8.65596143,-1.20279055,1.83169098\C,0,4.3
 8938842,-0.22929217,-0.03239993\C,0,8.76514365,2.4729731,-0.96748778\H
 ,0,8.41748379,3.50974747,-0.9744349\H,0,8.75074326,2.1214673,-2.007204
 72\C,0,6.68832342,-0.81828474,1.04389669\H,0,6.81496539,-1.60907166,0.
 29728533\H,0,6.19924019,-1.29197384,1.90295183\C,0,10.1846707,2.326388
 32,-0.35153036\H,0,10.91259109,2.03750722,-1.11898859\H,0,10.54059644,
 3.27249467,0.06768799\C,0,5.64218897,2.39226057,-0.95415161\H,0,6.0406
 6832,2.82736025,-1.87788498\C,0,11.43907071,0.47764072,0.95801699\H,0,
 11.69341565,0.,0.\C,0,9.13513196,-0.54835321,-0.82207715\H,0,8.2333891
 8,-0.97355593,-1.27013185\H,0,9.68653931,-0.04732759,-1.62338154\H,0,9
 .74987168,-1.38730135,-0.47850513\C,0,3.62262587,0.89157891,-0.7467204
 \C,0,3.54800201,-0.69254826,1.19706295\H,0,3.59674232,0.09381149,1.963
 16724\H,0,4.01032947,-1.58231927,1.63766414\C,0,4.19776053,2.03552357,
 -1.15289991\H,0,3.58490749,2.79697871,-1.63446635\C,0,4.55531171,-1.41
 370385,-1.02321805\H,0,4.93166214,-2.30708487,-0.51598427\H,0,3.604505
 89,-1.68484587,-1.48865474\H,0,5.24834634,-1.16050136,-1.83112021\C,0,
 2.14496649,0.65632543,-1.00128308\H,0,1.68484444,1.55711374,-1.4191094
 6\H,0,2.01853132,-0.1396266,-1.75249017\C,0,2.06929241,-0.98451862,0.8
 9950856\H,0,1.97584238,-1.84586388,0.22171521\H,0,1.5471623,-1.2552806
 3,1.82419288\C,0,12.6186536,1.45722761,1.227635\H,0,13.53239588,0.8571
 7156,1.33200361\H,0,12.76830022,2.05135945,0.31828048\C,0,1.38687573,0
 .22645121,0.26391629\H,0,1.39050272,1.05747821,0.98002703\C,0,11.36787
 593,-0.65071428,2.0052169\H,0,10.9123727,-0.31769658,2.9431474\H,0,12.
 37088426,-1.02625333,2.23689721\H,0,10.78228093,-1.49976326,1.64207078
 \C,0,12.52314958,2.4554134,2.40384668\H,0,13.27804172,3.23316884,2.230
 34656\H,0,11.56067914,2.98016173,2.35919203\C,0,12.70598029,1.91704862
 ,3.83750763\H,0,11.89186449,1.22504677,4.08226361\H,0,12.59238039,2.76
 54122,4.52938002\C,0,14.04790948,1.22386342,4.15598424\H,0,14.16421554
 ,0.36634332,3.47817473\C,0,14.03166995,0.67474821,5.59177316\H,0,13.92
 301557,1.48856868,6.32031036\H,0,14.96075283,0.14222775,5.82531634\H,0
 ,13.19858755,-0.02105471,5.74425995\C,0,15.25490672,2.15278244,3.94860
 338\H,0,15.17425021,3.04389304,4.58487042\H,0,16.18961331,1.64318334,4
 .20905934\H,0,15.34308294,2.49117574,2.91123997\\Version=EM64L-G09RevC
 .01\HF=-1198.9210793\RMSD=4.892e-07\Dipole=0.0950706,-1.0088456,-0.200
 0205\Quadrupole=-4.507389,-0.7894855,5.2968744,-8.6633327,-0.5529895,1
 .4608184\PG=C01 [X(C27H46O2)]\\@


 The number of Unix installations has grown to 10,
  with more expected.
                  -- The Unix Programmer's Manual,
                     2nd Edition, June, 1972.
 Job cpu time:  0 days  0 hours 43 minutes 52.4 seconds.
 File lengths (MBytes):  RWF=    151 Int=      0 D2E=      0 Chk=     11 Scr=      1
 Normal termination of Gaussian 09 at Wed May 17 12:15:43 2017.
