 Entering Gaussian System, Link 0=/scratch/michal/g09//g09
 Input=JOB2-gau_m1-15-4.com
 Output=JOB2-gau_m1-15-4.log
 Initial command:
 /scratch/michal/g09/l1.exe /scratch/michal/gauss_scratch/Gau-24827.inp -scrdir=/scratch/michal/gauss_scratch/
 Entering Link 1 = /scratch/michal/g09/l1.exe PID=     24829.
  
 Copyright (c) 1988,1990,1992,1993,1995,1998,2003,2009,2011,
            Gaussian, Inc.  All Rights Reserved.
  
 This is part of the Gaussian(R) 09 program.  It is based on
 the Gaussian(R) 03 system (copyright 2003, Gaussian, Inc.),
 the Gaussian(R) 98 system (copyright 1998, Gaussian, Inc.),
 the Gaussian(R) 94 system (copyright 1995, Gaussian, Inc.),
 the Gaussian 92(TM) system (copyright 1992, Gaussian, Inc.),
 the Gaussian 90(TM) system (copyright 1990, Gaussian, Inc.),
 the Gaussian 88(TM) system (copyright 1988, Gaussian, Inc.),
 the Gaussian 86(TM) system (copyright 1986, Carnegie Mellon
 University), and the Gaussian 82(TM) system (copyright 1983,
 Carnegie Mellon University). Gaussian is a federally registered
 trademark of Gaussian, Inc.
  
 This software contains proprietary and confidential information,
 including trade secrets, belonging to Gaussian, Inc.
  
 This software is provided under written license and may be
 used, copied, transmitted, or stored only in accord with that
 written license.
  
 The following legend is applicable only to US Government
 contracts under FAR:
  
                    RESTRICTED RIGHTS LEGEND
  
 Use, reproduction and disclosure by the US Government is
 subject to restrictions as set forth in subparagraphs (a)
 and (c) of the Commercial Computer Software - Restricted
 Rights clause in FAR 52.227-19.
  
 Gaussian, Inc.
 340 Quinnipiac St., Bldg. 40, Wallingford CT 06492
  
  
 ---------------------------------------------------------------
 Warning -- This program may not be used in any manner that
 competes with the business of Gaussian, Inc. or will provide
 assistance to any competitor of Gaussian, Inc.  The licensee
 of this program is prohibited from giving any competitor of
 Gaussian, Inc. access to this program.  By using this program,
 the user acknowledges that Gaussian, Inc. is engaged in the
 business of creating and licensing software in the field of
 computational chemistry and represents and warrants to the
 licensee that it is not a competitor of Gaussian, Inc. and that
 it will not use this program in any manner prohibited above.
 ---------------------------------------------------------------
  

 Cite this work as:
 Gaussian 09, Revision C.01,
 M. J. Frisch, G. W. Trucks, H. B. Schlegel, G. E. Scuseria, 
 M. A. Robb, J. R. Cheeseman, G. Scalmani, V. Barone, B. Mennucci, 
 G. A. Petersson, H. Nakatsuji, M. Caricato, X. Li, H. P. Hratchian, 
 A. F. Izmaylov, J. Bloino, G. Zheng, J. L. Sonnenberg, M. Hada, 
 M. Ehara, K. Toyota, R. Fukuda, J. Hasegawa, M. Ishida, T. Nakajima, 
 Y. Honda, O. Kitao, H. Nakai, T. Vreven, J. A. Montgomery, Jr., 
 J. E. Peralta, F. Ogliaro, M. Bearpark, J. J. Heyd, E. Brothers, 
 K. N. Kudin, V. N. Staroverov, T. Keith, R. Kobayashi, J. Normand, 
 K. Raghavachari, A. Rendell, J. C. Burant, S. S. Iyengar, J. Tomasi, 
 M. Cossi, N. Rega, J. M. Millam, M. Klene, J. E. Knox, J. B. Cross, 
 V. Bakken, C. Adamo, J. Jaramillo, R. Gomperts, R. E. Stratmann, 
 O. Yazyev, A. J. Austin, R. Cammi, C. Pomelli, J. W. Ochterski, 
 R. L. Martin, K. Morokuma, V. G. Zakrzewski, G. A. Voth, 
 P. Salvador, J. J. Dannenberg, S. Dapprich, A. D. Daniels, 
 O. Farkas, J. B. Foresman, J. V. Ortiz, J. Cioslowski, 
 and D. J. Fox, Gaussian, Inc., Wallingford CT, 2010.
 
 ******************************************
 Gaussian 09:  EM64L-G09RevC.01 23-Sep-2011
                17-May-2017 
 ******************************************
 %Mem=256MB
 %NProc=48
 Will use up to   48 processors via shared memory.
 ----------------------------------------------------------------------
 #P HF/6-31G* SCF(Conver=6) NoSymm Test Pop=chelpg IOp(6/33=2) GFInput 
 GFPrint
 ----------------------------------------------------------------------
 1/38=1/1;
 2/12=2,15=1,17=6,18=5,40=1/2;
 3/5=1,6=6,7=1,11=9,16=1,24=110,25=1,30=1/1,2,3;
 4//1;
 5/5=2,6=6,38=5/2;
 6/7=2,8=2,9=2,10=2,15=8,20=3,28=1,33=2/1,2;
 99/5=1,9=1/99;
 Leave Link    1 at Wed May 17 13:00:16 2017, MaxMem=   33554432 cpu:       3.0
 (Enter /scratch/michal/g09/l101.exe)
 ----------------------------------------------
 MEP - Input generated by R.E.D.-III.x MOLECULE
 ----------------------------------------------
 Charge =  0 Multiplicity = 1
 Symbolic Z-Matrix:
 O                     0.        0.        0. 
 H                    -0.40844   0.4772   -0.7346 
 O                    -4.36028   5.10798   0. 
 H                    -4.33898   5.72206   0.74741 
 C                     3.83751   1.9116    0.7367 
 C                     2.5435    1.048     0.77542 
 H                     2.38067   0.71317  -0.25836 
 C                     1.26969   1.80486   1.16975 
 H                     1.36142   2.1527    2.20867 
 C                     1.05349   3.02738   0.2406 
 H                     0.81055   2.61199  -0.75167 
 C                     4.85949   0.79625   0.32175 
 H                     4.57758   0.54269  -0.70946 
 C                     3.59159   3.02939  -0.29486 
 H                     3.45969   2.57589  -1.28712 
 H                     4.45302   3.7037   -0.36918 
 C                    -0.191     3.88445   0.66352 
 C                     2.94071  -0.20535   1.57419 
 H                     2.31175  -1.06338   1.32086 
 H                     2.83269  -0.03352   2.65285 
 C                     2.34301   3.86402   0.05678 
 H                     2.55182   4.4315    0.96935 
 H                     2.18763   4.60882  -0.73225 
 C                     4.4327   -0.42821   1.1935 
 H                     5.05428  -0.51199   2.0908 
 H                     4.57559  -1.35922   0.63415 
 C                     0.03223   0.88269   1.14641 
 H                     0.09704   0.19359   1.99633 
 C                     6.40165   0.99638   0.27271 
 H                     6.78163   0.        0. 
 C                     4.16875   2.52432   2.11736 
 H                     3.31343   3.05079   2.54884 
 H                     4.47785   1.76677   2.84206 
 H                     4.98201   3.25125   2.03438 
 C                    -1.37663   2.97294   1.00725 
 C                    -0.60337   4.79287  -0.53608 
 H                    -0.63943   4.17126  -1.4416 
 H                     0.17603   5.5431   -0.707 
 C                    -1.25349   1.65319   1.22521 
 H                    -2.14455   1.06485   1.44243 
 C                     0.11849   4.76932   1.90184 
 H                     0.83265   5.56104   1.65649 
 H                    -0.78229   5.25605   2.28389 
 H                     0.53452   4.1741    2.72025 
 C                    -2.74016   3.63168   1.10911 
 H                    -3.51634   2.87417   1.25546 
 H                    -2.7711    4.28938   1.99246 
 C                    -1.95962   5.4977   -0.38095 
 H                    -1.9262    6.21819   0.44961 
 H                    -2.18895   6.07256  -1.28534 
 C                     6.89055   1.97324  -0.82492 
 H                     6.53323   2.98369  -0.58838 
 H                     7.98683   2.02481  -0.75395 
 C                    -3.07741   4.48826  -0.12081 
 H                    -3.17878   3.832    -0.99401 
 C                     7.10132   1.35417   1.59981 
 H                     6.96792   2.40692   1.86578 
 H                     8.17915   1.17971   1.50454 
 H                     6.74823   0.74968   2.44035 
 C                     6.52811   1.64692  -2.28693 
 H                     5.43964   1.64649  -2.41373 
 H                     6.90115   2.47153  -2.90765 
 C                     7.11486   0.32017  -2.79721 
 H                     6.68125  -0.51255  -2.22766 
 H                     8.19319   0.30678  -2.57974 
 C                     6.92031   0.01849  -4.30243 
 H                     7.3791   -0.96667  -4.47325 
 C                     7.65457   1.01885  -5.21072 
 H                     7.21624   2.02156  -5.14898 
 H                     7.60048   0.70409  -6.25918 
 H                     8.71414   1.09946  -4.94073 
 C                     5.43833  -0.09968  -4.69548 
 H                     4.92072   0.86299  -4.61225 
 H                     5.33587  -0.43684  -5.73329 
 H                     4.91178  -0.81915  -4.05744 
 
 NAtoms=     75 NQM=        0 NQMF=       0 NMMI=     75 NMMIF=      0
                NMic=       0 NMicF=      0.
                    Isotopes and Nuclear Properties:
 (Nuclear quadrupole moments (NQMom) in fm**2, nuclear magnetic moments (NMagM)
  in nuclear magnetons)

  Atom         1           2           3           4           5           6           7           8           9          10
 IAtWgt=          16           1          16           1          12          12           1          12           1          12
 AtmWgt=  15.9949146   1.0078250  15.9949146   1.0078250  12.0000000  12.0000000   1.0078250  12.0000000   1.0078250  12.0000000
 NucSpn=           0           1           0           1           0           0           1           0           1           0
 AtZEff=   0.0000000   0.0000000   0.0000000   0.0000000   0.0000000   0.0000000   0.0000000   0.0000000   0.0000000   0.0000000
 NQMom=    0.0000000   0.0000000   0.0000000   0.0000000   0.0000000   0.0000000   0.0000000   0.0000000   0.0000000   0.0000000
 NMagM=    0.0000000   2.7928460   0.0000000   2.7928460   0.0000000   0.0000000   2.7928460   0.0000000   2.7928460   0.0000000

  Atom        11          12          13          14          15          16          17          18          19          20
 IAtWgt=           1          12           1          12           1           1          12          12           1           1
 AtmWgt=   1.0078250  12.0000000   1.0078250  12.0000000   1.0078250   1.0078250  12.0000000  12.0000000   1.0078250   1.0078250
 NucSpn=           1           0           1           0           1           1           0           0           1           1
 AtZEff=   0.0000000   0.0000000   0.0000000   0.0000000   0.0000000   0.0000000   0.0000000   0.0000000   0.0000000   0.0000000
 NQMom=    0.0000000   0.0000000   0.0000000   0.0000000   0.0000000   0.0000000   0.0000000   0.0000000   0.0000000   0.0000000
 NMagM=    2.7928460   0.0000000   2.7928460   0.0000000   2.7928460   2.7928460   0.0000000   0.0000000   2.7928460   2.7928460

  Atom        21          22          23          24          25          26          27          28          29          30
 IAtWgt=          12           1           1          12           1           1          12           1          12           1
 AtmWgt=  12.0000000   1.0078250   1.0078250  12.0000000   1.0078250   1.0078250  12.0000000   1.0078250  12.0000000   1.0078250
 NucSpn=           0           1           1           0           1           1           0           1           0           1
 AtZEff=   0.0000000   0.0000000   0.0000000   0.0000000   0.0000000   0.0000000   0.0000000   0.0000000   0.0000000   0.0000000
 NQMom=    0.0000000   0.0000000   0.0000000   0.0000000   0.0000000   0.0000000   0.0000000   0.0000000   0.0000000   0.0000000
 NMagM=    0.0000000   2.7928460   2.7928460   0.0000000   2.7928460   2.7928460   0.0000000   2.7928460   0.0000000   2.7928460

  Atom        31          32          33          34          35          36          37          38          39          40
 IAtWgt=          12           1           1           1          12          12           1           1          12           1
 AtmWgt=  12.0000000   1.0078250   1.0078250   1.0078250  12.0000000  12.0000000   1.0078250   1.0078250  12.0000000   1.0078250
 NucSpn=           0           1           1           1           0           0           1           1           0           1
 AtZEff=   0.0000000   0.0000000   0.0000000   0.0000000   0.0000000   0.0000000   0.0000000   0.0000000   0.0000000   0.0000000
 NQMom=    0.0000000   0.0000000   0.0000000   0.0000000   0.0000000   0.0000000   0.0000000   0.0000000   0.0000000   0.0000000
 NMagM=    0.0000000   2.7928460   2.7928460   2.7928460   0.0000000   0.0000000   2.7928460   2.7928460   0.0000000   2.7928460

  Atom        41          42          43          44          45          46          47          48          49          50
 IAtWgt=          12           1           1           1          12           1           1          12           1           1
 AtmWgt=  12.0000000   1.0078250   1.0078250   1.0078250  12.0000000   1.0078250   1.0078250  12.0000000   1.0078250   1.0078250
 NucSpn=           0           1           1           1           0           1           1           0           1           1
 AtZEff=   0.0000000   0.0000000   0.0000000   0.0000000   0.0000000   0.0000000   0.0000000   0.0000000   0.0000000   0.0000000
 NQMom=    0.0000000   0.0000000   0.0000000   0.0000000   0.0000000   0.0000000   0.0000000   0.0000000   0.0000000   0.0000000
 NMagM=    0.0000000   2.7928460   2.7928460   2.7928460   0.0000000   2.7928460   2.7928460   0.0000000   2.7928460   2.7928460

  Atom        51          52          53          54          55          56          57          58          59          60
 IAtWgt=          12           1           1          12           1          12           1           1           1          12
 AtmWgt=  12.0000000   1.0078250   1.0078250  12.0000000   1.0078250  12.0000000   1.0078250   1.0078250   1.0078250  12.0000000
 NucSpn=           0           1           1           0           1           0           1           1           1           0
 AtZEff=   0.0000000   0.0000000   0.0000000   0.0000000   0.0000000   0.0000000   0.0000000   0.0000000   0.0000000   0.0000000
 NQMom=    0.0000000   0.0000000   0.0000000   0.0000000   0.0000000   0.0000000   0.0000000   0.0000000   0.0000000   0.0000000
 NMagM=    0.0000000   2.7928460   2.7928460   0.0000000   2.7928460   0.0000000   2.7928460   2.7928460   2.7928460   0.0000000

  Atom        61          62          63          64          65          66          67          68          69          70
 IAtWgt=           1           1          12           1           1          12           1          12           1           1
 AtmWgt=   1.0078250   1.0078250  12.0000000   1.0078250   1.0078250  12.0000000   1.0078250  12.0000000   1.0078250   1.0078250
 NucSpn=           1           1           0           1           1           0           1           0           1           1
 AtZEff=   0.0000000   0.0000000   0.0000000   0.0000000   0.0000000   0.0000000   0.0000000   0.0000000   0.0000000   0.0000000
 NQMom=    0.0000000   0.0000000   0.0000000   0.0000000   0.0000000   0.0000000   0.0000000   0.0000000   0.0000000   0.0000000
 NMagM=    2.7928460   2.7928460   0.0000000   2.7928460   2.7928460   0.0000000   2.7928460   0.0000000   2.7928460   2.7928460

  Atom        71          72          73          74          75
 IAtWgt=           1          12           1           1           1
 AtmWgt=   1.0078250  12.0000000   1.0078250   1.0078250   1.0078250
 NucSpn=           1           0           1           1           1
 AtZEff=   0.0000000   0.0000000   0.0000000   0.0000000   0.0000000
 NQMom=    0.0000000   0.0000000   0.0000000   0.0000000   0.0000000
 NMagM=    2.7928460   0.0000000   2.7928460   2.7928460   2.7928460
 Leave Link  101 at Wed May 17 13:00:16 2017, MaxMem=   33554432 cpu:       7.0
 (Enter /scratch/michal/g09/l202.exe)
 Symmetry turned off by external request.
 Stoichiometry    C27H46O2
 Framework group  C1[X(C27H46O2)]
 Deg. of freedom   219
 Full point group                 C1      NOp   1
                          Input orientation:                          
 ---------------------------------------------------------------------
 Center     Atomic      Atomic             Coordinates (Angstroms)
 Number     Number       Type             X           Y           Z
 ---------------------------------------------------------------------
      1          8           0        0.000000    0.000000    0.000000
      2          1           0       -0.408436    0.477196   -0.734599
      3          8           0       -4.360279    5.107983    0.000000
      4          1           0       -4.338983    5.722059    0.747414
      5          6           0        3.837509    1.911604    0.736703
      6          6           0        2.543498    1.048002    0.775420
      7          1           0        2.380674    0.713174   -0.258364
      8          6           0        1.269690    1.804861    1.169745
      9          1           0        1.361422    2.152697    2.208666
     10          6           0        1.053488    3.027376    0.240601
     11          1           0        0.810552    2.611994   -0.751671
     12          6           0        4.859492    0.796252    0.321751
     13          1           0        4.577579    0.542693   -0.709464
     14          6           0        3.591586    3.029388   -0.294858
     15          1           0        3.459694    2.575888   -1.287124
     16          1           0        4.453021    3.703698   -0.369180
     17          6           0       -0.190996    3.884454    0.663517
     18          6           0        2.940714   -0.205352    1.574194
     19          1           0        2.311754   -1.063378    1.320859
     20          1           0        2.832688   -0.033524    2.652846
     21          6           0        2.343013    3.864016    0.056783
     22          1           0        2.551822    4.431495    0.969345
     23          1           0        2.187630    4.608818   -0.732247
     24          6           0        4.432698   -0.428210    1.193495
     25          1           0        5.054278   -0.511992    2.090797
     26          1           0        4.575591   -1.359219    0.634147
     27          6           0        0.032234    0.882689    1.146413
     28          1           0        0.097040    0.193594    1.996329
     29          6           0        6.401646    0.996382    0.272714
     30          1           0        6.781635    0.000000    0.000000
     31          6           0        4.168755    2.524317    2.117358
     32          1           0        3.313425    3.050790    2.548837
     33          1           0        4.477849    1.766774    2.842055
     34          1           0        4.982008    3.251246    2.034375
     35          6           0       -1.376634    2.972941    1.007246
     36          6           0       -0.603368    4.792874   -0.536076
     37          1           0       -0.639434    4.171261   -1.441595
     38          1           0        0.176035    5.543100   -0.706999
     39          6           0       -1.253487    1.653191    1.225212
     40          1           0       -2.144553    1.064852    1.442426
     41          6           0        0.118493    4.769317    1.901842
     42          1           0        0.832648    5.561035    1.656491
     43          1           0       -0.782287    5.256048    2.283885
     44          1           0        0.534516    4.174103    2.720247
     45          6           0       -2.740156    3.631681    1.109108
     46          1           0       -3.516338    2.874173    1.255457
     47          1           0       -2.771096    4.289375    1.992456
     48          6           0       -1.959623    5.497701   -0.380950
     49          1           0       -1.926196    6.218186    0.449606
     50          1           0       -2.188954    6.072561   -1.285343
     51          6           0        6.890550    1.973242   -0.824918
     52          1           0        6.533228    2.983691   -0.588381
     53          1           0        7.986828    2.024807   -0.753948
     54          6           0       -3.077414    4.488261   -0.120812
     55          1           0       -3.178781    3.831998   -0.994009
     56          6           0        7.101315    1.354167    1.599814
     57          1           0        6.967919    2.406923    1.865779
     58          1           0        8.179149    1.179711    1.504542
     59          1           0        6.748234    0.749681    2.440345
     60          6           0        6.528111    1.646917   -2.286935
     61          1           0        5.439642    1.646490   -2.413727
     62          1           0        6.901154    2.471529   -2.907652
     63          6           0        7.114858    0.320167   -2.797212
     64          1           0        6.681249   -0.512546   -2.227662
     65          1           0        8.193188    0.306782   -2.579739
     66          6           0        6.920311    0.018489   -4.302432
     67          1           0        7.379097   -0.966666   -4.473248
     68          6           0        7.654573    1.018846   -5.210715
     69          1           0        7.216245    2.021565   -5.148983
     70          1           0        7.600480    0.704090   -6.259180
     71          1           0        8.714142    1.099458   -4.940727
     72          6           0        5.438325   -0.099680   -4.695476
     73          1           0        4.920722    0.862993   -4.612254
     74          1           0        5.335865   -0.436842   -5.733291
     75          1           0        4.911778   -0.819149   -4.057444
 ---------------------------------------------------------------------
 Rotational constants (GHZ):      0.2750577      0.0742499      0.0690401
 Leave Link  202 at Wed May 17 13:00:16 2017, MaxMem=   33554432 cpu:       0.2
 (Enter /scratch/michal/g09/l301.exe)
 Standard basis: 6-31G(d) (6D, 7F)
 Ernie: Thresh=  0.10000D-02 Tol=  0.10000D-05 Strict=F.
 AO basis set in the form of general basis input (Overlap normalization):
      1 0
 S   6 1.00       0.000000000000
      0.5484671660D+04  0.1831074430D-02
      0.8252349460D+03  0.1395017220D-01
      0.1880469580D+03  0.6844507810D-01
      0.5296450000D+02  0.2327143360D+00
      0.1689757040D+02  0.4701928980D+00
      0.5799635340D+01  0.3585208530D+00
 SP   3 1.00       0.000000000000
      0.1553961625D+02 -0.1107775495D+00  0.7087426823D-01
      0.3599933586D+01 -0.1480262627D+00  0.3397528391D+00
      0.1013761750D+01  0.1130767015D+01  0.7271585773D+00
 SP   1 1.00       0.000000000000
      0.2700058226D+00  0.1000000000D+01  0.1000000000D+01
 D   1 1.00       0.000000000000
      0.8000000000D+00  0.1000000000D+01
 ****
      2 0
 S   3 1.00       0.000000000000
      0.1873113696D+02  0.3349460434D-01
      0.2825394365D+01  0.2347269535D+00
      0.6401216923D+00  0.8137573261D+00
 S   1 1.00       0.000000000000
      0.1612777588D+00  0.1000000000D+01
 ****
      3 0
 S   6 1.00       0.000000000000
      0.5484671660D+04  0.1831074430D-02
      0.8252349460D+03  0.1395017220D-01
      0.1880469580D+03  0.6844507810D-01
      0.5296450000D+02  0.2327143360D+00
      0.1689757040D+02  0.4701928980D+00
      0.5799635340D+01  0.3585208530D+00
 SP   3 1.00       0.000000000000
      0.1553961625D+02 -0.1107775495D+00  0.7087426823D-01
      0.3599933586D+01 -0.1480262627D+00  0.3397528391D+00
      0.1013761750D+01  0.1130767015D+01  0.7271585773D+00
 SP   1 1.00       0.000000000000
      0.2700058226D+00  0.1000000000D+01  0.1000000000D+01
 D   1 1.00       0.000000000000
      0.8000000000D+00  0.1000000000D+01
 ****
      4 0
 S   3 1.00       0.000000000000
      0.1873113696D+02  0.3349460434D-01
      0.2825394365D+01  0.2347269535D+00
      0.6401216923D+00  0.8137573261D+00
 S   1 1.00       0.000000000000
      0.1612777588D+00  0.1000000000D+01
 ****
      5 0
 S   6 1.00       0.000000000000
      0.3047524880D+04  0.1834737132D-02
      0.4573695180D+03  0.1403732281D-01
      0.1039486850D+03  0.6884262226D-01
      0.2921015530D+02  0.2321844432D+00
      0.9286662960D+01  0.4679413484D+00
      0.3163926960D+01  0.3623119853D+00
 SP   3 1.00       0.000000000000
      0.7868272350D+01 -0.1193324198D+00  0.6899906659D-01
      0.1881288540D+01 -0.1608541517D+00  0.3164239610D+00
      0.5442492580D+00  0.1143456438D+01  0.7443082909D+00
 SP   1 1.00       0.000000000000
      0.1687144782D+00  0.1000000000D+01  0.1000000000D+01
 D   1 1.00       0.000000000000
      0.8000000000D+00  0.1000000000D+01
 ****
      6 0
 S   6 1.00       0.000000000000
      0.3047524880D+04  0.1834737132D-02
      0.4573695180D+03  0.1403732281D-01
      0.1039486850D+03  0.6884262226D-01
      0.2921015530D+02  0.2321844432D+00
      0.9286662960D+01  0.4679413484D+00
      0.3163926960D+01  0.3623119853D+00
 SP   3 1.00       0.000000000000
      0.7868272350D+01 -0.1193324198D+00  0.6899906659D-01
      0.1881288540D+01 -0.1608541517D+00  0.3164239610D+00
      0.5442492580D+00  0.1143456438D+01  0.7443082909D+00
 SP   1 1.00       0.000000000000
      0.1687144782D+00  0.1000000000D+01  0.1000000000D+01
 D   1 1.00       0.000000000000
      0.8000000000D+00  0.1000000000D+01
 ****
      7 0
 S   3 1.00       0.000000000000
      0.1873113696D+02  0.3349460434D-01
      0.2825394365D+01  0.2347269535D+00
      0.6401216923D+00  0.8137573261D+00
 S   1 1.00       0.000000000000
      0.1612777588D+00  0.1000000000D+01
 ****
      8 0
 S   6 1.00       0.000000000000
      0.3047524880D+04  0.1834737132D-02
      0.4573695180D+03  0.1403732281D-01
      0.1039486850D+03  0.6884262226D-01
      0.2921015530D+02  0.2321844432D+00
      0.9286662960D+01  0.4679413484D+00
      0.3163926960D+01  0.3623119853D+00
 SP   3 1.00       0.000000000000
      0.7868272350D+01 -0.1193324198D+00  0.6899906659D-01
      0.1881288540D+01 -0.1608541517D+00  0.3164239610D+00
      0.5442492580D+00  0.1143456438D+01  0.7443082909D+00
 SP   1 1.00       0.000000000000
      0.1687144782D+00  0.1000000000D+01  0.1000000000D+01
 D   1 1.00       0.000000000000
      0.8000000000D+00  0.1000000000D+01
 ****
      9 0
 S   3 1.00       0.000000000000
      0.1873113696D+02  0.3349460434D-01
      0.2825394365D+01  0.2347269535D+00
      0.6401216923D+00  0.8137573261D+00
 S   1 1.00       0.000000000000
      0.1612777588D+00  0.1000000000D+01
 ****
     10 0
 S   6 1.00       0.000000000000
      0.3047524880D+04  0.1834737132D-02
      0.4573695180D+03  0.1403732281D-01
      0.1039486850D+03  0.6884262226D-01
      0.2921015530D+02  0.2321844432D+00
      0.9286662960D+01  0.4679413484D+00
      0.3163926960D+01  0.3623119853D+00
 SP   3 1.00       0.000000000000
      0.7868272350D+01 -0.1193324198D+00  0.6899906659D-01
      0.1881288540D+01 -0.1608541517D+00  0.3164239610D+00
      0.5442492580D+00  0.1143456438D+01  0.7443082909D+00
 SP   1 1.00       0.000000000000
      0.1687144782D+00  0.1000000000D+01  0.1000000000D+01
 D   1 1.00       0.000000000000
      0.8000000000D+00  0.1000000000D+01
 ****
     11 0
 S   3 1.00       0.000000000000
      0.1873113696D+02  0.3349460434D-01
      0.2825394365D+01  0.2347269535D+00
      0.6401216923D+00  0.8137573261D+00
 S   1 1.00       0.000000000000
      0.1612777588D+00  0.1000000000D+01
 ****
     12 0
 S   6 1.00       0.000000000000
      0.3047524880D+04  0.1834737132D-02
      0.4573695180D+03  0.1403732281D-01
      0.1039486850D+03  0.6884262226D-01
      0.2921015530D+02  0.2321844432D+00
      0.9286662960D+01  0.4679413484D+00
      0.3163926960D+01  0.3623119853D+00
 SP   3 1.00       0.000000000000
      0.7868272350D+01 -0.1193324198D+00  0.6899906659D-01
      0.1881288540D+01 -0.1608541517D+00  0.3164239610D+00
      0.5442492580D+00  0.1143456438D+01  0.7443082909D+00
 SP   1 1.00       0.000000000000
      0.1687144782D+00  0.1000000000D+01  0.1000000000D+01
 D   1 1.00       0.000000000000
      0.8000000000D+00  0.1000000000D+01
 ****
     13 0
 S   3 1.00       0.000000000000
      0.1873113696D+02  0.3349460434D-01
      0.2825394365D+01  0.2347269535D+00
      0.6401216923D+00  0.8137573261D+00
 S   1 1.00       0.000000000000
      0.1612777588D+00  0.1000000000D+01
 ****
     14 0
 S   6 1.00       0.000000000000
      0.3047524880D+04  0.1834737132D-02
      0.4573695180D+03  0.1403732281D-01
      0.1039486850D+03  0.6884262226D-01
      0.2921015530D+02  0.2321844432D+00
      0.9286662960D+01  0.4679413484D+00
      0.3163926960D+01  0.3623119853D+00
 SP   3 1.00       0.000000000000
      0.7868272350D+01 -0.1193324198D+00  0.6899906659D-01
      0.1881288540D+01 -0.1608541517D+00  0.3164239610D+00
      0.5442492580D+00  0.1143456438D+01  0.7443082909D+00
 SP   1 1.00       0.000000000000
      0.1687144782D+00  0.1000000000D+01  0.1000000000D+01
 D   1 1.00       0.000000000000
      0.8000000000D+00  0.1000000000D+01
 ****
     15 0
 S   3 1.00       0.000000000000
      0.1873113696D+02  0.3349460434D-01
      0.2825394365D+01  0.2347269535D+00
      0.6401216923D+00  0.8137573261D+00
 S   1 1.00       0.000000000000
      0.1612777588D+00  0.1000000000D+01
 ****
     16 0
 S   3 1.00       0.000000000000
      0.1873113696D+02  0.3349460434D-01
      0.2825394365D+01  0.2347269535D+00
      0.6401216923D+00  0.8137573261D+00
 S   1 1.00       0.000000000000
      0.1612777588D+00  0.1000000000D+01
 ****
     17 0
 S   6 1.00       0.000000000000
      0.3047524880D+04  0.1834737132D-02
      0.4573695180D+03  0.1403732281D-01
      0.1039486850D+03  0.6884262226D-01
      0.2921015530D+02  0.2321844432D+00
      0.9286662960D+01  0.4679413484D+00
      0.3163926960D+01  0.3623119853D+00
 SP   3 1.00       0.000000000000
      0.7868272350D+01 -0.1193324198D+00  0.6899906659D-01
      0.1881288540D+01 -0.1608541517D+00  0.3164239610D+00
      0.5442492580D+00  0.1143456438D+01  0.7443082909D+00
 SP   1 1.00       0.000000000000
      0.1687144782D+00  0.1000000000D+01  0.1000000000D+01
 D   1 1.00       0.000000000000
      0.8000000000D+00  0.1000000000D+01
 ****
     18 0
 S   6 1.00       0.000000000000
      0.3047524880D+04  0.1834737132D-02
      0.4573695180D+03  0.1403732281D-01
      0.1039486850D+03  0.6884262226D-01
      0.2921015530D+02  0.2321844432D+00
      0.9286662960D+01  0.4679413484D+00
      0.3163926960D+01  0.3623119853D+00
 SP   3 1.00       0.000000000000
      0.7868272350D+01 -0.1193324198D+00  0.6899906659D-01
      0.1881288540D+01 -0.1608541517D+00  0.3164239610D+00
      0.5442492580D+00  0.1143456438D+01  0.7443082909D+00
 SP   1 1.00       0.000000000000
      0.1687144782D+00  0.1000000000D+01  0.1000000000D+01
 D   1 1.00       0.000000000000
      0.8000000000D+00  0.1000000000D+01
 ****
     19 0
 S   3 1.00       0.000000000000
      0.1873113696D+02  0.3349460434D-01
      0.2825394365D+01  0.2347269535D+00
      0.6401216923D+00  0.8137573261D+00
 S   1 1.00       0.000000000000
      0.1612777588D+00  0.1000000000D+01
 ****
     20 0
 S   3 1.00       0.000000000000
      0.1873113696D+02  0.3349460434D-01
      0.2825394365D+01  0.2347269535D+00
      0.6401216923D+00  0.8137573261D+00
 S   1 1.00       0.000000000000
      0.1612777588D+00  0.1000000000D+01
 ****
     21 0
 S   6 1.00       0.000000000000
      0.3047524880D+04  0.1834737132D-02
      0.4573695180D+03  0.1403732281D-01
      0.1039486850D+03  0.6884262226D-01
      0.2921015530D+02  0.2321844432D+00
      0.9286662960D+01  0.4679413484D+00
      0.3163926960D+01  0.3623119853D+00
 SP   3 1.00       0.000000000000
      0.7868272350D+01 -0.1193324198D+00  0.6899906659D-01
      0.1881288540D+01 -0.1608541517D+00  0.3164239610D+00
      0.5442492580D+00  0.1143456438D+01  0.7443082909D+00
 SP   1 1.00       0.000000000000
      0.1687144782D+00  0.1000000000D+01  0.1000000000D+01
 D   1 1.00       0.000000000000
      0.8000000000D+00  0.1000000000D+01
 ****
     22 0
 S   3 1.00       0.000000000000
      0.1873113696D+02  0.3349460434D-01
      0.2825394365D+01  0.2347269535D+00
      0.6401216923D+00  0.8137573261D+00
 S   1 1.00       0.000000000000
      0.1612777588D+00  0.1000000000D+01
 ****
     23 0
 S   3 1.00       0.000000000000
      0.1873113696D+02  0.3349460434D-01
      0.2825394365D+01  0.2347269535D+00
      0.6401216923D+00  0.8137573261D+00
 S   1 1.00       0.000000000000
      0.1612777588D+00  0.1000000000D+01
 ****
     24 0
 S   6 1.00       0.000000000000
      0.3047524880D+04  0.1834737132D-02
      0.4573695180D+03  0.1403732281D-01
      0.1039486850D+03  0.6884262226D-01
      0.2921015530D+02  0.2321844432D+00
      0.9286662960D+01  0.4679413484D+00
      0.3163926960D+01  0.3623119853D+00
 SP   3 1.00       0.000000000000
      0.7868272350D+01 -0.1193324198D+00  0.6899906659D-01
      0.1881288540D+01 -0.1608541517D+00  0.3164239610D+00
      0.5442492580D+00  0.1143456438D+01  0.7443082909D+00
 SP   1 1.00       0.000000000000
      0.1687144782D+00  0.1000000000D+01  0.1000000000D+01
 D   1 1.00       0.000000000000
      0.8000000000D+00  0.1000000000D+01
 ****
     25 0
 S   3 1.00       0.000000000000
      0.1873113696D+02  0.3349460434D-01
      0.2825394365D+01  0.2347269535D+00
      0.6401216923D+00  0.8137573261D+00
 S   1 1.00       0.000000000000
      0.1612777588D+00  0.1000000000D+01
 ****
     26 0
 S   3 1.00       0.000000000000
      0.1873113696D+02  0.3349460434D-01
      0.2825394365D+01  0.2347269535D+00
      0.6401216923D+00  0.8137573261D+00
 S   1 1.00       0.000000000000
      0.1612777588D+00  0.1000000000D+01
 ****
     27 0
 S   6 1.00       0.000000000000
      0.3047524880D+04  0.1834737132D-02
      0.4573695180D+03  0.1403732281D-01
      0.1039486850D+03  0.6884262226D-01
      0.2921015530D+02  0.2321844432D+00
      0.9286662960D+01  0.4679413484D+00
      0.3163926960D+01  0.3623119853D+00
 SP   3 1.00       0.000000000000
      0.7868272350D+01 -0.1193324198D+00  0.6899906659D-01
      0.1881288540D+01 -0.1608541517D+00  0.3164239610D+00
      0.5442492580D+00  0.1143456438D+01  0.7443082909D+00
 SP   1 1.00       0.000000000000
      0.1687144782D+00  0.1000000000D+01  0.1000000000D+01
 D   1 1.00       0.000000000000
      0.8000000000D+00  0.1000000000D+01
 ****
     28 0
 S   3 1.00       0.000000000000
      0.1873113696D+02  0.3349460434D-01
      0.2825394365D+01  0.2347269535D+00
      0.6401216923D+00  0.8137573261D+00
 S   1 1.00       0.000000000000
      0.1612777588D+00  0.1000000000D+01
 ****
     29 0
 S   6 1.00       0.000000000000
      0.3047524880D+04  0.1834737132D-02
      0.4573695180D+03  0.1403732281D-01
      0.1039486850D+03  0.6884262226D-01
      0.2921015530D+02  0.2321844432D+00
      0.9286662960D+01  0.4679413484D+00
      0.3163926960D+01  0.3623119853D+00
 SP   3 1.00       0.000000000000
      0.7868272350D+01 -0.1193324198D+00  0.6899906659D-01
      0.1881288540D+01 -0.1608541517D+00  0.3164239610D+00
      0.5442492580D+00  0.1143456438D+01  0.7443082909D+00
 SP   1 1.00       0.000000000000
      0.1687144782D+00  0.1000000000D+01  0.1000000000D+01
 D   1 1.00       0.000000000000
      0.8000000000D+00  0.1000000000D+01
 ****
     30 0
 S   3 1.00       0.000000000000
      0.1873113696D+02  0.3349460434D-01
      0.2825394365D+01  0.2347269535D+00
      0.6401216923D+00  0.8137573261D+00
 S   1 1.00       0.000000000000
      0.1612777588D+00  0.1000000000D+01
 ****
     31 0
 S   6 1.00       0.000000000000
      0.3047524880D+04  0.1834737132D-02
      0.4573695180D+03  0.1403732281D-01
      0.1039486850D+03  0.6884262226D-01
      0.2921015530D+02  0.2321844432D+00
      0.9286662960D+01  0.4679413484D+00
      0.3163926960D+01  0.3623119853D+00
 SP   3 1.00       0.000000000000
      0.7868272350D+01 -0.1193324198D+00  0.6899906659D-01
      0.1881288540D+01 -0.1608541517D+00  0.3164239610D+00
      0.5442492580D+00  0.1143456438D+01  0.7443082909D+00
 SP   1 1.00       0.000000000000
      0.1687144782D+00  0.1000000000D+01  0.1000000000D+01
 D   1 1.00       0.000000000000
      0.8000000000D+00  0.1000000000D+01
 ****
     32 0
 S   3 1.00       0.000000000000
      0.1873113696D+02  0.3349460434D-01
      0.2825394365D+01  0.2347269535D+00
      0.6401216923D+00  0.8137573261D+00
 S   1 1.00       0.000000000000
      0.1612777588D+00  0.1000000000D+01
 ****
     33 0
 S   3 1.00       0.000000000000
      0.1873113696D+02  0.3349460434D-01
      0.2825394365D+01  0.2347269535D+00
      0.6401216923D+00  0.8137573261D+00
 S   1 1.00       0.000000000000
      0.1612777588D+00  0.1000000000D+01
 ****
     34 0
 S   3 1.00       0.000000000000
      0.1873113696D+02  0.3349460434D-01
      0.2825394365D+01  0.2347269535D+00
      0.6401216923D+00  0.8137573261D+00
 S   1 1.00       0.000000000000
      0.1612777588D+00  0.1000000000D+01
 ****
     35 0
 S   6 1.00       0.000000000000
      0.3047524880D+04  0.1834737132D-02
      0.4573695180D+03  0.1403732281D-01
      0.1039486850D+03  0.6884262226D-01
      0.2921015530D+02  0.2321844432D+00
      0.9286662960D+01  0.4679413484D+00
      0.3163926960D+01  0.3623119853D+00
 SP   3 1.00       0.000000000000
      0.7868272350D+01 -0.1193324198D+00  0.6899906659D-01
      0.1881288540D+01 -0.1608541517D+00  0.3164239610D+00
      0.5442492580D+00  0.1143456438D+01  0.7443082909D+00
 SP   1 1.00       0.000000000000
      0.1687144782D+00  0.1000000000D+01  0.1000000000D+01
 D   1 1.00       0.000000000000
      0.8000000000D+00  0.1000000000D+01
 ****
     36 0
 S   6 1.00       0.000000000000
      0.3047524880D+04  0.1834737132D-02
      0.4573695180D+03  0.1403732281D-01
      0.1039486850D+03  0.6884262226D-01
      0.2921015530D+02  0.2321844432D+00
      0.9286662960D+01  0.4679413484D+00
      0.3163926960D+01  0.3623119853D+00
 SP   3 1.00       0.000000000000
      0.7868272350D+01 -0.1193324198D+00  0.6899906659D-01
      0.1881288540D+01 -0.1608541517D+00  0.3164239610D+00
      0.5442492580D+00  0.1143456438D+01  0.7443082909D+00
 SP   1 1.00       0.000000000000
      0.1687144782D+00  0.1000000000D+01  0.1000000000D+01
 D   1 1.00       0.000000000000
      0.8000000000D+00  0.1000000000D+01
 ****
     37 0
 S   3 1.00       0.000000000000
      0.1873113696D+02  0.3349460434D-01
      0.2825394365D+01  0.2347269535D+00
      0.6401216923D+00  0.8137573261D+00
 S   1 1.00       0.000000000000
      0.1612777588D+00  0.1000000000D+01
 ****
     38 0
 S   3 1.00       0.000000000000
      0.1873113696D+02  0.3349460434D-01
      0.2825394365D+01  0.2347269535D+00
      0.6401216923D+00  0.8137573261D+00
 S   1 1.00       0.000000000000
      0.1612777588D+00  0.1000000000D+01
 ****
     39 0
 S   6 1.00       0.000000000000
      0.3047524880D+04  0.1834737132D-02
      0.4573695180D+03  0.1403732281D-01
      0.1039486850D+03  0.6884262226D-01
      0.2921015530D+02  0.2321844432D+00
      0.9286662960D+01  0.4679413484D+00
      0.3163926960D+01  0.3623119853D+00
 SP   3 1.00       0.000000000000
      0.7868272350D+01 -0.1193324198D+00  0.6899906659D-01
      0.1881288540D+01 -0.1608541517D+00  0.3164239610D+00
      0.5442492580D+00  0.1143456438D+01  0.7443082909D+00
 SP   1 1.00       0.000000000000
      0.1687144782D+00  0.1000000000D+01  0.1000000000D+01
 D   1 1.00       0.000000000000
      0.8000000000D+00  0.1000000000D+01
 ****
     40 0
 S   3 1.00       0.000000000000
      0.1873113696D+02  0.3349460434D-01
      0.2825394365D+01  0.2347269535D+00
      0.6401216923D+00  0.8137573261D+00
 S   1 1.00       0.000000000000
      0.1612777588D+00  0.1000000000D+01
 ****
     41 0
 S   6 1.00       0.000000000000
      0.3047524880D+04  0.1834737132D-02
      0.4573695180D+03  0.1403732281D-01
      0.1039486850D+03  0.6884262226D-01
      0.2921015530D+02  0.2321844432D+00
      0.9286662960D+01  0.4679413484D+00
      0.3163926960D+01  0.3623119853D+00
 SP   3 1.00       0.000000000000
      0.7868272350D+01 -0.1193324198D+00  0.6899906659D-01
      0.1881288540D+01 -0.1608541517D+00  0.3164239610D+00
      0.5442492580D+00  0.1143456438D+01  0.7443082909D+00
 SP   1 1.00       0.000000000000
      0.1687144782D+00  0.1000000000D+01  0.1000000000D+01
 D   1 1.00       0.000000000000
      0.8000000000D+00  0.1000000000D+01
 ****
     42 0
 S   3 1.00       0.000000000000
      0.1873113696D+02  0.3349460434D-01
      0.2825394365D+01  0.2347269535D+00
      0.6401216923D+00  0.8137573261D+00
 S   1 1.00       0.000000000000
      0.1612777588D+00  0.1000000000D+01
 ****
     43 0
 S   3 1.00       0.000000000000
      0.1873113696D+02  0.3349460434D-01
      0.2825394365D+01  0.2347269535D+00
      0.6401216923D+00  0.8137573261D+00
 S   1 1.00       0.000000000000
      0.1612777588D+00  0.1000000000D+01
 ****
     44 0
 S   3 1.00       0.000000000000
      0.1873113696D+02  0.3349460434D-01
      0.2825394365D+01  0.2347269535D+00
      0.6401216923D+00  0.8137573261D+00
 S   1 1.00       0.000000000000
      0.1612777588D+00  0.1000000000D+01
 ****
     45 0
 S   6 1.00       0.000000000000
      0.3047524880D+04  0.1834737132D-02
      0.4573695180D+03  0.1403732281D-01
      0.1039486850D+03  0.6884262226D-01
      0.2921015530D+02  0.2321844432D+00
      0.9286662960D+01  0.4679413484D+00
      0.3163926960D+01  0.3623119853D+00
 SP   3 1.00       0.000000000000
      0.7868272350D+01 -0.1193324198D+00  0.6899906659D-01
      0.1881288540D+01 -0.1608541517D+00  0.3164239610D+00
      0.5442492580D+00  0.1143456438D+01  0.7443082909D+00
 SP   1 1.00       0.000000000000
      0.1687144782D+00  0.1000000000D+01  0.1000000000D+01
 D   1 1.00       0.000000000000
      0.8000000000D+00  0.1000000000D+01
 ****
     46 0
 S   3 1.00       0.000000000000
      0.1873113696D+02  0.3349460434D-01
      0.2825394365D+01  0.2347269535D+00
      0.6401216923D+00  0.8137573261D+00
 S   1 1.00       0.000000000000
      0.1612777588D+00  0.1000000000D+01
 ****
     47 0
 S   3 1.00       0.000000000000
      0.1873113696D+02  0.3349460434D-01
      0.2825394365D+01  0.2347269535D+00
      0.6401216923D+00  0.8137573261D+00
 S   1 1.00       0.000000000000
      0.1612777588D+00  0.1000000000D+01
 ****
     48 0
 S   6 1.00       0.000000000000
      0.3047524880D+04  0.1834737132D-02
      0.4573695180D+03  0.1403732281D-01
      0.1039486850D+03  0.6884262226D-01
      0.2921015530D+02  0.2321844432D+00
      0.9286662960D+01  0.4679413484D+00
      0.3163926960D+01  0.3623119853D+00
 SP   3 1.00       0.000000000000
      0.7868272350D+01 -0.1193324198D+00  0.6899906659D-01
      0.1881288540D+01 -0.1608541517D+00  0.3164239610D+00
      0.5442492580D+00  0.1143456438D+01  0.7443082909D+00
 SP   1 1.00       0.000000000000
      0.1687144782D+00  0.1000000000D+01  0.1000000000D+01
 D   1 1.00       0.000000000000
      0.8000000000D+00  0.1000000000D+01
 ****
     49 0
 S   3 1.00       0.000000000000
      0.1873113696D+02  0.3349460434D-01
      0.2825394365D+01  0.2347269535D+00
      0.6401216923D+00  0.8137573261D+00
 S   1 1.00       0.000000000000
      0.1612777588D+00  0.1000000000D+01
 ****
     50 0
 S   3 1.00       0.000000000000
      0.1873113696D+02  0.3349460434D-01
      0.2825394365D+01  0.2347269535D+00
      0.6401216923D+00  0.8137573261D+00
 S   1 1.00       0.000000000000
      0.1612777588D+00  0.1000000000D+01
 ****
     51 0
 S   6 1.00       0.000000000000
      0.3047524880D+04  0.1834737132D-02
      0.4573695180D+03  0.1403732281D-01
      0.1039486850D+03  0.6884262226D-01
      0.2921015530D+02  0.2321844432D+00
      0.9286662960D+01  0.4679413484D+00
      0.3163926960D+01  0.3623119853D+00
 SP   3 1.00       0.000000000000
      0.7868272350D+01 -0.1193324198D+00  0.6899906659D-01
      0.1881288540D+01 -0.1608541517D+00  0.3164239610D+00
      0.5442492580D+00  0.1143456438D+01  0.7443082909D+00
 SP   1 1.00       0.000000000000
      0.1687144782D+00  0.1000000000D+01  0.1000000000D+01
 D   1 1.00       0.000000000000
      0.8000000000D+00  0.1000000000D+01
 ****
     52 0
 S   3 1.00       0.000000000000
      0.1873113696D+02  0.3349460434D-01
      0.2825394365D+01  0.2347269535D+00
      0.6401216923D+00  0.8137573261D+00
 S   1 1.00       0.000000000000
      0.1612777588D+00  0.1000000000D+01
 ****
     53 0
 S   3 1.00       0.000000000000
      0.1873113696D+02  0.3349460434D-01
      0.2825394365D+01  0.2347269535D+00
      0.6401216923D+00  0.8137573261D+00
 S   1 1.00       0.000000000000
      0.1612777588D+00  0.1000000000D+01
 ****
     54 0
 S   6 1.00       0.000000000000
      0.3047524880D+04  0.1834737132D-02
      0.4573695180D+03  0.1403732281D-01
      0.1039486850D+03  0.6884262226D-01
      0.2921015530D+02  0.2321844432D+00
      0.9286662960D+01  0.4679413484D+00
      0.3163926960D+01  0.3623119853D+00
 SP   3 1.00       0.000000000000
      0.7868272350D+01 -0.1193324198D+00  0.6899906659D-01
      0.1881288540D+01 -0.1608541517D+00  0.3164239610D+00
      0.5442492580D+00  0.1143456438D+01  0.7443082909D+00
 SP   1 1.00       0.000000000000
      0.1687144782D+00  0.1000000000D+01  0.1000000000D+01
 D   1 1.00       0.000000000000
      0.8000000000D+00  0.1000000000D+01
 ****
     55 0
 S   3 1.00       0.000000000000
      0.1873113696D+02  0.3349460434D-01
      0.2825394365D+01  0.2347269535D+00
      0.6401216923D+00  0.8137573261D+00
 S   1 1.00       0.000000000000
      0.1612777588D+00  0.1000000000D+01
 ****
     56 0
 S   6 1.00       0.000000000000
      0.3047524880D+04  0.1834737132D-02
      0.4573695180D+03  0.1403732281D-01
      0.1039486850D+03  0.6884262226D-01
      0.2921015530D+02  0.2321844432D+00
      0.9286662960D+01  0.4679413484D+00
      0.3163926960D+01  0.3623119853D+00
 SP   3 1.00       0.000000000000
      0.7868272350D+01 -0.1193324198D+00  0.6899906659D-01
      0.1881288540D+01 -0.1608541517D+00  0.3164239610D+00
      0.5442492580D+00  0.1143456438D+01  0.7443082909D+00
 SP   1 1.00       0.000000000000
      0.1687144782D+00  0.1000000000D+01  0.1000000000D+01
 D   1 1.00       0.000000000000
      0.8000000000D+00  0.1000000000D+01
 ****
     57 0
 S   3 1.00       0.000000000000
      0.1873113696D+02  0.3349460434D-01
      0.2825394365D+01  0.2347269535D+00
      0.6401216923D+00  0.8137573261D+00
 S   1 1.00       0.000000000000
      0.1612777588D+00  0.1000000000D+01
 ****
     58 0
 S   3 1.00       0.000000000000
      0.1873113696D+02  0.3349460434D-01
      0.2825394365D+01  0.2347269535D+00
      0.6401216923D+00  0.8137573261D+00
 S   1 1.00       0.000000000000
      0.1612777588D+00  0.1000000000D+01
 ****
     59 0
 S   3 1.00       0.000000000000
      0.1873113696D+02  0.3349460434D-01
      0.2825394365D+01  0.2347269535D+00
      0.6401216923D+00  0.8137573261D+00
 S   1 1.00       0.000000000000
      0.1612777588D+00  0.1000000000D+01
 ****
     60 0
 S   6 1.00       0.000000000000
      0.3047524880D+04  0.1834737132D-02
      0.4573695180D+03  0.1403732281D-01
      0.1039486850D+03  0.6884262226D-01
      0.2921015530D+02  0.2321844432D+00
      0.9286662960D+01  0.4679413484D+00
      0.3163926960D+01  0.3623119853D+00
 SP   3 1.00       0.000000000000
      0.7868272350D+01 -0.1193324198D+00  0.6899906659D-01
      0.1881288540D+01 -0.1608541517D+00  0.3164239610D+00
      0.5442492580D+00  0.1143456438D+01  0.7443082909D+00
 SP   1 1.00       0.000000000000
      0.1687144782D+00  0.1000000000D+01  0.1000000000D+01
 D   1 1.00       0.000000000000
      0.8000000000D+00  0.1000000000D+01
 ****
     61 0
 S   3 1.00       0.000000000000
      0.1873113696D+02  0.3349460434D-01
      0.2825394365D+01  0.2347269535D+00
      0.6401216923D+00  0.8137573261D+00
 S   1 1.00       0.000000000000
      0.1612777588D+00  0.1000000000D+01
 ****
     62 0
 S   3 1.00       0.000000000000
      0.1873113696D+02  0.3349460434D-01
      0.2825394365D+01  0.2347269535D+00
      0.6401216923D+00  0.8137573261D+00
 S   1 1.00       0.000000000000
      0.1612777588D+00  0.1000000000D+01
 ****
     63 0
 S   6 1.00       0.000000000000
      0.3047524880D+04  0.1834737132D-02
      0.4573695180D+03  0.1403732281D-01
      0.1039486850D+03  0.6884262226D-01
      0.2921015530D+02  0.2321844432D+00
      0.9286662960D+01  0.4679413484D+00
      0.3163926960D+01  0.3623119853D+00
 SP   3 1.00       0.000000000000
      0.7868272350D+01 -0.1193324198D+00  0.6899906659D-01
      0.1881288540D+01 -0.1608541517D+00  0.3164239610D+00
      0.5442492580D+00  0.1143456438D+01  0.7443082909D+00
 SP   1 1.00       0.000000000000
      0.1687144782D+00  0.1000000000D+01  0.1000000000D+01
 D   1 1.00       0.000000000000
      0.8000000000D+00  0.1000000000D+01
 ****
     64 0
 S   3 1.00       0.000000000000
      0.1873113696D+02  0.3349460434D-01
      0.2825394365D+01  0.2347269535D+00
      0.6401216923D+00  0.8137573261D+00
 S   1 1.00       0.000000000000
      0.1612777588D+00  0.1000000000D+01
 ****
     65 0
 S   3 1.00       0.000000000000
      0.1873113696D+02  0.3349460434D-01
      0.2825394365D+01  0.2347269535D+00
      0.6401216923D+00  0.8137573261D+00
 S   1 1.00       0.000000000000
      0.1612777588D+00  0.1000000000D+01
 ****
     66 0
 S   6 1.00       0.000000000000
      0.3047524880D+04  0.1834737132D-02
      0.4573695180D+03  0.1403732281D-01
      0.1039486850D+03  0.6884262226D-01
      0.2921015530D+02  0.2321844432D+00
      0.9286662960D+01  0.4679413484D+00
      0.3163926960D+01  0.3623119853D+00
 SP   3 1.00       0.000000000000
      0.7868272350D+01 -0.1193324198D+00  0.6899906659D-01
      0.1881288540D+01 -0.1608541517D+00  0.3164239610D+00
      0.5442492580D+00  0.1143456438D+01  0.7443082909D+00
 SP   1 1.00       0.000000000000
      0.1687144782D+00  0.1000000000D+01  0.1000000000D+01
 D   1 1.00       0.000000000000
      0.8000000000D+00  0.1000000000D+01
 ****
     67 0
 S   3 1.00       0.000000000000
      0.1873113696D+02  0.3349460434D-01
      0.2825394365D+01  0.2347269535D+00
      0.6401216923D+00  0.8137573261D+00
 S   1 1.00       0.000000000000
      0.1612777588D+00  0.1000000000D+01
 ****
     68 0
 S   6 1.00       0.000000000000
      0.3047524880D+04  0.1834737132D-02
      0.4573695180D+03  0.1403732281D-01
      0.1039486850D+03  0.6884262226D-01
      0.2921015530D+02  0.2321844432D+00
      0.9286662960D+01  0.4679413484D+00
      0.3163926960D+01  0.3623119853D+00
 SP   3 1.00       0.000000000000
      0.7868272350D+01 -0.1193324198D+00  0.6899906659D-01
      0.1881288540D+01 -0.1608541517D+00  0.3164239610D+00
      0.5442492580D+00  0.1143456438D+01  0.7443082909D+00
 SP   1 1.00       0.000000000000
      0.1687144782D+00  0.1000000000D+01  0.1000000000D+01
 D   1 1.00       0.000000000000
      0.8000000000D+00  0.1000000000D+01
 ****
     69 0
 S   3 1.00       0.000000000000
      0.1873113696D+02  0.3349460434D-01
      0.2825394365D+01  0.2347269535D+00
      0.6401216923D+00  0.8137573261D+00
 S   1 1.00       0.000000000000
      0.1612777588D+00  0.1000000000D+01
 ****
     70 0
 S   3 1.00       0.000000000000
      0.1873113696D+02  0.3349460434D-01
      0.2825394365D+01  0.2347269535D+00
      0.6401216923D+00  0.8137573261D+00
 S   1 1.00       0.000000000000
      0.1612777588D+00  0.1000000000D+01
 ****
     71 0
 S   3 1.00       0.000000000000
      0.1873113696D+02  0.3349460434D-01
      0.2825394365D+01  0.2347269535D+00
      0.6401216923D+00  0.8137573261D+00
 S   1 1.00       0.000000000000
      0.1612777588D+00  0.1000000000D+01
 ****
     72 0
 S   6 1.00       0.000000000000
      0.3047524880D+04  0.1834737132D-02
      0.4573695180D+03  0.1403732281D-01
      0.1039486850D+03  0.6884262226D-01
      0.2921015530D+02  0.2321844432D+00
      0.9286662960D+01  0.4679413484D+00
      0.3163926960D+01  0.3623119853D+00
 SP   3 1.00       0.000000000000
      0.7868272350D+01 -0.1193324198D+00  0.6899906659D-01
      0.1881288540D+01 -0.1608541517D+00  0.3164239610D+00
      0.5442492580D+00  0.1143456438D+01  0.7443082909D+00
 SP   1 1.00       0.000000000000
      0.1687144782D+00  0.1000000000D+01  0.1000000000D+01
 D   1 1.00       0.000000000000
      0.8000000000D+00  0.1000000000D+01
 ****
     73 0
 S   3 1.00       0.000000000000
      0.1873113696D+02  0.3349460434D-01
      0.2825394365D+01  0.2347269535D+00
      0.6401216923D+00  0.8137573261D+00
 S   1 1.00       0.000000000000
      0.1612777588D+00  0.1000000000D+01
 ****
     74 0
 S   3 1.00       0.000000000000
      0.1873113696D+02  0.3349460434D-01
      0.2825394365D+01  0.2347269535D+00
      0.6401216923D+00  0.8137573261D+00
 S   1 1.00       0.000000000000
      0.1612777588D+00  0.1000000000D+01
 ****
     75 0
 S   3 1.00       0.000000000000
      0.1873113696D+02  0.3349460434D-01
      0.2825394365D+01  0.2347269535D+00
      0.6401216923D+00  0.8137573261D+00
 S   1 1.00       0.000000000000
      0.1612777588D+00  0.1000000000D+01
 ****

 AO basis set (Overlap normalization):
 Atom O1       Shell     1 S   6     bf    1 -     1          0.000000000000          0.000000000000          0.000000000000
      0.5484671660D+04  0.1831074430D-02
      0.8252349460D+03  0.1395017220D-01
      0.1880469580D+03  0.6844507810D-01
      0.5296450000D+02  0.2327143360D+00
      0.1689757040D+02  0.4701928980D+00
      0.5799635340D+01  0.3585208530D+00
 Atom O1       Shell     2 SP   3    bf    2 -     5          0.000000000000          0.000000000000          0.000000000000
      0.1553961625D+02 -0.1107775495D+00  0.7087426823D-01
      0.3599933586D+01 -0.1480262627D+00  0.3397528391D+00
      0.1013761750D+01  0.1130767015D+01  0.7271585773D+00
 Atom O1       Shell     3 SP   1    bf    6 -     9          0.000000000000          0.000000000000          0.000000000000
      0.2700058226D+00  0.1000000000D+01  0.1000000000D+01
 Atom O1       Shell     4 D   1     bf   10 -    15          0.000000000000          0.000000000000          0.000000000000
      0.8000000000D+00  0.1000000000D+01
 Atom H2       Shell     5 S   3     bf   16 -    16         -0.771832012736          0.901770394215         -1.388190284985
      0.1873113696D+02  0.3349460434D-01
      0.2825394365D+01  0.2347269535D+00
      0.6401216923D+00  0.8137573261D+00
 Atom H2       Shell     6 S   1     bf   17 -    17         -0.771832012736          0.901770394215         -1.388190284985
      0.1612777588D+00  0.1000000000D+01
 Atom O3       Shell     7 S   6     bf   18 -    18         -8.239734004452          9.652688470107          0.000000000000
      0.5484671660D+04  0.1831074430D-02
      0.8252349460D+03  0.1395017220D-01
      0.1880469580D+03  0.6844507810D-01
      0.5296450000D+02  0.2327143360D+00
      0.1689757040D+02  0.4701928980D+00
      0.5799635340D+01  0.3585208530D+00
 Atom O3       Shell     8 SP   3    bf   19 -    22         -8.239734004452          9.652688470107          0.000000000000
      0.1553961625D+02 -0.1107775495D+00  0.7087426823D-01
      0.3599933586D+01 -0.1480262627D+00  0.3397528391D+00
      0.1013761750D+01  0.1130767015D+01  0.7271585773D+00
 Atom O3       Shell     9 SP   1    bf   23 -    26         -8.239734004452          9.652688470107          0.000000000000
      0.2700058226D+00  0.1000000000D+01  0.1000000000D+01
 Atom O3       Shell    10 D   1     bf   27 -    32         -8.239734004452          9.652688470107          0.000000000000
      0.8000000000D+00  0.1000000000D+01
 Atom H4       Shell    11 S   3     bf   33 -    33         -8.199488960534         10.813124520700          1.412407087583
      0.1873113696D+02  0.3349460434D-01
      0.2825394365D+01  0.2347269535D+00
      0.6401216923D+00  0.8137573261D+00
 Atom H4       Shell    12 S   1     bf   34 -    34         -8.199488960534         10.813124520700          1.412407087583
      0.1612777588D+00  0.1000000000D+01
 Atom C5       Shell    13 S   6     bf   35 -    35          7.251841703888          3.612408015631          1.392167043556
      0.3047524880D+04  0.1834737132D-02
      0.4573695180D+03  0.1403732281D-01
      0.1039486850D+03  0.6884262226D-01
      0.2921015530D+02  0.2321844432D+00
      0.9286662960D+01  0.4679413484D+00
      0.3163926960D+01  0.3623119853D+00
 Atom C5       Shell    14 SP   3    bf   36 -    39          7.251841703888          3.612408015631          1.392167043556
      0.7868272350D+01 -0.1193324198D+00  0.6899906659D-01
      0.1881288540D+01 -0.1608541517D+00  0.3164239610D+00
      0.5442492580D+00  0.1143456438D+01  0.7443082909D+00
 Atom C5       Shell    15 SP   1    bf   40 -    43          7.251841703888          3.612408015631          1.392167043556
      0.1687144782D+00  0.1000000000D+01  0.1000000000D+01
 Atom C5       Shell    16 D   1     bf   44 -    49          7.251841703888          3.612408015631          1.392167043556
      0.8000000000D+00  0.1000000000D+01
 Atom C6       Shell    17 S   6     bf   50 -    50          4.806514110419          1.980436577744          1.465331173401
      0.3047524880D+04  0.1834737132D-02
      0.4573695180D+03  0.1403732281D-01
      0.1039486850D+03  0.6884262226D-01
      0.2921015530D+02  0.2321844432D+00
      0.9286662960D+01  0.4679413484D+00
      0.3163926960D+01  0.3623119853D+00
 Atom C6       Shell    18 SP   3    bf   51 -    54          4.806514110419          1.980436577744          1.465331173401
      0.7868272350D+01 -0.1193324198D+00  0.6899906659D-01
      0.1881288540D+01 -0.1608541517D+00  0.3164239610D+00
      0.5442492580D+00  0.1143456438D+01  0.7443082909D+00
 Atom C6       Shell    19 SP   1    bf   55 -    58          4.806514110419          1.980436577744          1.465331173401
      0.1687144782D+00  0.1000000000D+01  0.1000000000D+01
 Atom C6       Shell    20 D   1     bf   59 -    64          4.806514110419          1.980436577744          1.465331173401
      0.8000000000D+00  0.1000000000D+01
 Atom H7       Shell    21 S   3     bf   65 -    65          4.498822098449          1.347704395471         -0.488237372672
      0.1873113696D+02  0.3349460434D-01
      0.2825394365D+01  0.2347269535D+00
      0.6401216923D+00  0.8137573261D+00
 Atom H7       Shell    22 S   1     bf   66 -    66          4.498822098449          1.347704395471         -0.488237372672
      0.1612777588D+00  0.1000000000D+01
 Atom C8       Shell    23 S   6     bf   67 -    67          2.399365957924          3.410693621536          2.210498432306
      0.3047524880D+04  0.1834737132D-02
      0.4573695180D+03  0.1403732281D-01
      0.1039486850D+03  0.6884262226D-01
      0.2921015530D+02  0.2321844432D+00
      0.9286662960D+01  0.4679413484D+00
      0.3163926960D+01  0.3623119853D+00
 Atom C8       Shell    24 SP   3    bf   68 -    71          2.399365957924          3.410693621536          2.210498432306
      0.7868272350D+01 -0.1193324198D+00  0.6899906659D-01
      0.1881288540D+01 -0.1608541517D+00  0.3164239610D+00
      0.5442492580D+00  0.1143456438D+01  0.7443082909D+00
 Atom C8       Shell    25 SP   1    bf   72 -    75          2.399365957924          3.410693621536          2.210498432306
      0.1687144782D+00  0.1000000000D+01  0.1000000000D+01
 Atom C8       Shell    26 D   1     bf   76 -    81          2.399365957924          3.410693621536          2.210498432306
      0.8000000000D+00  0.1000000000D+01
 Atom H9       Shell    27 S   3     bf   82 -    82          2.572715335998          4.068008173927          4.173774747187
      0.1873113696D+02  0.3349460434D-01
      0.2825394365D+01  0.2347269535D+00
      0.6401216923D+00  0.8137573261D+00
 Atom H9       Shell    28 S   1     bf   83 -    83          2.572715335998          4.068008173927          4.173774747187
      0.1612777588D+00  0.1000000000D+01
 Atom C10      Shell    29 S   6     bf   84 -    84          1.990804163329          5.720911749141          0.454670053990
      0.3047524880D+04  0.1834737132D-02
      0.4573695180D+03  0.1403732281D-01
      0.1039486850D+03  0.6884262226D-01
      0.2921015530D+02  0.2321844432D+00
      0.9286662960D+01  0.4679413484D+00
      0.3163926960D+01  0.3623119853D+00
 Atom C10      Shell    30 SP   3    bf   85 -    88          1.990804163329          5.720911749141          0.454670053990
      0.7868272350D+01 -0.1193324198D+00  0.6899906659D-01
      0.1881288540D+01 -0.1608541517D+00  0.3164239610D+00
      0.5442492580D+00  0.1143456438D+01  0.7443082909D+00
 Atom C10      Shell    31 SP   1    bf   89 -    92          1.990804163329          5.720911749141          0.454670053990
      0.1687144782D+00  0.1000000000D+01  0.1000000000D+01
 Atom C10      Shell    32 D   1     bf   93 -    98          1.990804163329          5.720911749141          0.454670053990
      0.8000000000D+00  0.1000000000D+01
 Atom H11      Shell    33 S   3     bf   99 -    99          1.531720805134          4.935953849864         -1.420452653286
      0.1873113696D+02  0.3349460434D-01
      0.2825394365D+01  0.2347269535D+00
      0.6401216923D+00  0.8137573261D+00
 Atom H11      Shell    34 S   1     bf  100 -   100          1.531720805134          4.935953849864         -1.420452653286
      0.1612777588D+00  0.1000000000D+01
 Atom C12      Shell    35 S   6     bf  101 -   101          9.183108798182          1.504697645845          0.608020895037
      0.3047524880D+04  0.1834737132D-02
      0.4573695180D+03  0.1403732281D-01
      0.1039486850D+03  0.6884262226D-01
      0.2921015530D+02  0.2321844432D+00
      0.9286662960D+01  0.4679413484D+00
      0.3163926960D+01  0.3623119853D+00
 Atom C12      Shell    36 SP   3    bf  102 -   105          9.183108798182          1.504697645845          0.608020895037
      0.7868272350D+01 -0.1193324198D+00  0.6899906659D-01
      0.1881288540D+01 -0.1608541517D+00  0.3164239610D+00
      0.5442492580D+00  0.1143456438D+01  0.7443082909D+00
 Atom C12      Shell    37 SP   1    bf  106 -   109          9.183108798182          1.504697645845          0.608020895037
      0.1687144782D+00  0.1000000000D+01  0.1000000000D+01
 Atom C12      Shell    38 D   1     bf  110 -   115          9.183108798182          1.504697645845          0.608020895037
      0.8000000000D+00  0.1000000000D+01
 Atom H13      Shell    39 S   3     bf  116 -   116          8.650371398642          1.025540350549         -1.340691735176
      0.1873113696D+02  0.3349460434D-01
      0.2825394365D+01  0.2347269535D+00
      0.6401216923D+00  0.8137573261D+00
 Atom H13      Shell    40 S   1     bf  117 -   117          8.650371398642          1.025540350549         -1.340691735176
      0.1612777588D+00  0.1000000000D+01
 Atom C14      Shell    41 S   6     bf  118 -   118          6.787113469172          5.724712952154         -0.557200981474
      0.3047524880D+04  0.1834737132D-02
      0.4573695180D+03  0.1403732281D-01
      0.1039486850D+03  0.6884262226D-01
      0.2921015530D+02  0.2321844432D+00
      0.9286662960D+01  0.4679413484D+00
      0.3163926960D+01  0.3623119853D+00
 Atom C14      Shell    42 SP   3    bf  119 -   122          6.787113469172          5.724712952154         -0.557200981474
      0.7868272350D+01 -0.1193324198D+00  0.6899906659D-01
      0.1881288540D+01 -0.1608541517D+00  0.3164239610D+00
      0.5442492580D+00  0.1143456438D+01  0.7443082909D+00
 Atom C14      Shell    43 SP   1    bf  123 -   126          6.787113469172          5.724712952154         -0.557200981474
      0.1687144782D+00  0.1000000000D+01  0.1000000000D+01
 Atom C14      Shell    44 D   1     bf  127 -   132          6.787113469172          5.724712952154         -0.557200981474
      0.8000000000D+00  0.1000000000D+01
 Atom H15      Shell    45 S   3     bf  133 -   133          6.537874125793          4.867722207582         -2.432312029140
      0.1873113696D+02  0.3349460434D-01
      0.2825394365D+01  0.2347269535D+00
      0.6401216923D+00  0.8137573261D+00
 Atom H15      Shell    46 S   1     bf  134 -   134          6.537874125793          4.867722207582         -2.432312029140
      0.1612777588D+00  0.1000000000D+01
 Atom H16      Shell    47 S   3     bf  135 -   135          8.414990324064          6.998974842225         -0.697649112636
      0.1873113696D+02  0.3349460434D-01
      0.2825394365D+01  0.2347269535D+00
      0.6401216923D+00  0.8137573261D+00
 Atom H16      Shell    48 S   1     bf  136 -   136          8.414990324064          6.998974842225         -0.697649112636
      0.1612777588D+00  0.1000000000D+01
 Atom C17      Shell    49 S   6     bf  137 -   137         -0.360931020648          7.340553366518          1.253866170404
      0.3047524880D+04  0.1834737132D-02
      0.4573695180D+03  0.1403732281D-01
      0.1039486850D+03  0.6884262226D-01
      0.2921015530D+02  0.2321844432D+00
      0.9286662960D+01  0.4679413484D+00
      0.3163926960D+01  0.3623119853D+00
 Atom C17      Shell    50 SP   3    bf  138 -   141         -0.360931020648          7.340553366518          1.253866170404
      0.7868272350D+01 -0.1193324198D+00  0.6899906659D-01
      0.1881288540D+01 -0.1608541517D+00  0.3164239610D+00
      0.5442492580D+00  0.1143456438D+01  0.7443082909D+00
 Atom C17      Shell    51 SP   1    bf  142 -   145         -0.360931020648          7.340553366518          1.253866170404
      0.1687144782D+00  0.1000000000D+01  0.1000000000D+01
 Atom C17      Shell    52 D   1     bf  146 -   151         -0.360931020648          7.340553366518          1.253866170404
      0.8000000000D+00  0.1000000000D+01
 Atom C18      Shell    53 S   6     bf  152 -   152          5.557143528225         -0.388059758936          2.974796088052
      0.3047524880D+04  0.1834737132D-02
      0.4573695180D+03  0.1403732281D-01
      0.1039486850D+03  0.6884262226D-01
      0.2921015530D+02  0.2321844432D+00
      0.9286662960D+01  0.4679413484D+00
      0.3163926960D+01  0.3623119853D+00
 Atom C18      Shell    54 SP   3    bf  153 -   156          5.557143528225         -0.388059758936          2.974796088052
      0.7868272350D+01 -0.1193324198D+00  0.6899906659D-01
      0.1881288540D+01 -0.1608541517D+00  0.3164239610D+00
      0.5442492580D+00  0.1143456438D+01  0.7443082909D+00
 Atom C18      Shell    55 SP   1    bf  157 -   160          5.557143528225         -0.388059758936          2.974796088052
      0.1687144782D+00  0.1000000000D+01  0.1000000000D+01
 Atom C18      Shell    56 D   1     bf  161 -   166          5.557143528225         -0.388059758936          2.974796088052
      0.8000000000D+00  0.1000000000D+01
 Atom H19      Shell    57 S   3     bf  167 -   167          4.368581871014         -2.009493819345          2.496061656774
      0.1873113696D+02  0.3349460434D-01
      0.2825394365D+01  0.2347269535D+00
      0.6401216923D+00  0.8137573261D+00
 Atom H19      Shell    58 S   1     bf  168 -   168          4.368581871014         -2.009493819345          2.496061656774
      0.1612777588D+00  0.1000000000D+01
 Atom H20      Shell    59 S   3     bf  169 -   169          5.353004993446         -0.063350347399          5.013153281995
      0.1873113696D+02  0.3349460434D-01
      0.2825394365D+01  0.2347269535D+00
      0.6401216923D+00  0.8137573261D+00
 Atom H20      Shell    60 S   1     bf  170 -   170          5.353004993446         -0.063350347399          5.013153281995
      0.1612777588D+00  0.1000000000D+01
 Atom C21      Shell    61 S   6     bf  171 -   171          4.427652517846          7.301931824116          0.107304923716
      0.3047524880D+04  0.1834737132D-02
      0.4573695180D+03  0.1403732281D-01
      0.1039486850D+03  0.6884262226D-01
      0.2921015530D+02  0.2321844432D+00
      0.9286662960D+01  0.4679413484D+00
      0.3163926960D+01  0.3623119853D+00
 Atom C21      Shell    62 SP   3    bf  172 -   175          4.427652517846          7.301931824116          0.107304923716
      0.7868272350D+01 -0.1193324198D+00  0.6899906659D-01
      0.1881288540D+01 -0.1608541517D+00  0.3164239610D+00
      0.5442492580D+00  0.1143456438D+01  0.7443082909D+00
 Atom C21      Shell    63 SP   1    bf  176 -   179          4.427652517846          7.301931824116          0.107304923716
      0.1687144782D+00  0.1000000000D+01  0.1000000000D+01
 Atom C21      Shell    64 D   1     bf  180 -   185          4.427652517846          7.301931824116          0.107304923716
      0.8000000000D+00  0.1000000000D+01
 Atom H22      Shell    65 S   3     bf  186 -   186          4.822245286790          8.374311984841          1.831796918433
      0.1873113696D+02  0.3349460434D-01
      0.2825394365D+01  0.2347269535D+00
      0.6401216923D+00  0.8137573261D+00
 Atom H22      Shell    66 S   1     bf  187 -   187          4.822245286790          8.374311984841          1.831796918433
      0.1612777588D+00  0.1000000000D+01
 Atom H23      Shell    67 S   3     bf  188 -   188          4.134022071413          8.709403003732         -1.383747066415
      0.1873113696D+02  0.3349460434D-01
      0.2825394365D+01  0.2347269535D+00
      0.6401216923D+00  0.8137573261D+00
 Atom H23      Shell    68 S   1     bf  189 -   189          4.134022071413          8.709403003732         -1.383747066415
      0.1612777588D+00  0.1000000000D+01
 Atom C24      Shell    69 S   6     bf  190 -   190          8.376585741119         -0.809200175384          2.255379541345
      0.3047524880D+04  0.1834737132D-02
      0.4573695180D+03  0.1403732281D-01
      0.1039486850D+03  0.6884262226D-01
      0.2921015530D+02  0.2321844432D+00
      0.9286662960D+01  0.4679413484D+00
      0.3163926960D+01  0.3623119853D+00
 Atom C24      Shell    70 SP   3    bf  191 -   194          8.376585741119         -0.809200175384          2.255379541345
      0.7868272350D+01 -0.1193324198D+00  0.6899906659D-01
      0.1881288540D+01 -0.1608541517D+00  0.3164239610D+00
      0.5442492580D+00  0.1143456438D+01  0.7443082909D+00
 Atom C24      Shell    71 SP   1    bf  195 -   198          8.376585741119         -0.809200175384          2.255379541345
      0.1687144782D+00  0.1000000000D+01  0.1000000000D+01
 Atom C24      Shell    72 D   1     bf  199 -   204          8.376585741119         -0.809200175384          2.255379541345
      0.8000000000D+00  0.1000000000D+01
 Atom H25      Shell    73 S   3     bf  205 -   205          9.551202126538         -0.967525342530          3.951033691664
      0.1873113696D+02  0.3349460434D-01
      0.2825394365D+01  0.2347269535D+00
      0.6401216923D+00  0.8137573261D+00
 Atom H25      Shell    74 S   1     bf  206 -   206          9.551202126538         -0.967525342530          3.951033691664
      0.1612777588D+00  0.1000000000D+01
 Atom H26      Shell    75 S   3     bf  207 -   207          8.646613262487         -2.568551022108          1.198364781601
      0.1873113696D+02  0.3349460434D-01
      0.2825394365D+01  0.2347269535D+00
      0.6401216923D+00  0.8137573261D+00
 Atom H26      Shell    76 S   1     bf  208 -   208          8.646613262487         -2.568551022108          1.198364781601
      0.1612777588D+00  0.1000000000D+01
 Atom C27      Shell    77 S   6     bf  209 -   209          0.060913923496          1.668040999634          2.166405849289
      0.3047524880D+04  0.1834737132D-02
      0.4573695180D+03  0.1403732281D-01
      0.1039486850D+03  0.6884262226D-01
      0.2921015530D+02  0.2321844432D+00
      0.9286662960D+01  0.4679413484D+00
      0.3163926960D+01  0.3623119853D+00
 Atom C27      Shell    78 SP   3    bf  210 -   213          0.060913923496          1.668040999634          2.166405849289
      0.7868272350D+01 -0.1193324198D+00  0.6899906659D-01
      0.1881288540D+01 -0.1608541517D+00  0.3164239610D+00
      0.5442492580D+00  0.1143456438D+01  0.7443082909D+00
 Atom C27      Shell    79 SP   1    bf  214 -   217          0.060913923496          1.668040999634          2.166405849289
      0.1687144782D+00  0.1000000000D+01  0.1000000000D+01
 Atom C27      Shell    80 D   1     bf  218 -   223          0.060913923496          1.668040999634          2.166405849289
      0.8000000000D+00  0.1000000000D+01
 Atom H28      Shell    81 S   3     bf  224 -   224          0.183379061730          0.365840548038          3.772514684295
      0.1873113696D+02  0.3349460434D-01
      0.2825394365D+01  0.2347269535D+00
      0.6401216923D+00  0.8137573261D+00
 Atom H28      Shell    82 S   1     bf  225 -   225          0.183379061730          0.365840548038          3.772514684295
      0.1612777588D+00  0.1000000000D+01
 Atom C29      Shell    83 S   6     bf  226 -   226         12.097357531813          1.882889727346          0.515353865535
      0.3047524880D+04  0.1834737132D-02
      0.4573695180D+03  0.1403732281D-01
      0.1039486850D+03  0.6884262226D-01
      0.2921015530D+02  0.2321844432D+00
      0.9286662960D+01  0.4679413484D+00
      0.3163926960D+01  0.3623119853D+00
 Atom C29      Shell    84 SP   3    bf  227 -   230         12.097357531813          1.882889727346          0.515353865535
      0.7868272350D+01 -0.1193324198D+00  0.6899906659D-01
      0.1881288540D+01 -0.1608541517D+00  0.3164239610D+00
      0.5442492580D+00  0.1143456438D+01  0.7443082909D+00
 Atom C29      Shell    85 SP   1    bf  231 -   234         12.097357531813          1.882889727346          0.515353865535
      0.1687144782D+00  0.1000000000D+01  0.1000000000D+01
 Atom C29      Shell    86 D   1     bf  235 -   240         12.097357531813          1.882889727346          0.515353865535
      0.8000000000D+00  0.1000000000D+01
 Atom H30      Shell    87 S   3     bf  241 -   241         12.815432221788          0.000000000000          0.000000000000
      0.1873113696D+02  0.3349460434D-01
      0.2825394365D+01  0.2347269535D+00
      0.6401216923D+00  0.8137573261D+00
 Atom H30      Shell    88 S   1     bf  242 -   242         12.815432221788          0.000000000000          0.000000000000
      0.1612777588D+00  0.1000000000D+01
 Atom C31      Shell    89 S   6     bf  243 -   243          7.877804698180          4.770267726998          4.001226386227
      0.3047524880D+04  0.1834737132D-02
      0.4573695180D+03  0.1403732281D-01
      0.1039486850D+03  0.6884262226D-01
      0.2921015530D+02  0.2321844432D+00
      0.9286662960D+01  0.4679413484D+00
      0.3163926960D+01  0.3623119853D+00
 Atom C31      Shell    90 SP   3    bf  244 -   247          7.877804698180          4.770267726998          4.001226386227
      0.7868272350D+01 -0.1193324198D+00  0.6899906659D-01
      0.1881288540D+01 -0.1608541517D+00  0.3164239610D+00
      0.5442492580D+00  0.1143456438D+01  0.7443082909D+00
 Atom C31      Shell    91 SP   1    bf  248 -   251          7.877804698180          4.770267726998          4.001226386227
      0.1687144782D+00  0.1000000000D+01  0.1000000000D+01
 Atom C31      Shell    92 D   1     bf  252 -   257          7.877804698180          4.770267726998          4.001226386227
      0.8000000000D+00  0.1000000000D+01
 Atom H32      Shell    93 S   3     bf  258 -   258          6.261466076418          5.765156719672          4.816604170825
      0.1873113696D+02  0.3349460434D-01
      0.2825394365D+01  0.2347269535D+00
      0.6401216923D+00  0.8137573261D+00
 Atom H32      Shell    94 S   1     bf  259 -   259          6.261466076418          5.765156719672          4.816604170825
      0.1612777588D+00  0.1000000000D+01
 Atom H33      Shell    95 S   3     bf  260 -   260          8.461908690156          3.338718790833          5.370706492770
      0.1873113696D+02  0.3349460434D-01
      0.2825394365D+01  0.2347269535D+00
      0.6401216923D+00  0.8137573261D+00
 Atom H33      Shell    96 S   1     bf  261 -   261          8.461908690156          3.338718790833          5.370706492770
      0.1612777588D+00  0.1000000000D+01
 Atom H34      Shell    97 S   3     bf  262 -   262          9.414630447284          6.143964832996          3.844411941740
      0.1873113696D+02  0.3349460434D-01
      0.2825394365D+01  0.2347269535D+00
      0.6401216923D+00  0.8137573261D+00
 Atom H34      Shell    98 S   1     bf  263 -   263          9.414630447284          6.143964832996          3.844411941740
      0.1612777588D+00  0.1000000000D+01
 Atom C35      Shell    99 S   6     bf  264 -   264         -2.601461415294          5.618043732309          1.903419050650
      0.3047524880D+04  0.1834737132D-02
      0.4573695180D+03  0.1403732281D-01
      0.1039486850D+03  0.6884262226D-01
      0.2921015530D+02  0.2321844432D+00
      0.9286662960D+01  0.4679413484D+00
      0.3163926960D+01  0.3623119853D+00
 Atom C35      Shell   100 SP   3    bf  265 -   268         -2.601461415294          5.618043732309          1.903419050650
      0.7868272350D+01 -0.1193324198D+00  0.6899906659D-01
      0.1881288540D+01 -0.1608541517D+00  0.3164239610D+00
      0.5442492580D+00  0.1143456438D+01  0.7443082909D+00
 Atom C35      Shell   101 SP   1    bf  269 -   272         -2.601461415294          5.618043732309          1.903419050650
      0.1687144782D+00  0.1000000000D+01  0.1000000000D+01
 Atom C35      Shell   102 D   1     bf  273 -   278         -2.601461415294          5.618043732309          1.903419050650
      0.8000000000D+00  0.1000000000D+01
 Atom C36      Shell   103 S   6     bf  279 -   279         -1.140200447422          9.057219041558         -1.013037714584
      0.3047524880D+04  0.1834737132D-02
      0.4573695180D+03  0.1403732281D-01
      0.1039486850D+03  0.6884262226D-01
      0.2921015530D+02  0.2321844432D+00
      0.9286662960D+01  0.4679413484D+00
      0.3163926960D+01  0.3623119853D+00
 Atom C36      Shell   104 SP   3    bf  280 -   283         -1.140200447422          9.057219041558         -1.013037714584
      0.7868272350D+01 -0.1193324198D+00  0.6899906659D-01
      0.1881288540D+01 -0.1608541517D+00  0.3164239610D+00
      0.5442492580D+00  0.1143456438D+01  0.7443082909D+00
 Atom C36      Shell   105 SP   1    bf  284 -   287         -1.140200447422          9.057219041558         -1.013037714584
      0.1687144782D+00  0.1000000000D+01  0.1000000000D+01
 Atom C36      Shell   106 D   1     bf  288 -   293         -1.140200447422          9.057219041558         -1.013037714584
      0.8000000000D+00  0.1000000000D+01
 Atom H37      Shell   107 S   3     bf  294 -   294         -1.208355782562          7.882541599088         -2.724220103585
      0.1873113696D+02  0.3349460434D-01
      0.2825394365D+01  0.2347269535D+00
      0.6401216923D+00  0.8137573261D+00
 Atom H37      Shell   108 S   1     bf  295 -   295         -1.208355782562          7.882541599088         -2.724220103585
      0.1612777588D+00  0.1000000000D+01
 Atom H38      Shell   109 S   3     bf  296 -   296          0.332657656344         10.474940605945         -1.336033881512
      0.1873113696D+02  0.3349460434D-01
      0.2825394365D+01  0.2347269535D+00
      0.6401216923D+00  0.8137573261D+00
 Atom H38      Shell   110 S   1     bf  297 -   297          0.332657656344         10.474940605945         -1.336033881512
      0.1612777588D+00  0.1000000000D+01
 Atom C39      Shell   111 S   6     bf  298 -   298         -2.368746763187          3.124078858961          2.315315153622
      0.3047524880D+04  0.1834737132D-02
      0.4573695180D+03  0.1403732281D-01
      0.1039486850D+03  0.6884262226D-01
      0.2921015530D+02  0.2321844432D+00
      0.9286662960D+01  0.4679413484D+00
      0.3163926960D+01  0.3623119853D+00
 Atom C39      Shell   112 SP   3    bf  299 -   302         -2.368746763187          3.124078858961          2.315315153622
      0.7868272350D+01 -0.1193324198D+00  0.6899906659D-01
      0.1881288540D+01 -0.1608541517D+00  0.3164239610D+00
      0.5442492580D+00  0.1143456438D+01  0.7443082909D+00
 Atom C39      Shell   113 SP   1    bf  303 -   306         -2.368746763187          3.124078858961          2.315315153622
      0.1687144782D+00  0.1000000000D+01  0.1000000000D+01
 Atom C39      Shell   114 D   1     bf  307 -   312         -2.368746763187          3.124078858961          2.315315153622
      0.8000000000D+00  0.1000000000D+01
 Atom H40      Shell   115 S   3     bf  313 -   313         -4.052617923047          2.012279445741          2.725789218782
[...]
 **** Fit       0.000176
 **** Fit      -0.000073
 **** Fit      -0.000991
 **** Fit      -0.000959
 **** Fit      -0.000731
 **** Fit      -0.000245
 **** Fit       0.000490
 **** Fit       0.001348
 **** Fit       0.002102
 **** Fit       0.002554
 **** Fit       0.002664
 **** Fit       0.002549
 **** Fit       0.002371
 **** Fit       0.002241
 **** Fit       0.002189
 **** Fit       0.002181
 **** Fit       0.002156
 **** Fit       0.002064
 **** Fit       0.001901
 **** Fit       0.001696
 **** Fit       0.001496
 **** Fit       0.001334
 **** Fit       0.001157
 **** Fit       0.001191
 **** Fit       0.001219
 **** Fit       0.001207
 **** Fit       0.001120
 **** Fit       0.000938
 **** Fit       0.000668
 **** Fit       0.000352
 **** Fit       0.000040
 **** Fit      -0.000223
 **** Fit      -0.001058
 **** Fit      -0.000983
 **** Fit      -0.000662
 **** Fit      -0.000012
 **** Fit       0.000961
 **** Fit       0.002077
 **** Fit       0.003009
 **** Fit       0.003477
 **** Fit       0.003449
 **** Fit       0.003127
 **** Fit       0.002756
 **** Fit       0.002482
 **** Fit       0.002336
 **** Fit       0.002275
 **** Fit       0.002228
 **** Fit       0.002139
 **** Fit       0.001994
 **** Fit       0.001816
 **** Fit       0.001644
 **** Fit       0.001503
 **** Fit       0.001360
 **** Fit       0.001405
 **** Fit       0.001450
 **** Fit       0.001455
 **** Fit       0.001373
 **** Fit       0.001173
 **** Fit       0.000864
 **** Fit       0.000494
 **** Fit       0.000128
 **** Fit      -0.000180
 **** Fit      -0.001038
 **** Fit      -0.001093
 **** Fit      -0.000979
 **** Fit      -0.000584
 **** Fit       0.000188
 **** Fit       0.001331
 **** Fit       0.002627
 **** Fit       0.003675
 **** Fit       0.004133
 **** Fit       0.003980
 **** Fit       0.003488
 **** Fit       0.002961
 **** Fit       0.002568
 **** Fit       0.002339
 **** Fit       0.002228
 **** Fit       0.002162
 **** Fit       0.002085
 **** Fit       0.001977
 **** Fit       0.001850
 **** Fit       0.001728
 **** Fit       0.001628
 **** Fit       0.001555
 **** Fit       0.001510
 **** Fit       0.001493
 **** Fit       0.001505
 **** Fit       0.001543
 **** Fit       0.001587
 **** Fit       0.001593
 **** Fit       0.001509
 **** Fit       0.001296
 **** Fit       0.000961
 **** Fit       0.000558
 **** Fit       0.000161
 **** Fit      -0.000171
 **** Fit      -0.000409
 **** Fit      -0.001060
 **** Fit      -0.001099
 **** Fit      -0.000964
 **** Fit      -0.000545
 **** Fit       0.000253
 **** Fit       0.001417
 **** Fit       0.002726
 **** Fit       0.003769
 **** Fit       0.004203
 **** Fit       0.004012
 **** Fit       0.003476
 **** Fit       0.002906
 **** Fit       0.002472
 **** Fit       0.002208
 **** Fit       0.002071
 **** Fit       0.001999
 **** Fit       0.001943
 **** Fit       0.001882
 **** Fit       0.001816
 **** Fit       0.001755
 **** Fit       0.001703
 **** Fit       0.001658
 **** Fit       0.001618
 **** Fit       0.001585
 **** Fit       0.001569
 **** Fit       0.001576
 **** Fit       0.001592
 **** Fit       0.001577
 **** Fit       0.001478
 **** Fit       0.001256
 **** Fit       0.000917
 **** Fit       0.000514
 **** Fit       0.000120
 **** Fit      -0.000206
 **** Fit      -0.000437
 **** Fit      -0.001053
 **** Fit      -0.001083
 **** Fit      -0.000951
 **** Fit      -0.000565
 **** Fit       0.000150
 **** Fit       0.001177
 **** Fit       0.002320
 **** Fit       0.003237
 **** Fit       0.003642
 **** Fit       0.003515
 **** Fit       0.003081
 **** Fit       0.002598
 **** Fit       0.002217
 **** Fit       0.001975
 **** Fit       0.001846
 **** Fit       0.001785
 **** Fit       0.001757
 **** Fit       0.001741
 **** Fit       0.001733
 **** Fit       0.001728
 **** Fit       0.001722
 **** Fit       0.001700
 **** Fit       0.001657
 **** Fit       0.001598
 **** Fit       0.001540
 **** Fit       0.001496
 **** Fit       0.001460
 **** Fit       0.001404
 **** Fit       0.001280
 **** Fit       0.001056
 **** Fit       0.000736
 **** Fit       0.000367
 **** Fit       0.000011
 **** Fit      -0.000279
 **** Fit      -0.000481
 **** Fit      -0.001046
 **** Fit      -0.000937
 **** Fit      -0.000624
 **** Fit      -0.000058
 **** Fit       0.000739
 **** Fit       0.001623
 **** Fit       0.002350
 **** Fit       0.002719
 **** Fit       0.002706
 **** Fit       0.002451
 **** Fit       0.002132
 **** Fit       0.001865
 **** Fit       0.001688
 **** Fit       0.001593
 **** Fit       0.001556
 **** Fit       0.001555
 **** Fit       0.001576
 **** Fit       0.001610
 **** Fit       0.001647
 **** Fit       0.001671
 **** Fit       0.001663
 **** Fit       0.001612
 **** Fit       0.001524
 **** Fit       0.001420
 **** Fit       0.001319
 **** Fit       0.001225
 **** Fit       0.001120
 **** Fit       0.000969
 **** Fit       0.000750
 **** Fit       0.000468
 **** Fit       0.000156
 **** Fit      -0.000136
 **** Fit      -0.000370
 **** Fit      -0.000988
 **** Fit      -0.000911
 **** Fit      -0.000682
 **** Fit      -0.000274
 **** Fit       0.000292
 **** Fit       0.000919
 **** Fit       0.001460
 **** Fit       0.001786
 **** Fit       0.001871
 **** Fit       0.001786
 **** Fit       0.001635
 **** Fit       0.001492
 **** Fit       0.001393
 **** Fit       0.001395
 **** Fit       0.001452
 **** Fit       0.001509
 **** Fit       0.001546
 **** Fit       0.001540
 **** Fit       0.001478
 **** Fit       0.001366
 **** Fit       0.001227
 **** Fit       0.001081
 **** Fit       0.000940
 **** Fit       0.000795
 **** Fit       0.000627
 **** Fit       0.000423
 **** Fit       0.000187
 **** Fit      -0.000058
 **** Fit      -0.000278
 **** Fit      -0.000449
 **** Fit      -0.000859
 **** Fit      -0.000703
 **** Fit      -0.000426
 **** Fit      -0.000045
 **** Fit       0.000385
 **** Fit       0.000776
 **** Fit       0.001055
 **** Fit       0.001197
 **** Fit       0.001230
 **** Fit       0.001202
 **** Fit       0.001160
 **** Fit       0.001129
 **** Fit       0.001208
 **** Fit       0.001266
 **** Fit       0.001322
 **** Fit       0.001354
 **** Fit       0.001341
 **** Fit       0.001271
 **** Fit       0.001148
 **** Fit       0.000991
 **** Fit       0.000824
 **** Fit       0.000658
 **** Fit       0.000494
 **** Fit       0.000325
 **** Fit       0.000144
 **** Fit      -0.000045
 **** Fit      -0.000226
 **** Fit      -0.000380
 **** Fit      -0.000676
 **** Fit      -0.000491
 **** Fit      -0.000236
 **** Fit       0.000058
 **** Fit       0.000343
 **** Fit       0.000577
 **** Fit       0.000738
 **** Fit       0.000832
 **** Fit       0.000879
 **** Fit       0.000902
 **** Fit       0.001071
 **** Fit       0.001110
 **** Fit       0.001126
 **** Fit       0.001102
 **** Fit       0.001026
 **** Fit       0.000904
 **** Fit       0.000751
 **** Fit       0.000585
 **** Fit       0.000259
 **** Fit       0.000103
 **** Fit      -0.000049
 **** Fit      -0.000193
 **** Fit      -0.000477
 **** Fit      -0.000301
 **** Fit      -0.000094
 **** Fit       0.000119
 **** Fit       0.000311
 **** Fit       0.000468
 **** Fit       0.000584
 **** Fit       0.000903
 **** Fit       0.000899
 **** Fit       0.000863
 **** Fit       0.000788
 **** Fit       0.000677
 **** Fit       0.000541
 **** Fit       0.000707
 **** Fit       0.000663
 **** Fit       0.000592
 **** Fit       0.000781
 **** Fit      -0.000230
 **** Fit      -0.000038
 **** Fit       0.000189
 **** Fit       0.000421
 **** Fit       0.000628
 **** Fit       0.000790
 **** Fit       0.000904
 **** Fit       0.001057
 **** Fit       0.001064
 **** Fit       0.001044
 **** Fit       0.000993
 **** Fit       0.000916
 **** Fit      -0.000395
 **** Fit      -0.000204
 **** Fit       0.000061
 **** Fit       0.000370
 **** Fit       0.000673
 **** Fit       0.000925
 **** Fit       0.001105
 **** Fit       0.001215
 **** Fit       0.001275
 **** Fit       0.001310
 **** Fit       0.001330
 **** Fit       0.001333
 **** Fit       0.001309
 **** Fit       0.001251
 **** Fit       0.001159
 **** Fit       0.001048
 **** Fit      -0.000545
 **** Fit      -0.000395
 **** Fit      -0.000131
 **** Fit       0.000230
 **** Fit       0.000640
 **** Fit       0.001025
 **** Fit       0.001320
 **** Fit       0.001499
 **** Fit       0.001577
 **** Fit       0.001595
 **** Fit       0.001592
 **** Fit       0.001587
 **** Fit       0.001575
 **** Fit       0.001543
 **** Fit       0.001476
 **** Fit       0.001375
 **** Fit       0.001253
 **** Fit       0.000505
 **** Fit      -0.000569
 **** Fit      -0.000363
 **** Fit      -0.000014
 **** Fit       0.000459
 **** Fit       0.000984
 **** Fit       0.001456
 **** Fit       0.001783
 **** Fit       0.001937
 **** Fit       0.001954
 **** Fit       0.001903
 **** Fit       0.001840
 **** Fit       0.001793
 **** Fit       0.001757
 **** Fit       0.001711
 **** Fit       0.001639
 **** Fit       0.001536
 **** Fit       0.001413
 **** Fit       0.001290
 **** Fit       0.000918
 **** Fit       0.000826
 **** Fit       0.000680
 **** Fit       0.000488
 **** Fit       0.000269
 **** Fit      -0.000683
 **** Fit      -0.000573
 **** Fit      -0.000312
 **** Fit       0.000121
 **** Fit       0.000701
 **** Fit       0.001334
 **** Fit       0.001881
 **** Fit       0.002225
 **** Fit       0.002338
 **** Fit       0.002279
 **** Fit       0.002147
 **** Fit       0.002015
 **** Fit       0.001919
 **** Fit       0.001852
 **** Fit       0.001793
 **** Fit       0.001721
 **** Fit       0.001626
 **** Fit       0.001516
 **** Fit       0.001118
 **** Fit       0.001073
 **** Fit       0.000977
 **** Fit       0.000818
 **** Fit       0.000603
 **** Fit       0.000357
 **** Fit       0.000111
 **** Fit      -0.000701
 **** Fit      -0.000566
 **** Fit      -0.000265
 **** Fit       0.000226
 **** Fit       0.000877
 **** Fit       0.001580
 **** Fit       0.002171
 **** Fit       0.002517
 **** Fit       0.002589
 **** Fit       0.002468
 **** Fit       0.002271
 **** Fit       0.002084
 **** Fit       0.001947
 **** Fit       0.001855
 **** Fit       0.001788
 **** Fit       0.001721
 **** Fit       0.001644
 **** Fit       0.001559
 **** Fit       0.001229
 **** Fit       0.001208
 **** Fit       0.001158
 **** Fit       0.001055
 **** Fit       0.000886
 **** Fit       0.000657
 **** Fit       0.000395
 **** Fit       0.000134
 **** Fit      -0.000705
 **** Fit      -0.000559
 **** Fit      -0.000246
 **** Fit       0.000257
 **** Fit       0.000917
 **** Fit       0.001624
 **** Fit       0.002211
 **** Fit       0.002545
 **** Fit       0.002599
 **** Fit       0.002457
 **** Fit       0.002238
 **** Fit       0.002032
 **** Fit       0.001877
 **** Fit       0.001776
 **** Fit       0.001709
 **** Fit       0.001655
 **** Fit       0.001602
 **** Fit       0.001254
 **** Fit       0.001217
 **** Fit       0.001153
 **** Fit       0.001040
 **** Fit       0.000865
 **** Fit       0.000633
 **** Fit       0.000370
 **** Fit       0.000112
 **** Fit      -0.000700
 **** Fit      -0.000558
 **** Fit      -0.000264
 **** Fit       0.000201
 **** Fit       0.000804
 **** Fit       0.001446
 **** Fit       0.001982
 **** Fit       0.002294
 **** Fit       0.002358
 **** Fit       0.002244
 **** Fit       0.002054
 **** Fit       0.001869
 **** Fit       0.001728
 **** Fit       0.001412
 **** Fit       0.001369
 **** Fit       0.001142
 **** Fit       0.001058
 **** Fit       0.000933
 **** Fit       0.000757
 **** Fit       0.000534
 **** Fit       0.000288
 **** Fit       0.000049
 **** Fit      -0.000560
 **** Fit      -0.000309
 **** Fit       0.000082
 **** Fit       0.000585
 **** Fit       0.001119
 **** Fit       0.001574
 **** Fit       0.001858
 **** Fit       0.001948
 **** Fit       0.001892
 **** Fit       0.001766
 **** Fit       0.001633
 **** Fit       0.001528
 **** Fit       0.001395
 **** Fit       0.001369
 **** Fit       0.001322
 **** Fit       0.001001
 **** Fit       0.000895
 **** Fit       0.000759
 **** Fit       0.000588
 **** Fit       0.000385
 **** Fit       0.000168
 **** Fit      -0.000556
 **** Fit      -0.000358
 **** Fit      -0.000052
 **** Fit       0.000338
 **** Fit       0.000755
 **** Fit       0.001121
 **** Fit       0.001372
 **** Fit       0.001489
 **** Fit       0.001495
 **** Fit       0.001441
 **** Fit       0.001370
 **** Fit       0.001297
 **** Fit       0.001273
 **** Fit       0.001220
 **** Fit       0.001141
 **** Fit       0.000700
 **** Fit       0.000560
 **** Fit       0.000399
 **** Fit       0.000222
 **** Fit      -0.000388
 **** Fit      -0.000161
 **** Fit       0.000128
 **** Fit       0.000441
 **** Fit       0.000728
 **** Fit       0.000946
 **** Fit       0.001077
 **** Fit       0.001132
 **** Fit       0.001138
 **** Fit       0.001160
 **** Fit       0.001134
 **** Fit       0.001077
 **** Fit      -0.000223
 **** Fit      -0.000012
 **** Fit       0.000220
 **** Fit       0.000443
 **** Fit       0.000628
 **** Fit       0.000762
 **** Fit       0.000846
 **** Fit       0.000268
 **** Fit       0.000424
 **** Fit       0.000166
 **** Fit       0.000393
 **** Fit       0.000614
 **** Fit       0.000803
 **** Fit       0.000945
 **** Fit       0.000026
 **** Fit       0.000286
 **** Fit       0.000572
 **** Fit       0.000840
 **** Fit       0.001057
 **** Fit       0.001205
 **** Fit       0.001287
 **** Fit       0.001323
 **** Fit      -0.000148
 **** Fit       0.000108
 **** Fit       0.000429
 **** Fit       0.000775
 **** Fit       0.001089
 **** Fit       0.001328
 **** Fit       0.001471
 **** Fit       0.001530
 **** Fit       0.001534
 **** Fit      -0.000110
 **** Fit       0.000192
 **** Fit       0.000567
 **** Fit       0.000964
 **** Fit       0.001316
 **** Fit       0.001567
 **** Fit       0.001698
 **** Fit       0.001727
 **** Fit       0.001695
 **** Fit       0.001640
 **** Fit      -0.000308
 **** Fit      -0.000079
 **** Fit       0.000252
 **** Fit       0.000661
 **** Fit       0.001089
 **** Fit       0.001461
 **** Fit       0.001715
 **** Fit       0.001833
 **** Fit       0.001837
 **** Fit       0.001776
 **** Fit       0.001694
 **** Fit      -0.000304
 **** Fit      -0.000069
 **** Fit       0.000269
 **** Fit       0.000682
 **** Fit       0.001111
 **** Fit       0.001480
 **** Fit       0.001729
 **** Fit       0.001837
 **** Fit       0.001830
 **** Fit       0.001759
 **** Fit       0.001667
 **** Fit      -0.000083
 **** Fit       0.000235
 **** Fit       0.000621
 **** Fit       0.001021
 **** Fit       0.001366
 **** Fit       0.001601
 **** Fit       0.001707
 **** Fit       0.001708
 **** Fit       0.001646
 **** Fit       0.001564
 **** Fit      -0.000116
 **** Fit       0.000163
 **** Fit       0.000499
 **** Fit       0.000848
 **** Fit       0.001154
 **** Fit       0.001370
 **** Fit       0.001480
 **** Fit       0.001500
 **** Fit       0.001465
 **** Fit       0.000077
 **** Fit       0.000354
 **** Fit       0.000643
 **** Fit       0.000902
 **** Fit       0.001096
 **** Fit       0.001211
 **** Fit       0.001255
 **** Fit       0.001251
 **** Fit       0.000220
 **** Fit       0.000452
 **** Fit       0.000665
 **** Fit       0.000836
 **** Fit       0.000952
 **** Fit       0.001015
 **** Fit       0.000632
 **** Fit       0.000852
 **** Fit       0.001030
 **** Fit       0.001151
 **** Fit       0.000478
 **** Fit       0.000744
 **** Fit       0.000985
 **** Fit       0.001171
 **** Fit       0.001290
 **** Fit       0.001346
 **** Fit       0.000261
 **** Fit       0.000534
 **** Fit       0.000816
 **** Fit       0.001067
 **** Fit       0.001256
 **** Fit       0.001370
 **** Fit       0.001415
 **** Fit       0.000271
 **** Fit       0.000546
 **** Fit       0.000828
 **** Fit       0.001078
 **** Fit       0.001264
 **** Fit       0.001373
 **** Fit       0.001414
 **** Fit       0.000512
 **** Fit       0.000779
 **** Fit       0.001016
 **** Fit       0.001194
 **** Fit       0.001300
 **** Fit       0.001341
 **** Fit       0.000441
 **** Fit       0.000681
 **** Fit       0.000897
 **** Fit       0.001062
 **** Fit       0.001167
 -----------------------------------------------------------------
 Leave Link  602 at Wed May 17 13:01:46 2017, MaxMem=   33554432 cpu:     109.6
 (Enter /scratch/michal/g09/l9999.exe)

 Test job not archived.
 1\1\GINC-RZEPICHA\SP\RHF\6-31G(d)\C27H46O2\MICHAL\17-May-2017\0\\#P HF
 /6-31G* SCF(Conver=6) NoSymm Test Pop=chelpg IOp(6/33=2) GFInput GFPri
 nt\\MEP - Input generated by R.E.D.-III.x MOLECULE\\0,1\O,0,0.,0.,0.\H
 ,0,-0.40843591,0.47719634,-0.73459866\O,0,-4.36027944,5.10798274,0.\H,
 0,-4.33898268,5.72205905,0.74741364\C,0,3.83750935,1.91160399,0.736703
 07\C,0,2.54349772,1.0480019,0.77541986\H,0,2.38067412,0.71317445,-0.25
 836409\C,0,1.26968978,1.80486133,1.16974539\H,0,1.36142232,2.15269721,
 2.20866647\C,0,1.05348819,3.02737611,0.24060103\H,0,0.81055174,2.61199
 428,-0.75167117\C,0,4.85949188,0.7962517,0.3217508\H,0,4.57757939,0.54
 269258,-0.70946351\C,0,3.59158576,3.02938762,-0.29485806\H,0,3.4596939
 8,2.57588765,-1.28712409\H,0,4.45302109,3.70369797,-0.36918001\C,0,-0.
 19099647,3.88445354,0.6635174\C,0,2.9407137,-0.20535238,1.57419429\H,0
 ,2.31175396,-1.06337833,1.32085894\H,0,2.83268824,-0.03352356,2.652846
 46\C,0,2.3430128,3.8640159,0.05678332\H,0,2.5518223,4.43149504,0.96934
 518\H,0,2.18763026,4.60881757,-0.73224741\C,0,4.43269826,-0.42821029,1
 .19349545\H,0,5.05427848,-0.51199236,2.09079698\H,0,4.57559067,-1.3592
 1866,0.63414733\C,0,0.03223426,0.88268928,1.1464126\H,0,0.09704002,0.1
 9359448,1.99632879\C,0,6.40164589,0.99638233,0.27271352\H,0,6.78163465
 ,0.,0.\C,0,4.1687547,2.52431696,2.11735781\H,0,3.31342514,3.05078954,2
 .54883715\H,0,4.47784922,1.76677389,2.84205547\H,0,4.98200786,3.251246
 16,2.03437518\C,0,-1.37663409,2.9729407,1.00724598\C,0,-0.60336809,4.7
 9287389,-0.53607647\H,0,-0.63943434,4.17126136,-1.44159519\H,0,0.17603
 485,5.54309983,-0.70699868\C,0,-1.2534868,1.65319133,1.22521201\H,0,-2
 .14455304,1.06485242,1.44242553\C,0,0.11849293,4.76931747,1.90184168\H
 ,0,0.83264773,5.56103517,1.65649131\H,0,-0.78228684,5.25604775,2.28388
 534\H,0,0.5345157,4.17410305,2.72024735\C,0,-2.74015618,3.63168116,1.1
 0910788\H,0,-3.51633813,2.87417309,1.25545707\H,0,-2.77109573,4.289375
 19,1.99245552\C,0,-1.95962254,5.49770108,-0.38094957\H,0,-1.92619644,6
 .21818578,0.44960555\H,0,-2.1889538,6.07256053,-1.28534264\C,0,6.89054
 983,1.9732422,-0.82491775\H,0,6.53322764,2.98369056,-0.58838129\H,0,7.
 98682776,2.02480742,-0.75394823\C,0,-3.07741362,4.48826118,-0.1208116\
 H,0,-3.17878056,3.8319975,-0.99400913\C,0,7.10131535,1.35416667,1.5998
 1442\H,0,6.96791922,2.40692266,1.86577867\H,0,8.17914886,1.17971077,1.
 50454161\H,0,6.74823399,0.74968122,2.4403451\C,0,6.52811125,1.64691732
 ,-2.28693475\H,0,5.43964244,1.64648982,-2.41372709\H,0,6.90115364,2.47
 152891,-2.90765152\C,0,7.11485798,0.32016716,-2.79721165\H,0,6.6812487
 4,-0.5125459,-2.22766229\H,0,8.19318801,0.30678249,-2.57973946\C,0,6.9
 2031146,0.01848912,-4.30243242\H,0,7.37909691,-0.96666579,-4.47324811\
 C,0,7.65457284,1.01884637,-5.21071532\H,0,7.21624491,2.02156491,-5.148
 9829\H,0,7.60047971,0.70408984,-6.25918007\H,0,8.71414222,1.09945804,-
 4.94072721\C,0,5.4383251,-0.09968044,-4.69547635\H,0,4.92072172,0.8629
 9285,-4.61225374\H,0,5.33586549,-0.43684206,-5.73329114\H,0,4.91177765
 ,-0.81914862,-4.05744375\\Version=EM64L-G09RevC.01\HF=-1198.9191167\RM
 SD=5.135e-07\Dipole=0.3810871,0.8389282,0.3357265\Quadrupole=-8.195155
 2,6.3546783,1.8404769,3.0112599,-4.0455344,4.7739154\PG=C01 [X(C27H46O
 2)]\\@


 QUHEN THE CAUSS IS TAKEN AWAY THE EFFECT WANISHETH.
 -- PROVERBS AND REASONS OF THE YEAR 1585
           AS REPRINTED IN PAISLEY MAGAZINE 1828.
 Job cpu time:  0 days  0 hours 45 minutes 19.1 seconds.
 File lengths (MBytes):  RWF=    151 Int=      0 D2E=      0 Chk=     11 Scr=      1
 Normal termination of Gaussian 09 at Wed May 17 13:01:46 2017.
