 Entering Gaussian System, Link 0=/scratch/michal/g09//g09
 Input=JOB2-gau_m1-5-2.com
 Output=JOB2-gau_m1-5-2.log
 Initial command:
 /scratch/michal/g09/l1.exe /scratch/michal/gauss_scratch/Gau-2959.inp -scrdir=/scratch/michal/gauss_scratch/
 Entering Link 1 = /scratch/michal/g09/l1.exe PID=      2961.
  
 Copyright (c) 1988,1990,1992,1993,1995,1998,2003,2009,2011,
            Gaussian, Inc.  All Rights Reserved.
  
 This is part of the Gaussian(R) 09 program.  It is based on
 the Gaussian(R) 03 system (copyright 2003, Gaussian, Inc.),
 the Gaussian(R) 98 system (copyright 1998, Gaussian, Inc.),
 the Gaussian(R) 94 system (copyright 1995, Gaussian, Inc.),
 the Gaussian 92(TM) system (copyright 1992, Gaussian, Inc.),
 the Gaussian 90(TM) system (copyright 1990, Gaussian, Inc.),
 the Gaussian 88(TM) system (copyright 1988, Gaussian, Inc.),
 the Gaussian 86(TM) system (copyright 1986, Carnegie Mellon
 University), and the Gaussian 82(TM) system (copyright 1983,
 Carnegie Mellon University). Gaussian is a federally registered
 trademark of Gaussian, Inc.
  
 This software contains proprietary and confidential information,
 including trade secrets, belonging to Gaussian, Inc.
  
 This software is provided under written license and may be
 used, copied, transmitted, or stored only in accord with that
 written license.
  
 The following legend is applicable only to US Government
 contracts under FAR:
  
                    RESTRICTED RIGHTS LEGEND
  
 Use, reproduction and disclosure by the US Government is
 subject to restrictions as set forth in subparagraphs (a)
 and (c) of the Commercial Computer Software - Restricted
 Rights clause in FAR 52.227-19.
  
 Gaussian, Inc.
 340 Quinnipiac St., Bldg. 40, Wallingford CT 06492
  
  
 ---------------------------------------------------------------
 Warning -- This program may not be used in any manner that
 competes with the business of Gaussian, Inc. or will provide
 assistance to any competitor of Gaussian, Inc.  The licensee
 of this program is prohibited from giving any competitor of
 Gaussian, Inc. access to this program.  By using this program,
 the user acknowledges that Gaussian, Inc. is engaged in the
 business of creating and licensing software in the field of
 computational chemistry and represents and warrants to the
 licensee that it is not a competitor of Gaussian, Inc. and that
 it will not use this program in any manner prohibited above.
 ---------------------------------------------------------------
  

 Cite this work as:
 Gaussian 09, Revision C.01,
 M. J. Frisch, G. W. Trucks, H. B. Schlegel, G. E. Scuseria, 
 M. A. Robb, J. R. Cheeseman, G. Scalmani, V. Barone, B. Mennucci, 
 G. A. Petersson, H. Nakatsuji, M. Caricato, X. Li, H. P. Hratchian, 
 A. F. Izmaylov, J. Bloino, G. Zheng, J. L. Sonnenberg, M. Hada, 
 M. Ehara, K. Toyota, R. Fukuda, J. Hasegawa, M. Ishida, T. Nakajima, 
 Y. Honda, O. Kitao, H. Nakai, T. Vreven, J. A. Montgomery, Jr., 
 J. E. Peralta, F. Ogliaro, M. Bearpark, J. J. Heyd, E. Brothers, 
 K. N. Kudin, V. N. Staroverov, T. Keith, R. Kobayashi, J. Normand, 
 K. Raghavachari, A. Rendell, J. C. Burant, S. S. Iyengar, J. Tomasi, 
 M. Cossi, N. Rega, J. M. Millam, M. Klene, J. E. Knox, J. B. Cross, 
 V. Bakken, C. Adamo, J. Jaramillo, R. Gomperts, R. E. Stratmann, 
 O. Yazyev, A. J. Austin, R. Cammi, C. Pomelli, J. W. Ochterski, 
 R. L. Martin, K. Morokuma, V. G. Zakrzewski, G. A. Voth, 
 P. Salvador, J. J. Dannenberg, S. Dapprich, A. D. Daniels, 
 O. Farkas, J. B. Foresman, J. V. Ortiz, J. Cioslowski, 
 and D. J. Fox, Gaussian, Inc., Wallingford CT, 2010.
 
 ******************************************
 Gaussian 09:  EM64L-G09RevC.01 23-Sep-2011
                17-May-2017 
 ******************************************
 %Mem=256MB
 %NProc=48
 Will use up to   48 processors via shared memory.
 ----------------------------------------------------------------------
 #P HF/6-31G* SCF(Conver=6) NoSymm Test Pop=chelpg IOp(6/33=2) GFInput 
 GFPrint
 ----------------------------------------------------------------------
 1/38=1/1;
 2/12=2,15=1,17=6,18=5,40=1/2;
 3/5=1,6=6,7=1,11=9,16=1,24=110,25=1,30=1/1,2,3;
 4//1;
 5/5=2,6=6,38=5/2;
 6/7=2,8=2,9=2,10=2,15=8,20=3,28=1,33=2/1,2;
 99/5=1,9=1/99;
 Leave Link    1 at Wed May 17 12:01:25 2017, MaxMem=   33554432 cpu:       6.2
 (Enter /scratch/michal/g09/l101.exe)
 ----------------------------------------------
 MEP - Input generated by R.E.D.-III.x MOLECULE
 ----------------------------------------------
 Charge =  0 Multiplicity = 1
 Symbolic Z-Matrix:
 O                     6.8351    0.78284   0. 
 H                     7.40199   0.        0. 
 O                     10.44894  -1.97754   4.94313 
 H                     10.13402  -1.86643   5.85123 
 C                     2.78871  -0.62365   0.7562 
 C                     4.08824   0.19526   0.52022 
 H                     4.59451  -0.29422  -0.324 
 C                     5.09127   0.17341   1.68021 
 H                     4.63964   0.66148   2.55607 
 C                     5.46626  -1.28465   2.04766 
 H                     6.0471   -1.67109   1.19359 
 C                     2.0403   -0.33453  -0.59155 
 H                     2.55482  -0.93306  -1.36016 
 C                     3.23145  -2.08162   0.99603 
 H                     3.70695  -2.45865   0.07907 
 H                     2.38001  -2.73928   1.19774 
 C                     6.42402  -1.36058   3.28813 
 C                     3.59715   1.55066  -0.00611 
 H                     4.36631   2.0659   -0.58815 
 H                     3.31863   2.21568   0.82143 
 C                     4.22087  -2.1937    2.17395 
 H                     3.68348  -1.9608    3.09906 
 H                     4.53639  -3.23953   2.26486 
 C                     2.35699   1.17752  -0.86413 
 H                     1.49403   1.80135  -0.60245 
 H                     2.55172   1.35205  -1.92624 
 C                     6.35761   0.99159   1.35014 
 H                     6.0972    2.05616   1.36597 
 C                     0.52728  -0.65028  -0.71361 
 H                     0.        0.        0. 
 C                     1.96282  -0.09558   1.95205 
 H                     2.53956  -0.07603   2.88041 
 H                     1.59838   0.92146   1.77878 
 H                     1.0872   -0.72842   2.13046 
 C                     7.52598  -0.29831   3.1791 
 C                     7.09971  -2.76661   3.31199 
 H                     7.47913  -2.98288   2.30356 
 H                     6.34293  -3.52848   3.52739 
 C                     7.47122   0.7358    2.3235 
 H                     8.30257   1.43918   2.28578 
 C                     5.65589  -1.13127   4.61836 
 H                     4.98245  -1.96522   4.83757 
 H                     6.33877  -1.03789   5.4664 
 H                     5.0627   -0.21265   4.58012 
 C                     8.71682  -0.44894   4.10792 
 H                     9.47883   0.29994   3.87078 
 H                     8.40422  -0.26222   5.14775 
 C                     8.26238  -2.91182   4.30566 
 H                     7.89946  -2.81565   5.33964 
 H                     8.70561  -3.91048   4.22078 
 C                     0.00122  -0.30004  -2.14034 
 H                     0.75119   0.28887  -2.67813 
 H                    -0.1079   -1.22682  -2.7197 
 C                     9.3363   -1.8538    4.05371 
 H                     9.77035  -2.01274   3.05884 
 C                     0.17718  -2.109    -0.36617 
 H                     0.77022  -2.80714  -0.97005 
 H                    -0.87775  -2.31545  -0.57037 
 H                     0.35532  -2.34341   0.68634 
 C                    -1.31469   0.50426  -2.18121 
 H                    -1.16834   1.42565  -1.60065 
 H                    -1.48962   0.83276  -3.2138 
 C                    -2.57969  -0.19663  -1.65133 
 H                    -3.39258   0.5437   -1.61241 
 H                    -2.41302  -0.50622  -0.61067 
 C                    -3.08484  -1.41383  -2.45579 
 H                    -2.26719  -2.14484  -2.53083 
 C                    -3.50746  -1.03841  -3.88549 
 H                    -4.31433  -0.29407  -3.86985 
 H                    -3.87713  -1.91675  -4.42677 
 H                    -2.67912  -0.61997  -4.46596 
 C                    -4.2467   -2.09498  -1.71455 
 H                    -5.09719  -1.40935  -1.60754 
 H                    -4.60027  -2.98033  -2.25528 
 H                    -3.94856  -2.41295  -0.70876 
 
 NAtoms=     75 NQM=        0 NQMF=       0 NMMI=     75 NMMIF=      0
                NMic=       0 NMicF=      0.
                    Isotopes and Nuclear Properties:
 (Nuclear quadrupole moments (NQMom) in fm**2, nuclear magnetic moments (NMagM)
  in nuclear magnetons)

  Atom         1           2           3           4           5           6           7           8           9          10
 IAtWgt=          16           1          16           1          12          12           1          12           1          12
 AtmWgt=  15.9949146   1.0078250  15.9949146   1.0078250  12.0000000  12.0000000   1.0078250  12.0000000   1.0078250  12.0000000
 NucSpn=           0           1           0           1           0           0           1           0           1           0
 AtZEff=   0.0000000   0.0000000   0.0000000   0.0000000   0.0000000   0.0000000   0.0000000   0.0000000   0.0000000   0.0000000
 NQMom=    0.0000000   0.0000000   0.0000000   0.0000000   0.0000000   0.0000000   0.0000000   0.0000000   0.0000000   0.0000000
 NMagM=    0.0000000   2.7928460   0.0000000   2.7928460   0.0000000   0.0000000   2.7928460   0.0000000   2.7928460   0.0000000

  Atom        11          12          13          14          15          16          17          18          19          20
 IAtWgt=           1          12           1          12           1           1          12          12           1           1
 AtmWgt=   1.0078250  12.0000000   1.0078250  12.0000000   1.0078250   1.0078250  12.0000000  12.0000000   1.0078250   1.0078250
 NucSpn=           1           0           1           0           1           1           0           0           1           1
 AtZEff=   0.0000000   0.0000000   0.0000000   0.0000000   0.0000000   0.0000000   0.0000000   0.0000000   0.0000000   0.0000000
 NQMom=    0.0000000   0.0000000   0.0000000   0.0000000   0.0000000   0.0000000   0.0000000   0.0000000   0.0000000   0.0000000
 NMagM=    2.7928460   0.0000000   2.7928460   0.0000000   2.7928460   2.7928460   0.0000000   0.0000000   2.7928460   2.7928460

  Atom        21          22          23          24          25          26          27          28          29          30
 IAtWgt=          12           1           1          12           1           1          12           1          12           1
 AtmWgt=  12.0000000   1.0078250   1.0078250  12.0000000   1.0078250   1.0078250  12.0000000   1.0078250  12.0000000   1.0078250
 NucSpn=           0           1           1           0           1           1           0           1           0           1
 AtZEff=   0.0000000   0.0000000   0.0000000   0.0000000   0.0000000   0.0000000   0.0000000   0.0000000   0.0000000   0.0000000
 NQMom=    0.0000000   0.0000000   0.0000000   0.0000000   0.0000000   0.0000000   0.0000000   0.0000000   0.0000000   0.0000000
 NMagM=    0.0000000   2.7928460   2.7928460   0.0000000   2.7928460   2.7928460   0.0000000   2.7928460   0.0000000   2.7928460

  Atom        31          32          33          34          35          36          37          38          39          40
 IAtWgt=          12           1           1           1          12          12           1           1          12           1
 AtmWgt=  12.0000000   1.0078250   1.0078250   1.0078250  12.0000000  12.0000000   1.0078250   1.0078250  12.0000000   1.0078250
 NucSpn=           0           1           1           1           0           0           1           1           0           1
 AtZEff=   0.0000000   0.0000000   0.0000000   0.0000000   0.0000000   0.0000000   0.0000000   0.0000000   0.0000000   0.0000000
 NQMom=    0.0000000   0.0000000   0.0000000   0.0000000   0.0000000   0.0000000   0.0000000   0.0000000   0.0000000   0.0000000
 NMagM=    0.0000000   2.7928460   2.7928460   2.7928460   0.0000000   0.0000000   2.7928460   2.7928460   0.0000000   2.7928460

  Atom        41          42          43          44          45          46          47          48          49          50
 IAtWgt=          12           1           1           1          12           1           1          12           1           1
 AtmWgt=  12.0000000   1.0078250   1.0078250   1.0078250  12.0000000   1.0078250   1.0078250  12.0000000   1.0078250   1.0078250
 NucSpn=           0           1           1           1           0           1           1           0           1           1
 AtZEff=   0.0000000   0.0000000   0.0000000   0.0000000   0.0000000   0.0000000   0.0000000   0.0000000   0.0000000   0.0000000
 NQMom=    0.0000000   0.0000000   0.0000000   0.0000000   0.0000000   0.0000000   0.0000000   0.0000000   0.0000000   0.0000000
 NMagM=    0.0000000   2.7928460   2.7928460   2.7928460   0.0000000   2.7928460   2.7928460   0.0000000   2.7928460   2.7928460

  Atom        51          52          53          54          55          56          57          58          59          60
 IAtWgt=          12           1           1          12           1          12           1           1           1          12
 AtmWgt=  12.0000000   1.0078250   1.0078250  12.0000000   1.0078250  12.0000000   1.0078250   1.0078250   1.0078250  12.0000000
 NucSpn=           0           1           1           0           1           0           1           1           1           0
 AtZEff=   0.0000000   0.0000000   0.0000000   0.0000000   0.0000000   0.0000000   0.0000000   0.0000000   0.0000000   0.0000000
 NQMom=    0.0000000   0.0000000   0.0000000   0.0000000   0.0000000   0.0000000   0.0000000   0.0000000   0.0000000   0.0000000
 NMagM=    0.0000000   2.7928460   2.7928460   0.0000000   2.7928460   0.0000000   2.7928460   2.7928460   2.7928460   0.0000000

  Atom        61          62          63          64          65          66          67          68          69          70
 IAtWgt=           1           1          12           1           1          12           1          12           1           1
 AtmWgt=   1.0078250   1.0078250  12.0000000   1.0078250   1.0078250  12.0000000   1.0078250  12.0000000   1.0078250   1.0078250
 NucSpn=           1           1           0           1           1           0           1           0           1           1
 AtZEff=   0.0000000   0.0000000   0.0000000   0.0000000   0.0000000   0.0000000   0.0000000   0.0000000   0.0000000   0.0000000
 NQMom=    0.0000000   0.0000000   0.0000000   0.0000000   0.0000000   0.0000000   0.0000000   0.0000000   0.0000000   0.0000000
 NMagM=    2.7928460   2.7928460   0.0000000   2.7928460   2.7928460   0.0000000   2.7928460   0.0000000   2.7928460   2.7928460

  Atom        71          72          73          74          75
 IAtWgt=           1          12           1           1           1
 AtmWgt=   1.0078250  12.0000000   1.0078250   1.0078250   1.0078250
 NucSpn=           1           0           1           1           1
 AtZEff=   0.0000000   0.0000000   0.0000000   0.0000000   0.0000000
 NQMom=    0.0000000   0.0000000   0.0000000   0.0000000   0.0000000
 NMagM=    2.7928460   0.0000000   2.7928460   2.7928460   2.7928460
 Leave Link  101 at Wed May 17 12:01:25 2017, MaxMem=   33554432 cpu:       9.3
 (Enter /scratch/michal/g09/l202.exe)
 Symmetry turned off by external request.
 Stoichiometry    C27H46O2
 Framework group  C1[X(C27H46O2)]
 Deg. of freedom   219
 Full point group                 C1      NOp   1
                          Input orientation:                          
 ---------------------------------------------------------------------
 Center     Atomic      Atomic             Coordinates (Angstroms)
 Number     Number       Type             X           Y           Z
 ---------------------------------------------------------------------
      1          8           0        6.835104    0.782841    0.000000
      2          1           0        7.401991    0.000000    0.000000
      3          8           0       10.448940   -1.977540    4.943128
      4          1           0       10.134020   -1.866427    5.851232
      5          6           0        2.788706   -0.623649    0.756196
      6          6           0        4.088239    0.195262    0.520220
      7          1           0        4.594514   -0.294217   -0.324003
      8          6           0        5.091267    0.173406    1.680214
      9          1           0        4.639644    0.661478    2.556066
     10          6           0        5.466264   -1.284645    2.047657
     11          1           0        6.047097   -1.671093    1.193592
     12          6           0        2.040304   -0.334533   -0.591552
     13          1           0        2.554820   -0.933058   -1.360156
     14          6           0        3.231451   -2.081620    0.996025
     15          1           0        3.706946   -2.458648    0.079072
     16          1           0        2.380006   -2.739276    1.197742
     17          6           0        6.424019   -1.360582    3.288130
     18          6           0        3.597146    1.550657   -0.006114
     19          1           0        4.366312    2.065896   -0.588147
     20          1           0        3.318628    2.215676    0.821429
     21          6           0        4.220872   -2.193701    2.173947
     22          1           0        3.683477   -1.960802    3.099062
     23          1           0        4.536388   -3.239531    2.264855
     24          6           0        2.356991    1.177519   -0.864130
     25          1           0        1.494026    1.801346   -0.602447
     26          1           0        2.551722    1.352054   -1.926245
     27          6           0        6.357608    0.991593    1.350144
     28          1           0        6.097197    2.056161    1.365969
     29          6           0        0.527279   -0.650283   -0.713615
     30          1           0        0.000000    0.000000    0.000000
     31          6           0        1.962819   -0.095580    1.952055
     32          1           0        2.539565   -0.076029    2.880406
     33          1           0        1.598376    0.921462    1.778780
     34          1           0        1.087195   -0.728423    2.130463
     35          6           0        7.525981   -0.298314    3.179096
     36          6           0        7.099713   -2.766614    3.311994
     37          1           0        7.479133   -2.982879    2.303559
     38          1           0        6.342931   -3.528481    3.527393
     39          6           0        7.471215    0.735797    2.323505
     40          1           0        8.302568    1.439180    2.285777
     41          6           0        5.655893   -1.131269    4.618356
     42          1           0        4.982445   -1.965222    4.837567
     43          1           0        6.338765   -1.037891    5.466396
     44          1           0        5.062702   -0.212646    4.580124
     45          6           0        8.716823   -0.448940    4.107916
     46          1           0        9.478829    0.299941    3.870785
     47          1           0        8.404223   -0.262216    5.147751
     48          6           0        8.262380   -2.911822    4.305661
     49          1           0        7.899458   -2.815654    5.339638
     50          1           0        8.705612   -3.910484    4.220781
     51          6           0        0.001217   -0.300042   -2.140341
     52          1           0        0.751188    0.288865   -2.678126
     53          1           0       -0.107896   -1.226822   -2.719701
     54          6           0        9.336297   -1.853799    4.053714
     55          1           0        9.770350   -2.012740    3.058840
     56          6           0        0.177175   -2.109002   -0.366168
     57          1           0        0.770221   -2.807143   -0.970050
     58          1           0       -0.877750   -2.315451   -0.570370
     59          1           0        0.355317   -2.343413    0.686345
     60          6           0       -1.314691    0.504257   -2.181207
     61          1           0       -1.168337    1.425653   -1.600649
     62          1           0       -1.489618    0.832760   -3.213801
     63          6           0       -2.579693   -0.196625   -1.651329
     64          1           0       -3.392575    0.543698   -1.612410
     65          1           0       -2.413019   -0.506221   -0.610670
     66          6           0       -3.084837   -1.413828   -2.455793
     67          1           0       -2.267188   -2.144841   -2.530834
     68          6           0       -3.507462   -1.038412   -3.885490
     69          1           0       -4.314328   -0.294068   -3.869846
     70          1           0       -3.877125   -1.916746   -4.426771
     71          1           0       -2.679119   -0.619974   -4.465958
     72          6           0       -4.246705   -2.094982   -1.714554
     73          1           0       -5.097189   -1.409348   -1.607540
     74          1           0       -4.600272   -2.980329   -2.255281
     75          1           0       -3.948560   -2.412949   -0.708757
 ---------------------------------------------------------------------
 Rotational constants (GHZ):      0.4863814      0.0564145      0.0530252
 Leave Link  202 at Wed May 17 12:01:25 2017, MaxMem=   33554432 cpu:       0.3
 (Enter /scratch/michal/g09/l301.exe)
 Standard basis: 6-31G(d) (6D, 7F)
 Ernie: Thresh=  0.10000D-02 Tol=  0.10000D-05 Strict=F.
 AO basis set in the form of general basis input (Overlap normalization):
      1 0
 S   6 1.00       0.000000000000
      0.5484671660D+04  0.1831074430D-02
      0.8252349460D+03  0.1395017220D-01
      0.1880469580D+03  0.6844507810D-01
      0.5296450000D+02  0.2327143360D+00
      0.1689757040D+02  0.4701928980D+00
      0.5799635340D+01  0.3585208530D+00
 SP   3 1.00       0.000000000000
      0.1553961625D+02 -0.1107775495D+00  0.7087426823D-01
      0.3599933586D+01 -0.1480262627D+00  0.3397528391D+00
      0.1013761750D+01  0.1130767015D+01  0.7271585773D+00
 SP   1 1.00       0.000000000000
      0.2700058226D+00  0.1000000000D+01  0.1000000000D+01
 D   1 1.00       0.000000000000
      0.8000000000D+00  0.1000000000D+01
 ****
      2 0
 S   3 1.00       0.000000000000
      0.1873113696D+02  0.3349460434D-01
      0.2825394365D+01  0.2347269535D+00
      0.6401216923D+00  0.8137573261D+00
 S   1 1.00       0.000000000000
      0.1612777588D+00  0.1000000000D+01
 ****
      3 0
 S   6 1.00       0.000000000000
      0.5484671660D+04  0.1831074430D-02
      0.8252349460D+03  0.1395017220D-01
      0.1880469580D+03  0.6844507810D-01
      0.5296450000D+02  0.2327143360D+00
      0.1689757040D+02  0.4701928980D+00
      0.5799635340D+01  0.3585208530D+00
 SP   3 1.00       0.000000000000
      0.1553961625D+02 -0.1107775495D+00  0.7087426823D-01
      0.3599933586D+01 -0.1480262627D+00  0.3397528391D+00
      0.1013761750D+01  0.1130767015D+01  0.7271585773D+00
 SP   1 1.00       0.000000000000
      0.2700058226D+00  0.1000000000D+01  0.1000000000D+01
 D   1 1.00       0.000000000000
      0.8000000000D+00  0.1000000000D+01
 ****
      4 0
 S   3 1.00       0.000000000000
      0.1873113696D+02  0.3349460434D-01
      0.2825394365D+01  0.2347269535D+00
      0.6401216923D+00  0.8137573261D+00
 S   1 1.00       0.000000000000
      0.1612777588D+00  0.1000000000D+01
 ****
      5 0
 S   6 1.00       0.000000000000
      0.3047524880D+04  0.1834737132D-02
      0.4573695180D+03  0.1403732281D-01
      0.1039486850D+03  0.6884262226D-01
      0.2921015530D+02  0.2321844432D+00
      0.9286662960D+01  0.4679413484D+00
      0.3163926960D+01  0.3623119853D+00
 SP   3 1.00       0.000000000000
      0.7868272350D+01 -0.1193324198D+00  0.6899906659D-01
      0.1881288540D+01 -0.1608541517D+00  0.3164239610D+00
      0.5442492580D+00  0.1143456438D+01  0.7443082909D+00
 SP   1 1.00       0.000000000000
      0.1687144782D+00  0.1000000000D+01  0.1000000000D+01
 D   1 1.00       0.000000000000
      0.8000000000D+00  0.1000000000D+01
 ****
      6 0
 S   6 1.00       0.000000000000
      0.3047524880D+04  0.1834737132D-02
      0.4573695180D+03  0.1403732281D-01
      0.1039486850D+03  0.6884262226D-01
      0.2921015530D+02  0.2321844432D+00
      0.9286662960D+01  0.4679413484D+00
      0.3163926960D+01  0.3623119853D+00
 SP   3 1.00       0.000000000000
      0.7868272350D+01 -0.1193324198D+00  0.6899906659D-01
      0.1881288540D+01 -0.1608541517D+00  0.3164239610D+00
      0.5442492580D+00  0.1143456438D+01  0.7443082909D+00
 SP   1 1.00       0.000000000000
      0.1687144782D+00  0.1000000000D+01  0.1000000000D+01
 D   1 1.00       0.000000000000
      0.8000000000D+00  0.1000000000D+01
 ****
      7 0
 S   3 1.00       0.000000000000
      0.1873113696D+02  0.3349460434D-01
      0.2825394365D+01  0.2347269535D+00
      0.6401216923D+00  0.8137573261D+00
 S   1 1.00       0.000000000000
      0.1612777588D+00  0.1000000000D+01
 ****
      8 0
 S   6 1.00       0.000000000000
      0.3047524880D+04  0.1834737132D-02
      0.4573695180D+03  0.1403732281D-01
      0.1039486850D+03  0.6884262226D-01
      0.2921015530D+02  0.2321844432D+00
      0.9286662960D+01  0.4679413484D+00
      0.3163926960D+01  0.3623119853D+00
 SP   3 1.00       0.000000000000
      0.7868272350D+01 -0.1193324198D+00  0.6899906659D-01
      0.1881288540D+01 -0.1608541517D+00  0.3164239610D+00
      0.5442492580D+00  0.1143456438D+01  0.7443082909D+00
 SP   1 1.00       0.000000000000
      0.1687144782D+00  0.1000000000D+01  0.1000000000D+01
 D   1 1.00       0.000000000000
      0.8000000000D+00  0.1000000000D+01
 ****
      9 0
 S   3 1.00       0.000000000000
      0.1873113696D+02  0.3349460434D-01
      0.2825394365D+01  0.2347269535D+00
      0.6401216923D+00  0.8137573261D+00
 S   1 1.00       0.000000000000
      0.1612777588D+00  0.1000000000D+01
 ****
     10 0
 S   6 1.00       0.000000000000
      0.3047524880D+04  0.1834737132D-02
      0.4573695180D+03  0.1403732281D-01
      0.1039486850D+03  0.6884262226D-01
      0.2921015530D+02  0.2321844432D+00
      0.9286662960D+01  0.4679413484D+00
      0.3163926960D+01  0.3623119853D+00
 SP   3 1.00       0.000000000000
      0.7868272350D+01 -0.1193324198D+00  0.6899906659D-01
      0.1881288540D+01 -0.1608541517D+00  0.3164239610D+00
      0.5442492580D+00  0.1143456438D+01  0.7443082909D+00
 SP   1 1.00       0.000000000000
      0.1687144782D+00  0.1000000000D+01  0.1000000000D+01
 D   1 1.00       0.000000000000
      0.8000000000D+00  0.1000000000D+01
 ****
     11 0
 S   3 1.00       0.000000000000
      0.1873113696D+02  0.3349460434D-01
      0.2825394365D+01  0.2347269535D+00
      0.6401216923D+00  0.8137573261D+00
 S   1 1.00       0.000000000000
      0.1612777588D+00  0.1000000000D+01
 ****
     12 0
 S   6 1.00       0.000000000000
      0.3047524880D+04  0.1834737132D-02
      0.4573695180D+03  0.1403732281D-01
      0.1039486850D+03  0.6884262226D-01
      0.2921015530D+02  0.2321844432D+00
      0.9286662960D+01  0.4679413484D+00
      0.3163926960D+01  0.3623119853D+00
 SP   3 1.00       0.000000000000
      0.7868272350D+01 -0.1193324198D+00  0.6899906659D-01
      0.1881288540D+01 -0.1608541517D+00  0.3164239610D+00
      0.5442492580D+00  0.1143456438D+01  0.7443082909D+00
 SP   1 1.00       0.000000000000
      0.1687144782D+00  0.1000000000D+01  0.1000000000D+01
 D   1 1.00       0.000000000000
      0.8000000000D+00  0.1000000000D+01
 ****
     13 0
 S   3 1.00       0.000000000000
      0.1873113696D+02  0.3349460434D-01
      0.2825394365D+01  0.2347269535D+00
      0.6401216923D+00  0.8137573261D+00
 S   1 1.00       0.000000000000
      0.1612777588D+00  0.1000000000D+01
 ****
     14 0
 S   6 1.00       0.000000000000
      0.3047524880D+04  0.1834737132D-02
      0.4573695180D+03  0.1403732281D-01
      0.1039486850D+03  0.6884262226D-01
      0.2921015530D+02  0.2321844432D+00
      0.9286662960D+01  0.4679413484D+00
      0.3163926960D+01  0.3623119853D+00
 SP   3 1.00       0.000000000000
      0.7868272350D+01 -0.1193324198D+00  0.6899906659D-01
      0.1881288540D+01 -0.1608541517D+00  0.3164239610D+00
      0.5442492580D+00  0.1143456438D+01  0.7443082909D+00
 SP   1 1.00       0.000000000000
      0.1687144782D+00  0.1000000000D+01  0.1000000000D+01
 D   1 1.00       0.000000000000
      0.8000000000D+00  0.1000000000D+01
 ****
     15 0
 S   3 1.00       0.000000000000
      0.1873113696D+02  0.3349460434D-01
      0.2825394365D+01  0.2347269535D+00
      0.6401216923D+00  0.8137573261D+00
 S   1 1.00       0.000000000000
      0.1612777588D+00  0.1000000000D+01
 ****
     16 0
 S   3 1.00       0.000000000000
      0.1873113696D+02  0.3349460434D-01
      0.2825394365D+01  0.2347269535D+00
      0.6401216923D+00  0.8137573261D+00
 S   1 1.00       0.000000000000
      0.1612777588D+00  0.1000000000D+01
 ****
     17 0
 S   6 1.00       0.000000000000
      0.3047524880D+04  0.1834737132D-02
      0.4573695180D+03  0.1403732281D-01
      0.1039486850D+03  0.6884262226D-01
      0.2921015530D+02  0.2321844432D+00
      0.9286662960D+01  0.4679413484D+00
      0.3163926960D+01  0.3623119853D+00
 SP   3 1.00       0.000000000000
      0.7868272350D+01 -0.1193324198D+00  0.6899906659D-01
      0.1881288540D+01 -0.1608541517D+00  0.3164239610D+00
      0.5442492580D+00  0.1143456438D+01  0.7443082909D+00
 SP   1 1.00       0.000000000000
      0.1687144782D+00  0.1000000000D+01  0.1000000000D+01
 D   1 1.00       0.000000000000
      0.8000000000D+00  0.1000000000D+01
 ****
     18 0
 S   6 1.00       0.000000000000
      0.3047524880D+04  0.1834737132D-02
      0.4573695180D+03  0.1403732281D-01
      0.1039486850D+03  0.6884262226D-01
      0.2921015530D+02  0.2321844432D+00
      0.9286662960D+01  0.4679413484D+00
      0.3163926960D+01  0.3623119853D+00
 SP   3 1.00       0.000000000000
      0.7868272350D+01 -0.1193324198D+00  0.6899906659D-01
      0.1881288540D+01 -0.1608541517D+00  0.3164239610D+00
      0.5442492580D+00  0.1143456438D+01  0.7443082909D+00
 SP   1 1.00       0.000000000000
      0.1687144782D+00  0.1000000000D+01  0.1000000000D+01
 D   1 1.00       0.000000000000
      0.8000000000D+00  0.1000000000D+01
 ****
     19 0
 S   3 1.00       0.000000000000
      0.1873113696D+02  0.3349460434D-01
      0.2825394365D+01  0.2347269535D+00
      0.6401216923D+00  0.8137573261D+00
 S   1 1.00       0.000000000000
      0.1612777588D+00  0.1000000000D+01
 ****
     20 0
 S   3 1.00       0.000000000000
      0.1873113696D+02  0.3349460434D-01
      0.2825394365D+01  0.2347269535D+00
      0.6401216923D+00  0.8137573261D+00
 S   1 1.00       0.000000000000
      0.1612777588D+00  0.1000000000D+01
 ****
     21 0
 S   6 1.00       0.000000000000
      0.3047524880D+04  0.1834737132D-02
      0.4573695180D+03  0.1403732281D-01
      0.1039486850D+03  0.6884262226D-01
      0.2921015530D+02  0.2321844432D+00
      0.9286662960D+01  0.4679413484D+00
      0.3163926960D+01  0.3623119853D+00
 SP   3 1.00       0.000000000000
      0.7868272350D+01 -0.1193324198D+00  0.6899906659D-01
      0.1881288540D+01 -0.1608541517D+00  0.3164239610D+00
      0.5442492580D+00  0.1143456438D+01  0.7443082909D+00
 SP   1 1.00       0.000000000000
      0.1687144782D+00  0.1000000000D+01  0.1000000000D+01
 D   1 1.00       0.000000000000
      0.8000000000D+00  0.1000000000D+01
 ****
     22 0
 S   3 1.00       0.000000000000
      0.1873113696D+02  0.3349460434D-01
      0.2825394365D+01  0.2347269535D+00
      0.6401216923D+00  0.8137573261D+00
 S   1 1.00       0.000000000000
      0.1612777588D+00  0.1000000000D+01
 ****
     23 0
 S   3 1.00       0.000000000000
      0.1873113696D+02  0.3349460434D-01
      0.2825394365D+01  0.2347269535D+00
      0.6401216923D+00  0.8137573261D+00
 S   1 1.00       0.000000000000
      0.1612777588D+00  0.1000000000D+01
 ****
     24 0
 S   6 1.00       0.000000000000
      0.3047524880D+04  0.1834737132D-02
      0.4573695180D+03  0.1403732281D-01
      0.1039486850D+03  0.6884262226D-01
      0.2921015530D+02  0.2321844432D+00
      0.9286662960D+01  0.4679413484D+00
      0.3163926960D+01  0.3623119853D+00
 SP   3 1.00       0.000000000000
      0.7868272350D+01 -0.1193324198D+00  0.6899906659D-01
      0.1881288540D+01 -0.1608541517D+00  0.3164239610D+00
      0.5442492580D+00  0.1143456438D+01  0.7443082909D+00
 SP   1 1.00       0.000000000000
      0.1687144782D+00  0.1000000000D+01  0.1000000000D+01
 D   1 1.00       0.000000000000
      0.8000000000D+00  0.1000000000D+01
 ****
     25 0
 S   3 1.00       0.000000000000
      0.1873113696D+02  0.3349460434D-01
      0.2825394365D+01  0.2347269535D+00
      0.6401216923D+00  0.8137573261D+00
 S   1 1.00       0.000000000000
      0.1612777588D+00  0.1000000000D+01
 ****
     26 0
 S   3 1.00       0.000000000000
      0.1873113696D+02  0.3349460434D-01
      0.2825394365D+01  0.2347269535D+00
      0.6401216923D+00  0.8137573261D+00
 S   1 1.00       0.000000000000
      0.1612777588D+00  0.1000000000D+01
 ****
     27 0
 S   6 1.00       0.000000000000
      0.3047524880D+04  0.1834737132D-02
      0.4573695180D+03  0.1403732281D-01
      0.1039486850D+03  0.6884262226D-01
      0.2921015530D+02  0.2321844432D+00
      0.9286662960D+01  0.4679413484D+00
      0.3163926960D+01  0.3623119853D+00
 SP   3 1.00       0.000000000000
      0.7868272350D+01 -0.1193324198D+00  0.6899906659D-01
      0.1881288540D+01 -0.1608541517D+00  0.3164239610D+00
      0.5442492580D+00  0.1143456438D+01  0.7443082909D+00
 SP   1 1.00       0.000000000000
      0.1687144782D+00  0.1000000000D+01  0.1000000000D+01
 D   1 1.00       0.000000000000
      0.8000000000D+00  0.1000000000D+01
 ****
     28 0
 S   3 1.00       0.000000000000
      0.1873113696D+02  0.3349460434D-01
      0.2825394365D+01  0.2347269535D+00
      0.6401216923D+00  0.8137573261D+00
 S   1 1.00       0.000000000000
      0.1612777588D+00  0.1000000000D+01
 ****
     29 0
 S   6 1.00       0.000000000000
      0.3047524880D+04  0.1834737132D-02
      0.4573695180D+03  0.1403732281D-01
      0.1039486850D+03  0.6884262226D-01
      0.2921015530D+02  0.2321844432D+00
      0.9286662960D+01  0.4679413484D+00
      0.3163926960D+01  0.3623119853D+00
 SP   3 1.00       0.000000000000
      0.7868272350D+01 -0.1193324198D+00  0.6899906659D-01
      0.1881288540D+01 -0.1608541517D+00  0.3164239610D+00
      0.5442492580D+00  0.1143456438D+01  0.7443082909D+00
 SP   1 1.00       0.000000000000
      0.1687144782D+00  0.1000000000D+01  0.1000000000D+01
 D   1 1.00       0.000000000000
      0.8000000000D+00  0.1000000000D+01
 ****
     30 0
 S   3 1.00       0.000000000000
      0.1873113696D+02  0.3349460434D-01
      0.2825394365D+01  0.2347269535D+00
      0.6401216923D+00  0.8137573261D+00
 S   1 1.00       0.000000000000
      0.1612777588D+00  0.1000000000D+01
 ****
     31 0
 S   6 1.00       0.000000000000
      0.3047524880D+04  0.1834737132D-02
      0.4573695180D+03  0.1403732281D-01
      0.1039486850D+03  0.6884262226D-01
      0.2921015530D+02  0.2321844432D+00
      0.9286662960D+01  0.4679413484D+00
      0.3163926960D+01  0.3623119853D+00
 SP   3 1.00       0.000000000000
      0.7868272350D+01 -0.1193324198D+00  0.6899906659D-01
      0.1881288540D+01 -0.1608541517D+00  0.3164239610D+00
      0.5442492580D+00  0.1143456438D+01  0.7443082909D+00
 SP   1 1.00       0.000000000000
      0.1687144782D+00  0.1000000000D+01  0.1000000000D+01
 D   1 1.00       0.000000000000
      0.8000000000D+00  0.1000000000D+01
 ****
     32 0
 S   3 1.00       0.000000000000
      0.1873113696D+02  0.3349460434D-01
      0.2825394365D+01  0.2347269535D+00
      0.6401216923D+00  0.8137573261D+00
 S   1 1.00       0.000000000000
      0.1612777588D+00  0.1000000000D+01
 ****
     33 0
 S   3 1.00       0.000000000000
      0.1873113696D+02  0.3349460434D-01
      0.2825394365D+01  0.2347269535D+00
      0.6401216923D+00  0.8137573261D+00
 S   1 1.00       0.000000000000
      0.1612777588D+00  0.1000000000D+01
 ****
     34 0
 S   3 1.00       0.000000000000
      0.1873113696D+02  0.3349460434D-01
      0.2825394365D+01  0.2347269535D+00
      0.6401216923D+00  0.8137573261D+00
 S   1 1.00       0.000000000000
      0.1612777588D+00  0.1000000000D+01
 ****
     35 0
 S   6 1.00       0.000000000000
      0.3047524880D+04  0.1834737132D-02
      0.4573695180D+03  0.1403732281D-01
      0.1039486850D+03  0.6884262226D-01
      0.2921015530D+02  0.2321844432D+00
      0.9286662960D+01  0.4679413484D+00
      0.3163926960D+01  0.3623119853D+00
 SP   3 1.00       0.000000000000
      0.7868272350D+01 -0.1193324198D+00  0.6899906659D-01
      0.1881288540D+01 -0.1608541517D+00  0.3164239610D+00
      0.5442492580D+00  0.1143456438D+01  0.7443082909D+00
 SP   1 1.00       0.000000000000
      0.1687144782D+00  0.1000000000D+01  0.1000000000D+01
 D   1 1.00       0.000000000000
      0.8000000000D+00  0.1000000000D+01
 ****
     36 0
 S   6 1.00       0.000000000000
      0.3047524880D+04  0.1834737132D-02
      0.4573695180D+03  0.1403732281D-01
      0.1039486850D+03  0.6884262226D-01
      0.2921015530D+02  0.2321844432D+00
      0.9286662960D+01  0.4679413484D+00
      0.3163926960D+01  0.3623119853D+00
 SP   3 1.00       0.000000000000
      0.7868272350D+01 -0.1193324198D+00  0.6899906659D-01
      0.1881288540D+01 -0.1608541517D+00  0.3164239610D+00
      0.5442492580D+00  0.1143456438D+01  0.7443082909D+00
 SP   1 1.00       0.000000000000
      0.1687144782D+00  0.1000000000D+01  0.1000000000D+01
 D   1 1.00       0.000000000000
      0.8000000000D+00  0.1000000000D+01
 ****
     37 0
 S   3 1.00       0.000000000000
      0.1873113696D+02  0.3349460434D-01
      0.2825394365D+01  0.2347269535D+00
      0.6401216923D+00  0.8137573261D+00
 S   1 1.00       0.000000000000
      0.1612777588D+00  0.1000000000D+01
 ****
     38 0
 S   3 1.00       0.000000000000
      0.1873113696D+02  0.3349460434D-01
      0.2825394365D+01  0.2347269535D+00
      0.6401216923D+00  0.8137573261D+00
 S   1 1.00       0.000000000000
      0.1612777588D+00  0.1000000000D+01
 ****
     39 0
 S   6 1.00       0.000000000000
      0.3047524880D+04  0.1834737132D-02
      0.4573695180D+03  0.1403732281D-01
      0.1039486850D+03  0.6884262226D-01
      0.2921015530D+02  0.2321844432D+00
      0.9286662960D+01  0.4679413484D+00
      0.3163926960D+01  0.3623119853D+00
 SP   3 1.00       0.000000000000
      0.7868272350D+01 -0.1193324198D+00  0.6899906659D-01
      0.1881288540D+01 -0.1608541517D+00  0.3164239610D+00
      0.5442492580D+00  0.1143456438D+01  0.7443082909D+00
 SP   1 1.00       0.000000000000
      0.1687144782D+00  0.1000000000D+01  0.1000000000D+01
 D   1 1.00       0.000000000000
      0.8000000000D+00  0.1000000000D+01
 ****
     40 0
 S   3 1.00       0.000000000000
      0.1873113696D+02  0.3349460434D-01
      0.2825394365D+01  0.2347269535D+00
      0.6401216923D+00  0.8137573261D+00
 S   1 1.00       0.000000000000
      0.1612777588D+00  0.1000000000D+01
 ****
     41 0
 S   6 1.00       0.000000000000
      0.3047524880D+04  0.1834737132D-02
      0.4573695180D+03  0.1403732281D-01
      0.1039486850D+03  0.6884262226D-01
      0.2921015530D+02  0.2321844432D+00
      0.9286662960D+01  0.4679413484D+00
      0.3163926960D+01  0.3623119853D+00
 SP   3 1.00       0.000000000000
      0.7868272350D+01 -0.1193324198D+00  0.6899906659D-01
      0.1881288540D+01 -0.1608541517D+00  0.3164239610D+00
      0.5442492580D+00  0.1143456438D+01  0.7443082909D+00
 SP   1 1.00       0.000000000000
      0.1687144782D+00  0.1000000000D+01  0.1000000000D+01
 D   1 1.00       0.000000000000
      0.8000000000D+00  0.1000000000D+01
 ****
     42 0
 S   3 1.00       0.000000000000
      0.1873113696D+02  0.3349460434D-01
      0.2825394365D+01  0.2347269535D+00
      0.6401216923D+00  0.8137573261D+00
 S   1 1.00       0.000000000000
      0.1612777588D+00  0.1000000000D+01
 ****
     43 0
 S   3 1.00       0.000000000000
      0.1873113696D+02  0.3349460434D-01
      0.2825394365D+01  0.2347269535D+00
      0.6401216923D+00  0.8137573261D+00
 S   1 1.00       0.000000000000
      0.1612777588D+00  0.1000000000D+01
 ****
     44 0
 S   3 1.00       0.000000000000
      0.1873113696D+02  0.3349460434D-01
      0.2825394365D+01  0.2347269535D+00
      0.6401216923D+00  0.8137573261D+00
 S   1 1.00       0.000000000000
      0.1612777588D+00  0.1000000000D+01
 ****
     45 0
 S   6 1.00       0.000000000000
      0.3047524880D+04  0.1834737132D-02
      0.4573695180D+03  0.1403732281D-01
      0.1039486850D+03  0.6884262226D-01
      0.2921015530D+02  0.2321844432D+00
      0.9286662960D+01  0.4679413484D+00
      0.3163926960D+01  0.3623119853D+00
 SP   3 1.00       0.000000000000
      0.7868272350D+01 -0.1193324198D+00  0.6899906659D-01
      0.1881288540D+01 -0.1608541517D+00  0.3164239610D+00
      0.5442492580D+00  0.1143456438D+01  0.7443082909D+00
 SP   1 1.00       0.000000000000
      0.1687144782D+00  0.1000000000D+01  0.1000000000D+01
 D   1 1.00       0.000000000000
      0.8000000000D+00  0.1000000000D+01
 ****
     46 0
 S   3 1.00       0.000000000000
      0.1873113696D+02  0.3349460434D-01
      0.2825394365D+01  0.2347269535D+00
      0.6401216923D+00  0.8137573261D+00
 S   1 1.00       0.000000000000
      0.1612777588D+00  0.1000000000D+01
 ****
     47 0
 S   3 1.00       0.000000000000
      0.1873113696D+02  0.3349460434D-01
      0.2825394365D+01  0.2347269535D+00
      0.6401216923D+00  0.8137573261D+00
 S   1 1.00       0.000000000000
      0.1612777588D+00  0.1000000000D+01
 ****
     48 0
 S   6 1.00       0.000000000000
      0.3047524880D+04  0.1834737132D-02
      0.4573695180D+03  0.1403732281D-01
      0.1039486850D+03  0.6884262226D-01
      0.2921015530D+02  0.2321844432D+00
      0.9286662960D+01  0.4679413484D+00
      0.3163926960D+01  0.3623119853D+00
 SP   3 1.00       0.000000000000
      0.7868272350D+01 -0.1193324198D+00  0.6899906659D-01
      0.1881288540D+01 -0.1608541517D+00  0.3164239610D+00
      0.5442492580D+00  0.1143456438D+01  0.7443082909D+00
 SP   1 1.00       0.000000000000
      0.1687144782D+00  0.1000000000D+01  0.1000000000D+01
 D   1 1.00       0.000000000000
      0.8000000000D+00  0.1000000000D+01
 ****
     49 0
 S   3 1.00       0.000000000000
      0.1873113696D+02  0.3349460434D-01
      0.2825394365D+01  0.2347269535D+00
      0.6401216923D+00  0.8137573261D+00
 S   1 1.00       0.000000000000
      0.1612777588D+00  0.1000000000D+01
 ****
     50 0
 S   3 1.00       0.000000000000
      0.1873113696D+02  0.3349460434D-01
      0.2825394365D+01  0.2347269535D+00
      0.6401216923D+00  0.8137573261D+00
 S   1 1.00       0.000000000000
      0.1612777588D+00  0.1000000000D+01
 ****
     51 0
 S   6 1.00       0.000000000000
      0.3047524880D+04  0.1834737132D-02
      0.4573695180D+03  0.1403732281D-01
      0.1039486850D+03  0.6884262226D-01
      0.2921015530D+02  0.2321844432D+00
      0.9286662960D+01  0.4679413484D+00
      0.3163926960D+01  0.3623119853D+00
 SP   3 1.00       0.000000000000
      0.7868272350D+01 -0.1193324198D+00  0.6899906659D-01
      0.1881288540D+01 -0.1608541517D+00  0.3164239610D+00
      0.5442492580D+00  0.1143456438D+01  0.7443082909D+00
 SP   1 1.00       0.000000000000
      0.1687144782D+00  0.1000000000D+01  0.1000000000D+01
 D   1 1.00       0.000000000000
      0.8000000000D+00  0.1000000000D+01
 ****
     52 0
 S   3 1.00       0.000000000000
      0.1873113696D+02  0.3349460434D-01
      0.2825394365D+01  0.2347269535D+00
      0.6401216923D+00  0.8137573261D+00
 S   1 1.00       0.000000000000
      0.1612777588D+00  0.1000000000D+01
 ****
     53 0
 S   3 1.00       0.000000000000
      0.1873113696D+02  0.3349460434D-01
      0.2825394365D+01  0.2347269535D+00
      0.6401216923D+00  0.8137573261D+00
 S   1 1.00       0.000000000000
      0.1612777588D+00  0.1000000000D+01
 ****
     54 0
 S   6 1.00       0.000000000000
      0.3047524880D+04  0.1834737132D-02
      0.4573695180D+03  0.1403732281D-01
      0.1039486850D+03  0.6884262226D-01
      0.2921015530D+02  0.2321844432D+00
      0.9286662960D+01  0.4679413484D+00
      0.3163926960D+01  0.3623119853D+00
 SP   3 1.00       0.000000000000
      0.7868272350D+01 -0.1193324198D+00  0.6899906659D-01
      0.1881288540D+01 -0.1608541517D+00  0.3164239610D+00
      0.5442492580D+00  0.1143456438D+01  0.7443082909D+00
 SP   1 1.00       0.000000000000
      0.1687144782D+00  0.1000000000D+01  0.1000000000D+01
 D   1 1.00       0.000000000000
      0.8000000000D+00  0.1000000000D+01
 ****
     55 0
 S   3 1.00       0.000000000000
      0.1873113696D+02  0.3349460434D-01
      0.2825394365D+01  0.2347269535D+00
      0.6401216923D+00  0.8137573261D+00
 S   1 1.00       0.000000000000
      0.1612777588D+00  0.1000000000D+01
 ****
     56 0
 S   6 1.00       0.000000000000
      0.3047524880D+04  0.1834737132D-02
      0.4573695180D+03  0.1403732281D-01
      0.1039486850D+03  0.6884262226D-01
      0.2921015530D+02  0.2321844432D+00
      0.9286662960D+01  0.4679413484D+00
      0.3163926960D+01  0.3623119853D+00
 SP   3 1.00       0.000000000000
      0.7868272350D+01 -0.1193324198D+00  0.6899906659D-01
      0.1881288540D+01 -0.1608541517D+00  0.3164239610D+00
      0.5442492580D+00  0.1143456438D+01  0.7443082909D+00
 SP   1 1.00       0.000000000000
      0.1687144782D+00  0.1000000000D+01  0.1000000000D+01
 D   1 1.00       0.000000000000
      0.8000000000D+00  0.1000000000D+01
 ****
     57 0
 S   3 1.00       0.000000000000
      0.1873113696D+02  0.3349460434D-01
      0.2825394365D+01  0.2347269535D+00
      0.6401216923D+00  0.8137573261D+00
 S   1 1.00       0.000000000000
      0.1612777588D+00  0.1000000000D+01
 ****
     58 0
 S   3 1.00       0.000000000000
      0.1873113696D+02  0.3349460434D-01
      0.2825394365D+01  0.2347269535D+00
      0.6401216923D+00  0.8137573261D+00
 S   1 1.00       0.000000000000
      0.1612777588D+00  0.1000000000D+01
 ****
     59 0
 S   3 1.00       0.000000000000
      0.1873113696D+02  0.3349460434D-01
      0.2825394365D+01  0.2347269535D+00
      0.6401216923D+00  0.8137573261D+00
 S   1 1.00       0.000000000000
      0.1612777588D+00  0.1000000000D+01
 ****
     60 0
 S   6 1.00       0.000000000000
      0.3047524880D+04  0.1834737132D-02
      0.4573695180D+03  0.1403732281D-01
      0.1039486850D+03  0.6884262226D-01
      0.2921015530D+02  0.2321844432D+00
      0.9286662960D+01  0.4679413484D+00
      0.3163926960D+01  0.3623119853D+00
 SP   3 1.00       0.000000000000
      0.7868272350D+01 -0.1193324198D+00  0.6899906659D-01
      0.1881288540D+01 -0.1608541517D+00  0.3164239610D+00
      0.5442492580D+00  0.1143456438D+01  0.7443082909D+00
 SP   1 1.00       0.000000000000
      0.1687144782D+00  0.1000000000D+01  0.1000000000D+01
 D   1 1.00       0.000000000000
      0.8000000000D+00  0.1000000000D+01
 ****
     61 0
 S   3 1.00       0.000000000000
      0.1873113696D+02  0.3349460434D-01
      0.2825394365D+01  0.2347269535D+00
      0.6401216923D+00  0.8137573261D+00
 S   1 1.00       0.000000000000
      0.1612777588D+00  0.1000000000D+01
 ****
     62 0
 S   3 1.00       0.000000000000
      0.1873113696D+02  0.3349460434D-01
      0.2825394365D+01  0.2347269535D+00
      0.6401216923D+00  0.8137573261D+00
 S   1 1.00       0.000000000000
      0.1612777588D+00  0.1000000000D+01
 ****
     63 0
 S   6 1.00       0.000000000000
      0.3047524880D+04  0.1834737132D-02
      0.4573695180D+03  0.1403732281D-01
      0.1039486850D+03  0.6884262226D-01
      0.2921015530D+02  0.2321844432D+00
      0.9286662960D+01  0.4679413484D+00
      0.3163926960D+01  0.3623119853D+00
 SP   3 1.00       0.000000000000
      0.7868272350D+01 -0.1193324198D+00  0.6899906659D-01
      0.1881288540D+01 -0.1608541517D+00  0.3164239610D+00
      0.5442492580D+00  0.1143456438D+01  0.7443082909D+00
 SP   1 1.00       0.000000000000
      0.1687144782D+00  0.1000000000D+01  0.1000000000D+01
 D   1 1.00       0.000000000000
      0.8000000000D+00  0.1000000000D+01
 ****
     64 0
 S   3 1.00       0.000000000000
      0.1873113696D+02  0.3349460434D-01
      0.2825394365D+01  0.2347269535D+00
      0.6401216923D+00  0.8137573261D+00
 S   1 1.00       0.000000000000
      0.1612777588D+00  0.1000000000D+01
 ****
     65 0
 S   3 1.00       0.000000000000
      0.1873113696D+02  0.3349460434D-01
      0.2825394365D+01  0.2347269535D+00
      0.6401216923D+00  0.8137573261D+00
 S   1 1.00       0.000000000000
      0.1612777588D+00  0.1000000000D+01
 ****
     66 0
 S   6 1.00       0.000000000000
      0.3047524880D+04  0.1834737132D-02
      0.4573695180D+03  0.1403732281D-01
      0.1039486850D+03  0.6884262226D-01
      0.2921015530D+02  0.2321844432D+00
      0.9286662960D+01  0.4679413484D+00
      0.3163926960D+01  0.3623119853D+00
 SP   3 1.00       0.000000000000
      0.7868272350D+01 -0.1193324198D+00  0.6899906659D-01
      0.1881288540D+01 -0.1608541517D+00  0.3164239610D+00
      0.5442492580D+00  0.1143456438D+01  0.7443082909D+00
 SP   1 1.00       0.000000000000
      0.1687144782D+00  0.1000000000D+01  0.1000000000D+01
 D   1 1.00       0.000000000000
      0.8000000000D+00  0.1000000000D+01
 ****
     67 0
 S   3 1.00       0.000000000000
      0.1873113696D+02  0.3349460434D-01
      0.2825394365D+01  0.2347269535D+00
      0.6401216923D+00  0.8137573261D+00
 S   1 1.00       0.000000000000
      0.1612777588D+00  0.1000000000D+01
 ****
     68 0
 S   6 1.00       0.000000000000
      0.3047524880D+04  0.1834737132D-02
      0.4573695180D+03  0.1403732281D-01
      0.1039486850D+03  0.6884262226D-01
      0.2921015530D+02  0.2321844432D+00
      0.9286662960D+01  0.4679413484D+00
      0.3163926960D+01  0.3623119853D+00
 SP   3 1.00       0.000000000000
      0.7868272350D+01 -0.1193324198D+00  0.6899906659D-01
      0.1881288540D+01 -0.1608541517D+00  0.3164239610D+00
      0.5442492580D+00  0.1143456438D+01  0.7443082909D+00
 SP   1 1.00       0.000000000000
      0.1687144782D+00  0.1000000000D+01  0.1000000000D+01
 D   1 1.00       0.000000000000
      0.8000000000D+00  0.1000000000D+01
 ****
     69 0
 S   3 1.00       0.000000000000
      0.1873113696D+02  0.3349460434D-01
      0.2825394365D+01  0.2347269535D+00
      0.6401216923D+00  0.8137573261D+00
 S   1 1.00       0.000000000000
      0.1612777588D+00  0.1000000000D+01
 ****
     70 0
 S   3 1.00       0.000000000000
      0.1873113696D+02  0.3349460434D-01
      0.2825394365D+01  0.2347269535D+00
      0.6401216923D+00  0.8137573261D+00
 S   1 1.00       0.000000000000
      0.1612777588D+00  0.1000000000D+01
 ****
     71 0
 S   3 1.00       0.000000000000
      0.1873113696D+02  0.3349460434D-01
      0.2825394365D+01  0.2347269535D+00
      0.6401216923D+00  0.8137573261D+00
 S   1 1.00       0.000000000000
      0.1612777588D+00  0.1000000000D+01
 ****
     72 0
 S   6 1.00       0.000000000000
      0.3047524880D+04  0.1834737132D-02
      0.4573695180D+03  0.1403732281D-01
      0.1039486850D+03  0.6884262226D-01
      0.2921015530D+02  0.2321844432D+00
      0.9286662960D+01  0.4679413484D+00
      0.3163926960D+01  0.3623119853D+00
 SP   3 1.00       0.000000000000
      0.7868272350D+01 -0.1193324198D+00  0.6899906659D-01
      0.1881288540D+01 -0.1608541517D+00  0.3164239610D+00
      0.5442492580D+00  0.1143456438D+01  0.7443082909D+00
 SP   1 1.00       0.000000000000
      0.1687144782D+00  0.1000000000D+01  0.1000000000D+01
 D   1 1.00       0.000000000000
      0.8000000000D+00  0.1000000000D+01
 ****
     73 0
 S   3 1.00       0.000000000000
      0.1873113696D+02  0.3349460434D-01
      0.2825394365D+01  0.2347269535D+00
      0.6401216923D+00  0.8137573261D+00
 S   1 1.00       0.000000000000
      0.1612777588D+00  0.1000000000D+01
 ****
     74 0
 S   3 1.00       0.000000000000
      0.1873113696D+02  0.3349460434D-01
      0.2825394365D+01  0.2347269535D+00
      0.6401216923D+00  0.8137573261D+00
 S   1 1.00       0.000000000000
      0.1612777588D+00  0.1000000000D+01
 ****
     75 0
 S   3 1.00       0.000000000000
      0.1873113696D+02  0.3349460434D-01
      0.2825394365D+01  0.2347269535D+00
      0.6401216923D+00  0.8137573261D+00
 S   1 1.00       0.000000000000
      0.1612777588D+00  0.1000000000D+01
 ****

 AO basis set (Overlap normalization):
 Atom O1       Shell     1 S   6     bf    1 -     1         12.916473704928          1.479354717649          0.000000000000
      0.5484671660D+04  0.1831074430D-02
      0.8252349460D+03  0.1395017220D-01
      0.1880469580D+03  0.6844507810D-01
      0.5296450000D+02  0.2327143360D+00
      0.1689757040D+02  0.4701928980D+00
      0.5799635340D+01  0.3585208530D+00
 Atom O1       Shell     2 SP   3    bf    2 -     5         12.916473704928          1.479354717649          0.000000000000
      0.1553961625D+02 -0.1107775495D+00  0.7087426823D-01
      0.3599933586D+01 -0.1480262627D+00  0.3397528391D+00
      0.1013761750D+01  0.1130767015D+01  0.7271585773D+00
 Atom O1       Shell     3 SP   1    bf    6 -     9         12.916473704928          1.479354717649          0.000000000000
      0.2700058226D+00  0.1000000000D+01  0.1000000000D+01
 Atom O1       Shell     4 D   1     bf   10 -    15         12.916473704928          1.479354717649          0.000000000000
      0.8000000000D+00  0.1000000000D+01
 Atom H2       Shell     5 S   3     bf   16 -    16         13.987735903673          0.000000000000          0.000000000000
      0.1873113696D+02  0.3349460434D-01
      0.2825394365D+01  0.2347269535D+00
      0.6401216923D+00  0.8137573261D+00
 Atom H2       Shell     6 S   1     bf   17 -    17         13.987735903673          0.000000000000          0.000000000000
      0.1612777588D+00  0.1000000000D+01
 Atom O3       Shell     7 S   6     bf   18 -    18         19.745635224619         -3.737008601087          9.341157328319
      0.5484671660D+04  0.1831074430D-02
      0.8252349460D+03  0.1395017220D-01
      0.1880469580D+03  0.6844507810D-01
      0.5296450000D+02  0.2327143360D+00
      0.1689757040D+02  0.4701928980D+00
      0.5799635340D+01  0.3585208530D+00
 Atom O3       Shell     8 SP   3    bf   19 -    22         19.745635224619         -3.737008601087          9.341157328319
      0.1553961625D+02 -0.1107775495D+00  0.7087426823D-01
      0.3599933586D+01 -0.1480262627D+00  0.3397528391D+00
      0.1013761750D+01  0.1130767015D+01  0.7271585773D+00
 Atom O3       Shell     9 SP   1    bf   23 -    26         19.745635224619         -3.737008601087          9.341157328319
      0.2700058226D+00  0.1000000000D+01  0.1000000000D+01
 Atom O3       Shell    10 D   1     bf   27 -    32         19.745635224619         -3.737008601087          9.341157328319
      0.8000000000D+00  0.1000000000D+01
 Atom H4       Shell    11 S   3     bf   33 -    33         19.150522651953         -3.527036443941         11.057225490853
      0.1873113696D+02  0.3349460434D-01
      0.2825394365D+01  0.2347269535D+00
      0.6401216923D+00  0.8137573261D+00
 Atom H4       Shell    12 S   1     bf   34 -    34         19.150522651953         -3.527036443941         11.057225490853
      0.1612777588D+00  0.1000000000D+01
 Atom C5       Shell    13 S   6     bf   35 -    35          5.269890359471         -1.178526398863          1.429003040427
      0.3047524880D+04  0.1834737132D-02
      0.4573695180D+03  0.1403732281D-01
      0.1039486850D+03  0.6884262226D-01
      0.2921015530D+02  0.2321844432D+00
      0.9286662960D+01  0.4679413484D+00
      0.3163926960D+01  0.3623119853D+00
 Atom C5       Shell    14 SP   3    bf   36 -    39          5.269890359471         -1.178526398863          1.429003040427
      0.7868272350D+01 -0.1193324198D+00  0.6899906659D-01
      0.1881288540D+01 -0.1608541517D+00  0.3164239610D+00
      0.5442492580D+00  0.1143456438D+01  0.7443082909D+00
 Atom C5       Shell    15 SP   1    bf   40 -    43          5.269890359471         -1.178526398863          1.429003040427
      0.1687144782D+00  0.1000000000D+01  0.1000000000D+01
 Atom C5       Shell    16 D   1     bf   44 -    49          5.269890359471         -1.178526398863          1.429003040427
      0.8000000000D+00  0.1000000000D+01
 Atom C6       Shell    17 S   6     bf   50 -    50          7.725652756084          0.368991704160          0.983074084740
      0.3047524880D+04  0.1834737132D-02
      0.4573695180D+03  0.1403732281D-01
      0.1039486850D+03  0.6884262226D-01
      0.2921015530D+02  0.2321844432D+00
      0.9286662960D+01  0.4679413484D+00
      0.3163926960D+01  0.3623119853D+00
 Atom C6       Shell    18 SP   3    bf   51 -    54          7.725652756084          0.368991704160          0.983074084740
      0.7868272350D+01 -0.1193324198D+00  0.6899906659D-01
      0.1881288540D+01 -0.1608541517D+00  0.3164239610D+00
      0.5442492580D+00  0.1143456438D+01  0.7443082909D+00
 Atom C6       Shell    19 SP   1    bf   55 -    58          7.725652756084          0.368991704160          0.983074084740
      0.1687144782D+00  0.1000000000D+01  0.1000000000D+01
 Atom C6       Shell    20 D   1     bf   59 -    64          7.725652756084          0.368991704160          0.983074084740
      0.8000000000D+00  0.1000000000D+01
 Atom H7       Shell    21 S   3     bf   65 -    65          8.682373192606         -0.555988646571         -0.612276010268
      0.1873113696D+02  0.3349460434D-01
      0.2825394365D+01  0.2347269535D+00
      0.6401216923D+00  0.8137573261D+00
 Atom H7       Shell    22 S   1     bf   66 -    66          8.682373192606         -0.555988646571         -0.612276010268
      0.1612777588D+00  0.1000000000D+01
 Atom C8       Shell    23 S   6     bf   67 -    67          9.621099505713          0.327689358470          3.175144134565
      0.3047524880D+04  0.1834737132D-02
      0.4573695180D+03  0.1403732281D-01
      0.1039486850D+03  0.6884262226D-01
      0.2921015530D+02  0.2321844432D+00
      0.9286662960D+01  0.4679413484D+00
      0.3163926960D+01  0.3623119853D+00
 Atom C8       Shell    24 SP   3    bf   68 -    71          9.621099505713          0.327689358470          3.175144134565
      0.7868272350D+01 -0.1193324198D+00  0.6899906659D-01
      0.1881288540D+01 -0.1608541517D+00  0.3164239610D+00
      0.5442492580D+00  0.1143456438D+01  0.7443082909D+00
 Atom C8       Shell    25 SP   1    bf   72 -    75          9.621099505713          0.327689358470          3.175144134565
      0.1687144782D+00  0.1000000000D+01  0.1000000000D+01
 Atom C8       Shell    26 D   1     bf   76 -    81          9.621099505713          0.327689358470          3.175144134565
      0.8000000000D+00  0.1000000000D+01
 Atom H9       Shell    27 S   3     bf   82 -    82          8.767655966065          1.250012244032          4.830264377430
      0.1873113696D+02  0.3349460434D-01
      0.2825394365D+01  0.2347269535D+00
      0.6401216923D+00  0.8137573261D+00
 Atom H9       Shell    28 S   1     bf   83 -    83          8.767655966065          1.250012244032          4.830264377430
      0.1612777588D+00  0.1000000000D+01
 Atom C10      Shell    29 S   6     bf   84 -    84         10.329741948949         -2.427627568132          3.869510603936
      0.3047524880D+04  0.1834737132D-02
      0.4573695180D+03  0.1403732281D-01
      0.1039486850D+03  0.6884262226D-01
      0.2921015530D+02  0.2321844432D+00
      0.9286662960D+01  0.4679413484D+00
      0.3163926960D+01  0.3623119853D+00
 Atom C10      Shell    30 SP   3    bf   85 -    88         10.329741948949         -2.427627568132          3.869510603936
      0.7868272350D+01 -0.1193324198D+00  0.6899906659D-01
      0.1881288540D+01 -0.1608541517D+00  0.3164239610D+00
      0.5442492580D+00  0.1143456438D+01  0.7443082909D+00
 Atom C10      Shell    31 SP   1    bf   89 -    92         10.329741948949         -2.427627568132          3.869510603936
      0.1687144782D+00  0.1000000000D+01  0.1000000000D+01
 Atom C10      Shell    32 D   1     bf   93 -    98         10.329741948949         -2.427627568132          3.869510603936
      0.8000000000D+00  0.1000000000D+01
 Atom H11      Shell    33 S   3     bf   99 -    99         11.427356775460         -3.157908755089          2.255561862122
      0.1873113696D+02  0.3349460434D-01
      0.2825394365D+01  0.2347269535D+00
      0.6401216923D+00  0.8137573261D+00
 Atom H11      Shell    34 S   1     bf  100 -   100         11.427356775460         -3.157908755089          2.255561862122
      0.1612777588D+00  0.1000000000D+01
 Atom C12      Shell    35 S   6     bf  101 -   101          3.855614956352         -0.632176527200         -1.117871348950
      0.3047524880D+04  0.1834737132D-02
      0.4573695180D+03  0.1403732281D-01
      0.1039486850D+03  0.6884262226D-01
      0.2921015530D+02  0.2321844432D+00
      0.9286662960D+01  0.4679413484D+00
      0.3163926960D+01  0.3623119853D+00
 Atom C12      Shell    36 SP   3    bf  102 -   105          3.855614956352         -0.632176527200         -1.117871348950
      0.7868272350D+01 -0.1193324198D+00  0.6899906659D-01
      0.1881288540D+01 -0.1608541517D+00  0.3164239610D+00
      0.5442492580D+00  0.1143456438D+01  0.7443082909D+00
 Atom C12      Shell    37 SP   1    bf  106 -   109          3.855614956352         -0.632176527200         -1.117871348950
      0.1687144782D+00  0.1000000000D+01  0.1000000000D+01
 Atom C12      Shell    38 D   1     bf  110 -   115          3.855614956352         -0.632176527200         -1.117871348950
      0.8000000000D+00  0.1000000000D+01
 Atom H13      Shell    39 S   3     bf  116 -   116          4.827910137716         -1.763224048303         -2.570322319104
      0.1873113696D+02  0.3349460434D-01
      0.2825394365D+01  0.2347269535D+00
      0.6401216923D+00  0.8137573261D+00
 Atom H13      Shell    40 S   1     bf  117 -   117          4.827910137716         -1.763224048303         -2.570322319104
      0.1612777588D+00  0.1000000000D+01
 Atom C14      Shell    41 S   6     bf  118 -   118          6.106557364045         -3.933691429278          1.882215359679
      0.3047524880D+04  0.1834737132D-02
      0.4573695180D+03  0.1403732281D-01
      0.1039486850D+03  0.6884262226D-01
      0.2921015530D+02  0.2321844432D+00
      0.9286662960D+01  0.4679413484D+00
      0.3163926960D+01  0.3623119853D+00
 Atom C14      Shell    42 SP   3    bf  119 -   122          6.106557364045         -3.933691429278          1.882215359679
      0.7868272350D+01 -0.1193324198D+00  0.6899906659D-01
      0.1881288540D+01 -0.1608541517D+00  0.3164239610D+00
      0.5442492580D+00  0.1143456438D+01  0.7443082909D+00
 Atom C14      Shell    43 SP   1    bf  123 -   126          6.106557364045         -3.933691429278          1.882215359679
      0.1687144782D+00  0.1000000000D+01  0.1000000000D+01
 Atom C14      Shell    44 D   1     bf  127 -   132          6.106557364045         -3.933691429278          1.882215359679
      0.8000000000D+00  0.1000000000D+01
 Atom H15      Shell    45 S   3     bf  133 -   133          7.005112389245         -4.646171755112          0.149424878314
      0.1873113696D+02  0.3349460434D-01
      0.2825394365D+01  0.2347269535D+00
      0.6401216923D+00  0.8137573261D+00
 Atom H15      Shell    46 S   1     bf  134 -   134          7.005112389245         -4.646171755112          0.149424878314
      0.1612777588D+00  0.1000000000D+01
 Atom H16      Shell    47 S   3     bf  135 -   135          4.497559799186         -5.176481423489          2.263404376752
      0.1873113696D+02  0.3349460434D-01
      0.2825394365D+01  0.2347269535D+00
      0.6401216923D+00  0.8137573261D+00
 Atom H16      Shell    48 S   1     bf  136 -   136          4.497559799186         -5.176481423489          2.263404376752
      0.1612777588D+00  0.1000000000D+01
 Atom C17      Shell    49 S   6     bf  137 -   137         12.139636998194         -2.571128041635          6.213665246017
      0.3047524880D+04  0.1834737132D-02
      0.4573695180D+03  0.1403732281D-01
      0.1039486850D+03  0.6884262226D-01
      0.2921015530D+02  0.2321844432D+00
      0.9286662960D+01  0.4679413484D+00
      0.3163926960D+01  0.3623119853D+00
 Atom C17      Shell    50 SP   3    bf  138 -   141         12.139636998194         -2.571128041635          6.213665246017
      0.7868272350D+01 -0.1193324198D+00  0.6899906659D-01
      0.1881288540D+01 -0.1608541517D+00  0.3164239610D+00
      0.5442492580D+00  0.1143456438D+01  0.7443082909D+00
 Atom C17      Shell    51 SP   1    bf  142 -   145         12.139636998194         -2.571128041635          6.213665246017
      0.1687144782D+00  0.1000000000D+01  0.1000000000D+01
 Atom C17      Shell    52 D   1     bf  146 -   151         12.139636998194         -2.571128041635          6.213665246017
      0.8000000000D+00  0.1000000000D+01
 Atom C18      Shell    53 S   6     bf  152 -   152          6.797620592135          2.930316829275         -0.011552991891
      0.3047524880D+04  0.1834737132D-02
      0.4573695180D+03  0.1403732281D-01
      0.1039486850D+03  0.6884262226D-01
      0.2921015530D+02  0.2321844432D+00
      0.9286662960D+01  0.4679413484D+00
      0.3163926960D+01  0.3623119853D+00
 Atom C18      Shell    54 SP   3    bf  153 -   156          6.797620592135          2.930316829275         -0.011552991891
      0.7868272350D+01 -0.1193324198D+00  0.6899906659D-01
      0.1881288540D+01 -0.1608541517D+00  0.3164239610D+00
      0.5442492580D+00  0.1143456438D+01  0.7443082909D+00
 Atom C18      Shell    55 SP   1    bf  157 -   160          6.797620592135          2.930316829275         -0.011552991891
      0.1687144782D+00  0.1000000000D+01  0.1000000000D+01
 Atom C18      Shell    56 D   1     bf  161 -   166          6.797620592135          2.930316829275         -0.011552991891
      0.8000000000D+00  0.1000000000D+01
 Atom H19      Shell    57 S   3     bf  167 -   167          8.251134211986          3.903977621229         -1.111437247207
      0.1873113696D+02  0.3349460434D-01
      0.2825394365D+01  0.2347269535D+00
      0.6401216923D+00  0.8137573261D+00
 Atom H19      Shell    58 S   1     bf  168 -   168          8.251134211986          3.903977621229         -1.111437247207
      0.1612777588D+00  0.1000000000D+01
 Atom H20      Shell    59 S   3     bf  169 -   169          6.271297905748          4.187021141564          1.552275450768
      0.1873113696D+02  0.3349460434D-01
      0.2825394365D+01  0.2347269535D+00
      0.6401216923D+00  0.8137573261D+00
 Atom H20      Shell    60 S   1     bf  170 -   170          6.271297905748          4.187021141564          1.552275450768
      0.1612777588D+00  0.1000000000D+01
 Atom C21      Shell    61 S   6     bf  171 -   171          7.976292518808         -4.145493540520          4.108164155052
      0.3047524880D+04  0.1834737132D-02
      0.4573695180D+03  0.1403732281D-01
      0.1039486850D+03  0.6884262226D-01
      0.2921015530D+02  0.2321844432D+00
      0.9286662960D+01  0.4679413484D+00
      0.3163926960D+01  0.3623119853D+00
 Atom C21      Shell    62 SP   3    bf  172 -   175          7.976292518808         -4.145493540520          4.108164155052
      0.7868272350D+01 -0.1193324198D+00  0.6899906659D-01
      0.1881288540D+01 -0.1608541517D+00  0.3164239610D+00
      0.5442492580D+00  0.1143456438D+01  0.7443082909D+00
 Atom C21      Shell    63 SP   1    bf  176 -   179          7.976292518808         -4.145493540520          4.108164155052
      0.1687144782D+00  0.1000000000D+01  0.1000000000D+01
 Atom C21      Shell    64 D   1     bf  180 -   185          7.976292518808         -4.145493540520          4.108164155052
      0.8000000000D+00  0.1000000000D+01
 Atom H22      Shell    65 S   3     bf  186 -   186          6.960763049139         -3.705379593397          5.856377711840
      0.1873113696D+02  0.3349460434D-01
      0.2825394365D+01  0.2347269535D+00
      0.6401216923D+00  0.8137573261D+00
 Atom H22      Shell    66 S   1     bf  187 -   187          6.960763049139         -3.705379593397          5.856377711840
      0.1612777588D+00  0.1000000000D+01
 Atom H23      Shell    67 S   3     bf  188 -   188          8.572530914714         -6.121826256712          4.279955983053
      0.1873113696D+02  0.3349460434D-01
      0.2825394365D+01  0.2347269535D+00
      0.6401216923D+00  0.8137573261D+00
 Atom H23      Shell    68 S   1     bf  189 -   189          8.572530914714         -6.121826256712          4.279955983053
      0.1612777588D+00  0.1000000000D+01
 Atom C24      Shell    69 S   6     bf  190 -   190          4.454067015245          2.225189257749         -1.632968476293
      0.3047524880D+04  0.1834737132D-02
      0.4573695180D+03  0.1403732281D-01
      0.1039486850D+03  0.6884262226D-01
      0.2921015530D+02  0.2321844432D+00
      0.9286662960D+01  0.4679413484D+00
      0.3163926960D+01  0.3623119853D+00
 Atom C24      Shell    70 SP   3    bf  191 -   194          4.454067015245          2.225189257749         -1.632968476293
      0.7868272350D+01 -0.1193324198D+00  0.6899906659D-01
      0.1881288540D+01 -0.1608541517D+00  0.3164239610D+00
      0.5442492580D+00  0.1143456438D+01  0.7443082909D+00
 Atom C24      Shell    71 SP   1    bf  195 -   198          4.454067015245          2.225189257749         -1.632968476293
      0.1687144782D+00  0.1000000000D+01  0.1000000000D+01
 Atom C24      Shell    72 D   1     bf  199 -   204          4.454067015245          2.225189257749         -1.632968476293
      0.8000000000D+00  0.1000000000D+01
 Atom H25      Shell    73 S   3     bf  205 -   205          2.823299276212          3.404050440494         -1.138459801784
      0.1873113696D+02  0.3349460434D-01
      0.2825394365D+01  0.2347269535D+00
      0.6401216923D+00  0.8137573261D+00
 Atom H25      Shell    74 S   1     bf  206 -   206          2.823299276212          3.404050440494         -1.138459801784
      0.1612777588D+00  0.1000000000D+01
 Atom H26      Shell    75 S   3     bf  207 -   207          4.822056276383          2.555012457174         -3.640074891231
      0.1873113696D+02  0.3349460434D-01
      0.2825394365D+01  0.2347269535D+00
      0.6401216923D+00  0.8137573261D+00
 Atom H26      Shell    76 S   1     bf  208 -   208          4.822056276383          2.555012457174         -3.640074891231
      0.1612777588D+00  0.1000000000D+01
 Atom C27      Shell    77 S   6     bf  209 -   209         12.014137148763          1.873839413156          2.551402834596
      0.3047524880D+04  0.1834737132D-02
      0.4573695180D+03  0.1403732281D-01
      0.1039486850D+03  0.6884262226D-01
      0.2921015530D+02  0.2321844432D+00
      0.9286662960D+01  0.4679413484D+00
      0.3163926960D+01  0.3623119853D+00
 Atom C27      Shell    78 SP   3    bf  210 -   213         12.014137148763          1.873839413156          2.551402834596
      0.7868272350D+01 -0.1193324198D+00  0.6899906659D-01
      0.1881288540D+01 -0.1608541517D+00  0.3164239610D+00
      0.5442492580D+00  0.1143456438D+01  0.7443082909D+00
 Atom C27      Shell    79 SP   1    bf  214 -   217         12.014137148763          1.873839413156          2.551402834596
      0.1687144782D+00  0.1000000000D+01  0.1000000000D+01
 Atom C27      Shell    80 D   1     bf  218 -   223         12.014137148763          1.873839413156          2.551402834596
      0.8000000000D+00  0.1000000000D+01
 Atom H28      Shell    81 S   3     bf  224 -   224         11.522031714567          3.885581609757          2.581307221525
      0.1873113696D+02  0.3349460434D-01
      0.2825394365D+01  0.2347269535D+00
      0.6401216923D+00  0.8137573261D+00
 Atom H28      Shell    82 S   1     bf  225 -   225         11.522031714567          3.885581609757          2.581307221525
      0.1612777588D+00  0.1000000000D+01
 Atom C29      Shell    83 S   6     bf  226 -   226          0.996412017451         -1.228857100125         -1.348536177326
      0.3047524880D+04  0.1834737132D-02
      0.4573695180D+03  0.1403732281D-01
      0.1039486850D+03  0.6884262226D-01
      0.2921015530D+02  0.2321844432D+00
      0.9286662960D+01  0.4679413484D+00
      0.3163926960D+01  0.3623119853D+00
 Atom C29      Shell    84 SP   3    bf  227 -   230          0.996412017451         -1.228857100125         -1.348536177326
      0.7868272350D+01 -0.1193324198D+00  0.6899906659D-01
      0.1881288540D+01 -0.1608541517D+00  0.3164239610D+00
      0.5442492580D+00  0.1143456438D+01  0.7443082909D+00
 Atom C29      Shell    85 SP   1    bf  231 -   234          0.996412017451         -1.228857100125         -1.348536177326
      0.1687144782D+00  0.1000000000D+01  0.1000000000D+01
 Atom C29      Shell    86 D   1     bf  235 -   240          0.996412017451         -1.228857100125         -1.348536177326
      0.8000000000D+00  0.1000000000D+01
 Atom H30      Shell    87 S   3     bf  241 -   241          0.000000000000          0.000000000000          0.000000000000
      0.1873113696D+02  0.3349460434D-01
      0.2825394365D+01  0.2347269535D+00
      0.6401216923D+00  0.8137573261D+00
 Atom H30      Shell    88 S   1     bf  242 -   242          0.000000000000          0.000000000000          0.000000000000
      0.1612777588D+00  0.1000000000D+01
 Atom C31      Shell    89 S   6     bf  243 -   243          3.709190150555         -0.180619211199          3.688848401467
      0.3047524880D+04  0.1834737132D-02
      0.4573695180D+03  0.1403732281D-01
      0.1039486850D+03  0.6884262226D-01
      0.2921015530D+02  0.2321844432D+00
      0.9286662960D+01  0.4679413484D+00
      0.3163926960D+01  0.3623119853D+00
 Atom C31      Shell    90 SP   3    bf  244 -   247          3.709190150555         -0.180619211199          3.688848401467
      0.7868272350D+01 -0.1193324198D+00  0.6899906659D-01
      0.1881288540D+01 -0.1608541517D+00  0.3164239610D+00
      0.5442492580D+00  0.1143456438D+01  0.7443082909D+00
 Atom C31      Shell    91 SP   1    bf  248 -   251          3.709190150555         -0.180619211199          3.688848401467
      0.1687144782D+00  0.1000000000D+01  0.1000000000D+01
 Atom C31      Shell    92 D   1     bf  252 -   257          3.709190150555         -0.180619211199          3.688848401467
      0.8000000000D+00  0.1000000000D+01
 Atom H32      Shell    93 S   3     bf  258 -   258          4.799082119895         -0.143673836979          5.443178340343
      0.1873113696D+02  0.3349460434D-01
      0.2825394365D+01  0.2347269535D+00
      0.6401216923D+00  0.8137573261D+00
 Atom H32      Shell    94 S   1     bf  259 -   259          4.799082119895         -0.143673836979          5.443178340343
      0.1612777588D+00  0.1000000000D+01
 Atom H33      Shell    95 S   3     bf  260 -   260          3.020493256425          1.741310122662          3.361406483736
      0.1873113696D+02  0.3349460434D-01
      0.2825394365D+01  0.2347269535D+00
      0.6401216923D+00  0.8137573261D+00
 Atom H33      Shell    96 S   1     bf  261 -   261          3.020493256425          1.741310122662          3.361406483736
      0.1612777588D+00  0.1000000000D+01
 Atom H34      Shell    97 S   3     bf  262 -   262          2.054501105399         -1.376520092279          4.025991587349
      0.1873113696D+02  0.3349460434D-01
      0.2825394365D+01  0.2347269535D+00
      0.6401216923D+00  0.8137573261D+00
 Atom H34      Shell    98 S   1     bf  263 -   263          2.054501105399         -1.376520092279          4.025991587349
      0.1612777588D+00  0.1000000000D+01
 Atom C35      Shell    99 S   6     bf  264 -   264         14.222042423280         -0.563730873434          6.007620242132
      0.3047524880D+04  0.1834737132D-02
      0.4573695180D+03  0.1403732281D-01
      0.1039486850D+03  0.6884262226D-01
      0.2921015530D+02  0.2321844432D+00
      0.9286662960D+01  0.4679413484D+00
      0.3163926960D+01  0.3623119853D+00
 Atom C35      Shell   100 SP   3    bf  265 -   268         14.222042423280         -0.563730873434          6.007620242132
      0.7868272350D+01 -0.1193324198D+00  0.6899906659D-01
      0.1881288540D+01 -0.1608541517D+00  0.3164239610D+00
      0.5442492580D+00  0.1143456438D+01  0.7443082909D+00
 Atom C35      Shell   101 SP   1    bf  269 -   272         14.222042423280         -0.563730873434          6.007620242132
      0.1687144782D+00  0.1000000000D+01  0.1000000000D+01
 Atom C35      Shell   102 D   1     bf  273 -   278         14.222042423280         -0.563730873434          6.007620242132
      0.8000000000D+00  0.1000000000D+01
 Atom C36      Shell   103 S   6     bf  279 -   279         13.416512511787         -5.228142794305          6.258761179123
      0.3047524880D+04  0.1834737132D-02
      0.4573695180D+03  0.1403732281D-01
      0.1039486850D+03  0.6884262226D-01
      0.2921015530D+02  0.2321844432D+00
      0.9286662960D+01  0.4679413484D+00
      0.3163926960D+01  0.3623119853D+00
 Atom C36      Shell   104 SP   3    bf  280 -   283         13.416512511787         -5.228142794305          6.258761179123
      0.7868272350D+01 -0.1193324198D+00  0.6899906659D-01
      0.1881288540D+01 -0.1608541517D+00  0.3164239610D+00
      0.5442492580D+00  0.1143456438D+01  0.7443082909D+00
 Atom C36      Shell   105 SP   1    bf  284 -   287         13.416512511787         -5.228142794305          6.258761179123
      0.1687144782D+00  0.1000000000D+01  0.1000000000D+01
 Atom C36      Shell   106 D   1     bf  288 -   293         13.416512511787         -5.228142794305          6.258761179123
      0.8000000000D+00  0.1000000000D+01
 Atom H37      Shell   107 S   3     bf  294 -   294         14.133512835763         -5.636823566056          4.353095546458
      0.1873113696D+02  0.3349460434D-01
      0.2825394365D+01  0.2347269535D+00
      0.6401216923D+00  0.8137573261D+00
 Atom H37      Shell   108 S   1     bf  295 -   295         14.133512835763         -5.636823566056          4.353095546458
      0.1612777588D+00  0.1000000000D+01
 Atom H38      Shell   109 S   3     bf  296 -   296         11.986403112297         -6.667862679501          6.665806808647
      0.1873113696D+02  0.3349460434D-01
      0.2825394365D+01  0.2347269535D+00
      0.6401216923D+00  0.8137573261D+00
 Atom H38      Shell   110 S   1     bf  297 -   297         11.986403112297         -6.667862679501          6.665806808647
      0.1612777588D+00  0.1000000000D+01
 Atom C39      Shell   111 S   6     bf  298 -   298         14.118550570058          1.390455707570          4.390788099493
      0.3047524880D+04  0.1834737132D-02
      0.4573695180D+03  0.1403732281D-01
      0.1039486850D+03  0.6884262226D-01
      0.2921015530D+02  0.2321844432D+00
      0.9286662960D+01  0.4679413484D+00
      0.3163926960D+01  0.3623119853D+00
 Atom C39      Shell   112 SP   3    bf  299 -   302         14.118550570058          1.390455707570          4.390788099493
      0.7868272350D+01 -0.1193324198D+00  0.6899906659D-01
      0.1881288540D+01 -0.1608541517D+00  0.3164239610D+00
      0.5442492580D+00  0.1143456438D+01  0.7443082909D+00
 Atom C39      Shell   113 SP   1    bf  303 -   306         14.118550570058          1.390455707570          4.390788099493
      0.1687144782D+00  0.1000000000D+01  0.1000000000D+01
 Atom C39      Shell   114 D   1     bf  307 -   312         14.118550570058          1.390455707570          4.390788099493
      0.8000000000D+00  0.1000000000D+01
 Atom H40      Shell   115 S   3     bf  313 -   313         15.689579511790          2.719656037029          4.319493286739
[...]
 **** Fit      -0.040178
 **** Fit      -0.040476
 **** Fit      -0.036859
 **** Fit      -0.030179
 **** Fit      -0.022134
 **** Fit      -0.014373
 **** Fit      -0.007928
 **** Fit      -0.003141
 **** Fit       0.000109
 **** Fit       0.002146
 **** Fit       0.003319
 **** Fit      -0.006643
 **** Fit      -0.008817
 **** Fit      -0.011602
 **** Fit      -0.015045
 **** Fit      -0.019057
 **** Fit      -0.023291
 **** Fit      -0.027058
 **** Fit      -0.029419
 **** Fit      -0.029537
 **** Fit      -0.027128
 **** Fit      -0.022663
 **** Fit      -0.017127
 **** Fit      -0.011563
 **** Fit      -0.006711
 **** Fit      -0.002908
 **** Fit      -0.000173
 **** Fit       0.001652
 **** Fit      -0.005417
 **** Fit      -0.007020
 **** Fit      -0.009040
 **** Fit      -0.011488
 **** Fit      -0.014270
 **** Fit      -0.017125
 **** Fit      -0.019592
 **** Fit      -0.021096
 **** Fit      -0.021148
 **** Fit      -0.019582
 **** Fit      -0.016650
 **** Fit      -0.012916
 **** Fit      -0.009016
 **** Fit      -0.005457
 **** Fit      -0.002523
 **** Fit      -0.004255
 **** Fit      -0.005375
 **** Fit      -0.006776
 **** Fit      -0.008458
 **** Fit      -0.010348
 **** Fit      -0.012264
 **** Fit      -0.013900
 **** Fit      -0.014897
 **** Fit      -0.014954
 **** Fit      -0.013964
 **** Fit      -0.012058
 **** Fit      -0.009557
 **** Fit      -0.003226
 **** Fit      -0.003963
 **** Fit      -0.004894
 **** Fit      -0.006017
 **** Fit      -0.007284
 **** Fit      -0.008573
 **** Fit      -0.009683
 **** Fit      -0.010379
 **** Fit      -0.010464
 **** Fit      -0.009858
 **** Fit      -0.002373
 **** Fit      -0.002826
 **** Fit      -0.003418
 **** Fit      -0.004152
 **** Fit      -0.004996
 **** Fit      -0.005868
 **** Fit      -0.006637
 **** Fit      -0.007141
 **** Fit      -0.007247
 **** Fit      -0.006891
 **** Fit      -0.001962
 **** Fit      -0.002323
 **** Fit      -0.002794
 **** Fit      -0.003355
 **** Fit      -0.003950
 **** Fit      -0.004488
 **** Fit      -0.004859
 **** Fit      -0.004969
 **** Fit      -0.001551
 **** Fit      -0.001848
 **** Fit      -0.002220
 **** Fit      -0.002626
 **** Fit      -0.003003
 **** Fit      -0.003275
 **** Fit      -0.021657
 **** Fit      -0.021745
 **** Fit      -0.020774
 **** Fit      -0.018863
 **** Fit      -0.023060
 **** Fit      -0.025623
 **** Fit      -0.027180
 **** Fit      -0.027346
 **** Fit      -0.025989
 **** Fit      -0.023310
 **** Fit      -0.019761
 **** Fit      -0.015881
 **** Fit      -0.019619
 **** Fit      -0.023814
 **** Fit      -0.027996
 **** Fit      -0.031574
 **** Fit      -0.033817
 **** Fit      -0.034099
 **** Fit      -0.032204
 **** Fit      -0.028465
 **** Fit      -0.023614
 **** Fit      -0.018462
 **** Fit      -0.013648
 **** Fit      -0.009534
 **** Fit      -0.007965
 **** Fit      -0.010540
 **** Fit      -0.013785
 **** Fit      -0.017779
 **** Fit      -0.022526
 **** Fit      -0.027876
 **** Fit      -0.033393
 **** Fit      -0.038267
 **** Fit      -0.041406
 **** Fit      -0.041832
 **** Fit      -0.039211
 **** Fit      -0.034086
 **** Fit      -0.027597
 **** Fit      -0.020928
 **** Fit      -0.014925
 **** Fit      -0.009991
 **** Fit      -0.006197
 **** Fit      -0.006215
 **** Fit      -0.008407
 **** Fit      -0.011268
 **** Fit      -0.014948
 **** Fit      -0.019586
 **** Fit      -0.025252
 **** Fit      -0.031833
 **** Fit      -0.038837
 **** Fit      -0.045201
 **** Fit      -0.049377
 **** Fit      -0.049930
 **** Fit      -0.046393
 **** Fit      -0.039617
 **** Fit      -0.031269
 **** Fit      -0.022970
 **** Fit      -0.015767
 **** Fit      -0.010071
 **** Fit      -0.005859
 **** Fit      -0.002894
 **** Fit      -0.006385
 **** Fit      -0.008712
 **** Fit      -0.011797
 **** Fit      -0.015835
 **** Fit      -0.021025
 **** Fit      -0.027512
 **** Fit      -0.035241
 **** Fit      -0.043681
 **** Fit      -0.051506
 **** Fit      -0.056672
 **** Fit      -0.057262
 **** Fit      -0.052709
 **** Fit      -0.044240
 **** Fit      -0.034085
 **** Fit      -0.024284
 **** Fit      -0.016046
 **** Fit      -0.009751
 **** Fit      -0.005259
 **** Fit      -0.002212
 **** Fit      -0.000225
 **** Fit      -0.004681
 **** Fit      -0.006465
 **** Fit      -0.008870
 **** Fit      -0.012094
 **** Fit      -0.016368
 **** Fit      -0.021940
 **** Fit      -0.029021
 **** Fit      -0.037617
 **** Fit      -0.047166
 **** Fit      -0.056120
 **** Fit      -0.062006
 **** Fit      -0.062514
 **** Fit      -0.057042
 **** Fit      -0.047183
 **** Fit      -0.035627
 **** Fit      -0.024722
 **** Fit      -0.015775
 **** Fit      -0.009119
 **** Fit      -0.004506
 **** Fit      -0.001475
 **** Fit       0.000433
 **** Fit      -0.004673
 **** Fit      -0.006458
 **** Fit      -0.008877
 **** Fit      -0.012139
 **** Fit      -0.016493
 **** Fit      -0.022215
 **** Fit      -0.029555
 **** Fit      -0.038554
 **** Fit      -0.048640
 **** Fit      -0.058142
 **** Fit      -0.064348
 **** Fit      -0.048075
 **** Fit      -0.035792
 **** Fit      -0.024358
 **** Fit      -0.015115
 **** Fit      -0.008355
 **** Fit      -0.003763
 **** Fit      -0.000813
 **** Fit       0.000994
 **** Fit      -0.004621
 **** Fit      -0.006365
 **** Fit      -0.008730
 **** Fit      -0.011921
 **** Fit      -0.016183
 **** Fit      -0.021790
 **** Fit      -0.028991
 **** Fit      -0.037828
 **** Fit      -0.047737
 **** Fit      -0.057070
 **** Fit      -0.063147
 **** Fit      -0.057441
 **** Fit      -0.046861
 **** Fit      -0.034669
 **** Fit      -0.023356
 **** Fit      -0.014252
 **** Fit      -0.007633
 **** Fit      -0.003171
 **** Fit      -0.000334
 **** Fit       0.001379
 **** Fit      -0.006181
 **** Fit      -0.008425
 **** Fit      -0.011437
 **** Fit      -0.015441
 **** Fit      -0.020676
 **** Fit      -0.027350
 **** Fit      -0.035469
 **** Fit      -0.044489
 **** Fit      -0.052924
 **** Fit      -0.058400
 **** Fit      -0.058697
 **** Fit      -0.053234
 **** Fit      -0.043561
 **** Fit      -0.032316
 **** Fit      -0.021801
 **** Fit      -0.013272
 **** Fit      -0.007026
 **** Fit      -0.002788
 **** Fit      -0.000081
 **** Fit       0.001557
 **** Fit      -0.005902
 **** Fit      -0.007960
 **** Fit      -0.010701
 **** Fit      -0.014305
 **** Fit      -0.018962
 **** Fit      -0.024809
 **** Fit      -0.031791
 **** Fit      -0.039398
 **** Fit      -0.046389
 **** Fit      -0.050873
 **** Fit      -0.051099
 **** Fit      -0.046569
 **** Fit      -0.038453
 **** Fit      -0.028860
 **** Fit      -0.019715
 **** Fit      -0.012149
 **** Fit      -0.006491
 **** Fit      -0.002574
 **** Fit      -0.000023
 **** Fit       0.001550
 **** Fit      -0.007350
 **** Fit      -0.009749
 **** Fit      -0.012859
 **** Fit      -0.016810
 **** Fit      -0.021668
 **** Fit      -0.027324
 **** Fit      -0.033314
 **** Fit      -0.038669
 **** Fit      -0.042017
 **** Fit      -0.042123
 **** Fit      -0.038620
 **** Fit      -0.032303
 **** Fit      -0.024678
 **** Fit      -0.017214
 **** Fit      -0.010850
 **** Fit      -0.005942
 **** Fit      -0.002436
 **** Fit      -0.000082
 **** Fit      -0.011216
 **** Fit      -0.014424
 **** Fit      -0.018276
 **** Fit      -0.022634
 **** Fit      -0.027103
 **** Fit      -0.030968
 **** Fit      -0.033298
 **** Fit      -0.033292
 **** Fit      -0.030710
 **** Fit      -0.026054
 **** Fit      -0.020316
 **** Fit      -0.014525
 **** Fit      -0.009414
 **** Fit      -0.005325
 **** Fit      -0.002292
 **** Fit      -0.000176
 **** Fit      -0.014937
 **** Fit      -0.018167
 **** Fit      -0.021379
 **** Fit      -0.024068
 **** Fit      -0.025627
 **** Fit      -0.025559
 **** Fit      -0.023715
 **** Fit      -0.020398
 **** Fit      -0.016229
 **** Fit      -0.011896
 **** Fit      -0.007933
 **** Fit      -0.004638
 **** Fit      -0.009704
 **** Fit      -0.011867
 **** Fit      -0.014193
 **** Fit      -0.016450
 **** Fit      -0.018290
 **** Fit      -0.019324
 **** Fit      -0.019244
 **** Fit      -0.017957
 **** Fit      -0.015641
 **** Fit      -0.012675
 **** Fit      -0.009504
 **** Fit      -0.007647
 **** Fit      -0.009195
 **** Fit      -0.010835
 **** Fit      -0.012401
 **** Fit      -0.013658
 **** Fit      -0.014354
 **** Fit      -0.005893
 **** Fit      -0.006974
 **** Fit      -0.008113
 **** Fit      -0.009193
 **** Fit      -0.010058
 **** Fit      -0.010539
 **** Fit      -0.005204
 **** Fit      -0.005985
 **** Fit      -0.006728
 **** Fit      -0.007327
 **** Fit      -0.022380
 **** Fit      -0.023445
 **** Fit      -0.023475
 **** Fit      -0.022402
 **** Fit      -0.020361
 **** Fit      -0.024292
 **** Fit      -0.026774
 **** Fit      -0.028229
 **** Fit      -0.028299
 **** Fit      -0.026876
 **** Fit      -0.024167
 **** Fit      -0.020617
 **** Fit      -0.016743
 **** Fit      -0.024387
 **** Fit      -0.028264
 **** Fit      -0.031491
 **** Fit      -0.033424
 **** Fit      -0.033537
 **** Fit      -0.031676
 **** Fit      -0.028151
 **** Fit      -0.023610
 **** Fit      -0.018770
 **** Fit      -0.014200
 **** Fit      -0.022605
 **** Fit      -0.027375
 **** Fit      -0.032132
 **** Fit      -0.036176
 **** Fit      -0.038636
 **** Fit      -0.038786
 **** Fit      -0.036412
 **** Fit      -0.031967
 **** Fit      -0.026347
 **** Fit      -0.020497
 **** Fit      -0.015121
 **** Fit      -0.010591
 **** Fit      -0.007006
 **** Fit      -0.011900
 **** Fit      -0.015314
 **** Fit      -0.019485
 **** Fit      -0.024406
 **** Fit      -0.029895
 **** Fit      -0.035476
 **** Fit      -0.040299
 **** Fit      -0.043262
 **** Fit      -0.043421
 **** Fit      -0.040514
 **** Fit      -0.035153
 **** Fit      -0.028500
 **** Fit      -0.021726
 **** Fit      -0.015648
 **** Fit      -0.010652
 **** Fit      -0.006797
 **** Fit      -0.012219
 **** Fit      -0.015821
 **** Fit      -0.020275
 **** Fit      -0.025596
 **** Fit      -0.031615
 **** Fit      -0.037820
 **** Fit      -0.043241
 **** Fit      -0.046580
 **** Fit      -0.046714
 **** Fit      -0.043349
 **** Fit      -0.037243
 **** Fit      -0.029782
 **** Fit      -0.022317
 **** Fit      -0.015742
 **** Fit      -0.010441
 **** Fit      -0.006432
 **** Fit      -0.003540
 **** Fit      -0.009397
 **** Fit      -0.012282
 **** Fit      -0.015950
 **** Fit      -0.020512
 **** Fit      -0.026002
 **** Fit      -0.032259
 **** Fit      -0.038753
 **** Fit      -0.044454
 **** Fit      -0.047956
 **** Fit      -0.048043
 **** Fit      -0.044409
 **** Fit      -0.037899
 **** Fit      -0.030023
 **** Fit      -0.022224
 **** Fit      -0.015431
 **** Fit      -0.010021
 **** Fit      -0.005982
 **** Fit      -0.003109
 **** Fit      -0.012077
 **** Fit      -0.015672
 **** Fit      -0.020148
 **** Fit      -0.025537
 **** Fit      -0.031680
 **** Fit      -0.038052
 **** Fit      -0.043634
 **** Fit      -0.047042
 **** Fit      -0.047079
 **** Fit      -0.043446
 **** Fit      -0.036982
 **** Fit      -0.029183
 **** Fit      -0.021476
 **** Fit      -0.014781
 **** Fit      -0.009467
 **** Fit      -0.005517
 **** Fit      -0.002723
 **** Fit      -0.011608
 **** Fit      -0.014998
 **** Fit      -0.019198
 **** Fit      -0.024225
 **** Fit      -0.029913
 **** Fit      -0.035764
 **** Fit      -0.040844
 **** Fit      -0.043910
 **** Fit      -0.043897
 **** Fit      -0.040536
 **** Fit      -0.034567
 **** Fit      -0.027332
 **** Fit      -0.020138
 **** Fit      -0.013849
 **** Fit      -0.008827
 **** Fit      -0.005076
 **** Fit      -0.002414
 **** Fit      -0.017745
 **** Fit      -0.022206
 **** Fit      -0.027182
 **** Fit      -0.032222
 **** Fit      -0.036526
 **** Fit      -0.039074
 **** Fit      -0.039008
 **** Fit      -0.036108
 **** Fit      -0.030961
 **** Fit      -0.024662
 **** Fit      -0.018313
 **** Fit      -0.012680
 **** Fit      -0.008116
 **** Fit      -0.004661
 **** Fit      -0.019701
 **** Fit      -0.023836
 **** Fit      -0.027934
 **** Fit      -0.031358
 **** Fit      -0.033328
 **** Fit      -0.033213
 **** Fit      -0.030849
 **** Fit      -0.026664
 **** Fit      -0.021477
 **** Fit      -0.016153
 **** Fit      -0.011330
 **** Fit      -0.007337
 **** Fit      -0.004250
 **** Fit      -0.020251
 **** Fit      -0.023432
 **** Fit      -0.026020
 **** Fit      -0.027460
 **** Fit      -0.027311
 **** Fit      -0.025464
 **** Fit      -0.022210
 **** Fit      -0.018126
 **** Fit      -0.013847
 **** Fit      -0.009875
 **** Fit      -0.006501
 **** Fit      -0.019126
 **** Fit      -0.021015
 **** Fit      -0.022027
 **** Fit      -0.021869
 **** Fit      -0.020470
 **** Fit      -0.018019
 **** Fit      -0.014905
 **** Fit      -0.023598
 **** Fit      -0.023561
 **** Fit      -0.022488
 **** Fit      -0.023836
 **** Fit      -0.025990
 **** Fit      -0.027193
 **** Fit      -0.027160
 **** Fit      -0.025818
 **** Fit      -0.023350
 **** Fit      -0.020130
 **** Fit      -0.023332
 **** Fit      -0.026574
 **** Fit      -0.029177
 **** Fit      -0.030648
 **** Fit      -0.030612
 **** Fit      -0.028976
 **** Fit      -0.025986
 **** Fit      -0.022136
 **** Fit      -0.017981
 **** Fit      -0.025158
 **** Fit      -0.028866
 **** Fit      -0.031879
 **** Fit      -0.033594
 **** Fit      -0.033546
 **** Fit      -0.031621
 **** Fit      -0.028136
 **** Fit      -0.023703
 **** Fit      -0.018991
 **** Fit      -0.014533
 **** Fit      -0.022184
 **** Fit      -0.026372
 **** Fit      -0.030421
 **** Fit      -0.033735
 **** Fit      -0.035626
 **** Fit      -0.035554
 **** Fit      -0.033393
 **** Fit      -0.029518
 **** Fit      -0.024640
 **** Fit      -0.019518
 **** Fit      -0.014737
 **** Fit      -0.010627
 **** Fit      -0.022475
 **** Fit      -0.026797
 **** Fit      -0.030995
 **** Fit      -0.034440
 **** Fit      -0.036400
 **** Fit      -0.036297
 **** Fit      -0.034001
 **** Fit      -0.029920
 **** Fit      -0.024820
 **** Fit      -0.019504
 **** Fit      -0.014580
 **** Fit      -0.010386
 **** Fit      -0.022100
 **** Fit      -0.026344
 **** Fit      -0.030463
 **** Fit      -0.033835
 **** Fit      -0.035737
 **** Fit      -0.035603
 **** Fit      -0.033306
 **** Fit      -0.029252
 **** Fit      -0.024200
 **** Fit      -0.018943
 **** Fit      -0.014085
 **** Fit      -0.009956
 **** Fit      -0.025044
 **** Fit      -0.028864
 **** Fit      -0.031968
 **** Fit      -0.033694
 **** Fit      -0.033532
 **** Fit      -0.031369
 **** Fit      -0.027572
 **** Fit      -0.022833
 **** Fit      -0.017884
 **** Fit      -0.013291
 **** Fit      -0.009371
 **** Fit      -0.023042
 **** Fit      -0.026399
 **** Fit      -0.029090
 **** Fit      -0.030556
 **** Fit      -0.030372
 **** Fit      -0.028445
 **** Fit      -0.025081
 **** Fit      -0.020860
 **** Fit      -0.016417
 **** Fit      -0.012252
 **** Fit      -0.023370
 **** Fit      -0.025582
 **** Fit      -0.026755
 **** Fit      -0.026558
 **** Fit      -0.024920
 **** Fit      -0.022078
 **** Fit      -0.018491
 **** Fit      -0.014669
 **** Fit      -0.021845
 **** Fit      -0.022736
 **** Fit      -0.022537
 **** Fit      -0.021196
 **** Fit      -0.018888
 **** Fit      -0.024695
 **** Fit      -0.024585
 **** Fit      -0.023423
 **** Fit      -0.025603
 **** Fit      -0.026625
 **** Fit      -0.026497
 **** Fit      -0.025170
 **** Fit      -0.022819
 **** Fit      -0.019781
 **** Fit      -0.024716
 **** Fit      -0.026802
 **** Fit      -0.027906
 **** Fit      -0.027756
 **** Fit      -0.026300
 **** Fit      -0.023736
 **** Fit      -0.020447
 **** Fit      -0.025070
 **** Fit      -0.027218
 **** Fit      -0.028349
 **** Fit      -0.028177
 **** Fit      -0.026648
 **** Fit      -0.023975
 **** Fit      -0.020563
 **** Fit      -0.024667
 **** Fit      -0.026768
 **** Fit      -0.027863
 **** Fit      -0.027672
 **** Fit      -0.026141
 **** Fit      -0.023484
 **** Fit      -0.020101
 **** Fit      -0.023532
 **** Fit      -0.025484
 **** Fit      -0.026486
 **** Fit      -0.026280
 **** Fit      -0.024820
 **** Fit      -0.022301
 **** Fit      -0.019096
 **** Fit      -0.023513
 **** Fit      -0.024379
 **** Fit      -0.024166
 **** Fit      -0.022833
 **** Fit      -0.020552
 -----------------------------------------------------------------
 Leave Link  602 at Wed May 17 12:02:50 2017, MaxMem=   33554432 cpu:      91.6
 (Enter /scratch/michal/g09/l9999.exe)

 Test job not archived.
 1\1\GINC-RZEPICHA\SP\RHF\6-31G(d)\C27H46O2\MICHAL\17-May-2017\0\\#P HF
 /6-31G* SCF(Conver=6) NoSymm Test Pop=chelpg IOp(6/33=2) GFInput GFPri
 nt\\MEP - Input generated by R.E.D.-III.x MOLECULE\\0,1\O,0,6.8351035,
 0.7828408,0.\H,0,7.40199104,0.,0.\O,0,10.44894013,-1.97753978,4.943127
 56\H,0,10.13402012,-1.8664273,5.85123172\C,0,2.78870587,-0.62364931,0.
 75619584\C,0,4.08823936,0.195262,0.5202204\H,0,4.59451401,-0.29421652,
 -0.32400251\C,0,5.09126658,0.17340574,1.68021391\H,0,4.63964371,0.6614
 7799,2.55606582\C,0,5.46626401,-1.28464518,2.04765682\H,0,6.04709676,-
 1.67109334,1.19359193\C,0,2.04030356,-0.33453341,-0.59155204\H,0,2.554
 82001,-0.93305798,-1.36015599\C,0,3.23145098,-2.08161985,0.99602547\H,
 0,3.70694582,-2.4586482,0.07907224\H,0,2.38000614,-2.73927599,1.197742
 01\C,0,6.42401922,-1.36058236,3.28813003\C,0,3.59714589,1.55065688,-0.
 00611358\H,0,4.36631217,2.06589598,-0.58814726\H,0,3.31862792,2.215676
 16,0.82142879\C,0,4.22087221,-2.1937007,2.17394684\H,0,3.68347716,-1.9
 6080243,3.09906161\H,0,4.53638798,-3.23953093,2.26485516\C,0,2.3569907
 5,1.17751944,-0.8641297\H,0,1.49402563,1.80134591,-0.60244698\H,0,2.55
 172228,1.35205436,-1.92624467\C,0,6.35760756,0.99159311,1.35014423\H,0
 ,6.09719658,2.05616123,1.36596895\C,0,0.52727853,-0.65028317,-0.713614
 61\H,0,0.,0.,0.\C,0,1.96281889,-0.09557957,1.9520545\H,0,2.53956488,-0
 .07602892,2.88040592\H,0,1.59837619,0.92146163,1.7787797\H,0,1.0871951
 6,-0.72842306,2.13046299\C,0,7.52598071,-0.29831353,3.17909571\C,0,7.0
 9971264,-2.76661401,3.31199377\H,0,7.47913287,-2.98287856,2.30355895\H
 ,0,6.34293134,-3.52848096,3.52739304\C,0,7.47121518,0.73579747,2.32350
 499\H,0,8.30256789,1.43917999,2.2857774\C,0,5.65589303,-1.13126862,4.6
 1835629\H,0,4.98244546,-1.96522248,4.83756744\H,0,6.33876529,-1.037890
 61,5.46639644\H,0,5.06270162,-0.21264581,4.58012364\C,0,8.71682271,-0.
 44894002,4.10791571\H,0,9.47882913,0.29994106,3.8707845\H,0,8.4042234,
 -0.26221552,5.14775068\C,0,8.26237952,-2.91182166,4.30566146\H,0,7.899
 45789,-2.81565399,5.33963771\H,0,8.70561186,-3.91048367,4.22078149\C,0
 ,0.00121684,-0.30004214,-2.14034074\H,0,0.75118757,0.28886522,-2.67812
 593\H,0,-0.10789563,-1.22682204,-2.71970117\C,0,9.33629725,-1.85379891
 ,4.0537141\H,0,9.7703496,-2.01273957,3.05884007\C,0,0.17717547,-2.1090
 0215,-0.36616794\H,0,0.77022119,-2.80714298,-0.97005031\H,0,-0.8777498
 8,-2.31545114,-0.57037033\H,0,0.35531659,-2.34341322,0.68634486\C,0,-1
 .31469107,0.50425684,-2.18120725\H,0,-1.16833726,1.42565281,-1.6006486
 2\H,0,-1.48961845,0.83276019,-3.21380134\C,0,-2.57969253,-0.19662548,-
 1.6513294\H,0,-3.3925754,0.54369824,-1.61241021\H,0,-2.4130188,-0.5062
 2129,-0.61067021\C,0,-3.08483661,-1.41382762,-2.45579328\H,0,-2.267187
 62,-2.14484118,-2.53083383\C,0,-3.5074617,-1.03841209,-3.88548993\H,0,
 -4.31432769,-0.29406787,-3.86984621\H,0,-3.87712516,-1.91674601,-4.426
 77125\H,0,-2.67911876,-0.61997383,-4.46595796\C,0,-4.24670468,-2.09498
 166,-1.71455353\H,0,-5.09718944,-1.40934795,-1.6075397\H,0,-4.60027245
 ,-2.98032909,-2.25528123\H,0,-3.94856044,-2.41294855,-0.70875703\\Vers
 ion=EM64L-G09RevC.01\HF=-1198.921925\RMSD=4.867e-07\Dipole=-0.5081699,
 -0.3796755,0.7458554\Quadrupole=-17.9244485,5.1572904,12.7671581,-2.39
 73456,4.3619806,0.6410013\PG=C01 [X(C27H46O2)]\\@


 THE DIFFERENCE BETWEEN A NOOSE AND A HALO IS ONLY 12 INCHES.
 Job cpu time:  0 days  0 hours 43 minutes 53.8 seconds.
 File lengths (MBytes):  RWF=    151 Int=      0 D2E=      0 Chk=     11 Scr=      1
 Normal termination of Gaussian 09 at Wed May 17 12:02:50 2017.
