 Entering Gaussian System, Link 0=/scratch/michal/g09//g09
 Input=JOB2-gau_m1-2-2.com
 Output=JOB2-gau_m1-2-2.log
 Initial command:
 /scratch/michal/g09/l1.exe /scratch/michal/gauss_scratch/Gau-45450.inp -scrdir=/scratch/michal/gauss_scratch/
 Entering Link 1 = /scratch/michal/g09/l1.exe PID=     45452.
  
 Copyright (c) 1988,1990,1992,1993,1995,1998,2003,2009,2011,
            Gaussian, Inc.  All Rights Reserved.
  
 This is part of the Gaussian(R) 09 program.  It is based on
 the Gaussian(R) 03 system (copyright 2003, Gaussian, Inc.),
 the Gaussian(R) 98 system (copyright 1998, Gaussian, Inc.),
 the Gaussian(R) 94 system (copyright 1995, Gaussian, Inc.),
 the Gaussian 92(TM) system (copyright 1992, Gaussian, Inc.),
 the Gaussian 90(TM) system (copyright 1990, Gaussian, Inc.),
 the Gaussian 88(TM) system (copyright 1988, Gaussian, Inc.),
 the Gaussian 86(TM) system (copyright 1986, Carnegie Mellon
 University), and the Gaussian 82(TM) system (copyright 1983,
 Carnegie Mellon University). Gaussian is a federally registered
 trademark of Gaussian, Inc.
  
 This software contains proprietary and confidential information,
 including trade secrets, belonging to Gaussian, Inc.
  
 This software is provided under written license and may be
 used, copied, transmitted, or stored only in accord with that
 written license.
  
 The following legend is applicable only to US Government
 contracts under FAR:
  
                    RESTRICTED RIGHTS LEGEND
  
 Use, reproduction and disclosure by the US Government is
 subject to restrictions as set forth in subparagraphs (a)
 and (c) of the Commercial Computer Software - Restricted
 Rights clause in FAR 52.227-19.
  
 Gaussian, Inc.
 340 Quinnipiac St., Bldg. 40, Wallingford CT 06492
  
  
 ---------------------------------------------------------------
 Warning -- This program may not be used in any manner that
 competes with the business of Gaussian, Inc. or will provide
 assistance to any competitor of Gaussian, Inc.  The licensee
 of this program is prohibited from giving any competitor of
 Gaussian, Inc. access to this program.  By using this program,
 the user acknowledges that Gaussian, Inc. is engaged in the
 business of creating and licensing software in the field of
 computational chemistry and represents and warrants to the
 licensee that it is not a competitor of Gaussian, Inc. and that
 it will not use this program in any manner prohibited above.
 ---------------------------------------------------------------
  

 Cite this work as:
 Gaussian 09, Revision C.01,
 M. J. Frisch, G. W. Trucks, H. B. Schlegel, G. E. Scuseria, 
 M. A. Robb, J. R. Cheeseman, G. Scalmani, V. Barone, B. Mennucci, 
 G. A. Petersson, H. Nakatsuji, M. Caricato, X. Li, H. P. Hratchian, 
 A. F. Izmaylov, J. Bloino, G. Zheng, J. L. Sonnenberg, M. Hada, 
 M. Ehara, K. Toyota, R. Fukuda, J. Hasegawa, M. Ishida, T. Nakajima, 
 Y. Honda, O. Kitao, H. Nakai, T. Vreven, J. A. Montgomery, Jr., 
 J. E. Peralta, F. Ogliaro, M. Bearpark, J. J. Heyd, E. Brothers, 
 K. N. Kudin, V. N. Staroverov, T. Keith, R. Kobayashi, J. Normand, 
 K. Raghavachari, A. Rendell, J. C. Burant, S. S. Iyengar, J. Tomasi, 
 M. Cossi, N. Rega, J. M. Millam, M. Klene, J. E. Knox, J. B. Cross, 
 V. Bakken, C. Adamo, J. Jaramillo, R. Gomperts, R. E. Stratmann, 
 O. Yazyev, A. J. Austin, R. Cammi, C. Pomelli, J. W. Ochterski, 
 R. L. Martin, K. Morokuma, V. G. Zakrzewski, G. A. Voth, 
 P. Salvador, J. J. Dannenberg, S. Dapprich, A. D. Daniels, 
 O. Farkas, J. B. Foresman, J. V. Ortiz, J. Cioslowski, 
 and D. J. Fox, Gaussian, Inc., Wallingford CT, 2010.
 
 ******************************************
 Gaussian 09:  EM64L-G09RevC.01 23-Sep-2011
                17-May-2017 
 ******************************************
 %Mem=256MB
 %NProc=48
 Will use up to   48 processors via shared memory.
 ----------------------------------------------------------------------
 #P HF/6-31G* SCF(Conver=6) NoSymm Test Pop=chelpg IOp(6/33=2) GFInput 
 GFPrint
 ----------------------------------------------------------------------
 1/38=1/1;
 2/12=2,15=1,17=6,18=5,40=1/2;
 3/5=1,6=6,7=1,11=9,16=1,24=110,25=1,30=1/1,2,3;
 4//1;
 5/5=2,6=6,38=5/2;
 6/7=2,8=2,9=2,10=2,15=8,20=3,28=1,33=2/1,2;
 99/5=1,9=1/99;
 Leave Link    1 at Wed May 17 11:45:06 2017, MaxMem=   33554432 cpu:       5.1
 (Enter /scratch/michal/g09/l101.exe)
 ----------------------------------------------
 MEP - Input generated by R.E.D.-III.x MOLECULE
 ----------------------------------------------
 Charge =  0 Multiplicity = 1
 Symbolic Z-Matrix:
 O                     6.84733   0.78346   0. 
 H                     7.41337   0.        0. 
 O                     10.456   -1.98522   4.9423 
 H                     10.14203  -1.87186   5.85046 
 C                     2.79736  -0.61463   0.75592 
 C                     4.10014   0.19934   0.51926 
 H                     4.60536  -0.294    -0.32334 
 C                     5.10214   0.17661   1.67993 
 H                     4.65065   0.66596   2.55519 
 C                     5.47382  -1.28189   2.04845 
 H                     6.05336  -1.67061   1.19453 
 C                     2.0497   -0.32344  -0.59263 
 H                     2.5632   -0.92369  -1.36052 
 C                     3.23607  -2.0737    0.99823 
 H                     3.70984  -2.45394   0.08176 
 H                     2.38321  -2.72878   1.20204 
 C                     6.43172  -1.35932   3.28871 
 C                     3.61542   1.55533  -0.01062 
 H                     4.3867    2.06454  -0.5951 
 H                     3.34129   2.22453   0.81503 
 C                     4.22579  -2.18685   2.17601 
 H                     3.68941  -1.95084   3.10091 
 H                     4.53792  -3.23357   2.26842 
 C                     2.37217   1.18654  -0.86571 
 H                     1.51278   1.81415  -0.60037 
 H                     2.56362   1.35887  -1.92885 
 C                     6.3701    0.99257   1.35024 
 H                     6.1117    2.05763   1.36649 
 C                     0.53672  -0.64206  -0.71522 
 H                     0.        0.        0. 
 C                     1.97195  -0.08272   1.95006 
 H                     2.54601  -0.06792   2.88011 
 H                     1.61431   0.93673   1.77671 
 H                     1.09186  -0.7104    2.12488 
 C                     7.53621  -0.29994   3.17863 
 C                     7.10371  -2.76711   3.3137 
 H                     7.48186  -2.98545   2.30524 
 H                     6.34506  -3.52675   3.5304 
 C                     7.48346   0.73426   2.32311 
 H                     8.31638   1.43577   2.285 
 C                     5.66496  -1.1263    4.61911 
 H                     4.9898   -1.95836   4.8404 
 H                     6.34871  -1.03295   5.46645 
 H                     5.07382  -0.20638   4.57977 
 C                     8.72736  -0.45295   4.10671 
 H                     9.49108   0.2938    3.86835 
 H                     8.416    -0.26444   5.14662 
 C                     8.26669  -2.9144    4.30682 
 H                     7.90454  -2.81641   5.3409 
 H                     8.70727  -3.91428   4.22256 
 C                     0.02056  -0.27904  -2.13159 
 H                     0.44461   0.68318  -2.43373 
 H                     0.40799  -1.0202   -2.8481 
 C                     9.34317  -1.85941   4.05338 
 H                     9.77643  -2.02034   3.05847 
 C                     0.19868  -2.10765  -0.38743 
 H                     0.80112  -2.79268  -0.9971 
 H                    -0.85439  -2.32722  -0.58769 
 H                     0.37894  -2.34969   0.66247 
 C                    -1.50922  -0.19669  -2.2627 
 H                    -1.96447  -1.1373   -1.93011 
 H                    -1.88661   0.57492  -1.57784 
 C                    -2.01115   0.07846  -3.69278 
 H                    -3.10998   0.02288  -3.69436 
 H                    -1.66687  -0.73724  -4.34502 
 C                    -1.59922   1.42081  -4.33431 
 H                    -0.50129   1.4714   -4.3561 
 C                    -2.11182   2.6326   -3.54 
 H                    -3.20732   2.61634  -3.46919 
 H                    -1.82493   3.57061  -4.02881 
 H                    -1.71284   2.65771  -2.52079 
 C                    -2.09008   1.48401  -5.78964 
 H                    -3.18609   1.44327  -5.83488 
 H                    -1.77203   2.41254  -6.27737 
 H                    -1.70168   0.64544  -6.37905 
 
 NAtoms=     75 NQM=        0 NQMF=       0 NMMI=     75 NMMIF=      0
                NMic=       0 NMicF=      0.
                    Isotopes and Nuclear Properties:
 (Nuclear quadrupole moments (NQMom) in fm**2, nuclear magnetic moments (NMagM)
  in nuclear magnetons)

  Atom         1           2           3           4           5           6           7           8           9          10
 IAtWgt=          16           1          16           1          12          12           1          12           1          12
 AtmWgt=  15.9949146   1.0078250  15.9949146   1.0078250  12.0000000  12.0000000   1.0078250  12.0000000   1.0078250  12.0000000
 NucSpn=           0           1           0           1           0           0           1           0           1           0
 AtZEff=   0.0000000   0.0000000   0.0000000   0.0000000   0.0000000   0.0000000   0.0000000   0.0000000   0.0000000   0.0000000
 NQMom=    0.0000000   0.0000000   0.0000000   0.0000000   0.0000000   0.0000000   0.0000000   0.0000000   0.0000000   0.0000000
 NMagM=    0.0000000   2.7928460   0.0000000   2.7928460   0.0000000   0.0000000   2.7928460   0.0000000   2.7928460   0.0000000

  Atom        11          12          13          14          15          16          17          18          19          20
 IAtWgt=           1          12           1          12           1           1          12          12           1           1
 AtmWgt=   1.0078250  12.0000000   1.0078250  12.0000000   1.0078250   1.0078250  12.0000000  12.0000000   1.0078250   1.0078250
 NucSpn=           1           0           1           0           1           1           0           0           1           1
 AtZEff=   0.0000000   0.0000000   0.0000000   0.0000000   0.0000000   0.0000000   0.0000000   0.0000000   0.0000000   0.0000000
 NQMom=    0.0000000   0.0000000   0.0000000   0.0000000   0.0000000   0.0000000   0.0000000   0.0000000   0.0000000   0.0000000
 NMagM=    2.7928460   0.0000000   2.7928460   0.0000000   2.7928460   2.7928460   0.0000000   0.0000000   2.7928460   2.7928460

  Atom        21          22          23          24          25          26          27          28          29          30
 IAtWgt=          12           1           1          12           1           1          12           1          12           1
 AtmWgt=  12.0000000   1.0078250   1.0078250  12.0000000   1.0078250   1.0078250  12.0000000   1.0078250  12.0000000   1.0078250
 NucSpn=           0           1           1           0           1           1           0           1           0           1
 AtZEff=   0.0000000   0.0000000   0.0000000   0.0000000   0.0000000   0.0000000   0.0000000   0.0000000   0.0000000   0.0000000
 NQMom=    0.0000000   0.0000000   0.0000000   0.0000000   0.0000000   0.0000000   0.0000000   0.0000000   0.0000000   0.0000000
 NMagM=    0.0000000   2.7928460   2.7928460   0.0000000   2.7928460   2.7928460   0.0000000   2.7928460   0.0000000   2.7928460

  Atom        31          32          33          34          35          36          37          38          39          40
 IAtWgt=          12           1           1           1          12          12           1           1          12           1
 AtmWgt=  12.0000000   1.0078250   1.0078250   1.0078250  12.0000000  12.0000000   1.0078250   1.0078250  12.0000000   1.0078250
 NucSpn=           0           1           1           1           0           0           1           1           0           1
 AtZEff=   0.0000000   0.0000000   0.0000000   0.0000000   0.0000000   0.0000000   0.0000000   0.0000000   0.0000000   0.0000000
 NQMom=    0.0000000   0.0000000   0.0000000   0.0000000   0.0000000   0.0000000   0.0000000   0.0000000   0.0000000   0.0000000
 NMagM=    0.0000000   2.7928460   2.7928460   2.7928460   0.0000000   0.0000000   2.7928460   2.7928460   0.0000000   2.7928460

  Atom        41          42          43          44          45          46          47          48          49          50
 IAtWgt=          12           1           1           1          12           1           1          12           1           1
 AtmWgt=  12.0000000   1.0078250   1.0078250   1.0078250  12.0000000   1.0078250   1.0078250  12.0000000   1.0078250   1.0078250
 NucSpn=           0           1           1           1           0           1           1           0           1           1
 AtZEff=   0.0000000   0.0000000   0.0000000   0.0000000   0.0000000   0.0000000   0.0000000   0.0000000   0.0000000   0.0000000
 NQMom=    0.0000000   0.0000000   0.0000000   0.0000000   0.0000000   0.0000000   0.0000000   0.0000000   0.0000000   0.0000000
 NMagM=    0.0000000   2.7928460   2.7928460   2.7928460   0.0000000   2.7928460   2.7928460   0.0000000   2.7928460   2.7928460

  Atom        51          52          53          54          55          56          57          58          59          60
 IAtWgt=          12           1           1          12           1          12           1           1           1          12
 AtmWgt=  12.0000000   1.0078250   1.0078250  12.0000000   1.0078250  12.0000000   1.0078250   1.0078250   1.0078250  12.0000000
 NucSpn=           0           1           1           0           1           0           1           1           1           0
 AtZEff=   0.0000000   0.0000000   0.0000000   0.0000000   0.0000000   0.0000000   0.0000000   0.0000000   0.0000000   0.0000000
 NQMom=    0.0000000   0.0000000   0.0000000   0.0000000   0.0000000   0.0000000   0.0000000   0.0000000   0.0000000   0.0000000
 NMagM=    0.0000000   2.7928460   2.7928460   0.0000000   2.7928460   0.0000000   2.7928460   2.7928460   2.7928460   0.0000000

  Atom        61          62          63          64          65          66          67          68          69          70
 IAtWgt=           1           1          12           1           1          12           1          12           1           1
 AtmWgt=   1.0078250   1.0078250  12.0000000   1.0078250   1.0078250  12.0000000   1.0078250  12.0000000   1.0078250   1.0078250
 NucSpn=           1           1           0           1           1           0           1           0           1           1
 AtZEff=   0.0000000   0.0000000   0.0000000   0.0000000   0.0000000   0.0000000   0.0000000   0.0000000   0.0000000   0.0000000
 NQMom=    0.0000000   0.0000000   0.0000000   0.0000000   0.0000000   0.0000000   0.0000000   0.0000000   0.0000000   0.0000000
 NMagM=    2.7928460   2.7928460   0.0000000   2.7928460   2.7928460   0.0000000   2.7928460   0.0000000   2.7928460   2.7928460

  Atom        71          72          73          74          75
 IAtWgt=           1          12           1           1           1
 AtmWgt=   1.0078250  12.0000000   1.0078250   1.0078250   1.0078250
 NucSpn=           1           0           1           1           1
 AtZEff=   0.0000000   0.0000000   0.0000000   0.0000000   0.0000000
 NQMom=    0.0000000   0.0000000   0.0000000   0.0000000   0.0000000
 NMagM=    2.7928460   0.0000000   2.7928460   2.7928460   2.7928460
 Leave Link  101 at Wed May 17 11:45:06 2017, MaxMem=   33554432 cpu:      12.9
 (Enter /scratch/michal/g09/l202.exe)
 Symmetry turned off by external request.
 Stoichiometry    C27H46O2
 Framework group  C1[X(C27H46O2)]
 Deg. of freedom   219
 Full point group                 C1      NOp   1
                          Input orientation:                          
 ---------------------------------------------------------------------
 Center     Atomic      Atomic             Coordinates (Angstroms)
 Number     Number       Type             X           Y           Z
 ---------------------------------------------------------------------
      1          8           0        6.847329    0.783457    0.000000
      2          1           0        7.413366    0.000000    0.000000
      3          8           0       10.455999   -1.985224    4.942304
      4          1           0       10.142034   -1.871860    5.850458
      5          6           0        2.797356   -0.614628    0.755921
      6          6           0        4.100137    0.199338    0.519258
      7          1           0        4.605357   -0.294001   -0.323339
      8          6           0        5.102141    0.176612    1.679928
      9          1           0        4.650646    0.665958    2.555188
     10          6           0        5.473818   -1.281885    2.048450
     11          1           0        6.053359   -1.670610    1.194530
     12          6           0        2.049699   -0.323439   -0.592629
     13          1           0        2.563195   -0.923690   -1.360518
     14          6           0        3.236073   -2.073696    0.998233
     15          1           0        3.709842   -2.453945    0.081760
     16          1           0        2.383214   -2.728775    1.202038
     17          6           0        6.431718   -1.359324    3.288705
     18          6           0        3.615420    1.555334   -0.010617
     19          1           0        4.386701    2.064540   -0.595105
     20          1           0        3.341291    2.224526    0.815030
     21          6           0        4.225791   -2.186849    2.176013
     22          1           0        3.689407   -1.950840    3.100910
     23          1           0        4.537919   -3.233567    2.268420
     24          6           0        2.372171    1.186544   -0.865710
     25          1           0        1.512780    1.814149   -0.600373
     26          1           0        2.563618    1.358874   -1.928855
     27          6           0        6.370102    0.992572    1.350237
     28          1           0        6.111701    2.057631    1.366490
     29          6           0        0.536716   -0.642060   -0.715221
     30          1           0        0.000000    0.000000    0.000000
     31          6           0        1.971949   -0.082722    1.950063
     32          1           0        2.546005   -0.067919    2.880114
     33          1           0        1.614308    0.936732    1.776707
     34          1           0        1.091860   -0.710398    2.124882
     35          6           0        7.536214   -0.299940    3.178631
     36          6           0        7.103713   -2.767109    3.313697
     37          1           0        7.481856   -2.985452    2.305242
     38          1           0        6.345057   -3.526751    3.530404
     39          6           0        7.483464    0.734261    2.323110
     40          1           0        8.316382    1.435766    2.285004
     41          6           0        5.664960   -1.126303    4.619105
     42          1           0        4.989802   -1.958356    4.840402
     43          1           0        6.348709   -1.032954    5.466452
     44          1           0        5.073822   -0.206380    4.579769
     45          6           0        8.727362   -0.452951    4.106713
     46          1           0        9.491075    0.293802    3.868347
     47          1           0        8.415996   -0.264444    5.146619
     48          6           0        8.266692   -2.914399    4.306821
     49          1           0        7.904539   -2.816407    5.340902
     50          1           0        8.707271   -3.914281    4.222560
     51          6           0        0.020559   -0.279045   -2.131588
     52          1           0        0.444609    0.683180   -2.433732
     53          1           0        0.407986   -1.020197   -2.848096
     54          6           0        9.343172   -1.859408    4.053379
     55          1           0        9.776426   -2.020342    3.058473
     56          6           0        0.198678   -2.107651   -0.387429
     57          1           0        0.801120   -2.792679   -0.997103
     58          1           0       -0.854385   -2.327215   -0.587695
     59          1           0        0.378938   -2.349689    0.662468
     60          6           0       -1.509215   -0.196685   -2.262697
     61          1           0       -1.964471   -1.137299   -1.930105
     62          1           0       -1.886613    0.574921   -1.577843
     63          6           0       -2.011154    0.078464   -3.692776
     64          1           0       -3.109981    0.022880   -3.694358
     65          1           0       -1.666868   -0.737235   -4.345021
     66          6           0       -1.599218    1.420812   -4.334314
     67          1           0       -0.501287    1.471397   -4.356097
     68          6           0       -2.111823    2.632598   -3.540002
     69          1           0       -3.207320    2.616338   -3.469187
     70          1           0       -1.824932    3.570614   -4.028807
     71          1           0       -1.712839    2.657709   -2.520786
     72          6           0       -2.090081    1.484006   -5.789642
     73          1           0       -3.186093    1.443270   -5.834881
     74          1           0       -1.772029    2.412544   -6.277373
     75          1           0       -1.701677    0.645445   -6.379052
 ---------------------------------------------------------------------
 Rotational constants (GHZ):      0.4911887      0.0554026      0.0524413
 Leave Link  202 at Wed May 17 11:45:06 2017, MaxMem=   33554432 cpu:       0.1
 (Enter /scratch/michal/g09/l301.exe)
 Standard basis: 6-31G(d) (6D, 7F)
 Ernie: Thresh=  0.10000D-02 Tol=  0.10000D-05 Strict=F.
 AO basis set in the form of general basis input (Overlap normalization):
      1 0
 S   6 1.00       0.000000000000
      0.5484671660D+04  0.1831074430D-02
      0.8252349460D+03  0.1395017220D-01
      0.1880469580D+03  0.6844507810D-01
      0.5296450000D+02  0.2327143360D+00
      0.1689757040D+02  0.4701928980D+00
      0.5799635340D+01  0.3585208530D+00
 SP   3 1.00       0.000000000000
      0.1553961625D+02 -0.1107775495D+00  0.7087426823D-01
      0.3599933586D+01 -0.1480262627D+00  0.3397528391D+00
      0.1013761750D+01  0.1130767015D+01  0.7271585773D+00
 SP   1 1.00       0.000000000000
      0.2700058226D+00  0.1000000000D+01  0.1000000000D+01
 D   1 1.00       0.000000000000
      0.8000000000D+00  0.1000000000D+01
 ****
      2 0
 S   3 1.00       0.000000000000
      0.1873113696D+02  0.3349460434D-01
      0.2825394365D+01  0.2347269535D+00
      0.6401216923D+00  0.8137573261D+00
 S   1 1.00       0.000000000000
      0.1612777588D+00  0.1000000000D+01
 ****
      3 0
 S   6 1.00       0.000000000000
      0.5484671660D+04  0.1831074430D-02
      0.8252349460D+03  0.1395017220D-01
      0.1880469580D+03  0.6844507810D-01
      0.5296450000D+02  0.2327143360D+00
      0.1689757040D+02  0.4701928980D+00
      0.5799635340D+01  0.3585208530D+00
 SP   3 1.00       0.000000000000
      0.1553961625D+02 -0.1107775495D+00  0.7087426823D-01
      0.3599933586D+01 -0.1480262627D+00  0.3397528391D+00
      0.1013761750D+01  0.1130767015D+01  0.7271585773D+00
 SP   1 1.00       0.000000000000
      0.2700058226D+00  0.1000000000D+01  0.1000000000D+01
 D   1 1.00       0.000000000000
      0.8000000000D+00  0.1000000000D+01
 ****
      4 0
 S   3 1.00       0.000000000000
      0.1873113696D+02  0.3349460434D-01
      0.2825394365D+01  0.2347269535D+00
      0.6401216923D+00  0.8137573261D+00
 S   1 1.00       0.000000000000
      0.1612777588D+00  0.1000000000D+01
 ****
      5 0
 S   6 1.00       0.000000000000
      0.3047524880D+04  0.1834737132D-02
      0.4573695180D+03  0.1403732281D-01
      0.1039486850D+03  0.6884262226D-01
      0.2921015530D+02  0.2321844432D+00
      0.9286662960D+01  0.4679413484D+00
      0.3163926960D+01  0.3623119853D+00
 SP   3 1.00       0.000000000000
      0.7868272350D+01 -0.1193324198D+00  0.6899906659D-01
      0.1881288540D+01 -0.1608541517D+00  0.3164239610D+00
      0.5442492580D+00  0.1143456438D+01  0.7443082909D+00
 SP   1 1.00       0.000000000000
      0.1687144782D+00  0.1000000000D+01  0.1000000000D+01
 D   1 1.00       0.000000000000
      0.8000000000D+00  0.1000000000D+01
 ****
      6 0
 S   6 1.00       0.000000000000
      0.3047524880D+04  0.1834737132D-02
      0.4573695180D+03  0.1403732281D-01
      0.1039486850D+03  0.6884262226D-01
      0.2921015530D+02  0.2321844432D+00
      0.9286662960D+01  0.4679413484D+00
      0.3163926960D+01  0.3623119853D+00
 SP   3 1.00       0.000000000000
      0.7868272350D+01 -0.1193324198D+00  0.6899906659D-01
      0.1881288540D+01 -0.1608541517D+00  0.3164239610D+00
      0.5442492580D+00  0.1143456438D+01  0.7443082909D+00
 SP   1 1.00       0.000000000000
      0.1687144782D+00  0.1000000000D+01  0.1000000000D+01
 D   1 1.00       0.000000000000
      0.8000000000D+00  0.1000000000D+01
 ****
      7 0
 S   3 1.00       0.000000000000
      0.1873113696D+02  0.3349460434D-01
      0.2825394365D+01  0.2347269535D+00
      0.6401216923D+00  0.8137573261D+00
 S   1 1.00       0.000000000000
      0.1612777588D+00  0.1000000000D+01
 ****
      8 0
 S   6 1.00       0.000000000000
      0.3047524880D+04  0.1834737132D-02
      0.4573695180D+03  0.1403732281D-01
      0.1039486850D+03  0.6884262226D-01
      0.2921015530D+02  0.2321844432D+00
      0.9286662960D+01  0.4679413484D+00
      0.3163926960D+01  0.3623119853D+00
 SP   3 1.00       0.000000000000
      0.7868272350D+01 -0.1193324198D+00  0.6899906659D-01
      0.1881288540D+01 -0.1608541517D+00  0.3164239610D+00
      0.5442492580D+00  0.1143456438D+01  0.7443082909D+00
 SP   1 1.00       0.000000000000
      0.1687144782D+00  0.1000000000D+01  0.1000000000D+01
 D   1 1.00       0.000000000000
      0.8000000000D+00  0.1000000000D+01
 ****
      9 0
 S   3 1.00       0.000000000000
      0.1873113696D+02  0.3349460434D-01
      0.2825394365D+01  0.2347269535D+00
      0.6401216923D+00  0.8137573261D+00
 S   1 1.00       0.000000000000
      0.1612777588D+00  0.1000000000D+01
 ****
     10 0
 S   6 1.00       0.000000000000
      0.3047524880D+04  0.1834737132D-02
      0.4573695180D+03  0.1403732281D-01
      0.1039486850D+03  0.6884262226D-01
      0.2921015530D+02  0.2321844432D+00
      0.9286662960D+01  0.4679413484D+00
      0.3163926960D+01  0.3623119853D+00
 SP   3 1.00       0.000000000000
      0.7868272350D+01 -0.1193324198D+00  0.6899906659D-01
      0.1881288540D+01 -0.1608541517D+00  0.3164239610D+00
      0.5442492580D+00  0.1143456438D+01  0.7443082909D+00
 SP   1 1.00       0.000000000000
      0.1687144782D+00  0.1000000000D+01  0.1000000000D+01
 D   1 1.00       0.000000000000
      0.8000000000D+00  0.1000000000D+01
 ****
     11 0
 S   3 1.00       0.000000000000
      0.1873113696D+02  0.3349460434D-01
      0.2825394365D+01  0.2347269535D+00
      0.6401216923D+00  0.8137573261D+00
 S   1 1.00       0.000000000000
      0.1612777588D+00  0.1000000000D+01
 ****
     12 0
 S   6 1.00       0.000000000000
      0.3047524880D+04  0.1834737132D-02
      0.4573695180D+03  0.1403732281D-01
      0.1039486850D+03  0.6884262226D-01
      0.2921015530D+02  0.2321844432D+00
      0.9286662960D+01  0.4679413484D+00
      0.3163926960D+01  0.3623119853D+00
 SP   3 1.00       0.000000000000
      0.7868272350D+01 -0.1193324198D+00  0.6899906659D-01
      0.1881288540D+01 -0.1608541517D+00  0.3164239610D+00
      0.5442492580D+00  0.1143456438D+01  0.7443082909D+00
 SP   1 1.00       0.000000000000
      0.1687144782D+00  0.1000000000D+01  0.1000000000D+01
 D   1 1.00       0.000000000000
      0.8000000000D+00  0.1000000000D+01
 ****
     13 0
 S   3 1.00       0.000000000000
      0.1873113696D+02  0.3349460434D-01
      0.2825394365D+01  0.2347269535D+00
      0.6401216923D+00  0.8137573261D+00
 S   1 1.00       0.000000000000
      0.1612777588D+00  0.1000000000D+01
 ****
     14 0
 S   6 1.00       0.000000000000
      0.3047524880D+04  0.1834737132D-02
      0.4573695180D+03  0.1403732281D-01
      0.1039486850D+03  0.6884262226D-01
      0.2921015530D+02  0.2321844432D+00
      0.9286662960D+01  0.4679413484D+00
      0.3163926960D+01  0.3623119853D+00
 SP   3 1.00       0.000000000000
      0.7868272350D+01 -0.1193324198D+00  0.6899906659D-01
      0.1881288540D+01 -0.1608541517D+00  0.3164239610D+00
      0.5442492580D+00  0.1143456438D+01  0.7443082909D+00
 SP   1 1.00       0.000000000000
      0.1687144782D+00  0.1000000000D+01  0.1000000000D+01
 D   1 1.00       0.000000000000
      0.8000000000D+00  0.1000000000D+01
 ****
     15 0
 S   3 1.00       0.000000000000
      0.1873113696D+02  0.3349460434D-01
      0.2825394365D+01  0.2347269535D+00
      0.6401216923D+00  0.8137573261D+00
 S   1 1.00       0.000000000000
      0.1612777588D+00  0.1000000000D+01
 ****
     16 0
 S   3 1.00       0.000000000000
      0.1873113696D+02  0.3349460434D-01
      0.2825394365D+01  0.2347269535D+00
      0.6401216923D+00  0.8137573261D+00
 S   1 1.00       0.000000000000
      0.1612777588D+00  0.1000000000D+01
 ****
     17 0
 S   6 1.00       0.000000000000
      0.3047524880D+04  0.1834737132D-02
      0.4573695180D+03  0.1403732281D-01
      0.1039486850D+03  0.6884262226D-01
      0.2921015530D+02  0.2321844432D+00
      0.9286662960D+01  0.4679413484D+00
      0.3163926960D+01  0.3623119853D+00
 SP   3 1.00       0.000000000000
      0.7868272350D+01 -0.1193324198D+00  0.6899906659D-01
      0.1881288540D+01 -0.1608541517D+00  0.3164239610D+00
      0.5442492580D+00  0.1143456438D+01  0.7443082909D+00
 SP   1 1.00       0.000000000000
      0.1687144782D+00  0.1000000000D+01  0.1000000000D+01
 D   1 1.00       0.000000000000
      0.8000000000D+00  0.1000000000D+01
 ****
     18 0
 S   6 1.00       0.000000000000
      0.3047524880D+04  0.1834737132D-02
      0.4573695180D+03  0.1403732281D-01
      0.1039486850D+03  0.6884262226D-01
      0.2921015530D+02  0.2321844432D+00
      0.9286662960D+01  0.4679413484D+00
      0.3163926960D+01  0.3623119853D+00
 SP   3 1.00       0.000000000000
      0.7868272350D+01 -0.1193324198D+00  0.6899906659D-01
      0.1881288540D+01 -0.1608541517D+00  0.3164239610D+00
      0.5442492580D+00  0.1143456438D+01  0.7443082909D+00
 SP   1 1.00       0.000000000000
      0.1687144782D+00  0.1000000000D+01  0.1000000000D+01
 D   1 1.00       0.000000000000
      0.8000000000D+00  0.1000000000D+01
 ****
     19 0
 S   3 1.00       0.000000000000
      0.1873113696D+02  0.3349460434D-01
      0.2825394365D+01  0.2347269535D+00
      0.6401216923D+00  0.8137573261D+00
 S   1 1.00       0.000000000000
      0.1612777588D+00  0.1000000000D+01
 ****
     20 0
 S   3 1.00       0.000000000000
      0.1873113696D+02  0.3349460434D-01
      0.2825394365D+01  0.2347269535D+00
      0.6401216923D+00  0.8137573261D+00
 S   1 1.00       0.000000000000
      0.1612777588D+00  0.1000000000D+01
 ****
     21 0
 S   6 1.00       0.000000000000
      0.3047524880D+04  0.1834737132D-02
      0.4573695180D+03  0.1403732281D-01
      0.1039486850D+03  0.6884262226D-01
      0.2921015530D+02  0.2321844432D+00
      0.9286662960D+01  0.4679413484D+00
      0.3163926960D+01  0.3623119853D+00
 SP   3 1.00       0.000000000000
      0.7868272350D+01 -0.1193324198D+00  0.6899906659D-01
      0.1881288540D+01 -0.1608541517D+00  0.3164239610D+00
      0.5442492580D+00  0.1143456438D+01  0.7443082909D+00
 SP   1 1.00       0.000000000000
      0.1687144782D+00  0.1000000000D+01  0.1000000000D+01
 D   1 1.00       0.000000000000
      0.8000000000D+00  0.1000000000D+01
 ****
     22 0
 S   3 1.00       0.000000000000
      0.1873113696D+02  0.3349460434D-01
      0.2825394365D+01  0.2347269535D+00
      0.6401216923D+00  0.8137573261D+00
 S   1 1.00       0.000000000000
      0.1612777588D+00  0.1000000000D+01
 ****
     23 0
 S   3 1.00       0.000000000000
      0.1873113696D+02  0.3349460434D-01
      0.2825394365D+01  0.2347269535D+00
      0.6401216923D+00  0.8137573261D+00
 S   1 1.00       0.000000000000
      0.1612777588D+00  0.1000000000D+01
 ****
     24 0
 S   6 1.00       0.000000000000
      0.3047524880D+04  0.1834737132D-02
      0.4573695180D+03  0.1403732281D-01
      0.1039486850D+03  0.6884262226D-01
      0.2921015530D+02  0.2321844432D+00
      0.9286662960D+01  0.4679413484D+00
      0.3163926960D+01  0.3623119853D+00
 SP   3 1.00       0.000000000000
      0.7868272350D+01 -0.1193324198D+00  0.6899906659D-01
      0.1881288540D+01 -0.1608541517D+00  0.3164239610D+00
      0.5442492580D+00  0.1143456438D+01  0.7443082909D+00
 SP   1 1.00       0.000000000000
      0.1687144782D+00  0.1000000000D+01  0.1000000000D+01
 D   1 1.00       0.000000000000
      0.8000000000D+00  0.1000000000D+01
 ****
     25 0
 S   3 1.00       0.000000000000
      0.1873113696D+02  0.3349460434D-01
      0.2825394365D+01  0.2347269535D+00
      0.6401216923D+00  0.8137573261D+00
 S   1 1.00       0.000000000000
      0.1612777588D+00  0.1000000000D+01
 ****
     26 0
 S   3 1.00       0.000000000000
      0.1873113696D+02  0.3349460434D-01
      0.2825394365D+01  0.2347269535D+00
      0.6401216923D+00  0.8137573261D+00
 S   1 1.00       0.000000000000
      0.1612777588D+00  0.1000000000D+01
 ****
     27 0
 S   6 1.00       0.000000000000
      0.3047524880D+04  0.1834737132D-02
      0.4573695180D+03  0.1403732281D-01
      0.1039486850D+03  0.6884262226D-01
      0.2921015530D+02  0.2321844432D+00
      0.9286662960D+01  0.4679413484D+00
      0.3163926960D+01  0.3623119853D+00
 SP   3 1.00       0.000000000000
      0.7868272350D+01 -0.1193324198D+00  0.6899906659D-01
      0.1881288540D+01 -0.1608541517D+00  0.3164239610D+00
      0.5442492580D+00  0.1143456438D+01  0.7443082909D+00
 SP   1 1.00       0.000000000000
      0.1687144782D+00  0.1000000000D+01  0.1000000000D+01
 D   1 1.00       0.000000000000
      0.8000000000D+00  0.1000000000D+01
 ****
     28 0
 S   3 1.00       0.000000000000
      0.1873113696D+02  0.3349460434D-01
      0.2825394365D+01  0.2347269535D+00
      0.6401216923D+00  0.8137573261D+00
 S   1 1.00       0.000000000000
      0.1612777588D+00  0.1000000000D+01
 ****
     29 0
 S   6 1.00       0.000000000000
      0.3047524880D+04  0.1834737132D-02
      0.4573695180D+03  0.1403732281D-01
      0.1039486850D+03  0.6884262226D-01
      0.2921015530D+02  0.2321844432D+00
      0.9286662960D+01  0.4679413484D+00
      0.3163926960D+01  0.3623119853D+00
 SP   3 1.00       0.000000000000
      0.7868272350D+01 -0.1193324198D+00  0.6899906659D-01
      0.1881288540D+01 -0.1608541517D+00  0.3164239610D+00
      0.5442492580D+00  0.1143456438D+01  0.7443082909D+00
 SP   1 1.00       0.000000000000
      0.1687144782D+00  0.1000000000D+01  0.1000000000D+01
 D   1 1.00       0.000000000000
      0.8000000000D+00  0.1000000000D+01
 ****
     30 0
 S   3 1.00       0.000000000000
      0.1873113696D+02  0.3349460434D-01
      0.2825394365D+01  0.2347269535D+00
      0.6401216923D+00  0.8137573261D+00
 S   1 1.00       0.000000000000
      0.1612777588D+00  0.1000000000D+01
 ****
     31 0
 S   6 1.00       0.000000000000
      0.3047524880D+04  0.1834737132D-02
      0.4573695180D+03  0.1403732281D-01
      0.1039486850D+03  0.6884262226D-01
      0.2921015530D+02  0.2321844432D+00
      0.9286662960D+01  0.4679413484D+00
      0.3163926960D+01  0.3623119853D+00
 SP   3 1.00       0.000000000000
      0.7868272350D+01 -0.1193324198D+00  0.6899906659D-01
      0.1881288540D+01 -0.1608541517D+00  0.3164239610D+00
      0.5442492580D+00  0.1143456438D+01  0.7443082909D+00
 SP   1 1.00       0.000000000000
      0.1687144782D+00  0.1000000000D+01  0.1000000000D+01
 D   1 1.00       0.000000000000
      0.8000000000D+00  0.1000000000D+01
 ****
     32 0
 S   3 1.00       0.000000000000
      0.1873113696D+02  0.3349460434D-01
      0.2825394365D+01  0.2347269535D+00
      0.6401216923D+00  0.8137573261D+00
 S   1 1.00       0.000000000000
      0.1612777588D+00  0.1000000000D+01
 ****
     33 0
 S   3 1.00       0.000000000000
      0.1873113696D+02  0.3349460434D-01
      0.2825394365D+01  0.2347269535D+00
      0.6401216923D+00  0.8137573261D+00
 S   1 1.00       0.000000000000
      0.1612777588D+00  0.1000000000D+01
 ****
     34 0
 S   3 1.00       0.000000000000
      0.1873113696D+02  0.3349460434D-01
      0.2825394365D+01  0.2347269535D+00
      0.6401216923D+00  0.8137573261D+00
 S   1 1.00       0.000000000000
      0.1612777588D+00  0.1000000000D+01
 ****
     35 0
 S   6 1.00       0.000000000000
      0.3047524880D+04  0.1834737132D-02
      0.4573695180D+03  0.1403732281D-01
      0.1039486850D+03  0.6884262226D-01
      0.2921015530D+02  0.2321844432D+00
      0.9286662960D+01  0.4679413484D+00
      0.3163926960D+01  0.3623119853D+00
 SP   3 1.00       0.000000000000
      0.7868272350D+01 -0.1193324198D+00  0.6899906659D-01
      0.1881288540D+01 -0.1608541517D+00  0.3164239610D+00
      0.5442492580D+00  0.1143456438D+01  0.7443082909D+00
 SP   1 1.00       0.000000000000
      0.1687144782D+00  0.1000000000D+01  0.1000000000D+01
 D   1 1.00       0.000000000000
      0.8000000000D+00  0.1000000000D+01
 ****
     36 0
 S   6 1.00       0.000000000000
      0.3047524880D+04  0.1834737132D-02
      0.4573695180D+03  0.1403732281D-01
      0.1039486850D+03  0.6884262226D-01
      0.2921015530D+02  0.2321844432D+00
      0.9286662960D+01  0.4679413484D+00
      0.3163926960D+01  0.3623119853D+00
 SP   3 1.00       0.000000000000
      0.7868272350D+01 -0.1193324198D+00  0.6899906659D-01
      0.1881288540D+01 -0.1608541517D+00  0.3164239610D+00
      0.5442492580D+00  0.1143456438D+01  0.7443082909D+00
 SP   1 1.00       0.000000000000
      0.1687144782D+00  0.1000000000D+01  0.1000000000D+01
 D   1 1.00       0.000000000000
      0.8000000000D+00  0.1000000000D+01
 ****
     37 0
 S   3 1.00       0.000000000000
      0.1873113696D+02  0.3349460434D-01
      0.2825394365D+01  0.2347269535D+00
      0.6401216923D+00  0.8137573261D+00
 S   1 1.00       0.000000000000
      0.1612777588D+00  0.1000000000D+01
 ****
     38 0
 S   3 1.00       0.000000000000
      0.1873113696D+02  0.3349460434D-01
      0.2825394365D+01  0.2347269535D+00
      0.6401216923D+00  0.8137573261D+00
 S   1 1.00       0.000000000000
      0.1612777588D+00  0.1000000000D+01
 ****
     39 0
 S   6 1.00       0.000000000000
      0.3047524880D+04  0.1834737132D-02
      0.4573695180D+03  0.1403732281D-01
      0.1039486850D+03  0.6884262226D-01
      0.2921015530D+02  0.2321844432D+00
      0.9286662960D+01  0.4679413484D+00
      0.3163926960D+01  0.3623119853D+00
 SP   3 1.00       0.000000000000
      0.7868272350D+01 -0.1193324198D+00  0.6899906659D-01
      0.1881288540D+01 -0.1608541517D+00  0.3164239610D+00
      0.5442492580D+00  0.1143456438D+01  0.7443082909D+00
 SP   1 1.00       0.000000000000
      0.1687144782D+00  0.1000000000D+01  0.1000000000D+01
 D   1 1.00       0.000000000000
      0.8000000000D+00  0.1000000000D+01
 ****
     40 0
 S   3 1.00       0.000000000000
      0.1873113696D+02  0.3349460434D-01
      0.2825394365D+01  0.2347269535D+00
      0.6401216923D+00  0.8137573261D+00
 S   1 1.00       0.000000000000
      0.1612777588D+00  0.1000000000D+01
 ****
     41 0
 S   6 1.00       0.000000000000
      0.3047524880D+04  0.1834737132D-02
      0.4573695180D+03  0.1403732281D-01
      0.1039486850D+03  0.6884262226D-01
      0.2921015530D+02  0.2321844432D+00
      0.9286662960D+01  0.4679413484D+00
      0.3163926960D+01  0.3623119853D+00
 SP   3 1.00       0.000000000000
      0.7868272350D+01 -0.1193324198D+00  0.6899906659D-01
      0.1881288540D+01 -0.1608541517D+00  0.3164239610D+00
      0.5442492580D+00  0.1143456438D+01  0.7443082909D+00
 SP   1 1.00       0.000000000000
      0.1687144782D+00  0.1000000000D+01  0.1000000000D+01
 D   1 1.00       0.000000000000
      0.8000000000D+00  0.1000000000D+01
 ****
     42 0
 S   3 1.00       0.000000000000
      0.1873113696D+02  0.3349460434D-01
      0.2825394365D+01  0.2347269535D+00
      0.6401216923D+00  0.8137573261D+00
 S   1 1.00       0.000000000000
      0.1612777588D+00  0.1000000000D+01
 ****
     43 0
 S   3 1.00       0.000000000000
      0.1873113696D+02  0.3349460434D-01
      0.2825394365D+01  0.2347269535D+00
      0.6401216923D+00  0.8137573261D+00
 S   1 1.00       0.000000000000
      0.1612777588D+00  0.1000000000D+01
 ****
     44 0
 S   3 1.00       0.000000000000
      0.1873113696D+02  0.3349460434D-01
      0.2825394365D+01  0.2347269535D+00
      0.6401216923D+00  0.8137573261D+00
 S   1 1.00       0.000000000000
      0.1612777588D+00  0.1000000000D+01
 ****
     45 0
 S   6 1.00       0.000000000000
      0.3047524880D+04  0.1834737132D-02
      0.4573695180D+03  0.1403732281D-01
      0.1039486850D+03  0.6884262226D-01
      0.2921015530D+02  0.2321844432D+00
      0.9286662960D+01  0.4679413484D+00
      0.3163926960D+01  0.3623119853D+00
 SP   3 1.00       0.000000000000
      0.7868272350D+01 -0.1193324198D+00  0.6899906659D-01
      0.1881288540D+01 -0.1608541517D+00  0.3164239610D+00
      0.5442492580D+00  0.1143456438D+01  0.7443082909D+00
 SP   1 1.00       0.000000000000
      0.1687144782D+00  0.1000000000D+01  0.1000000000D+01
 D   1 1.00       0.000000000000
      0.8000000000D+00  0.1000000000D+01
 ****
     46 0
 S   3 1.00       0.000000000000
      0.1873113696D+02  0.3349460434D-01
      0.2825394365D+01  0.2347269535D+00
      0.6401216923D+00  0.8137573261D+00
 S   1 1.00       0.000000000000
      0.1612777588D+00  0.1000000000D+01
 ****
     47 0
 S   3 1.00       0.000000000000
      0.1873113696D+02  0.3349460434D-01
      0.2825394365D+01  0.2347269535D+00
      0.6401216923D+00  0.8137573261D+00
 S   1 1.00       0.000000000000
      0.1612777588D+00  0.1000000000D+01
 ****
     48 0
 S   6 1.00       0.000000000000
      0.3047524880D+04  0.1834737132D-02
      0.4573695180D+03  0.1403732281D-01
      0.1039486850D+03  0.6884262226D-01
      0.2921015530D+02  0.2321844432D+00
      0.9286662960D+01  0.4679413484D+00
      0.3163926960D+01  0.3623119853D+00
 SP   3 1.00       0.000000000000
      0.7868272350D+01 -0.1193324198D+00  0.6899906659D-01
      0.1881288540D+01 -0.1608541517D+00  0.3164239610D+00
      0.5442492580D+00  0.1143456438D+01  0.7443082909D+00
 SP   1 1.00       0.000000000000
      0.1687144782D+00  0.1000000000D+01  0.1000000000D+01
 D   1 1.00       0.000000000000
      0.8000000000D+00  0.1000000000D+01
 ****
     49 0
 S   3 1.00       0.000000000000
      0.1873113696D+02  0.3349460434D-01
      0.2825394365D+01  0.2347269535D+00
      0.6401216923D+00  0.8137573261D+00
 S   1 1.00       0.000000000000
      0.1612777588D+00  0.1000000000D+01
 ****
     50 0
 S   3 1.00       0.000000000000
      0.1873113696D+02  0.3349460434D-01
      0.2825394365D+01  0.2347269535D+00
      0.6401216923D+00  0.8137573261D+00
 S   1 1.00       0.000000000000
      0.1612777588D+00  0.1000000000D+01
 ****
     51 0
 S   6 1.00       0.000000000000
      0.3047524880D+04  0.1834737132D-02
      0.4573695180D+03  0.1403732281D-01
      0.1039486850D+03  0.6884262226D-01
      0.2921015530D+02  0.2321844432D+00
      0.9286662960D+01  0.4679413484D+00
      0.3163926960D+01  0.3623119853D+00
 SP   3 1.00       0.000000000000
      0.7868272350D+01 -0.1193324198D+00  0.6899906659D-01
      0.1881288540D+01 -0.1608541517D+00  0.3164239610D+00
      0.5442492580D+00  0.1143456438D+01  0.7443082909D+00
 SP   1 1.00       0.000000000000
      0.1687144782D+00  0.1000000000D+01  0.1000000000D+01
 D   1 1.00       0.000000000000
      0.8000000000D+00  0.1000000000D+01
 ****
     52 0
 S   3 1.00       0.000000000000
      0.1873113696D+02  0.3349460434D-01
      0.2825394365D+01  0.2347269535D+00
      0.6401216923D+00  0.8137573261D+00
 S   1 1.00       0.000000000000
      0.1612777588D+00  0.1000000000D+01
 ****
     53 0
 S   3 1.00       0.000000000000
      0.1873113696D+02  0.3349460434D-01
      0.2825394365D+01  0.2347269535D+00
      0.6401216923D+00  0.8137573261D+00
 S   1 1.00       0.000000000000
      0.1612777588D+00  0.1000000000D+01
 ****
     54 0
 S   6 1.00       0.000000000000
      0.3047524880D+04  0.1834737132D-02
      0.4573695180D+03  0.1403732281D-01
      0.1039486850D+03  0.6884262226D-01
      0.2921015530D+02  0.2321844432D+00
      0.9286662960D+01  0.4679413484D+00
      0.3163926960D+01  0.3623119853D+00
 SP   3 1.00       0.000000000000
      0.7868272350D+01 -0.1193324198D+00  0.6899906659D-01
      0.1881288540D+01 -0.1608541517D+00  0.3164239610D+00
      0.5442492580D+00  0.1143456438D+01  0.7443082909D+00
 SP   1 1.00       0.000000000000
      0.1687144782D+00  0.1000000000D+01  0.1000000000D+01
 D   1 1.00       0.000000000000
      0.8000000000D+00  0.1000000000D+01
 ****
     55 0
 S   3 1.00       0.000000000000
      0.1873113696D+02  0.3349460434D-01
      0.2825394365D+01  0.2347269535D+00
      0.6401216923D+00  0.8137573261D+00
 S   1 1.00       0.000000000000
      0.1612777588D+00  0.1000000000D+01
 ****
     56 0
 S   6 1.00       0.000000000000
      0.3047524880D+04  0.1834737132D-02
      0.4573695180D+03  0.1403732281D-01
      0.1039486850D+03  0.6884262226D-01
      0.2921015530D+02  0.2321844432D+00
      0.9286662960D+01  0.4679413484D+00
      0.3163926960D+01  0.3623119853D+00
 SP   3 1.00       0.000000000000
      0.7868272350D+01 -0.1193324198D+00  0.6899906659D-01
      0.1881288540D+01 -0.1608541517D+00  0.3164239610D+00
      0.5442492580D+00  0.1143456438D+01  0.7443082909D+00
 SP   1 1.00       0.000000000000
      0.1687144782D+00  0.1000000000D+01  0.1000000000D+01
 D   1 1.00       0.000000000000
      0.8000000000D+00  0.1000000000D+01
 ****
     57 0
 S   3 1.00       0.000000000000
      0.1873113696D+02  0.3349460434D-01
      0.2825394365D+01  0.2347269535D+00
      0.6401216923D+00  0.8137573261D+00
 S   1 1.00       0.000000000000
      0.1612777588D+00  0.1000000000D+01
 ****
     58 0
 S   3 1.00       0.000000000000
      0.1873113696D+02  0.3349460434D-01
      0.2825394365D+01  0.2347269535D+00
      0.6401216923D+00  0.8137573261D+00
 S   1 1.00       0.000000000000
      0.1612777588D+00  0.1000000000D+01
 ****
     59 0
 S   3 1.00       0.000000000000
      0.1873113696D+02  0.3349460434D-01
      0.2825394365D+01  0.2347269535D+00
      0.6401216923D+00  0.8137573261D+00
 S   1 1.00       0.000000000000
      0.1612777588D+00  0.1000000000D+01
 ****
     60 0
 S   6 1.00       0.000000000000
      0.3047524880D+04  0.1834737132D-02
      0.4573695180D+03  0.1403732281D-01
      0.1039486850D+03  0.6884262226D-01
      0.2921015530D+02  0.2321844432D+00
      0.9286662960D+01  0.4679413484D+00
      0.3163926960D+01  0.3623119853D+00
 SP   3 1.00       0.000000000000
      0.7868272350D+01 -0.1193324198D+00  0.6899906659D-01
      0.1881288540D+01 -0.1608541517D+00  0.3164239610D+00
      0.5442492580D+00  0.1143456438D+01  0.7443082909D+00
 SP   1 1.00       0.000000000000
      0.1687144782D+00  0.1000000000D+01  0.1000000000D+01
 D   1 1.00       0.000000000000
      0.8000000000D+00  0.1000000000D+01
 ****
     61 0
 S   3 1.00       0.000000000000
      0.1873113696D+02  0.3349460434D-01
      0.2825394365D+01  0.2347269535D+00
      0.6401216923D+00  0.8137573261D+00
 S   1 1.00       0.000000000000
      0.1612777588D+00  0.1000000000D+01
 ****
     62 0
 S   3 1.00       0.000000000000
      0.1873113696D+02  0.3349460434D-01
      0.2825394365D+01  0.2347269535D+00
      0.6401216923D+00  0.8137573261D+00
 S   1 1.00       0.000000000000
      0.1612777588D+00  0.1000000000D+01
 ****
     63 0
 S   6 1.00       0.000000000000
      0.3047524880D+04  0.1834737132D-02
      0.4573695180D+03  0.1403732281D-01
      0.1039486850D+03  0.6884262226D-01
      0.2921015530D+02  0.2321844432D+00
      0.9286662960D+01  0.4679413484D+00
      0.3163926960D+01  0.3623119853D+00
 SP   3 1.00       0.000000000000
      0.7868272350D+01 -0.1193324198D+00  0.6899906659D-01
      0.1881288540D+01 -0.1608541517D+00  0.3164239610D+00
      0.5442492580D+00  0.1143456438D+01  0.7443082909D+00
 SP   1 1.00       0.000000000000
      0.1687144782D+00  0.1000000000D+01  0.1000000000D+01
 D   1 1.00       0.000000000000
      0.8000000000D+00  0.1000000000D+01
 ****
     64 0
 S   3 1.00       0.000000000000
      0.1873113696D+02  0.3349460434D-01
      0.2825394365D+01  0.2347269535D+00
      0.6401216923D+00  0.8137573261D+00
 S   1 1.00       0.000000000000
      0.1612777588D+00  0.1000000000D+01
 ****
     65 0
 S   3 1.00       0.000000000000
      0.1873113696D+02  0.3349460434D-01
      0.2825394365D+01  0.2347269535D+00
      0.6401216923D+00  0.8137573261D+00
 S   1 1.00       0.000000000000
      0.1612777588D+00  0.1000000000D+01
 ****
     66 0
 S   6 1.00       0.000000000000
      0.3047524880D+04  0.1834737132D-02
      0.4573695180D+03  0.1403732281D-01
      0.1039486850D+03  0.6884262226D-01
      0.2921015530D+02  0.2321844432D+00
      0.9286662960D+01  0.4679413484D+00
      0.3163926960D+01  0.3623119853D+00
 SP   3 1.00       0.000000000000
      0.7868272350D+01 -0.1193324198D+00  0.6899906659D-01
      0.1881288540D+01 -0.1608541517D+00  0.3164239610D+00
      0.5442492580D+00  0.1143456438D+01  0.7443082909D+00
 SP   1 1.00       0.000000000000
      0.1687144782D+00  0.1000000000D+01  0.1000000000D+01
 D   1 1.00       0.000000000000
      0.8000000000D+00  0.1000000000D+01
 ****
     67 0
 S   3 1.00       0.000000000000
      0.1873113696D+02  0.3349460434D-01
      0.2825394365D+01  0.2347269535D+00
      0.6401216923D+00  0.8137573261D+00
 S   1 1.00       0.000000000000
      0.1612777588D+00  0.1000000000D+01
 ****
     68 0
 S   6 1.00       0.000000000000
      0.3047524880D+04  0.1834737132D-02
      0.4573695180D+03  0.1403732281D-01
      0.1039486850D+03  0.6884262226D-01
      0.2921015530D+02  0.2321844432D+00
      0.9286662960D+01  0.4679413484D+00
      0.3163926960D+01  0.3623119853D+00
 SP   3 1.00       0.000000000000
      0.7868272350D+01 -0.1193324198D+00  0.6899906659D-01
      0.1881288540D+01 -0.1608541517D+00  0.3164239610D+00
      0.5442492580D+00  0.1143456438D+01  0.7443082909D+00
 SP   1 1.00       0.000000000000
      0.1687144782D+00  0.1000000000D+01  0.1000000000D+01
 D   1 1.00       0.000000000000
      0.8000000000D+00  0.1000000000D+01
 ****
     69 0
 S   3 1.00       0.000000000000
      0.1873113696D+02  0.3349460434D-01
      0.2825394365D+01  0.2347269535D+00
      0.6401216923D+00  0.8137573261D+00
 S   1 1.00       0.000000000000
      0.1612777588D+00  0.1000000000D+01
 ****
     70 0
 S   3 1.00       0.000000000000
      0.1873113696D+02  0.3349460434D-01
      0.2825394365D+01  0.2347269535D+00
      0.6401216923D+00  0.8137573261D+00
 S   1 1.00       0.000000000000
      0.1612777588D+00  0.1000000000D+01
 ****
     71 0
 S   3 1.00       0.000000000000
      0.1873113696D+02  0.3349460434D-01
      0.2825394365D+01  0.2347269535D+00
      0.6401216923D+00  0.8137573261D+00
 S   1 1.00       0.000000000000
      0.1612777588D+00  0.1000000000D+01
 ****
     72 0
 S   6 1.00       0.000000000000
      0.3047524880D+04  0.1834737132D-02
      0.4573695180D+03  0.1403732281D-01
      0.1039486850D+03  0.6884262226D-01
      0.2921015530D+02  0.2321844432D+00
      0.9286662960D+01  0.4679413484D+00
      0.3163926960D+01  0.3623119853D+00
 SP   3 1.00       0.000000000000
      0.7868272350D+01 -0.1193324198D+00  0.6899906659D-01
      0.1881288540D+01 -0.1608541517D+00  0.3164239610D+00
      0.5442492580D+00  0.1143456438D+01  0.7443082909D+00
 SP   1 1.00       0.000000000000
      0.1687144782D+00  0.1000000000D+01  0.1000000000D+01
 D   1 1.00       0.000000000000
      0.8000000000D+00  0.1000000000D+01
 ****
     73 0
 S   3 1.00       0.000000000000
      0.1873113696D+02  0.3349460434D-01
      0.2825394365D+01  0.2347269535D+00
      0.6401216923D+00  0.8137573261D+00
 S   1 1.00       0.000000000000
      0.1612777588D+00  0.1000000000D+01
 ****
     74 0
 S   3 1.00       0.000000000000
      0.1873113696D+02  0.3349460434D-01
      0.2825394365D+01  0.2347269535D+00
      0.6401216923D+00  0.8137573261D+00
 S   1 1.00       0.000000000000
      0.1612777588D+00  0.1000000000D+01
 ****
     75 0
 S   3 1.00       0.000000000000
      0.1873113696D+02  0.3349460434D-01
      0.2825394365D+01  0.2347269535D+00
      0.6401216923D+00  0.8137573261D+00
 S   1 1.00       0.000000000000
      0.1612777588D+00  0.1000000000D+01
 ****

 AO basis set (Overlap normalization):
 Atom O1       Shell     1 S   6     bf    1 -     1         12.939576646252          1.480519223584          0.000000000000
      0.5484671660D+04  0.1831074430D-02
      0.8252349460D+03  0.1395017220D-01
      0.1880469580D+03  0.6844507810D-01
      0.5296450000D+02  0.2327143360D+00
      0.1689757040D+02  0.4701928980D+00
      0.5799635340D+01  0.3585208530D+00
 Atom O1       Shell     2 SP   3    bf    2 -     5         12.939576646252          1.480519223584          0.000000000000
      0.1553961625D+02 -0.1107775495D+00  0.7087426823D-01
      0.3599933586D+01 -0.1480262627D+00  0.3397528391D+00
      0.1013761750D+01  0.1130767015D+01  0.7271585773D+00
 Atom O1       Shell     3 SP   1    bf    6 -     9         12.939576646252          1.480519223584          0.000000000000
      0.2700058226D+00  0.1000000000D+01  0.1000000000D+01
 Atom O1       Shell     4 D   1     bf   10 -    15         12.939576646252          1.480519223584          0.000000000000
      0.8000000000D+00  0.1000000000D+01
 Atom H2       Shell     5 S   3     bf   16 -    16         14.009231443949          0.000000000000          0.000000000000
      0.1873113696D+02  0.3349460434D-01
      0.2825394365D+01  0.2347269535D+00
      0.6401216923D+00  0.8137573261D+00
 Atom H2       Shell     6 S   1     bf   17 -    17         14.009231443949          0.000000000000          0.000000000000
      0.1612777588D+00  0.1000000000D+01
 Atom O3       Shell     7 S   6     bf   18 -    18         19.758975330514         -3.751529748021          9.339600118397
      0.5484671660D+04  0.1831074430D-02
      0.8252349460D+03  0.1395017220D-01
      0.1880469580D+03  0.6844507810D-01
      0.5296450000D+02  0.2327143360D+00
      0.1689757040D+02  0.4701928980D+00
      0.5799635340D+01  0.3585208530D+00
 Atom O3       Shell     8 SP   3    bf   19 -    22         19.758975330514         -3.751529748021          9.339600118397
      0.1553961625D+02 -0.1107775495D+00  0.7087426823D-01
      0.3599933586D+01 -0.1480262627D+00  0.3397528391D+00
      0.1013761750D+01  0.1130767015D+01  0.7271585773D+00
 Atom O3       Shell     9 SP   1    bf   23 -    26         19.758975330514         -3.751529748021          9.339600118397
      0.2700058226D+00  0.1000000000D+01  0.1000000000D+01
 Atom O3       Shell    10 D   1     bf   27 -    32         19.758975330514         -3.751529748021          9.339600118397
      0.8000000000D+00  0.1000000000D+01
 Atom H4       Shell    11 S   3     bf   33 -    33         19.165666501442         -3.537301870932         11.055763334155
      0.1873113696D+02  0.3349460434D-01
      0.2825394365D+01  0.2347269535D+00
      0.6401216923D+00  0.8137573261D+00
 Atom H4       Shell    12 S   1     bf   34 -    34         19.165666501442         -3.537301870932         11.055763334155
      0.1612777588D+00  0.1000000000D+01
 Atom C5       Shell    13 S   6     bf   35 -    35          5.286235942499         -1.161477951096          1.428484121631
      0.3047524880D+04  0.1834737132D-02
      0.4573695180D+03  0.1403732281D-01
      0.1039486850D+03  0.6884262226D-01
      0.2921015530D+02  0.2321844432D+00
      0.9286662960D+01  0.4679413484D+00
      0.3163926960D+01  0.3623119853D+00
 Atom C5       Shell    14 SP   3    bf   36 -    39          5.286235942499         -1.161477951096          1.428484121631
      0.7868272350D+01 -0.1193324198D+00  0.6899906659D-01
      0.1881288540D+01 -0.1608541517D+00  0.3164239610D+00
      0.5442492580D+00  0.1143456438D+01  0.7443082909D+00
 Atom C5       Shell    15 SP   1    bf   40 -    43          5.286235942499         -1.161477951096          1.428484121631
      0.1687144782D+00  0.1000000000D+01  0.1000000000D+01
 Atom C5       Shell    16 D   1     bf   44 -    49          5.286235942499         -1.161477951096          1.428484121631
      0.8000000000D+00  0.1000000000D+01
 Atom C6       Shell    17 S   6     bf   50 -    50          7.748135905031          0.376694681411          0.981254902084
      0.3047524880D+04  0.1834737132D-02
      0.4573695180D+03  0.1403732281D-01
      0.1039486850D+03  0.6884262226D-01
      0.2921015530D+02  0.2321844432D+00
      0.9286662960D+01  0.4679413484D+00
      0.3163926960D+01  0.3623119853D+00
 Atom C6       Shell    18 SP   3    bf   51 -    54          7.748135905031          0.376694681411          0.981254902084
      0.7868272350D+01 -0.1193324198D+00  0.6899906659D-01
      0.1881288540D+01 -0.1608541517D+00  0.3164239610D+00
      0.5442492580D+00  0.1143456438D+01  0.7443082909D+00
 Atom C6       Shell    19 SP   1    bf   55 -    58          7.748135905031          0.376694681411          0.981254902084
      0.1687144782D+00  0.1000000000D+01  0.1000000000D+01
 Atom C6       Shell    20 D   1     bf   59 -    64          7.748135905031          0.376694681411          0.981254902084
      0.8000000000D+00  0.1000000000D+01
 Atom H7       Shell    21 S   3     bf   65 -    65          8.702863814319         -0.555580749185         -0.611022611615
      0.1873113696D+02  0.3349460434D-01
      0.2825394365D+01  0.2347269535D+00
      0.6401216923D+00  0.8137573261D+00
 Atom H7       Shell    22 S   1     bf   66 -    66          8.702863814319         -0.555580749185         -0.611022611615
      0.1612777588D+00  0.1000000000D+01
 Atom C8       Shell    23 S   6     bf   67 -    67          9.641649445929          0.333748085014          3.174604655549
      0.3047524880D+04  0.1834737132D-02
      0.4573695180D+03  0.1403732281D-01
      0.1039486850D+03  0.6884262226D-01
      0.2921015530D+02  0.2321844432D+00
      0.9286662960D+01  0.4679413484D+00
      0.3163926960D+01  0.3623119853D+00
 Atom C8       Shell    24 SP   3    bf   68 -    71          9.641649445929          0.333748085014          3.174604655549
      0.7868272350D+01 -0.1193324198D+00  0.6899906659D-01
      0.1881288540D+01 -0.1608541517D+00  0.3164239610D+00
      0.5442492580D+00  0.1143456438D+01  0.7443082909D+00
 Atom C8       Shell    25 SP   1    bf   72 -    75          9.641649445929          0.333748085014          3.174604655549
      0.1687144782D+00  0.1000000000D+01  0.1000000000D+01
 Atom C8       Shell    26 D   1     bf   76 -    81          9.641649445929          0.333748085014          3.174604655549
      0.8000000000D+00  0.1000000000D+01
 Atom H9       Shell    27 S   3     bf   82 -    82          8.788447205411          1.258478349388          4.828605481344
      0.1873113696D+02  0.3349460434D-01
      0.2825394365D+01  0.2347269535D+00
      0.6401216923D+00  0.8137573261D+00
 Atom H9       Shell    28 S   1     bf   83 -    83          8.788447205411          1.258478349388          4.828605481344
      0.1612777588D+00  0.1000000000D+01
 Atom C10      Shell    29 S   6     bf   84 -    84         10.344016637801         -2.422411942902          3.871009931547
      0.3047524880D+04  0.1834737132D-02
      0.4573695180D+03  0.1403732281D-01
      0.1039486850D+03  0.6884262226D-01
      0.2921015530D+02  0.2321844432D+00
      0.9286662960D+01  0.4679413484D+00
      0.3163926960D+01  0.3623119853D+00
 Atom C10      Shell    30 SP   3    bf   85 -    88         10.344016637801         -2.422411942902          3.871009931547
      0.7868272350D+01 -0.1193324198D+00  0.6899906659D-01
      0.1881288540D+01 -0.1608541517D+00  0.3164239610D+00
      0.5442492580D+00  0.1143456438D+01  0.7443082909D+00
 Atom C10      Shell    31 SP   1    bf   89 -    92         10.344016637801         -2.422411942902          3.871009931547
      0.1687144782D+00  0.1000000000D+01  0.1000000000D+01
 Atom C10      Shell    32 D   1     bf   93 -    98         10.344016637801         -2.422411942902          3.871009931547
      0.8000000000D+00  0.1000000000D+01
 Atom H11      Shell    33 S   3     bf   99 -    99         11.439190183812         -3.156996244134          2.257333688242
      0.1873113696D+02  0.3349460434D-01
      0.2825394365D+01  0.2347269535D+00
      0.6401216923D+00  0.8137573261D+00
 Atom H11      Shell    34 S   1     bf  100 -   100         11.439190183812         -3.156996244134          2.257333688242
      0.1612777588D+00  0.1000000000D+01
 Atom C12      Shell    35 S   6     bf  101 -   101          3.873369821541         -0.611211792099         -1.119906338331
      0.3047524880D+04  0.1834737132D-02
      0.4573695180D+03  0.1403732281D-01
      0.1039486850D+03  0.6884262226D-01
      0.2921015530D+02  0.2321844432D+00
      0.9286662960D+01  0.4679413484D+00
      0.3163926960D+01  0.3623119853D+00
 Atom C12      Shell    36 SP   3    bf  102 -   105          3.873369821541         -0.611211792099         -1.119906338331
      0.7868272350D+01 -0.1193324198D+00  0.6899906659D-01
      0.1881288540D+01 -0.1608541517D+00  0.3164239610D+00
      0.5442492580D+00  0.1143456438D+01  0.7443082909D+00
 Atom C12      Shell    37 SP   1    bf  106 -   109          3.873369821541         -0.611211792099         -1.119906338331
      0.1687144782D+00  0.1000000000D+01  0.1000000000D+01
 Atom C12      Shell    38 D   1     bf  110 -   115          3.873369821541         -0.611211792099         -1.119906338331
      0.8000000000D+00  0.1000000000D+01
 Atom H13      Shell    39 S   3     bf  116 -   116          4.843737331072         -1.745521982062         -2.571006456656
      0.1873113696D+02  0.3349460434D-01
      0.2825394365D+01  0.2347269535D+00
      0.6401216923D+00  0.8137573261D+00
 Atom H13      Shell    40 S   1     bf  117 -   117          4.843737331072         -1.745521982062         -2.571006456656
      0.1612777588D+00  0.1000000000D+01
 Atom C14      Shell    41 S   6     bf  118 -   118          6.115292131765         -3.918716634689          1.886387837186
      0.3047524880D+04  0.1834737132D-02
      0.4573695180D+03  0.1403732281D-01
      0.1039486850D+03  0.6884262226D-01
      0.2921015530D+02  0.2321844432D+00
      0.9286662960D+01  0.4679413484D+00
      0.3163926960D+01  0.3623119853D+00
 Atom C14      Shell    42 SP   3    bf  119 -   122          6.115292131765         -3.918716634689          1.886387837186
      0.7868272350D+01 -0.1193324198D+00  0.6899906659D-01
      0.1881288540D+01 -0.1608541517D+00  0.3164239610D+00
      0.5442492580D+00  0.1143456438D+01  0.7443082909D+00
 Atom C14      Shell    43 SP   1    bf  123 -   126          6.115292131765         -3.918716634689          1.886387837186
      0.1687144782D+00  0.1000000000D+01  0.1000000000D+01
 Atom C14      Shell    44 D   1     bf  127 -   132          6.115292131765         -3.918716634689          1.886387837186
      0.8000000000D+00  0.1000000000D+01
 Atom H15      Shell    45 S   3     bf  133 -   133          7.010584752667         -4.637283333760          0.154503347221
      0.1873113696D+02  0.3349460434D-01
      0.2825394365D+01  0.2347269535D+00
      0.6401216923D+00  0.8137573261D+00
 Atom H15      Shell    46 S   1     bf  134 -   134          7.010584752667         -4.637283333760          0.154503347221
      0.1612777588D+00  0.1000000000D+01
 Atom H16      Shell    47 S   3     bf  135 -   135          4.503621605984         -5.156637598340          2.271522243376
      0.1873113696D+02  0.3349460434D-01
      0.2825394365D+01  0.2347269535D+00
      0.6401216923D+00  0.8137573261D+00
 Atom H16      Shell    48 S   1     bf  136 -   136          4.503621605984         -5.156637598340          2.271522243376
      0.1612777588D+00  0.1000000000D+01
 Atom C17      Shell    49 S   6     bf  137 -   137         12.154186358739         -2.568750255934          6.214752405461
      0.3047524880D+04  0.1834737132D-02
      0.4573695180D+03  0.1403732281D-01
      0.1039486850D+03  0.6884262226D-01
      0.2921015530D+02  0.2321844432D+00
      0.9286662960D+01  0.4679413484D+00
      0.3163926960D+01  0.3623119853D+00
 Atom C17      Shell    50 SP   3    bf  138 -   141         12.154186358739         -2.568750255934          6.214752405461
      0.7868272350D+01 -0.1193324198D+00  0.6899906659D-01
      0.1881288540D+01 -0.1608541517D+00  0.3164239610D+00
      0.5442492580D+00  0.1143456438D+01  0.7443082909D+00
 Atom C17      Shell    51 SP   1    bf  142 -   145         12.154186358739         -2.568750255934          6.214752405461
      0.1687144782D+00  0.1000000000D+01  0.1000000000D+01
 Atom C17      Shell    52 D   1     bf  146 -   151         12.154186358739         -2.568750255934          6.214752405461
      0.8000000000D+00  0.1000000000D+01
 Atom C18      Shell    53 S   6     bf  152 -   152          6.832153598666          2.939154379200         -0.020064148319
      0.3047524880D+04  0.1834737132D-02
      0.4573695180D+03  0.1403732281D-01
      0.1039486850D+03  0.6884262226D-01
      0.2921015530D+02  0.2321844432D+00
      0.9286662960D+01  0.4679413484D+00
      0.3163926960D+01  0.3623119853D+00
 Atom C18      Shell    54 SP   3    bf  153 -   156          6.832153598666          2.939154379200         -0.020064148319
      0.7868272350D+01 -0.1193324198D+00  0.6899906659D-01
      0.1881288540D+01 -0.1608541517D+00  0.3164239610D+00
      0.5442492580D+00  0.1143456438D+01  0.7443082909D+00
 Atom C18      Shell    55 SP   1    bf  157 -   160          6.832153598666          2.939154379200         -0.020064148319
      0.1687144782D+00  0.1000000000D+01  0.1000000000D+01
 Atom C18      Shell    56 D   1     bf  161 -   166          6.832153598666          2.939154379200         -0.020064148319
      0.8000000000D+00  0.1000000000D+01
 Atom H19      Shell    57 S   3     bf  167 -   167          8.289662590890          3.901415813997         -1.124585035674
      0.1873113696D+02  0.3349460434D-01
      0.2825394365D+01  0.2347269535D+00
      0.6401216923D+00  0.8137573261D+00
 Atom H19      Shell    58 S   1     bf  168 -   168          8.289662590890          3.901415813997         -1.124585035674
      0.1612777588D+00  0.1000000000D+01
 Atom H20      Shell    59 S   3     bf  169 -   169          6.314125524988          4.203744726511          1.540184397154
      0.1873113696D+02  0.3349460434D-01
      0.2825394365D+01  0.2347269535D+00
      0.6401216923D+00  0.8137573261D+00
 Atom H20      Shell    60 S   1     bf  170 -   170          6.314125524988          4.203744726511          1.540184397154
      0.1612777588D+00  0.1000000000D+01
 Atom C21      Shell    61 S   6     bf  171 -   171          7.985588591881         -4.132545288235          4.112069481976
      0.3047524880D+04  0.1834737132D-02
      0.4573695180D+03  0.1403732281D-01
      0.1039486850D+03  0.6884262226D-01
      0.2921015530D+02  0.2321844432D+00
      0.9286662960D+01  0.4679413484D+00
      0.3163926960D+01  0.3623119853D+00
 Atom C21      Shell    62 SP   3    bf  172 -   175          7.985588591881         -4.132545288235          4.112069481976
      0.7868272350D+01 -0.1193324198D+00  0.6899906659D-01
      0.1881288540D+01 -0.1608541517D+00  0.3164239610D+00
      0.5442492580D+00  0.1143456438D+01  0.7443082909D+00
 Atom C21      Shell    63 SP   1    bf  176 -   179          7.985588591881         -4.132545288235          4.112069481976
      0.1687144782D+00  0.1000000000D+01  0.1000000000D+01
 Atom C21      Shell    64 D   1     bf  180 -   185          7.985588591881         -4.132545288235          4.112069481976
      0.8000000000D+00  0.1000000000D+01
 Atom H22      Shell    65 S   3     bf  186 -   186          6.971969729820         -3.686553990483          5.859869906836
      0.1873113696D+02  0.3349460434D-01
      0.2825394365D+01  0.2347269535D+00
      0.6401216923D+00  0.8137573261D+00
 Atom H22      Shell    66 S   1     bf  187 -   187          6.971969729820         -3.686553990483          5.859869906836
      0.1612777588D+00  0.1000000000D+01
 Atom H23      Shell    67 S   3     bf  188 -   188          8.575424765725         -6.110555306446          4.286693272456
      0.1873113696D+02  0.3349460434D-01
      0.2825394365D+01  0.2347269535D+00
      0.6401216923D+00  0.8137573261D+00
 Atom H23      Shell    68 S   1     bf  189 -   189          8.575424765725         -6.110555306446          4.286693272456
      0.1612777588D+00  0.1000000000D+01
 Atom C24      Shell    69 S   6     bf  190 -   190          4.482753020147          2.242243601461         -1.635954281377
      0.3047524880D+04  0.1834737132D-02
      0.4573695180D+03  0.1403732281D-01
      0.1039486850D+03  0.6884262226D-01
      0.2921015530D+02  0.2321844432D+00
      0.9286662960D+01  0.4679413484D+00
      0.3163926960D+01  0.3623119853D+00
 Atom C24      Shell    70 SP   3    bf  191 -   194          4.482753020147          2.242243601461         -1.635954281377
      0.7868272350D+01 -0.1193324198D+00  0.6899906659D-01
      0.1881288540D+01 -0.1608541517D+00  0.3164239610D+00
      0.5442492580D+00  0.1143456438D+01  0.7443082909D+00
 Atom C24      Shell    71 SP   1    bf  195 -   198          4.482753020147          2.242243601461         -1.635954281377
      0.1687144782D+00  0.1000000000D+01  0.1000000000D+01
 Atom C24      Shell    72 D   1     bf  199 -   204          4.482753020147          2.242243601461         -1.635954281377
      0.8000000000D+00  0.1000000000D+01
 Atom H25      Shell    73 S   3     bf  205 -   205          2.858740088279          3.428244452995         -1.134539772791
      0.1873113696D+02  0.3349460434D-01
      0.2825394365D+01  0.2347269535D+00
      0.6401216923D+00  0.8137573261D+00
 Atom H25      Shell    74 S   1     bf  206 -   206          2.858740088279          3.428244452995         -1.134539772791
      0.1612777588D+00  0.1000000000D+01
 Atom H26      Shell    75 S   3     bf  207 -   207          4.844535778158          2.567899047695         -3.645007473280
      0.1873113696D+02  0.3349460434D-01
      0.2825394365D+01  0.2347269535D+00
      0.6401216923D+00  0.8137573261D+00
 Atom H26      Shell    76 S   1     bf  208 -   208          4.844535778158          2.567899047695         -3.645007473280
      0.1612777588D+00  0.1000000000D+01
 Atom C27      Shell    77 S   6     bf  209 -   209         12.037749068924          1.875689209376          2.551578994866
      0.3047524880D+04  0.1834737132D-02
      0.4573695180D+03  0.1403732281D-01
      0.1039486850D+03  0.6884262226D-01
      0.2921015530D+02  0.2321844432D+00
      0.9286662960D+01  0.4679413484D+00
      0.3163926960D+01  0.3623119853D+00
 Atom C27      Shell    78 SP   3    bf  210 -   213         12.037749068924          1.875689209376          2.551578994866
      0.7868272350D+01 -0.1193324198D+00  0.6899906659D-01
      0.1881288540D+01 -0.1608541517D+00  0.3164239610D+00
      0.5442492580D+00  0.1143456438D+01  0.7443082909D+00
 Atom C27      Shell    79 SP   1    bf  214 -   217         12.037749068924          1.875689209376          2.551578994866
      0.1687144782D+00  0.1000000000D+01  0.1000000000D+01
 Atom C27      Shell    80 D   1     bf  218 -   223         12.037749068924          1.875689209376          2.551578994866
      0.8000000000D+00  0.1000000000D+01
 Atom H28      Shell    81 S   3     bf  224 -   224         11.549441492926          3.888358467823          2.582292127889
      0.1873113696D+02  0.3349460434D-01
      0.2825394365D+01  0.2347269535D+00
      0.6401216923D+00  0.8137573261D+00
 Atom H28      Shell    82 S   1     bf  225 -   225         11.549441492926          3.888358467823          2.582292127889
      0.1612777588D+00  0.1000000000D+01
 Atom C29      Shell    83 S   6     bf  226 -   226          1.014245816501         -1.213318241182         -1.351571379852
      0.3047524880D+04  0.1834737132D-02
      0.4573695180D+03  0.1403732281D-01
      0.1039486850D+03  0.6884262226D-01
      0.2921015530D+02  0.2321844432D+00
      0.9286662960D+01  0.4679413484D+00
      0.3163926960D+01  0.3623119853D+00
 Atom C29      Shell    84 SP   3    bf  227 -   230          1.014245816501         -1.213318241182         -1.351571379852
      0.7868272350D+01 -0.1193324198D+00  0.6899906659D-01
      0.1881288540D+01 -0.1608541517D+00  0.3164239610D+00
      0.5442492580D+00  0.1143456438D+01  0.7443082909D+00
 Atom C29      Shell    85 SP   1    bf  231 -   234          1.014245816501         -1.213318241182         -1.351571379852
      0.1687144782D+00  0.1000000000D+01  0.1000000000D+01
 Atom C29      Shell    86 D   1     bf  235 -   240          1.014245816501         -1.213318241182         -1.351571379852
      0.8000000000D+00  0.1000000000D+01
 Atom H30      Shell    87 S   3     bf  241 -   241          0.000000000000          0.000000000000          0.000000000000
      0.1873113696D+02  0.3349460434D-01
      0.2825394365D+01  0.2347269535D+00
      0.6401216923D+00  0.8137573261D+00
 Atom H30      Shell    88 S   1     bf  242 -   242          0.000000000000          0.000000000000          0.000000000000
      0.1612777588D+00  0.1000000000D+01
 Atom C31      Shell    89 S   6     bf  243 -   243          3.726444276114         -0.156321792884          3.685084860695
      0.3047524880D+04  0.1834737132D-02
      0.4573695180D+03  0.1403732281D-01
      0.1039486850D+03  0.6884262226D-01
      0.2921015530D+02  0.2321844432D+00
      0.9286662960D+01  0.4679413484D+00
      0.3163926960D+01  0.3623119853D+00
 Atom C31      Shell    90 SP   3    bf  244 -   247          3.726444276114         -0.156321792884          3.685084860695
      0.7868272350D+01 -0.1193324198D+00  0.6899906659D-01
      0.1881288540D+01 -0.1608541517D+00  0.3164239610D+00
      0.5442492580D+00  0.1143456438D+01  0.7443082909D+00
 Atom C31      Shell    91 SP   1    bf  248 -   251          3.726444276114         -0.156321792884          3.685084860695
      0.1687144782D+00  0.1000000000D+01  0.1000000000D+01
 Atom C31      Shell    92 D   1     bf  252 -   257          3.726444276114         -0.156321792884          3.685084860695
      0.8000000000D+00  0.1000000000D+01
 Atom H32      Shell    93 S   3     bf  258 -   258          4.811252768773         -0.128347515534          5.442626408031
      0.1873113696D+02  0.3349460434D-01
      0.2825394365D+01  0.2347269535D+00
      0.6401216923D+00  0.8137573261D+00
 Atom H32      Shell    94 S   1     bf  259 -   259          4.811252768773         -0.128347515534          5.442626408031
      0.1612777588D+00  0.1000000000D+01
 Atom H33      Shell    95 S   3     bf  260 -   260          3.050599409414          1.770166184020          3.357488703518
      0.1873113696D+02  0.3349460434D-01
      0.2825394365D+01  0.2347269535D+00
      0.6401216923D+00  0.8137573261D+00
 Atom H33      Shell    96 S   1     bf  261 -   261          3.050599409414          1.770166184020          3.357488703518
      0.1612777588D+00  0.1000000000D+01
 Atom H34      Shell    97 S   3     bf  262 -   262          2.063316545528         -1.342456720487          4.015445762794
      0.1873113696D+02  0.3349460434D-01
      0.2825394365D+01  0.2347269535D+00
      0.6401216923D+00  0.8137573261D+00
 Atom H34      Shell    98 S   1     bf  263 -   263          2.063316545528         -1.342456720487          4.015445762794
      0.1612777588D+00  0.1000000000D+01
 Atom C35      Shell    99 S   6     bf  264 -   264         14.241380689997         -0.566803813791          6.006741802939
      0.3047524880D+04  0.1834737132D-02
      0.4573695180D+03  0.1403732281D-01
      0.1039486850D+03  0.6884262226D-01
      0.2921015530D+02  0.2321844432D+00
      0.9286662960D+01  0.4679413484D+00
      0.3163926960D+01  0.3623119853D+00
 Atom C35      Shell   100 SP   3    bf  265 -   268         14.241380689997         -0.566803813791          6.006741802939
      0.7868272350D+01 -0.1193324198D+00  0.6899906659D-01
      0.1881288540D+01 -0.1608541517D+00  0.3164239610D+00
      0.5442492580D+00  0.1143456438D+01  0.7443082909D+00
 Atom C35      Shell   101 SP   1    bf  269 -   272         14.241380689997         -0.566803813791          6.006741802939
      0.1687144782D+00  0.1000000000D+01  0.1000000000D+01
 Atom C35      Shell   102 D   1     bf  273 -   278         14.241380689997         -0.566803813791          6.006741802939
      0.8000000000D+00  0.1000000000D+01
 Atom C36      Shell   103 S   6     bf  279 -   279         13.424072569051         -5.229077358364          6.261979628392
      0.3047524880D+04  0.1834737132D-02
      0.4573695180D+03  0.1403732281D-01
      0.1039486850D+03  0.6884262226D-01
      0.2921015530D+02  0.2321844432D+00
      0.9286662960D+01  0.4679413484D+00
      0.3163926960D+01  0.3623119853D+00
 Atom C36      Shell   104 SP   3    bf  280 -   283         13.424072569051         -5.229077358364          6.261979628392
      0.7868272350D+01 -0.1193324198D+00  0.6899906659D-01
      0.1881288540D+01 -0.1608541517D+00  0.3164239610D+00
      0.5442492580D+00  0.1143456438D+01  0.7443082909D+00
 Atom C36      Shell   105 SP   1    bf  284 -   287         13.424072569051         -5.229077358364          6.261979628392
      0.1687144782D+00  0.1000000000D+01  0.1000000000D+01
 Atom C36      Shell   106 D   1     bf  288 -   293         13.424072569051         -5.229077358364          6.261979628392
      0.8000000000D+00  0.1000000000D+01
 Atom H37      Shell   107 S   3     bf  294 -   294         14.138658314358         -5.641687418766          4.356276314587
      0.1873113696D+02  0.3349460434D-01
      0.2825394365D+01  0.2347269535D+00
      0.6401216923D+00  0.8137573261D+00
 Atom H37      Shell   108 S   1     bf  295 -   295         14.138658314358         -5.641687418766          4.356276314587
      0.1612777588D+00  0.1000000000D+01
 Atom H38      Shell   109 S   3     bf  296 -   296         11.990419744090         -6.664593321011          6.671495791375
      0.1873113696D+02  0.3349460434D-01
      0.2825394365D+01  0.2347269535D+00
      0.6401216923D+00  0.8137573261D+00
 Atom H38      Shell   110 S   1     bf  297 -   297         11.990419744090         -6.664593321011          6.671495791375
      0.1612777588D+00  0.1000000000D+01
 Atom C39      Shell   111 S   6     bf  298 -   298         14.141698052227          1.387551481963          4.390042432458
      0.3047524880D+04  0.1834737132D-02
      0.4573695180D+03  0.1403732281D-01
      0.1039486850D+03  0.6884262226D-01
      0.2921015530D+02  0.2321844432D+00
      0.9286662960D+01  0.4679413484D+00
      0.3163926960D+01  0.3623119853D+00
 Atom C39      Shell   112 SP   3    bf  299 -   302         14.141698052227          1.387551481963          4.390042432458
      0.7868272350D+01 -0.1193324198D+00  0.6899906659D-01
      0.1881288540D+01 -0.1608541517D+00  0.3164239610D+00
      0.5442492580D+00  0.1143456438D+01  0.7443082909D+00
 Atom C39      Shell   113 SP   1    bf  303 -   306         14.141698052227          1.387551481963          4.390042432458
      0.1687144782D+00  0.1000000000D+01  0.1000000000D+01
 Atom C39      Shell   114 D   1     bf  307 -   312         14.141698052227          1.387551481963          4.390042432458
      0.8000000000D+00  0.1000000000D+01
 Atom H40      Shell   115 S   3     bf  313 -   313         15.715684793302          2.713205305696          4.318031904829
[...]
 **** Fit      -0.009171
 **** Fit      -0.012785
 **** Fit      -0.017672
 **** Fit      -0.024159
 **** Fit      -0.032462
 **** Fit      -0.042297
 **** Fit      -0.052284
 **** Fit      -0.059720
 **** Fit      -0.045974
 **** Fit      -0.033134
 **** Fit      -0.021027
 **** Fit      -0.011375
 **** Fit      -0.004574
 **** Fit      -0.000226
 **** Fit       0.002327
 **** Fit       0.003693
 **** Fit       0.004328
 **** Fit      -0.004332
 **** Fit      -0.006003
 **** Fit      -0.008277
 **** Fit      -0.011337
 **** Fit      -0.015395
 **** Fit      -0.020645
 **** Fit      -0.027156
 **** Fit      -0.034597
 **** Fit      -0.041907
 **** Fit      -0.047220
 **** Fit      -0.048522
 **** Fit      -0.044875
 **** Fit      -0.037145
 **** Fit      -0.027468
 **** Fit      -0.018022
 **** Fit      -0.010182
 **** Fit      -0.004405
 **** Fit      -0.000527
 **** Fit       0.001874
 **** Fit       0.003241
 **** Fit      -0.005354
 **** Fit      -0.007224
 **** Fit      -0.009698
 **** Fit      -0.012908
 **** Fit      -0.016952
 **** Fit      -0.021797
 **** Fit      -0.027119
 **** Fit      -0.032141
 **** Fit      -0.035654
 **** Fit      -0.036434
 **** Fit      -0.033914
 **** Fit      -0.028584
 **** Fit      -0.021735
 **** Fit      -0.014788
 **** Fit      -0.008753
 **** Fit      -0.004074
 **** Fit      -0.000759
 **** Fit       0.001416
 **** Fit       0.002740
 **** Fit      -0.007994
 **** Fit      -0.010420
 **** Fit      -0.013402
 **** Fit      -0.016870
 **** Fit      -0.020548
 **** Fit      -0.023892
 **** Fit      -0.026145
 **** Fit      -0.026589
 **** Fit      -0.024896
 **** Fit      -0.021334
 **** Fit      -0.016649
 **** Fit      -0.011717
 **** Fit      -0.007235
 **** Fit      -0.003582
 **** Fit      -0.000851
 **** Fit       0.001046
 **** Fit      -0.004955
 **** Fit      -0.006349
 **** Fit      -0.008100
 **** Fit      -0.010218
 **** Fit      -0.012629
 **** Fit      -0.015127
 **** Fit      -0.017343
 **** Fit      -0.018802
 **** Fit      -0.019077
 **** Fit      -0.017971
 **** Fit      -0.015629
 **** Fit      -0.012472
 **** Fit      -0.009033
 **** Fit      -0.005776
 **** Fit      -0.002995
 **** Fit      -0.003895
 **** Fit      -0.004861
 **** Fit      -0.006070
 **** Fit      -0.007523
 **** Fit      -0.009165
 **** Fit      -0.010850
 **** Fit      -0.012335
 **** Fit      -0.013314
 **** Fit      -0.013520
 **** Fit      -0.012824
 **** Fit      -0.003597
 **** Fit      -0.004396
 **** Fit      -0.005364
 **** Fit      -0.006465
 **** Fit      -0.007603
 **** Fit      -0.008615
 **** Fit      -0.009299
 **** Fit      -0.009478
 **** Fit      -0.009061
 **** Fit      -0.002586
 **** Fit      -0.003090
 **** Fit      -0.003720
 **** Fit      -0.004453
 **** Fit      -0.005224
 **** Fit      -0.005923
 **** Fit      -0.006415
 **** Fit      -0.006576
 **** Fit      -0.006338
 **** Fit      -0.002124
 **** Fit      -0.002526
 **** Fit      -0.003011
 **** Fit      -0.003535
 **** Fit      -0.004022
 **** Fit      -0.004379
 **** Fit      -0.004519
 **** Fit      -0.001694
 **** Fit      -0.002013
 **** Fit      -0.002368
 **** Fit      -0.002707
 **** Fit      -0.021285
 **** Fit      -0.022589
 **** Fit      -0.022886
 **** Fit      -0.022057
 **** Fit      -0.020192
 **** Fit      -0.023423
 **** Fit      -0.026256
 **** Fit      -0.028126
 **** Fit      -0.028589
 **** Fit      -0.027445
 **** Fit      -0.024845
 **** Fit      -0.021240
 **** Fit      -0.017200
 **** Fit      -0.019452
 **** Fit      -0.023743
 **** Fit      -0.028118
 **** Fit      -0.032002
 **** Fit      -0.034643
 **** Fit      -0.035336
 **** Fit      -0.033759
 **** Fit      -0.030163
 **** Fit      -0.025267
 **** Fit      -0.019932
 **** Fit      -0.014865
 **** Fit      -0.010488
 **** Fit      -0.010275
 **** Fit      -0.013447
 **** Fit      -0.017371
 **** Fit      -0.022075
 **** Fit      -0.027445
 **** Fit      -0.033098
 **** Fit      -0.038275
 **** Fit      -0.041885
 **** Fit      -0.042860
 **** Fit      -0.040708
 **** Fit      -0.035838
 **** Fit      -0.029355
 **** Fit      -0.022505
 **** Fit      -0.016225
 **** Fit      -0.011000
 **** Fit      -0.006945
 **** Fit      -0.003955
 **** Fit      -0.008144
 **** Fit      -0.010896
 **** Fit      -0.014445
 **** Fit      -0.018931
 **** Fit      -0.024444
 **** Fit      -0.030914
 **** Fit      -0.037927
 **** Fit      -0.044522
 **** Fit      -0.049205
 **** Fit      -0.050456
 **** Fit      -0.047593
 **** Fit      -0.041253
 **** Fit      -0.033024
 **** Fit      -0.024591
 **** Fit      -0.017118
 **** Fit      -0.011120
 **** Fit      -0.006633
 **** Fit      -0.003447
 **** Fit      -0.006173
 **** Fit      -0.008389
 **** Fit      -0.011324
 **** Fit      -0.015165
 **** Fit      -0.020107
 **** Fit      -0.026304
 **** Fit      -0.033742
 **** Fit      -0.041994
 **** Fit      -0.049903
 **** Fit      -0.055562
 **** Fit      -0.056999
 **** Fit      -0.053366
 **** Fit      -0.045579
 **** Fit      -0.035723
 **** Fit      -0.025890
 **** Fit      -0.017425
 **** Fit      -0.010836
 **** Fit      -0.006065
 **** Fit      -0.002789
 **** Fit      -0.000629
 **** Fit      -0.006225
 **** Fit      -0.008495
 **** Fit      -0.011529
 **** Fit      -0.015543
 **** Fit      -0.020770
 **** Fit      -0.027415
 **** Fit      -0.035517
 **** Fit      -0.044642
 **** Fit      -0.053485
 **** Fit      -0.059810
 **** Fit      -0.061296
 **** Fit      -0.057007
 **** Fit      -0.048107
 **** Fit      -0.037070
 **** Fit      -0.026273
 **** Fit      -0.017169
 **** Fit      -0.010245
 **** Fit      -0.005356
 **** Fit      -0.002090
 **** Fit      -0.000001
 **** Fit      -0.006195
 **** Fit      -0.008459
 **** Fit      -0.011498
 **** Fit      -0.015539
 **** Fit      -0.020831
 **** Fit      -0.027605
 **** Fit      -0.035923
 **** Fit      -0.045356
 **** Fit      -0.054536
 **** Fit      -0.061083
 **** Fit      -0.062528
 **** Fit      -0.057903
 **** Fit      -0.048500
 **** Fit      -0.036968
 **** Fit      -0.025804
 **** Fit      -0.016499
 **** Fit      -0.009516
 **** Fit      -0.004660
 **** Fit      -0.001474
 **** Fit       0.000521
 **** Fit      -0.006082
 **** Fit      -0.008277
 **** Fit      -0.011223
 **** Fit      -0.015135
 **** Fit      -0.020255
 **** Fit      -0.026800
 **** Fit      -0.034824
 **** Fit      -0.043903
 **** Fit      -0.052717
 **** Fit      -0.058986
 **** Fit      -0.060338
 **** Fit      -0.055828
 **** Fit      -0.046685
 **** Fit      -0.035467
 **** Fit      -0.024608
 **** Fit      -0.015565
 **** Fit      -0.008791
 **** Fit      -0.004097
 **** Fit      -0.001034
 **** Fit       0.000868
 **** Fit      -0.005882
 **** Fit      -0.007948
 **** Fit      -0.010704
 **** Fit      -0.014342
 **** Fit      -0.019068
 **** Fit      -0.025057
 **** Fit      -0.032318
 **** Fit      -0.040434
 **** Fit      -0.048228
 **** Fit      -0.053730
 **** Fit      -0.054905
 **** Fit      -0.050911
 **** Fit      -0.042754
 **** Fit      -0.032644
 **** Fit      -0.022750
 **** Fit      -0.014421
 **** Fit      -0.008113
 **** Fit      -0.003699
 **** Fit      -0.000793
 **** Fit       0.001022
 **** Fit      -0.007474
 **** Fit      -0.009960
 **** Fit      -0.013207
 **** Fit      -0.017372
 **** Fit      -0.022565
 **** Fit      -0.028741
 **** Fit      -0.035497
 **** Fit      -0.041849
 **** Fit      -0.046255
 **** Fit      -0.047156
 **** Fit      -0.043890
 **** Fit      -0.037187
 **** Fit      -0.028746
 **** Fit      -0.020315
 **** Fit      -0.013059
 **** Fit      -0.007438
 **** Fit      -0.003416
 **** Fit      -0.000710
 **** Fit       0.001016
 **** Fit      -0.009030
 **** Fit      -0.011812
 **** Fit      -0.015320
 **** Fit      -0.019606
 **** Fit      -0.024577
 **** Fit      -0.029862
 **** Fit      -0.034689
 **** Fit      -0.037941
 **** Fit      -0.038539
 **** Fit      -0.036021
 **** Fit      -0.030871
 **** Fit      -0.024269
 **** Fit      -0.017503
 **** Fit      -0.011503
 **** Fit      -0.006708
 **** Fit      -0.003166
 **** Fit      -0.000708
 **** Fit      -0.016482
 **** Fit      -0.020304
 **** Fit      -0.024245
 **** Fit      -0.027729
 **** Fit      -0.029995
 **** Fit      -0.030342
 **** Fit      -0.028477
 **** Fit      -0.024701
 **** Fit      -0.019778
 **** Fit      -0.014592
 **** Fit      -0.009840
 **** Fit      -0.005905
 **** Fit      -0.002889
 **** Fit      -0.013446
 **** Fit      -0.016281
 **** Fit      -0.019123
 **** Fit      -0.021562
 **** Fit      -0.023093
 **** Fit      -0.023278
 **** Fit      -0.021935
 **** Fit      -0.019246
 **** Fit      -0.015685
 **** Fit      -0.011833
 **** Fit      -0.008186
 **** Fit      -0.005054
 **** Fit      -0.010678
 **** Fit      -0.012724
 **** Fit      -0.014730
 **** Fit      -0.016413
 **** Fit      -0.017442
 **** Fit      -0.017542
 **** Fit      -0.016599
 **** Fit      -0.014717
 **** Fit      -0.008282
 **** Fit      -0.009728
 **** Fit      -0.011126
 **** Fit      -0.012283
 **** Fit      -0.012984
 **** Fit      -0.006299
 **** Fit      -0.007304
 **** Fit      -0.008271
 **** Fit      -0.009070
 **** Fit      -0.009556
 **** Fit      -0.005411
 **** Fit      -0.006077
 **** Fit      -0.022792
 **** Fit      -0.024071
 **** Fit      -0.024310
 **** Fit      -0.023398
 **** Fit      -0.021440
 **** Fit      -0.024316
 **** Fit      -0.027003
 **** Fit      -0.028719
 **** Fit      -0.029062
 **** Fit      -0.027868
 **** Fit      -0.025294
 **** Fit      -0.021767
 **** Fit      -0.017821
 **** Fit      -0.023997
 **** Fit      -0.027972
 **** Fit      -0.031400
 **** Fit      -0.033632
 **** Fit      -0.034097
 **** Fit      -0.032555
 **** Fit      -0.029244
 **** Fit      -0.024776
 **** Fit      -0.019886
 **** Fit      -0.015185
 **** Fit      -0.011059
 **** Fit      -0.021916
 **** Fit      -0.026622
 **** Fit      -0.031403
 **** Fit      -0.035609
 **** Fit      -0.038389
 **** Fit      -0.038970
 **** Fit      -0.037033
 **** Fit      -0.032916
 **** Fit      -0.027454
 **** Fit      -0.021604
 **** Fit      -0.016120
 **** Fit      -0.011429
 **** Fit      -0.007675
 **** Fit      -0.014692
 **** Fit      -0.018680
 **** Fit      -0.023404
 **** Fit      -0.028719
 **** Fit      -0.034214
 **** Fit      -0.039121
 **** Fit      -0.042394
 **** Fit      -0.043061
 **** Fit      -0.040727
 **** Fit      -0.035842
 **** Fit      -0.029468
 **** Fit      -0.022775
 **** Fit      -0.016633
 **** Fit      -0.011496
 **** Fit      -0.007478
 **** Fit      -0.011660
 **** Fit      -0.015056
 **** Fit      -0.019254
 **** Fit      -0.024282
 **** Fit      -0.030005
 **** Fit      -0.035990
 **** Fit      -0.041386
 **** Fit      -0.044997
 **** Fit      -0.045699
 **** Fit      -0.043044
 **** Fit      -0.037577
 **** Fit      -0.030542
 **** Fit      -0.023262
 **** Fit      -0.016687
 **** Fit      -0.011280
 **** Fit      -0.007123
 **** Fit      -0.004082
 **** Fit      -0.011645
 **** Fit      -0.015063
 **** Fit      -0.019308
 **** Fit      -0.024418
 **** Fit      -0.030264
 **** Fit      -0.036408
 **** Fit      -0.041965
 **** Fit      -0.045677
 **** Fit      -0.046358
 **** Fit      -0.043543
 **** Fit      -0.037824
 **** Fit      -0.030522
 **** Fit      -0.023024
 **** Fit      -0.016309
 **** Fit      -0.010839
 **** Fit      -0.006675
 **** Fit      -0.003664
 **** Fit      -0.011382
 **** Fit      -0.014697
 **** Fit      -0.018813
 **** Fit      -0.023761
 **** Fit      -0.029412
 **** Fit      -0.035335
 **** Fit      -0.040673
 **** Fit      -0.044216
 **** Fit      -0.044826
 **** Fit      -0.042062
 **** Fit      -0.036491
 **** Fit      -0.029385
 **** Fit      -0.022089
 **** Fit      -0.015556
 **** Fit      -0.010237
 **** Fit      -0.006196
 **** Fit      -0.003281
 **** Fit      -0.013977
 **** Fit      -0.017800
 **** Fit      -0.022363
 **** Fit      -0.027529
 **** Fit      -0.032889
 **** Fit      -0.037668
 **** Fit      -0.040799
 **** Fit      -0.041296
 **** Fit      -0.038774
 **** Fit      -0.033718
 **** Fit      -0.027240
 **** Fit      -0.020537
 **** Fit      -0.014484
 **** Fit      -0.009517
 **** Fit      -0.005716
 **** Fit      -0.002958
 **** Fit      -0.020369
 **** Fit      -0.024846
 **** Fit      -0.029415
 **** Fit      -0.033417
 **** Fit      -0.035987
 **** Fit      -0.036344
 **** Fit      -0.034184
 **** Fit      -0.029884
 **** Fit      -0.024328
 **** Fit      -0.018500
 **** Fit      -0.013155
 **** Fit      -0.008697
 **** Fit      -0.005235
 **** Fit      -0.021686
 **** Fit      -0.025380
 **** Fit      -0.028544
 **** Fit      -0.030521
 **** Fit      -0.030739
 **** Fit      -0.028980
 **** Fit      -0.025514
 **** Fit      -0.020991
 **** Fit      -0.016164
 **** Fit      -0.011646
 **** Fit      -0.007796
 **** Fit      -0.004739
 **** Fit      -0.021236
 **** Fit      -0.023626
 **** Fit      -0.025073
 **** Fit      -0.025181
 **** Fit      -0.023802
 **** Fit      -0.021118
 **** Fit      -0.017582
 **** Fit      -0.013738
 **** Fit      -0.010057
 **** Fit      -0.020095
 **** Fit      -0.020131
 **** Fit      -0.019079
 **** Fit      -0.017059
 **** Fit      -0.023883
 **** Fit      -0.024033
 **** Fit      -0.023125
 **** Fit      -0.021259
 **** Fit      -0.023567
 **** Fit      -0.025858
 **** Fit      -0.027260
 **** Fit      -0.027458
 **** Fit      -0.026336
 **** Fit      -0.024034
 **** Fit      -0.020903
 **** Fit      -0.025996
 **** Fit      -0.028715
 **** Fit      -0.030396
 **** Fit      -0.030637
 **** Fit      -0.029287
 **** Fit      -0.026534
 **** Fit      -0.022831
 **** Fit      -0.018727
 **** Fit      -0.024248
 **** Fit      -0.027925
 **** Fit      -0.031015
 **** Fit      -0.032937
 **** Fit      -0.033205
 **** Fit      -0.031640
 **** Fit      -0.028476
 **** Fit      -0.024267
 **** Fit      -0.019663
 **** Fit      -0.015217
 **** Fit      -0.025155
 **** Fit      -0.029101
 **** Fit      -0.032438
 **** Fit      -0.034518
 **** Fit      -0.034792
 **** Fit      -0.033060
 **** Fit      -0.029596
 **** Fit      -0.025028
 **** Fit      -0.020084
 **** Fit      -0.015362
 **** Fit      -0.011230
 **** Fit      -0.025308
 **** Fit      -0.029333
 **** Fit      -0.032741
 **** Fit      -0.034860
 **** Fit      -0.035115
 **** Fit      -0.033301
 **** Fit      -0.029710
 **** Fit      -0.025002
 **** Fit      -0.019935
 **** Fit      -0.015126
 **** Fit      -0.010946
 **** Fit      -0.024659
 **** Fit      -0.028550
 **** Fit      -0.031832
 **** Fit      -0.033856
 **** Fit      -0.034071
 **** Fit      -0.032280
 **** Fit      -0.028766
 **** Fit      -0.024169
 **** Fit      -0.019225
 **** Fit      -0.014534
 **** Fit      -0.010458
 **** Fit      -0.023264
 **** Fit      -0.026828
 **** Fit      -0.029809
 **** Fit      -0.031622
 **** Fit      -0.031780
 **** Fit      -0.030109
 **** Fit      -0.026861
 **** Fit      -0.022607
 **** Fit      -0.018013
 **** Fit      -0.013629
 **** Fit      -0.009800
 **** Fit      -0.024378
 **** Fit      -0.026938
 **** Fit      -0.028465
 **** Fit      -0.028558
 **** Fit      -0.027078
 **** Fit      -0.024229
 **** Fit      -0.020485
 **** Fit      -0.016408
 **** Fit      -0.012478
 **** Fit      -0.023574
 **** Fit      -0.024792
 **** Fit      -0.024825
 **** Fit      -0.023568
 **** Fit      -0.021179
 **** Fit      -0.018025
 **** Fit      -0.020997
 **** Fit      -0.020983
 **** Fit      -0.019952
 **** Fit      -0.024464
 **** Fit      -0.024537
 **** Fit      -0.023569
 **** Fit      -0.024959
 **** Fit      -0.026123
 **** Fit      -0.026201
 **** Fit      -0.025108
 **** Fit      -0.022976
 **** Fit      -0.020106
 **** Fit      -0.025874
 **** Fit      -0.027112
 **** Fit      -0.027184
 **** Fit      -0.025999
 **** Fit      -0.023703
 **** Fit      -0.020633
 **** Fit      -0.026029
 **** Fit      -0.027279
 **** Fit      -0.027336
 **** Fit      -0.026105
 **** Fit      -0.023742
 **** Fit      -0.020596
 **** Fit      -0.025376
 **** Fit      -0.026573
 **** Fit      -0.026605
 **** Fit      -0.025385
 **** Fit      -0.023064
 **** Fit      -0.019982
 **** Fit      -0.023978
 **** Fit      -0.025061
 **** Fit      -0.025065
 **** Fit      -0.023909
 **** Fit      -0.021732
 **** Fit      -0.022892
 **** Fit      -0.021842
 -----------------------------------------------------------------
 Leave Link  602 at Wed May 17 11:46:20 2017, MaxMem=   33554432 cpu:      91.1
 (Enter /scratch/michal/g09/l9999.exe)

 Test job not archived.
 1\1\GINC-RZEPICHA\SP\RHF\6-31G(d)\C27H46O2\MICHAL\17-May-2017\0\\#P HF
 /6-31G* SCF(Conver=6) NoSymm Test Pop=chelpg IOp(6/33=2) GFInput GFPri
 nt\\MEP - Input generated by R.E.D.-III.x MOLECULE\\0,1\O,0,6.84732905
 ,0.78345703,0.\H,0,7.41336599,0.,0.\O,0,10.45599941,-1.98522404,4.9423
 0352\H,0,10.1420339,-1.87185953,5.85045798\C,0,2.79735558,-0.61462766,
 0.75592124\C,0,4.10013693,0.19933824,0.51925773\H,0,4.60535718,-0.2940
 0067,-0.32333924\C,0,5.10214114,0.17661188,1.67992843\H,0,4.65064596,0
 .66595806,2.55518797\C,0,5.47381785,-1.28188519,2.04845023\H,0,6.05335
 873,-1.67061046,1.19452954\C,0,2.04969903,-0.32343935,-0.59262891\H,0,
 2.5631954,-0.92369045,-1.36051802\C,0,3.23607322,-2.07369553,0.9982334
 5\H,0,3.70984167,-2.45394465,0.08175965\H,0,2.38321391,-2.72877509,1.2
 020378\C,0,6.43171841,-1.35932409,3.28870533\C,0,3.61541997,1.55533351
 ,-0.01061749\H,0,4.38670051,2.06454033,-0.59510477\H,0,3.34129132,2.22
 45259,0.81503048\C,0,4.22579148,-2.18684878,2.17601345\H,0,3.68940748,
 -1.95084035,3.1009096\H,0,4.53791934,-3.2335666,2.26842038\C,0,2.37217
 073,1.18654421,-0.86570972\H,0,1.5127801,1.81414883,-0.60037259\H,0,2.
 56361792,1.35887365,-1.92885488\C,0,6.37010245,0.99257198,1.35023745\H
 ,0,6.11170121,2.05763068,1.36649014\C,0,0.53671577,-0.64206036,-0.7152
 2077\H,0,0.,0.,0.\C,0,1.97194938,-0.08272193,1.95006292\H,0,2.54600531
 ,-0.06791858,2.88011385\H,0,1.61430768,0.9367316,1.7767065\H,0,1.09186
 009,-0.7103975,2.12488238\C,0,7.53621408,-0.29993966,3.17863086\C,0,7.
 10371325,-2.76710856,3.3136969\H,0,7.48185574,-2.9854524,2.30524214\H,
 0,6.34505685,-3.52675089,3.53040352\C,0,7.4834643,0.73426062,2.3231104
 \H,0,8.31638221,1.43576641,2.28500407\C,0,5.66496004,-1.12630327,4.619
 10505\H,0,4.98980179,-1.95835556,4.84040157\H,0,6.34870916,-1.0329537,
 5.46645192\H,0,5.07382246,-0.20638007,4.57976921\C,0,8.72736207,-0.452
 95076,4.1067131\H,0,9.4910754,0.29380222,3.86834663\H,0,8.41599587,-0.
 26444352,5.14661916\C,0,8.26669169,-2.91439905,4.30682128\H,0,7.904538
 61,-2.81640716,5.34090164\H,0,8.7072707,-3.91428063,4.22256048\C,0,0.0
 2055892,-0.27904488,-2.13158761\H,0,0.44460932,0.68317965,-2.43373241\
 H,0,0.40798553,-1.02019713,-2.84809642\C,0,9.34317164,-1.85940807,4.05
 337854\H,0,9.77642629,-2.02034197,3.05847269\C,0,0.19867832,-2.1076513
 1,-0.38742869\H,0,0.80111994,-2.79267867,-0.9971031\H,0,-0.85438529,-2
 .32721518,-0.58769454\H,0,0.37893816,-2.34968889,0.6624684\C,0,-1.5092
 1535,-0.19668515,-2.2626965\H,0,-1.96447149,-1.13729897,-1.93010539\H,
 0,-1.88661303,0.57492121,-1.57784299\C,0,-2.01115397,0.07846409,-3.692
 77564\H,0,-3.10998103,0.02288014,-3.69435801\H,0,-1.66686766,-0.737235
 1,-4.34502108\C,0,-1.59921832,1.42081235,-4.33431446\H,0,-0.50128712,1
 .47139693,-4.35609736\C,0,-2.11182308,2.63259783,-3.54000169\H,0,-3.20
 732002,2.6163379,-3.46918677\H,0,-1.82493182,3.57061388,-4.0288068\H,0
 ,-1.7128385,2.65770873,-2.52078609\C,0,-2.0900807,1.48400602,-5.789642
 06\H,0,-3.18609339,1.44327011,-5.83488088\H,0,-1.77202867,2.41254444,-
 6.27737322\H,0,-1.70167706,0.64544456,-6.37905188\\Version=EM64L-G09Re
 vC.01\HF=-1198.9268234\RMSD=4.886e-07\Dipole=-0.5183223,-0.3957398,0.7
 737799\Quadrupole=-17.3776563,5.0968251,12.2808312,-1.9095454,4.037511
 9,0.669421\PG=C01 [X(C27H46O2)]\\@


 NOTHING MAKES A PERSON MORE PRODUCTIVE THAN THE LAST MINUTE.
 Job cpu time:  0 days  0 hours 37 minutes 39.8 seconds.
 File lengths (MBytes):  RWF=    151 Int=      0 D2E=      0 Chk=     11 Scr=      1
 Normal termination of Gaussian 09 at Wed May 17 11:46:20 2017.
