 Entering Gaussian System, Link 0=/scratch/michal/g09//g09
 Input=JOB2-gau_m1-8-1.com
 Output=JOB2-gau_m1-8-1.log
 Initial command:
 /scratch/michal/g09/l1.exe /scratch/michal/gauss_scratch/Gau-8687.inp -scrdir=/scratch/michal/gauss_scratch/
 Entering Link 1 = /scratch/michal/g09/l1.exe PID=      8689.
  
 Copyright (c) 1988,1990,1992,1993,1995,1998,2003,2009,2011,
            Gaussian, Inc.  All Rights Reserved.
  
 This is part of the Gaussian(R) 09 program.  It is based on
 the Gaussian(R) 03 system (copyright 2003, Gaussian, Inc.),
 the Gaussian(R) 98 system (copyright 1998, Gaussian, Inc.),
 the Gaussian(R) 94 system (copyright 1995, Gaussian, Inc.),
 the Gaussian 92(TM) system (copyright 1992, Gaussian, Inc.),
 the Gaussian 90(TM) system (copyright 1990, Gaussian, Inc.),
 the Gaussian 88(TM) system (copyright 1988, Gaussian, Inc.),
 the Gaussian 86(TM) system (copyright 1986, Carnegie Mellon
 University), and the Gaussian 82(TM) system (copyright 1983,
 Carnegie Mellon University). Gaussian is a federally registered
 trademark of Gaussian, Inc.
  
 This software contains proprietary and confidential information,
 including trade secrets, belonging to Gaussian, Inc.
  
 This software is provided under written license and may be
 used, copied, transmitted, or stored only in accord with that
 written license.
  
 The following legend is applicable only to US Government
 contracts under FAR:
  
                    RESTRICTED RIGHTS LEGEND
  
 Use, reproduction and disclosure by the US Government is
 subject to restrictions as set forth in subparagraphs (a)
 and (c) of the Commercial Computer Software - Restricted
 Rights clause in FAR 52.227-19.
  
 Gaussian, Inc.
 340 Quinnipiac St., Bldg. 40, Wallingford CT 06492
  
  
 ---------------------------------------------------------------
 Warning -- This program may not be used in any manner that
 competes with the business of Gaussian, Inc. or will provide
 assistance to any competitor of Gaussian, Inc.  The licensee
 of this program is prohibited from giving any competitor of
 Gaussian, Inc. access to this program.  By using this program,
 the user acknowledges that Gaussian, Inc. is engaged in the
 business of creating and licensing software in the field of
 computational chemistry and represents and warrants to the
 licensee that it is not a competitor of Gaussian, Inc. and that
 it will not use this program in any manner prohibited above.
 ---------------------------------------------------------------
  

 Cite this work as:
 Gaussian 09, Revision C.01,
 M. J. Frisch, G. W. Trucks, H. B. Schlegel, G. E. Scuseria, 
 M. A. Robb, J. R. Cheeseman, G. Scalmani, V. Barone, B. Mennucci, 
 G. A. Petersson, H. Nakatsuji, M. Caricato, X. Li, H. P. Hratchian, 
 A. F. Izmaylov, J. Bloino, G. Zheng, J. L. Sonnenberg, M. Hada, 
 M. Ehara, K. Toyota, R. Fukuda, J. Hasegawa, M. Ishida, T. Nakajima, 
 Y. Honda, O. Kitao, H. Nakai, T. Vreven, J. A. Montgomery, Jr., 
 J. E. Peralta, F. Ogliaro, M. Bearpark, J. J. Heyd, E. Brothers, 
 K. N. Kudin, V. N. Staroverov, T. Keith, R. Kobayashi, J. Normand, 
 K. Raghavachari, A. Rendell, J. C. Burant, S. S. Iyengar, J. Tomasi, 
 M. Cossi, N. Rega, J. M. Millam, M. Klene, J. E. Knox, J. B. Cross, 
 V. Bakken, C. Adamo, J. Jaramillo, R. Gomperts, R. E. Stratmann, 
 O. Yazyev, A. J. Austin, R. Cammi, C. Pomelli, J. W. Ochterski, 
 R. L. Martin, K. Morokuma, V. G. Zakrzewski, G. A. Voth, 
 P. Salvador, J. J. Dannenberg, S. Dapprich, A. D. Daniels, 
 O. Farkas, J. B. Foresman, J. V. Ortiz, J. Cioslowski, 
 and D. J. Fox, Gaussian, Inc., Wallingford CT, 2010.
 
 ******************************************
 Gaussian 09:  EM64L-G09RevC.01 23-Sep-2011
                17-May-2017 
 ******************************************
 %Mem=256MB
 %NProc=48
 Will use up to   48 processors via shared memory.
 ----------------------------------------------------------------------
 #P HF/6-31G* SCF(Conver=6) NoSymm Test Pop=chelpg IOp(6/33=2) GFInput 
 GFPrint
 ----------------------------------------------------------------------
 1/38=1/1;
 2/12=2,15=1,17=6,18=5,40=1/2;
 3/5=1,6=6,7=1,11=9,16=1,24=110,25=1,30=1/1,2,3;
 4//1;
 5/5=2,6=6,38=5/2;
 6/7=2,8=2,9=2,10=2,15=8,20=3,28=1,33=2/1,2;
 99/5=1,9=1/99;
 Leave Link    1 at Wed May 17 12:17:11 2017, MaxMem=   33554432 cpu:       6.0
 (Enter /scratch/michal/g09/l101.exe)
 ----------------------------------------------
 MEP - Input generated by R.E.D.-III.x MOLECULE
 ----------------------------------------------
 Charge =  0 Multiplicity = 1
 Symbolic Z-Matrix:
 O                     0.        0.        0. 
 H                     0.96652   0.        0. 
 O                     4.36466  -1.38575  -4.91454 
 H                     4.08871  -1.21585  -5.82622 
 C                    -1.24259   4.07354  -0.86056 
 C                    -1.14468   2.55398  -0.57443 
 H                    -0.44325   2.45631   0.26588 
 C                    -0.53827   1.73137  -1.71651 
 H                    -1.19753   1.78969  -2.59455 
 C                     0.86381   2.28377  -2.09037 
 H                     1.51414   2.05145  -1.23064 
 C                    -1.90243   4.54306   0.47385 
 H                    -1.11456   4.39563   1.22665 
 C                     0.18968   4.58576  -1.09173 
 H                     0.7655    4.45278  -0.16455 
 H                     0.2       5.66095  -1.31607 
 C                     1.4902    1.53136  -3.31693 
 C                    -2.53009   2.17834  -0.01688 
 H                    -2.47882   1.29764   0.62924 
 H                    -3.23098   1.94139  -0.82763 
 C                     0.8833    3.82682  -2.24228 
 H                     0.40605   4.11377  -3.18447 
 H                     1.92082   4.1726   -2.31455 
 C                    -2.98828   3.45664   0.75328 
 H                    -3.97406   3.77896   0.40622 
 H                    -3.08563   3.26669   1.82713 
 C                    -0.44939   0.23381  -1.35569 
 H                    -1.4625   -0.18471  -1.36339 
 C                    -2.32885   6.03363   0.61251 
 H                    -1.62665   6.6202    0. 
 C                    -2.12937   4.3988   -2.08289 
 H                    -1.74312   3.95498  -3.00407 
 H                    -3.15319   4.03516  -1.95826 
 H                    -2.17839   5.48124  -2.24424 
 C                     1.28341   0.017    -3.17823 
 C                     3.02398   1.81584  -3.3479 
 H                     3.42325   1.65911  -2.3361 
 H                     3.19162   2.87156  -3.58622 
 C                     0.41572  -0.53309  -2.31284 
 H                     0.33908  -1.61844  -2.25434 
 C                     0.85018   1.98871  -4.65623 
 H                     1.12628   3.01937  -4.8982 
 H                     1.17609   1.36431  -5.49178 
 H                    -0.24139   1.92675  -4.61504 
 C                     2.10843  -0.87327  -4.08945 
 H                     1.95382  -1.92551  -3.83137 
 H                     1.77314  -0.752    -5.13189 
 C                     3.82757   0.94301  -4.32403 
 H                     3.53516   1.15815  -5.36246 
 H                     4.89522   1.17691  -4.2442 
 C                    -3.7566    6.3724    0.12043 
 H                    -3.99929   5.79328  -0.77623 
 H                    -4.48341   6.06234   0.88486 
 C                     3.60796  -0.54298  -4.04191 
 H                     3.99266  -0.77937  -3.04213 
 C                    -2.14455   6.49389   2.07334 
 H                    -2.76697   5.89582   2.7506 
 H                    -2.42219   7.54399   2.21027 
 H                    -1.10289   6.38386   2.3948 
 C                    -3.97272   7.86059  -0.20258 
 H                    -3.73708   8.4705    0.67769 
 H                    -3.25887   8.15781  -0.98285 
 C                    -5.40777   8.1573   -0.66658 
 H                    -6.10419   7.83804   0.12228 
 H                    -5.63212   7.52784  -1.54004 
 C                    -5.72921   9.62546  -1.03179 
 H                    -6.78711   9.63587  -1.33351 
 C                    -4.91294   10.12972  -2.23353 
 H                    -3.84629   10.20839  -1.99361 
 H                    -5.25151   11.12451  -2.54502 
 H                    -5.01363   9.45812  -3.09436 
 C                    -5.59311   10.57847   0.1673 
 H                    -4.55046   10.67448   0.49152 
 H                    -5.9482    11.58274  -0.09077 
 H                    -6.17913   10.22727   1.0248 
 
 NAtoms=     75 NQM=        0 NQMF=       0 NMMI=     75 NMMIF=      0
                NMic=       0 NMicF=      0.
                    Isotopes and Nuclear Properties:
 (Nuclear quadrupole moments (NQMom) in fm**2, nuclear magnetic moments (NMagM)
  in nuclear magnetons)

  Atom         1           2           3           4           5           6           7           8           9          10
 IAtWgt=          16           1          16           1          12          12           1          12           1          12
 AtmWgt=  15.9949146   1.0078250  15.9949146   1.0078250  12.0000000  12.0000000   1.0078250  12.0000000   1.0078250  12.0000000
 NucSpn=           0           1           0           1           0           0           1           0           1           0
 AtZEff=   0.0000000   0.0000000   0.0000000   0.0000000   0.0000000   0.0000000   0.0000000   0.0000000   0.0000000   0.0000000
 NQMom=    0.0000000   0.0000000   0.0000000   0.0000000   0.0000000   0.0000000   0.0000000   0.0000000   0.0000000   0.0000000
 NMagM=    0.0000000   2.7928460   0.0000000   2.7928460   0.0000000   0.0000000   2.7928460   0.0000000   2.7928460   0.0000000

  Atom        11          12          13          14          15          16          17          18          19          20
 IAtWgt=           1          12           1          12           1           1          12          12           1           1
 AtmWgt=   1.0078250  12.0000000   1.0078250  12.0000000   1.0078250   1.0078250  12.0000000  12.0000000   1.0078250   1.0078250
 NucSpn=           1           0           1           0           1           1           0           0           1           1
 AtZEff=   0.0000000   0.0000000   0.0000000   0.0000000   0.0000000   0.0000000   0.0000000   0.0000000   0.0000000   0.0000000
 NQMom=    0.0000000   0.0000000   0.0000000   0.0000000   0.0000000   0.0000000   0.0000000   0.0000000   0.0000000   0.0000000
 NMagM=    2.7928460   0.0000000   2.7928460   0.0000000   2.7928460   2.7928460   0.0000000   0.0000000   2.7928460   2.7928460

  Atom        21          22          23          24          25          26          27          28          29          30
 IAtWgt=          12           1           1          12           1           1          12           1          12           1
 AtmWgt=  12.0000000   1.0078250   1.0078250  12.0000000   1.0078250   1.0078250  12.0000000   1.0078250  12.0000000   1.0078250
 NucSpn=           0           1           1           0           1           1           0           1           0           1
 AtZEff=   0.0000000   0.0000000   0.0000000   0.0000000   0.0000000   0.0000000   0.0000000   0.0000000   0.0000000   0.0000000
 NQMom=    0.0000000   0.0000000   0.0000000   0.0000000   0.0000000   0.0000000   0.0000000   0.0000000   0.0000000   0.0000000
 NMagM=    0.0000000   2.7928460   2.7928460   0.0000000   2.7928460   2.7928460   0.0000000   2.7928460   0.0000000   2.7928460

  Atom        31          32          33          34          35          36          37          38          39          40
 IAtWgt=          12           1           1           1          12          12           1           1          12           1
 AtmWgt=  12.0000000   1.0078250   1.0078250   1.0078250  12.0000000  12.0000000   1.0078250   1.0078250  12.0000000   1.0078250
 NucSpn=           0           1           1           1           0           0           1           1           0           1
 AtZEff=   0.0000000   0.0000000   0.0000000   0.0000000   0.0000000   0.0000000   0.0000000   0.0000000   0.0000000   0.0000000
 NQMom=    0.0000000   0.0000000   0.0000000   0.0000000   0.0000000   0.0000000   0.0000000   0.0000000   0.0000000   0.0000000
 NMagM=    0.0000000   2.7928460   2.7928460   2.7928460   0.0000000   0.0000000   2.7928460   2.7928460   0.0000000   2.7928460

  Atom        41          42          43          44          45          46          47          48          49          50
 IAtWgt=          12           1           1           1          12           1           1          12           1           1
 AtmWgt=  12.0000000   1.0078250   1.0078250   1.0078250  12.0000000   1.0078250   1.0078250  12.0000000   1.0078250   1.0078250
 NucSpn=           0           1           1           1           0           1           1           0           1           1
 AtZEff=   0.0000000   0.0000000   0.0000000   0.0000000   0.0000000   0.0000000   0.0000000   0.0000000   0.0000000   0.0000000
 NQMom=    0.0000000   0.0000000   0.0000000   0.0000000   0.0000000   0.0000000   0.0000000   0.0000000   0.0000000   0.0000000
 NMagM=    0.0000000   2.7928460   2.7928460   2.7928460   0.0000000   2.7928460   2.7928460   0.0000000   2.7928460   2.7928460

  Atom        51          52          53          54          55          56          57          58          59          60
 IAtWgt=          12           1           1          12           1          12           1           1           1          12
 AtmWgt=  12.0000000   1.0078250   1.0078250  12.0000000   1.0078250  12.0000000   1.0078250   1.0078250   1.0078250  12.0000000
 NucSpn=           0           1           1           0           1           0           1           1           1           0
 AtZEff=   0.0000000   0.0000000   0.0000000   0.0000000   0.0000000   0.0000000   0.0000000   0.0000000   0.0000000   0.0000000
 NQMom=    0.0000000   0.0000000   0.0000000   0.0000000   0.0000000   0.0000000   0.0000000   0.0000000   0.0000000   0.0000000
 NMagM=    0.0000000   2.7928460   2.7928460   0.0000000   2.7928460   0.0000000   2.7928460   2.7928460   2.7928460   0.0000000

  Atom        61          62          63          64          65          66          67          68          69          70
 IAtWgt=           1           1          12           1           1          12           1          12           1           1
 AtmWgt=   1.0078250   1.0078250  12.0000000   1.0078250   1.0078250  12.0000000   1.0078250  12.0000000   1.0078250   1.0078250
 NucSpn=           1           1           0           1           1           0           1           0           1           1
 AtZEff=   0.0000000   0.0000000   0.0000000   0.0000000   0.0000000   0.0000000   0.0000000   0.0000000   0.0000000   0.0000000
 NQMom=    0.0000000   0.0000000   0.0000000   0.0000000   0.0000000   0.0000000   0.0000000   0.0000000   0.0000000   0.0000000
 NMagM=    2.7928460   2.7928460   0.0000000   2.7928460   2.7928460   0.0000000   2.7928460   0.0000000   2.7928460   2.7928460

  Atom        71          72          73          74          75
 IAtWgt=           1          12           1           1           1
 AtmWgt=   1.0078250  12.0000000   1.0078250   1.0078250   1.0078250
 NucSpn=           1           0           1           1           1
 AtZEff=   0.0000000   0.0000000   0.0000000   0.0000000   0.0000000
 NQMom=    0.0000000   0.0000000   0.0000000   0.0000000   0.0000000
 NMagM=    2.7928460   0.0000000   2.7928460   2.7928460   2.7928460
 Leave Link  101 at Wed May 17 12:17:11 2017, MaxMem=   33554432 cpu:       6.6
 (Enter /scratch/michal/g09/l202.exe)
 Symmetry turned off by external request.
 Stoichiometry    C27H46O2
 Framework group  C1[X(C27H46O2)]
 Deg. of freedom   219
 Full point group                 C1      NOp   1
                          Input orientation:                          
 ---------------------------------------------------------------------
 Center     Atomic      Atomic             Coordinates (Angstroms)
 Number     Number       Type             X           Y           Z
 ---------------------------------------------------------------------
      1          8           0        0.000000    0.000000    0.000000
      2          1           0        0.966519    0.000000    0.000000
      3          8           0        4.364664   -1.385748   -4.914542
      4          1           0        4.088714   -1.215850   -5.826219
      5          6           0       -1.242590    4.073538   -0.860558
      6          6           0       -1.144683    2.553979   -0.574431
      7          1           0       -0.443250    2.456309    0.265878
      8          6           0       -0.538274    1.731367   -1.716508
      9          1           0       -1.197531    1.789694   -2.594546
     10          6           0        0.863813    2.283775   -2.090369
     11          1           0        1.514138    2.051455   -1.230637
     12          6           0       -1.902435    4.543055    0.473853
     13          1           0       -1.114557    4.395630    1.226653
     14          6           0        0.189680    4.585756   -1.091732
     15          1           0        0.765504    4.452775   -0.164547
     16          1           0        0.200004    5.660950   -1.316074
     17          6           0        1.490197    1.531360   -3.316928
     18          6           0       -2.530095    2.178342   -0.016881
     19          1           0       -2.478820    1.297638    0.629238
     20          1           0       -3.230978    1.941394   -0.827625
     21          6           0        0.883295    3.826818   -2.242285
     22          1           0        0.406048    4.113769   -3.184470
     23          1           0        1.920816    4.172599   -2.314553
     24          6           0       -2.988280    3.456641    0.753281
     25          1           0       -3.974060    3.778965    0.406221
     26          1           0       -3.085632    3.266688    1.827127
     27          6           0       -0.449391    0.233806   -1.355693
     28          1           0       -1.462502   -0.184710   -1.363387
     29          6           0       -2.328851    6.033630    0.612513
     30          1           0       -1.626653    6.620197    0.000000
     31          6           0       -2.129365    4.398805   -2.082885
     32          1           0       -1.743115    3.954983   -3.004075
     33          1           0       -3.153188    4.035161   -1.958265
     34          1           0       -2.178386    5.481238   -2.244236
     35          6           0        1.283412    0.016997   -3.178235
     36          6           0        3.023978    1.815837   -3.347902
     37          1           0        3.423255    1.659107   -2.336103
     38          1           0        3.191621    2.871556   -3.586219
     39          6           0        0.415718   -0.533088   -2.312835
     40          1           0        0.339082   -1.618441   -2.254336
     41          6           0        0.850177    1.988713   -4.656228
     42          1           0        1.126285    3.019375   -4.898203
     43          1           0        1.176085    1.364305   -5.491776
     44          1           0       -0.241395    1.926748   -4.615044
     45          6           0        2.108429   -0.873270   -4.089452
     46          1           0        1.953821   -1.925506   -3.831370
     47          1           0        1.773135   -0.752000   -5.131891
     48          6           0        3.827569    0.943010   -4.324028
     49          1           0        3.535160    1.158155   -5.362457
     50          1           0        4.895225    1.176912   -4.244201
     51          6           0       -3.756604    6.372400    0.120432
     52          1           0       -3.999293    5.793280   -0.776231
     53          1           0       -4.483413    6.062341    0.884859
     54          6           0        3.607964   -0.542982   -4.041912
     55          1           0        3.992655   -0.779374   -3.042130
     56          6           0       -2.144549    6.493890    2.073341
     57          1           0       -2.766967    5.895823    2.750600
     58          1           0       -2.422187    7.543990    2.210271
     59          1           0       -1.102890    6.383857    2.394804
     60          6           0       -3.972722    7.860592   -0.202581
     61          1           0       -3.737076    8.470505    0.677685
     62          1           0       -3.258868    8.157807   -0.982853
     63          6           0       -5.407769    8.157305   -0.666582
     64          1           0       -6.104186    7.838042    0.122279
     65          1           0       -5.632123    7.527838   -1.540041
     66          6           0       -5.729210    9.625464   -1.031792
     67          1           0       -6.787112    9.635873   -1.333514
     68          6           0       -4.912937   10.129716   -2.233533
     69          1           0       -3.846294   10.208391   -1.993607
     70          1           0       -5.251513   11.124508   -2.545024
     71          1           0       -5.013634    9.458120   -3.094359
     72          6           0       -5.593109   10.578468    0.167300
     73          1           0       -4.550459   10.674480    0.491519
     74          1           0       -5.948204   11.582743   -0.090774
     75          1           0       -6.179128   10.227275    1.024799
 ---------------------------------------------------------------------
 Rotational constants (GHZ):      0.3783383      0.0588526      0.0548648
 Leave Link  202 at Wed May 17 12:17:11 2017, MaxMem=   33554432 cpu:       0.1
 (Enter /scratch/michal/g09/l301.exe)
 Standard basis: 6-31G(d) (6D, 7F)
 Ernie: Thresh=  0.10000D-02 Tol=  0.10000D-05 Strict=F.
 AO basis set in the form of general basis input (Overlap normalization):
      1 0
 S   6 1.00       0.000000000000
      0.5484671660D+04  0.1831074430D-02
      0.8252349460D+03  0.1395017220D-01
      0.1880469580D+03  0.6844507810D-01
      0.5296450000D+02  0.2327143360D+00
      0.1689757040D+02  0.4701928980D+00
      0.5799635340D+01  0.3585208530D+00
 SP   3 1.00       0.000000000000
      0.1553961625D+02 -0.1107775495D+00  0.7087426823D-01
      0.3599933586D+01 -0.1480262627D+00  0.3397528391D+00
      0.1013761750D+01  0.1130767015D+01  0.7271585773D+00
 SP   1 1.00       0.000000000000
      0.2700058226D+00  0.1000000000D+01  0.1000000000D+01
 D   1 1.00       0.000000000000
      0.8000000000D+00  0.1000000000D+01
 ****
      2 0
 S   3 1.00       0.000000000000
      0.1873113696D+02  0.3349460434D-01
      0.2825394365D+01  0.2347269535D+00
      0.6401216923D+00  0.8137573261D+00
 S   1 1.00       0.000000000000
      0.1612777588D+00  0.1000000000D+01
 ****
      3 0
 S   6 1.00       0.000000000000
      0.5484671660D+04  0.1831074430D-02
      0.8252349460D+03  0.1395017220D-01
      0.1880469580D+03  0.6844507810D-01
      0.5296450000D+02  0.2327143360D+00
      0.1689757040D+02  0.4701928980D+00
      0.5799635340D+01  0.3585208530D+00
 SP   3 1.00       0.000000000000
      0.1553961625D+02 -0.1107775495D+00  0.7087426823D-01
      0.3599933586D+01 -0.1480262627D+00  0.3397528391D+00
      0.1013761750D+01  0.1130767015D+01  0.7271585773D+00
 SP   1 1.00       0.000000000000
      0.2700058226D+00  0.1000000000D+01  0.1000000000D+01
 D   1 1.00       0.000000000000
      0.8000000000D+00  0.1000000000D+01
 ****
      4 0
 S   3 1.00       0.000000000000
      0.1873113696D+02  0.3349460434D-01
      0.2825394365D+01  0.2347269535D+00
      0.6401216923D+00  0.8137573261D+00
 S   1 1.00       0.000000000000
      0.1612777588D+00  0.1000000000D+01
 ****
      5 0
 S   6 1.00       0.000000000000
      0.3047524880D+04  0.1834737132D-02
      0.4573695180D+03  0.1403732281D-01
      0.1039486850D+03  0.6884262226D-01
      0.2921015530D+02  0.2321844432D+00
      0.9286662960D+01  0.4679413484D+00
      0.3163926960D+01  0.3623119853D+00
 SP   3 1.00       0.000000000000
      0.7868272350D+01 -0.1193324198D+00  0.6899906659D-01
      0.1881288540D+01 -0.1608541517D+00  0.3164239610D+00
      0.5442492580D+00  0.1143456438D+01  0.7443082909D+00
 SP   1 1.00       0.000000000000
      0.1687144782D+00  0.1000000000D+01  0.1000000000D+01
 D   1 1.00       0.000000000000
      0.8000000000D+00  0.1000000000D+01
 ****
      6 0
 S   6 1.00       0.000000000000
      0.3047524880D+04  0.1834737132D-02
      0.4573695180D+03  0.1403732281D-01
      0.1039486850D+03  0.6884262226D-01
      0.2921015530D+02  0.2321844432D+00
      0.9286662960D+01  0.4679413484D+00
      0.3163926960D+01  0.3623119853D+00
 SP   3 1.00       0.000000000000
      0.7868272350D+01 -0.1193324198D+00  0.6899906659D-01
      0.1881288540D+01 -0.1608541517D+00  0.3164239610D+00
      0.5442492580D+00  0.1143456438D+01  0.7443082909D+00
 SP   1 1.00       0.000000000000
      0.1687144782D+00  0.1000000000D+01  0.1000000000D+01
 D   1 1.00       0.000000000000
      0.8000000000D+00  0.1000000000D+01
 ****
      7 0
 S   3 1.00       0.000000000000
      0.1873113696D+02  0.3349460434D-01
      0.2825394365D+01  0.2347269535D+00
      0.6401216923D+00  0.8137573261D+00
 S   1 1.00       0.000000000000
      0.1612777588D+00  0.1000000000D+01
 ****
      8 0
 S   6 1.00       0.000000000000
      0.3047524880D+04  0.1834737132D-02
      0.4573695180D+03  0.1403732281D-01
      0.1039486850D+03  0.6884262226D-01
      0.2921015530D+02  0.2321844432D+00
      0.9286662960D+01  0.4679413484D+00
      0.3163926960D+01  0.3623119853D+00
 SP   3 1.00       0.000000000000
      0.7868272350D+01 -0.1193324198D+00  0.6899906659D-01
      0.1881288540D+01 -0.1608541517D+00  0.3164239610D+00
      0.5442492580D+00  0.1143456438D+01  0.7443082909D+00
 SP   1 1.00       0.000000000000
      0.1687144782D+00  0.1000000000D+01  0.1000000000D+01
 D   1 1.00       0.000000000000
      0.8000000000D+00  0.1000000000D+01
 ****
      9 0
 S   3 1.00       0.000000000000
      0.1873113696D+02  0.3349460434D-01
      0.2825394365D+01  0.2347269535D+00
      0.6401216923D+00  0.8137573261D+00
 S   1 1.00       0.000000000000
      0.1612777588D+00  0.1000000000D+01
 ****
     10 0
 S   6 1.00       0.000000000000
      0.3047524880D+04  0.1834737132D-02
      0.4573695180D+03  0.1403732281D-01
      0.1039486850D+03  0.6884262226D-01
      0.2921015530D+02  0.2321844432D+00
      0.9286662960D+01  0.4679413484D+00
      0.3163926960D+01  0.3623119853D+00
 SP   3 1.00       0.000000000000
      0.7868272350D+01 -0.1193324198D+00  0.6899906659D-01
      0.1881288540D+01 -0.1608541517D+00  0.3164239610D+00
      0.5442492580D+00  0.1143456438D+01  0.7443082909D+00
 SP   1 1.00       0.000000000000
      0.1687144782D+00  0.1000000000D+01  0.1000000000D+01
 D   1 1.00       0.000000000000
      0.8000000000D+00  0.1000000000D+01
 ****
     11 0
 S   3 1.00       0.000000000000
      0.1873113696D+02  0.3349460434D-01
      0.2825394365D+01  0.2347269535D+00
      0.6401216923D+00  0.8137573261D+00
 S   1 1.00       0.000000000000
      0.1612777588D+00  0.1000000000D+01
 ****
     12 0
 S   6 1.00       0.000000000000
      0.3047524880D+04  0.1834737132D-02
      0.4573695180D+03  0.1403732281D-01
      0.1039486850D+03  0.6884262226D-01
      0.2921015530D+02  0.2321844432D+00
      0.9286662960D+01  0.4679413484D+00
      0.3163926960D+01  0.3623119853D+00
 SP   3 1.00       0.000000000000
      0.7868272350D+01 -0.1193324198D+00  0.6899906659D-01
      0.1881288540D+01 -0.1608541517D+00  0.3164239610D+00
      0.5442492580D+00  0.1143456438D+01  0.7443082909D+00
 SP   1 1.00       0.000000000000
      0.1687144782D+00  0.1000000000D+01  0.1000000000D+01
 D   1 1.00       0.000000000000
      0.8000000000D+00  0.1000000000D+01
 ****
     13 0
 S   3 1.00       0.000000000000
      0.1873113696D+02  0.3349460434D-01
      0.2825394365D+01  0.2347269535D+00
      0.6401216923D+00  0.8137573261D+00
 S   1 1.00       0.000000000000
      0.1612777588D+00  0.1000000000D+01
 ****
     14 0
 S   6 1.00       0.000000000000
      0.3047524880D+04  0.1834737132D-02
      0.4573695180D+03  0.1403732281D-01
      0.1039486850D+03  0.6884262226D-01
      0.2921015530D+02  0.2321844432D+00
      0.9286662960D+01  0.4679413484D+00
      0.3163926960D+01  0.3623119853D+00
 SP   3 1.00       0.000000000000
      0.7868272350D+01 -0.1193324198D+00  0.6899906659D-01
      0.1881288540D+01 -0.1608541517D+00  0.3164239610D+00
      0.5442492580D+00  0.1143456438D+01  0.7443082909D+00
 SP   1 1.00       0.000000000000
      0.1687144782D+00  0.1000000000D+01  0.1000000000D+01
 D   1 1.00       0.000000000000
      0.8000000000D+00  0.1000000000D+01
 ****
     15 0
 S   3 1.00       0.000000000000
      0.1873113696D+02  0.3349460434D-01
      0.2825394365D+01  0.2347269535D+00
      0.6401216923D+00  0.8137573261D+00
 S   1 1.00       0.000000000000
      0.1612777588D+00  0.1000000000D+01
 ****
     16 0
 S   3 1.00       0.000000000000
      0.1873113696D+02  0.3349460434D-01
      0.2825394365D+01  0.2347269535D+00
      0.6401216923D+00  0.8137573261D+00
 S   1 1.00       0.000000000000
      0.1612777588D+00  0.1000000000D+01
 ****
     17 0
 S   6 1.00       0.000000000000
      0.3047524880D+04  0.1834737132D-02
      0.4573695180D+03  0.1403732281D-01
      0.1039486850D+03  0.6884262226D-01
      0.2921015530D+02  0.2321844432D+00
      0.9286662960D+01  0.4679413484D+00
      0.3163926960D+01  0.3623119853D+00
 SP   3 1.00       0.000000000000
      0.7868272350D+01 -0.1193324198D+00  0.6899906659D-01
      0.1881288540D+01 -0.1608541517D+00  0.3164239610D+00
      0.5442492580D+00  0.1143456438D+01  0.7443082909D+00
 SP   1 1.00       0.000000000000
      0.1687144782D+00  0.1000000000D+01  0.1000000000D+01
 D   1 1.00       0.000000000000
      0.8000000000D+00  0.1000000000D+01
 ****
     18 0
 S   6 1.00       0.000000000000
      0.3047524880D+04  0.1834737132D-02
      0.4573695180D+03  0.1403732281D-01
      0.1039486850D+03  0.6884262226D-01
      0.2921015530D+02  0.2321844432D+00
      0.9286662960D+01  0.4679413484D+00
      0.3163926960D+01  0.3623119853D+00
 SP   3 1.00       0.000000000000
      0.7868272350D+01 -0.1193324198D+00  0.6899906659D-01
      0.1881288540D+01 -0.1608541517D+00  0.3164239610D+00
      0.5442492580D+00  0.1143456438D+01  0.7443082909D+00
 SP   1 1.00       0.000000000000
      0.1687144782D+00  0.1000000000D+01  0.1000000000D+01
 D   1 1.00       0.000000000000
      0.8000000000D+00  0.1000000000D+01
 ****
     19 0
 S   3 1.00       0.000000000000
      0.1873113696D+02  0.3349460434D-01
      0.2825394365D+01  0.2347269535D+00
      0.6401216923D+00  0.8137573261D+00
 S   1 1.00       0.000000000000
      0.1612777588D+00  0.1000000000D+01
 ****
     20 0
 S   3 1.00       0.000000000000
      0.1873113696D+02  0.3349460434D-01
      0.2825394365D+01  0.2347269535D+00
      0.6401216923D+00  0.8137573261D+00
 S   1 1.00       0.000000000000
      0.1612777588D+00  0.1000000000D+01
 ****
     21 0
 S   6 1.00       0.000000000000
      0.3047524880D+04  0.1834737132D-02
      0.4573695180D+03  0.1403732281D-01
      0.1039486850D+03  0.6884262226D-01
      0.2921015530D+02  0.2321844432D+00
      0.9286662960D+01  0.4679413484D+00
      0.3163926960D+01  0.3623119853D+00
 SP   3 1.00       0.000000000000
      0.7868272350D+01 -0.1193324198D+00  0.6899906659D-01
      0.1881288540D+01 -0.1608541517D+00  0.3164239610D+00
      0.5442492580D+00  0.1143456438D+01  0.7443082909D+00
 SP   1 1.00       0.000000000000
      0.1687144782D+00  0.1000000000D+01  0.1000000000D+01
 D   1 1.00       0.000000000000
      0.8000000000D+00  0.1000000000D+01
 ****
     22 0
 S   3 1.00       0.000000000000
      0.1873113696D+02  0.3349460434D-01
      0.2825394365D+01  0.2347269535D+00
      0.6401216923D+00  0.8137573261D+00
 S   1 1.00       0.000000000000
      0.1612777588D+00  0.1000000000D+01
 ****
     23 0
 S   3 1.00       0.000000000000
      0.1873113696D+02  0.3349460434D-01
      0.2825394365D+01  0.2347269535D+00
      0.6401216923D+00  0.8137573261D+00
 S   1 1.00       0.000000000000
      0.1612777588D+00  0.1000000000D+01
 ****
     24 0
 S   6 1.00       0.000000000000
      0.3047524880D+04  0.1834737132D-02
      0.4573695180D+03  0.1403732281D-01
      0.1039486850D+03  0.6884262226D-01
      0.2921015530D+02  0.2321844432D+00
      0.9286662960D+01  0.4679413484D+00
      0.3163926960D+01  0.3623119853D+00
 SP   3 1.00       0.000000000000
      0.7868272350D+01 -0.1193324198D+00  0.6899906659D-01
      0.1881288540D+01 -0.1608541517D+00  0.3164239610D+00
      0.5442492580D+00  0.1143456438D+01  0.7443082909D+00
 SP   1 1.00       0.000000000000
      0.1687144782D+00  0.1000000000D+01  0.1000000000D+01
 D   1 1.00       0.000000000000
      0.8000000000D+00  0.1000000000D+01
 ****
     25 0
 S   3 1.00       0.000000000000
      0.1873113696D+02  0.3349460434D-01
      0.2825394365D+01  0.2347269535D+00
      0.6401216923D+00  0.8137573261D+00
 S   1 1.00       0.000000000000
      0.1612777588D+00  0.1000000000D+01
 ****
     26 0
 S   3 1.00       0.000000000000
      0.1873113696D+02  0.3349460434D-01
      0.2825394365D+01  0.2347269535D+00
      0.6401216923D+00  0.8137573261D+00
 S   1 1.00       0.000000000000
      0.1612777588D+00  0.1000000000D+01
 ****
     27 0
 S   6 1.00       0.000000000000
      0.3047524880D+04  0.1834737132D-02
      0.4573695180D+03  0.1403732281D-01
      0.1039486850D+03  0.6884262226D-01
      0.2921015530D+02  0.2321844432D+00
      0.9286662960D+01  0.4679413484D+00
      0.3163926960D+01  0.3623119853D+00
 SP   3 1.00       0.000000000000
      0.7868272350D+01 -0.1193324198D+00  0.6899906659D-01
      0.1881288540D+01 -0.1608541517D+00  0.3164239610D+00
      0.5442492580D+00  0.1143456438D+01  0.7443082909D+00
 SP   1 1.00       0.000000000000
      0.1687144782D+00  0.1000000000D+01  0.1000000000D+01
 D   1 1.00       0.000000000000
      0.8000000000D+00  0.1000000000D+01
 ****
     28 0
 S   3 1.00       0.000000000000
      0.1873113696D+02  0.3349460434D-01
      0.2825394365D+01  0.2347269535D+00
      0.6401216923D+00  0.8137573261D+00
 S   1 1.00       0.000000000000
      0.1612777588D+00  0.1000000000D+01
 ****
     29 0
 S   6 1.00       0.000000000000
      0.3047524880D+04  0.1834737132D-02
      0.4573695180D+03  0.1403732281D-01
      0.1039486850D+03  0.6884262226D-01
      0.2921015530D+02  0.2321844432D+00
      0.9286662960D+01  0.4679413484D+00
      0.3163926960D+01  0.3623119853D+00
 SP   3 1.00       0.000000000000
      0.7868272350D+01 -0.1193324198D+00  0.6899906659D-01
      0.1881288540D+01 -0.1608541517D+00  0.3164239610D+00
      0.5442492580D+00  0.1143456438D+01  0.7443082909D+00
 SP   1 1.00       0.000000000000
      0.1687144782D+00  0.1000000000D+01  0.1000000000D+01
 D   1 1.00       0.000000000000
      0.8000000000D+00  0.1000000000D+01
 ****
     30 0
 S   3 1.00       0.000000000000
      0.1873113696D+02  0.3349460434D-01
      0.2825394365D+01  0.2347269535D+00
      0.6401216923D+00  0.8137573261D+00
 S   1 1.00       0.000000000000
      0.1612777588D+00  0.1000000000D+01
 ****
     31 0
 S   6 1.00       0.000000000000
      0.3047524880D+04  0.1834737132D-02
      0.4573695180D+03  0.1403732281D-01
      0.1039486850D+03  0.6884262226D-01
      0.2921015530D+02  0.2321844432D+00
      0.9286662960D+01  0.4679413484D+00
      0.3163926960D+01  0.3623119853D+00
 SP   3 1.00       0.000000000000
      0.7868272350D+01 -0.1193324198D+00  0.6899906659D-01
      0.1881288540D+01 -0.1608541517D+00  0.3164239610D+00
      0.5442492580D+00  0.1143456438D+01  0.7443082909D+00
 SP   1 1.00       0.000000000000
      0.1687144782D+00  0.1000000000D+01  0.1000000000D+01
 D   1 1.00       0.000000000000
      0.8000000000D+00  0.1000000000D+01
 ****
     32 0
 S   3 1.00       0.000000000000
      0.1873113696D+02  0.3349460434D-01
      0.2825394365D+01  0.2347269535D+00
      0.6401216923D+00  0.8137573261D+00
 S   1 1.00       0.000000000000
      0.1612777588D+00  0.1000000000D+01
 ****
     33 0
 S   3 1.00       0.000000000000
      0.1873113696D+02  0.3349460434D-01
      0.2825394365D+01  0.2347269535D+00
      0.6401216923D+00  0.8137573261D+00
 S   1 1.00       0.000000000000
      0.1612777588D+00  0.1000000000D+01
 ****
     34 0
 S   3 1.00       0.000000000000
      0.1873113696D+02  0.3349460434D-01
      0.2825394365D+01  0.2347269535D+00
      0.6401216923D+00  0.8137573261D+00
 S   1 1.00       0.000000000000
      0.1612777588D+00  0.1000000000D+01
 ****
     35 0
 S   6 1.00       0.000000000000
      0.3047524880D+04  0.1834737132D-02
      0.4573695180D+03  0.1403732281D-01
      0.1039486850D+03  0.6884262226D-01
      0.2921015530D+02  0.2321844432D+00
      0.9286662960D+01  0.4679413484D+00
      0.3163926960D+01  0.3623119853D+00
 SP   3 1.00       0.000000000000
      0.7868272350D+01 -0.1193324198D+00  0.6899906659D-01
      0.1881288540D+01 -0.1608541517D+00  0.3164239610D+00
      0.5442492580D+00  0.1143456438D+01  0.7443082909D+00
 SP   1 1.00       0.000000000000
      0.1687144782D+00  0.1000000000D+01  0.1000000000D+01
 D   1 1.00       0.000000000000
      0.8000000000D+00  0.1000000000D+01
 ****
     36 0
 S   6 1.00       0.000000000000
      0.3047524880D+04  0.1834737132D-02
      0.4573695180D+03  0.1403732281D-01
      0.1039486850D+03  0.6884262226D-01
      0.2921015530D+02  0.2321844432D+00
      0.9286662960D+01  0.4679413484D+00
      0.3163926960D+01  0.3623119853D+00
 SP   3 1.00       0.000000000000
      0.7868272350D+01 -0.1193324198D+00  0.6899906659D-01
      0.1881288540D+01 -0.1608541517D+00  0.3164239610D+00
      0.5442492580D+00  0.1143456438D+01  0.7443082909D+00
 SP   1 1.00       0.000000000000
      0.1687144782D+00  0.1000000000D+01  0.1000000000D+01
 D   1 1.00       0.000000000000
      0.8000000000D+00  0.1000000000D+01
 ****
     37 0
 S   3 1.00       0.000000000000
      0.1873113696D+02  0.3349460434D-01
      0.2825394365D+01  0.2347269535D+00
      0.6401216923D+00  0.8137573261D+00
 S   1 1.00       0.000000000000
      0.1612777588D+00  0.1000000000D+01
 ****
     38 0
 S   3 1.00       0.000000000000
      0.1873113696D+02  0.3349460434D-01
      0.2825394365D+01  0.2347269535D+00
      0.6401216923D+00  0.8137573261D+00
 S   1 1.00       0.000000000000
      0.1612777588D+00  0.1000000000D+01
 ****
     39 0
 S   6 1.00       0.000000000000
      0.3047524880D+04  0.1834737132D-02
      0.4573695180D+03  0.1403732281D-01
      0.1039486850D+03  0.6884262226D-01
      0.2921015530D+02  0.2321844432D+00
      0.9286662960D+01  0.4679413484D+00
      0.3163926960D+01  0.3623119853D+00
 SP   3 1.00       0.000000000000
      0.7868272350D+01 -0.1193324198D+00  0.6899906659D-01
      0.1881288540D+01 -0.1608541517D+00  0.3164239610D+00
      0.5442492580D+00  0.1143456438D+01  0.7443082909D+00
 SP   1 1.00       0.000000000000
      0.1687144782D+00  0.1000000000D+01  0.1000000000D+01
 D   1 1.00       0.000000000000
      0.8000000000D+00  0.1000000000D+01
 ****
     40 0
 S   3 1.00       0.000000000000
      0.1873113696D+02  0.3349460434D-01
      0.2825394365D+01  0.2347269535D+00
      0.6401216923D+00  0.8137573261D+00
 S   1 1.00       0.000000000000
      0.1612777588D+00  0.1000000000D+01
 ****
     41 0
 S   6 1.00       0.000000000000
      0.3047524880D+04  0.1834737132D-02
      0.4573695180D+03  0.1403732281D-01
      0.1039486850D+03  0.6884262226D-01
      0.2921015530D+02  0.2321844432D+00
      0.9286662960D+01  0.4679413484D+00
      0.3163926960D+01  0.3623119853D+00
 SP   3 1.00       0.000000000000
      0.7868272350D+01 -0.1193324198D+00  0.6899906659D-01
      0.1881288540D+01 -0.1608541517D+00  0.3164239610D+00
      0.5442492580D+00  0.1143456438D+01  0.7443082909D+00
 SP   1 1.00       0.000000000000
      0.1687144782D+00  0.1000000000D+01  0.1000000000D+01
 D   1 1.00       0.000000000000
      0.8000000000D+00  0.1000000000D+01
 ****
     42 0
 S   3 1.00       0.000000000000
      0.1873113696D+02  0.3349460434D-01
      0.2825394365D+01  0.2347269535D+00
      0.6401216923D+00  0.8137573261D+00
 S   1 1.00       0.000000000000
      0.1612777588D+00  0.1000000000D+01
 ****
     43 0
 S   3 1.00       0.000000000000
      0.1873113696D+02  0.3349460434D-01
      0.2825394365D+01  0.2347269535D+00
      0.6401216923D+00  0.8137573261D+00
 S   1 1.00       0.000000000000
      0.1612777588D+00  0.1000000000D+01
 ****
     44 0
 S   3 1.00       0.000000000000
      0.1873113696D+02  0.3349460434D-01
      0.2825394365D+01  0.2347269535D+00
      0.6401216923D+00  0.8137573261D+00
 S   1 1.00       0.000000000000
      0.1612777588D+00  0.1000000000D+01
 ****
     45 0
 S   6 1.00       0.000000000000
      0.3047524880D+04  0.1834737132D-02
      0.4573695180D+03  0.1403732281D-01
      0.1039486850D+03  0.6884262226D-01
      0.2921015530D+02  0.2321844432D+00
      0.9286662960D+01  0.4679413484D+00
      0.3163926960D+01  0.3623119853D+00
 SP   3 1.00       0.000000000000
      0.7868272350D+01 -0.1193324198D+00  0.6899906659D-01
      0.1881288540D+01 -0.1608541517D+00  0.3164239610D+00
      0.5442492580D+00  0.1143456438D+01  0.7443082909D+00
 SP   1 1.00       0.000000000000
      0.1687144782D+00  0.1000000000D+01  0.1000000000D+01
 D   1 1.00       0.000000000000
      0.8000000000D+00  0.1000000000D+01
 ****
     46 0
 S   3 1.00       0.000000000000
      0.1873113696D+02  0.3349460434D-01
      0.2825394365D+01  0.2347269535D+00
      0.6401216923D+00  0.8137573261D+00
 S   1 1.00       0.000000000000
      0.1612777588D+00  0.1000000000D+01
 ****
     47 0
 S   3 1.00       0.000000000000
      0.1873113696D+02  0.3349460434D-01
      0.2825394365D+01  0.2347269535D+00
      0.6401216923D+00  0.8137573261D+00
 S   1 1.00       0.000000000000
      0.1612777588D+00  0.1000000000D+01
 ****
     48 0
 S   6 1.00       0.000000000000
      0.3047524880D+04  0.1834737132D-02
      0.4573695180D+03  0.1403732281D-01
      0.1039486850D+03  0.6884262226D-01
      0.2921015530D+02  0.2321844432D+00
      0.9286662960D+01  0.4679413484D+00
      0.3163926960D+01  0.3623119853D+00
 SP   3 1.00       0.000000000000
      0.7868272350D+01 -0.1193324198D+00  0.6899906659D-01
      0.1881288540D+01 -0.1608541517D+00  0.3164239610D+00
      0.5442492580D+00  0.1143456438D+01  0.7443082909D+00
 SP   1 1.00       0.000000000000
      0.1687144782D+00  0.1000000000D+01  0.1000000000D+01
 D   1 1.00       0.000000000000
      0.8000000000D+00  0.1000000000D+01
 ****
     49 0
 S   3 1.00       0.000000000000
      0.1873113696D+02  0.3349460434D-01
      0.2825394365D+01  0.2347269535D+00
      0.6401216923D+00  0.8137573261D+00
 S   1 1.00       0.000000000000
      0.1612777588D+00  0.1000000000D+01
 ****
     50 0
 S   3 1.00       0.000000000000
      0.1873113696D+02  0.3349460434D-01
      0.2825394365D+01  0.2347269535D+00
      0.6401216923D+00  0.8137573261D+00
 S   1 1.00       0.000000000000
      0.1612777588D+00  0.1000000000D+01
 ****
     51 0
 S   6 1.00       0.000000000000
      0.3047524880D+04  0.1834737132D-02
      0.4573695180D+03  0.1403732281D-01
      0.1039486850D+03  0.6884262226D-01
      0.2921015530D+02  0.2321844432D+00
      0.9286662960D+01  0.4679413484D+00
      0.3163926960D+01  0.3623119853D+00
 SP   3 1.00       0.000000000000
      0.7868272350D+01 -0.1193324198D+00  0.6899906659D-01
      0.1881288540D+01 -0.1608541517D+00  0.3164239610D+00
      0.5442492580D+00  0.1143456438D+01  0.7443082909D+00
 SP   1 1.00       0.000000000000
      0.1687144782D+00  0.1000000000D+01  0.1000000000D+01
 D   1 1.00       0.000000000000
      0.8000000000D+00  0.1000000000D+01
 ****
     52 0
 S   3 1.00       0.000000000000
      0.1873113696D+02  0.3349460434D-01
      0.2825394365D+01  0.2347269535D+00
      0.6401216923D+00  0.8137573261D+00
 S   1 1.00       0.000000000000
      0.1612777588D+00  0.1000000000D+01
 ****
     53 0
 S   3 1.00       0.000000000000
      0.1873113696D+02  0.3349460434D-01
      0.2825394365D+01  0.2347269535D+00
      0.6401216923D+00  0.8137573261D+00
 S   1 1.00       0.000000000000
      0.1612777588D+00  0.1000000000D+01
 ****
     54 0
 S   6 1.00       0.000000000000
      0.3047524880D+04  0.1834737132D-02
      0.4573695180D+03  0.1403732281D-01
      0.1039486850D+03  0.6884262226D-01
      0.2921015530D+02  0.2321844432D+00
      0.9286662960D+01  0.4679413484D+00
      0.3163926960D+01  0.3623119853D+00
 SP   3 1.00       0.000000000000
      0.7868272350D+01 -0.1193324198D+00  0.6899906659D-01
      0.1881288540D+01 -0.1608541517D+00  0.3164239610D+00
      0.5442492580D+00  0.1143456438D+01  0.7443082909D+00
 SP   1 1.00       0.000000000000
      0.1687144782D+00  0.1000000000D+01  0.1000000000D+01
 D   1 1.00       0.000000000000
      0.8000000000D+00  0.1000000000D+01
 ****
     55 0
 S   3 1.00       0.000000000000
      0.1873113696D+02  0.3349460434D-01
      0.2825394365D+01  0.2347269535D+00
      0.6401216923D+00  0.8137573261D+00
 S   1 1.00       0.000000000000
      0.1612777588D+00  0.1000000000D+01
 ****
     56 0
 S   6 1.00       0.000000000000
      0.3047524880D+04  0.1834737132D-02
      0.4573695180D+03  0.1403732281D-01
      0.1039486850D+03  0.6884262226D-01
      0.2921015530D+02  0.2321844432D+00
      0.9286662960D+01  0.4679413484D+00
      0.3163926960D+01  0.3623119853D+00
 SP   3 1.00       0.000000000000
      0.7868272350D+01 -0.1193324198D+00  0.6899906659D-01
      0.1881288540D+01 -0.1608541517D+00  0.3164239610D+00
      0.5442492580D+00  0.1143456438D+01  0.7443082909D+00
 SP   1 1.00       0.000000000000
      0.1687144782D+00  0.1000000000D+01  0.1000000000D+01
 D   1 1.00       0.000000000000
      0.8000000000D+00  0.1000000000D+01
 ****
     57 0
 S   3 1.00       0.000000000000
      0.1873113696D+02  0.3349460434D-01
      0.2825394365D+01  0.2347269535D+00
      0.6401216923D+00  0.8137573261D+00
 S   1 1.00       0.000000000000
      0.1612777588D+00  0.1000000000D+01
 ****
     58 0
 S   3 1.00       0.000000000000
      0.1873113696D+02  0.3349460434D-01
      0.2825394365D+01  0.2347269535D+00
      0.6401216923D+00  0.8137573261D+00
 S   1 1.00       0.000000000000
      0.1612777588D+00  0.1000000000D+01
 ****
     59 0
 S   3 1.00       0.000000000000
      0.1873113696D+02  0.3349460434D-01
      0.2825394365D+01  0.2347269535D+00
      0.6401216923D+00  0.8137573261D+00
 S   1 1.00       0.000000000000
      0.1612777588D+00  0.1000000000D+01
 ****
     60 0
 S   6 1.00       0.000000000000
      0.3047524880D+04  0.1834737132D-02
      0.4573695180D+03  0.1403732281D-01
      0.1039486850D+03  0.6884262226D-01
      0.2921015530D+02  0.2321844432D+00
      0.9286662960D+01  0.4679413484D+00
      0.3163926960D+01  0.3623119853D+00
 SP   3 1.00       0.000000000000
      0.7868272350D+01 -0.1193324198D+00  0.6899906659D-01
      0.1881288540D+01 -0.1608541517D+00  0.3164239610D+00
      0.5442492580D+00  0.1143456438D+01  0.7443082909D+00
 SP   1 1.00       0.000000000000
      0.1687144782D+00  0.1000000000D+01  0.1000000000D+01
 D   1 1.00       0.000000000000
      0.8000000000D+00  0.1000000000D+01
 ****
     61 0
 S   3 1.00       0.000000000000
      0.1873113696D+02  0.3349460434D-01
      0.2825394365D+01  0.2347269535D+00
      0.6401216923D+00  0.8137573261D+00
 S   1 1.00       0.000000000000
      0.1612777588D+00  0.1000000000D+01
 ****
     62 0
 S   3 1.00       0.000000000000
      0.1873113696D+02  0.3349460434D-01
      0.2825394365D+01  0.2347269535D+00
      0.6401216923D+00  0.8137573261D+00
 S   1 1.00       0.000000000000
      0.1612777588D+00  0.1000000000D+01
 ****
     63 0
 S   6 1.00       0.000000000000
      0.3047524880D+04  0.1834737132D-02
      0.4573695180D+03  0.1403732281D-01
      0.1039486850D+03  0.6884262226D-01
      0.2921015530D+02  0.2321844432D+00
      0.9286662960D+01  0.4679413484D+00
      0.3163926960D+01  0.3623119853D+00
 SP   3 1.00       0.000000000000
      0.7868272350D+01 -0.1193324198D+00  0.6899906659D-01
      0.1881288540D+01 -0.1608541517D+00  0.3164239610D+00
      0.5442492580D+00  0.1143456438D+01  0.7443082909D+00
 SP   1 1.00       0.000000000000
      0.1687144782D+00  0.1000000000D+01  0.1000000000D+01
 D   1 1.00       0.000000000000
      0.8000000000D+00  0.1000000000D+01
 ****
     64 0
 S   3 1.00       0.000000000000
      0.1873113696D+02  0.3349460434D-01
      0.2825394365D+01  0.2347269535D+00
      0.6401216923D+00  0.8137573261D+00
 S   1 1.00       0.000000000000
      0.1612777588D+00  0.1000000000D+01
 ****
     65 0
 S   3 1.00       0.000000000000
      0.1873113696D+02  0.3349460434D-01
      0.2825394365D+01  0.2347269535D+00
      0.6401216923D+00  0.8137573261D+00
 S   1 1.00       0.000000000000
      0.1612777588D+00  0.1000000000D+01
 ****
     66 0
 S   6 1.00       0.000000000000
      0.3047524880D+04  0.1834737132D-02
      0.4573695180D+03  0.1403732281D-01
      0.1039486850D+03  0.6884262226D-01
      0.2921015530D+02  0.2321844432D+00
      0.9286662960D+01  0.4679413484D+00
      0.3163926960D+01  0.3623119853D+00
 SP   3 1.00       0.000000000000
      0.7868272350D+01 -0.1193324198D+00  0.6899906659D-01
      0.1881288540D+01 -0.1608541517D+00  0.3164239610D+00
      0.5442492580D+00  0.1143456438D+01  0.7443082909D+00
 SP   1 1.00       0.000000000000
      0.1687144782D+00  0.1000000000D+01  0.1000000000D+01
 D   1 1.00       0.000000000000
      0.8000000000D+00  0.1000000000D+01
 ****
     67 0
 S   3 1.00       0.000000000000
      0.1873113696D+02  0.3349460434D-01
      0.2825394365D+01  0.2347269535D+00
      0.6401216923D+00  0.8137573261D+00
 S   1 1.00       0.000000000000
      0.1612777588D+00  0.1000000000D+01
 ****
     68 0
 S   6 1.00       0.000000000000
      0.3047524880D+04  0.1834737132D-02
      0.4573695180D+03  0.1403732281D-01
      0.1039486850D+03  0.6884262226D-01
      0.2921015530D+02  0.2321844432D+00
      0.9286662960D+01  0.4679413484D+00
      0.3163926960D+01  0.3623119853D+00
 SP   3 1.00       0.000000000000
      0.7868272350D+01 -0.1193324198D+00  0.6899906659D-01
      0.1881288540D+01 -0.1608541517D+00  0.3164239610D+00
      0.5442492580D+00  0.1143456438D+01  0.7443082909D+00
 SP   1 1.00       0.000000000000
      0.1687144782D+00  0.1000000000D+01  0.1000000000D+01
 D   1 1.00       0.000000000000
      0.8000000000D+00  0.1000000000D+01
 ****
     69 0
 S   3 1.00       0.000000000000
      0.1873113696D+02  0.3349460434D-01
      0.2825394365D+01  0.2347269535D+00
      0.6401216923D+00  0.8137573261D+00
 S   1 1.00       0.000000000000
      0.1612777588D+00  0.1000000000D+01
 ****
     70 0
 S   3 1.00       0.000000000000
      0.1873113696D+02  0.3349460434D-01
      0.2825394365D+01  0.2347269535D+00
      0.6401216923D+00  0.8137573261D+00
 S   1 1.00       0.000000000000
      0.1612777588D+00  0.1000000000D+01
 ****
     71 0
 S   3 1.00       0.000000000000
      0.1873113696D+02  0.3349460434D-01
      0.2825394365D+01  0.2347269535D+00
      0.6401216923D+00  0.8137573261D+00
 S   1 1.00       0.000000000000
      0.1612777588D+00  0.1000000000D+01
 ****
     72 0
 S   6 1.00       0.000000000000
      0.3047524880D+04  0.1834737132D-02
      0.4573695180D+03  0.1403732281D-01
      0.1039486850D+03  0.6884262226D-01
      0.2921015530D+02  0.2321844432D+00
      0.9286662960D+01  0.4679413484D+00
      0.3163926960D+01  0.3623119853D+00
 SP   3 1.00       0.000000000000
      0.7868272350D+01 -0.1193324198D+00  0.6899906659D-01
      0.1881288540D+01 -0.1608541517D+00  0.3164239610D+00
      0.5442492580D+00  0.1143456438D+01  0.7443082909D+00
 SP   1 1.00       0.000000000000
      0.1687144782D+00  0.1000000000D+01  0.1000000000D+01
 D   1 1.00       0.000000000000
      0.8000000000D+00  0.1000000000D+01
 ****
     73 0
 S   3 1.00       0.000000000000
      0.1873113696D+02  0.3349460434D-01
      0.2825394365D+01  0.2347269535D+00
      0.6401216923D+00  0.8137573261D+00
 S   1 1.00       0.000000000000
      0.1612777588D+00  0.1000000000D+01
 ****
     74 0
 S   3 1.00       0.000000000000
      0.1873113696D+02  0.3349460434D-01
      0.2825394365D+01  0.2347269535D+00
      0.6401216923D+00  0.8137573261D+00
 S   1 1.00       0.000000000000
      0.1612777588D+00  0.1000000000D+01
 ****
     75 0
 S   3 1.00       0.000000000000
      0.1873113696D+02  0.3349460434D-01
      0.2825394365D+01  0.2347269535D+00
      0.6401216923D+00  0.8137573261D+00
 S   1 1.00       0.000000000000
      0.1612777588D+00  0.1000000000D+01
 ****

 AO basis set (Overlap normalization):
 Atom O1       Shell     1 S   6     bf    1 -     1          0.000000000000          0.000000000000          0.000000000000
      0.5484671660D+04  0.1831074430D-02
      0.8252349460D+03  0.1395017220D-01
      0.1880469580D+03  0.6844507810D-01
      0.5296450000D+02  0.2327143360D+00
      0.1689757040D+02  0.4701928980D+00
      0.5799635340D+01  0.3585208530D+00
 Atom O1       Shell     2 SP   3    bf    2 -     5          0.000000000000          0.000000000000          0.000000000000
      0.1553961625D+02 -0.1107775495D+00  0.7087426823D-01
      0.3599933586D+01 -0.1480262627D+00  0.3397528391D+00
      0.1013761750D+01  0.1130767015D+01  0.7271585773D+00
 Atom O1       Shell     3 SP   1    bf    6 -     9          0.000000000000          0.000000000000          0.000000000000
      0.2700058226D+00  0.1000000000D+01  0.1000000000D+01
 Atom O1       Shell     4 D   1     bf   10 -    15          0.000000000000          0.000000000000          0.000000000000
      0.8000000000D+00  0.1000000000D+01
 Atom H2       Shell     5 S   3     bf   16 -    16          1.826457138196          0.000000000000          0.000000000000
      0.1873113696D+02  0.3349460434D-01
      0.2825394365D+01  0.2347269535D+00
      0.6401216923D+00  0.8137573261D+00
 Atom H2       Shell     6 S   1     bf   17 -    17          1.826457138196          0.000000000000          0.000000000000
      0.1612777588D+00  0.1000000000D+01
 Atom O3       Shell     7 S   6     bf   18 -    18          8.248020302367         -2.618683717865         -9.287138599742
      0.5484671660D+04  0.1831074430D-02
      0.8252349460D+03  0.1395017220D-01
      0.1880469580D+03  0.6844507810D-01
      0.5296450000D+02  0.2327143360D+00
      0.1689757040D+02  0.4701928980D+00
      0.5799635340D+01  0.3585208530D+00
 Atom O3       Shell     8 SP   3    bf   19 -    22          8.248020302367         -2.618683717865         -9.287138599742
      0.1553961625D+02 -0.1107775495D+00  0.7087426823D-01
      0.3599933586D+01 -0.1480262627D+00  0.3397528391D+00
      0.1013761750D+01  0.1130767015D+01  0.7271585773D+00
 Atom O3       Shell     9 SP   1    bf   23 -    26          8.248020302367         -2.618683717865         -9.287138599742
      0.2700058226D+00  0.1000000000D+01  0.1000000000D+01
 Atom O3       Shell    10 D   1     bf   27 -    32          8.248020302367         -2.618683717865         -9.287138599742
      0.8000000000D+00  0.1000000000D+01
 Atom H4       Shell    11 S   3     bf   33 -    33          7.726549223264         -2.297623084032        -11.009957544324
      0.1873113696D+02  0.3349460434D-01
      0.2825394365D+01  0.2347269535D+00
      0.6401216923D+00  0.8137573261D+00
 Atom H4       Shell    12 S   1     bf   34 -    34          7.726549223264         -2.297623084032        -11.009957544324
      0.1612777588D+00  0.1000000000D+01
 Atom C5       Shell    13 S   6     bf   35 -    35         -2.348155608045          7.697870399320         -1.626218355649
      0.3047524880D+04  0.1834737132D-02
      0.4573695180D+03  0.1403732281D-01
      0.1039486850D+03  0.6884262226D-01
      0.2921015530D+02  0.2321844432D+00
      0.9286662960D+01  0.4679413484D+00
      0.3163926960D+01  0.3623119853D+00
 Atom C5       Shell    14 SP   3    bf   36 -    39         -2.348155608045          7.697870399320         -1.626218355649
      0.7868272350D+01 -0.1193324198D+00  0.6899906659D-01
      0.1881288540D+01 -0.1608541517D+00  0.3164239610D+00
      0.5442492580D+00  0.1143456438D+01  0.7443082909D+00
 Atom C5       Shell    15 SP   1    bf   40 -    43         -2.348155608045          7.697870399320         -1.626218355649
      0.1687144782D+00  0.1000000000D+01  0.1000000000D+01
 Atom C5       Shell    16 D   1     bf   44 -    49         -2.348155608045          7.697870399320         -1.626218355649
      0.8000000000D+00  0.1000000000D+01
 Atom C6       Shell    17 S   6     bf   50 -    50         -2.163136434107          4.826320745758         -1.085517801363
      0.3047524880D+04  0.1834737132D-02
      0.4573695180D+03  0.1403732281D-01
      0.1039486850D+03  0.6884262226D-01
      0.2921015530D+02  0.2321844432D+00
      0.9286662960D+01  0.4679413484D+00
      0.3163926960D+01  0.3623119853D+00
 Atom C6       Shell    18 SP   3    bf   51 -    54         -2.163136434107          4.826320745758         -1.085517801363
      0.7868272350D+01 -0.1193324198D+00  0.6899906659D-01
      0.1881288540D+01 -0.1608541517D+00  0.3164239610D+00
      0.5442492580D+00  0.1143456438D+01  0.7443082909D+00
 Atom C6       Shell    19 SP   1    bf   55 -    58         -2.163136434107          4.826320745758         -1.085517801363
      0.1687144782D+00  0.1000000000D+01  0.1000000000D+01
 Atom C6       Shell    20 D   1     bf   59 -    64         -2.163136434107          4.826320745758         -1.085517801363
      0.8000000000D+00  0.1000000000D+01
 Atom H7       Shell    21 S   3     bf   65 -    65         -0.837621391860          4.641751855763          0.502435659896
      0.1873113696D+02  0.3349460434D-01
      0.2825394365D+01  0.2347269535D+00
      0.6401216923D+00  0.8137573261D+00
 Atom H7       Shell    22 S   1     bf   66 -    66         -0.837621391860          4.641751855763          0.502435659896
      0.1612777588D+00  0.1000000000D+01
 Atom C8       Shell    23 S   6     bf   67 -    67         -1.017190406658          3.271810353687         -3.243729476887
      0.3047524880D+04  0.1834737132D-02
      0.4573695180D+03  0.1403732281D-01
      0.1039486850D+03  0.6884262226D-01
      0.2921015530D+02  0.2321844432D+00
      0.9286662960D+01  0.4679413484D+00
      0.3163926960D+01  0.3623119853D+00
 Atom C8       Shell    24 SP   3    bf   68 -    71         -1.017190406658          3.271810353687         -3.243729476887
      0.7868272350D+01 -0.1193324198D+00  0.6899906659D-01
      0.1881288540D+01 -0.1608541517D+00  0.3164239610D+00
      0.5442492580D+00  0.1143456438D+01  0.7443082909D+00
 Atom C8       Shell    25 SP   1    bf   72 -    75         -1.017190406658          3.271810353687         -3.243729476887
      0.1687144782D+00  0.1000000000D+01  0.1000000000D+01
 Atom C8       Shell    26 D   1     bf   76 -    81         -1.017190406658          3.271810353687         -3.243729476887
      0.8000000000D+00  0.1000000000D+01
 Atom H9       Shell    27 S   3     bf   82 -    82         -2.263006532709          3.382032390943         -4.902981643736
      0.1873113696D+02  0.3349460434D-01
      0.2825394365D+01  0.2347269535D+00
      0.6401216923D+00  0.8137573261D+00
 Atom H9       Shell    28 S   1     bf   83 -    83         -2.263006532709          3.382032390943         -4.902981643736
      0.1612777588D+00  0.1000000000D+01
 Atom C10      Shell    29 S   6     bf   84 -    84          1.632370888198          4.315708675521         -3.950224378653
      0.3047524880D+04  0.1834737132D-02
      0.4573695180D+03  0.1403732281D-01
      0.1039486850D+03  0.6884262226D-01
      0.2921015530D+02  0.2321844432D+00
      0.9286662960D+01  0.4679413484D+00
      0.3163926960D+01  0.3623119853D+00
 Atom C10      Shell    30 SP   3    bf   85 -    88          1.632370888198          4.315708675521         -3.950224378653
      0.7868272350D+01 -0.1193324198D+00  0.6899906659D-01
      0.1881288540D+01 -0.1608541517D+00  0.3164239610D+00
      0.5442492580D+00  0.1143456438D+01  0.7443082909D+00
 Atom C10      Shell    31 SP   1    bf   89 -    92          1.632370888198          4.315708675521         -3.950224378653
      0.1687144782D+00  0.1000000000D+01  0.1000000000D+01
 Atom C10      Shell    32 D   1     bf   93 -    98          1.632370888198          4.315708675521         -3.950224378653
      0.8000000000D+00  0.1000000000D+01
 Atom H11      Shell    33 S   3     bf   99 -    99          2.861306449751          3.876687443638         -2.325566898996
      0.1873113696D+02  0.3349460434D-01
      0.2825394365D+01  0.2347269535D+00
      0.6401216923D+00  0.8137573261D+00
 Atom H11      Shell    34 S   1     bf  100 -   100          2.861306449751          3.876687443638         -2.325566898996
      0.1612777588D+00  0.1000000000D+01
 Atom C12      Shell    35 S   6     bf  101 -   101         -3.595080398623          8.585129926712          0.895452737397
      0.3047524880D+04  0.1834737132D-02
      0.4573695180D+03  0.1403732281D-01
      0.1039486850D+03  0.6884262226D-01
      0.2921015530D+02  0.2321844432D+00
      0.9286662960D+01  0.4679413484D+00
      0.3163926960D+01  0.3623119853D+00
 Atom C12      Shell    36 SP   3    bf  102 -   105         -3.595080398623          8.585129926712          0.895452737397
      0.7868272350D+01 -0.1193324198D+00  0.6899906659D-01
      0.1881288540D+01 -0.1608541517D+00  0.3164239610D+00
      0.5442492580D+00  0.1143456438D+01  0.7443082909D+00
 Atom C12      Shell    37 SP   1    bf  106 -   109         -3.595080398623          8.585129926712          0.895452737397
      0.1687144782D+00  0.1000000000D+01  0.1000000000D+01
 Atom C12      Shell    38 D   1     bf  110 -   115         -3.595080398623          8.585129926712          0.895452737397
      0.8000000000D+00  0.1000000000D+01
 Atom H13      Shell    39 S   3     bf  116 -   116         -2.106206752497          8.306536881496          2.318037549781
      0.1873113696D+02  0.3349460434D-01
      0.2825394365D+01  0.2347269535D+00
      0.6401216923D+00  0.8137573261D+00
 Atom H13      Shell    40 S   1     bf  117 -   117         -2.106206752497          8.306536881496          2.318037549781
      0.1612777588D+00  0.1000000000D+01
 Atom C14      Shell    41 S   6     bf  118 -   118          0.358442308023          8.665822196347         -2.063074660583
      0.3047524880D+04  0.1834737132D-02
      0.4573695180D+03  0.1403732281D-01
      0.1039486850D+03  0.6884262226D-01
      0.2921015530D+02  0.2321844432D+00
      0.9286662960D+01  0.4679413484D+00
      0.3163926960D+01  0.3623119853D+00
 Atom C14      Shell    42 SP   3    bf  119 -   122          0.358442308023          8.665822196347         -2.063074660583
      0.7868272350D+01 -0.1193324198D+00  0.6899906659D-01
      0.1881288540D+01 -0.1608541517D+00  0.3164239610D+00
      0.5442492580D+00  0.1143456438D+01  0.7443082909D+00
 Atom C14      Shell    43 SP   1    bf  123 -   126          0.358442308023          8.665822196347         -2.063074660583
      0.1687144782D+00  0.1000000000D+01  0.1000000000D+01
 Atom C14      Shell    44 D   1     bf  127 -   132          0.358442308023          8.665822196347         -2.063074660583
      0.8000000000D+00  0.1000000000D+01
 Atom H15      Shell    45 S   3     bf  133 -   133          1.446592233327          8.414525470332         -0.310949125036
      0.1873113696D+02  0.3349460434D-01
      0.2825394365D+01  0.2347269535D+00
      0.6401216923D+00  0.8137573261D+00
 Atom H15      Shell    46 S   1     bf  134 -   134          1.446592233327          8.414525470332         -0.310949125036
      0.1612777588D+00  0.1000000000D+01
 Atom H16      Shell    47 S   3     bf  135 -   135          0.377952350845         10.697645775569         -2.487018995974
      0.1873113696D+02  0.3349460434D-01
      0.2825394365D+01  0.2347269535D+00
      0.6401216923D+00  0.8137573261D+00
 Atom H16      Shell    48 S   1     bf  136 -   136          0.377952350845         10.697645775569         -2.487018995974
      0.1612777588D+00  0.1000000000D+01
 Atom C17      Shell    49 S   6     bf  137 -   137          2.816064195151          2.893851010856         -6.268085730370
      0.3047524880D+04  0.1834737132D-02
      0.4573695180D+03  0.1403732281D-01
      0.1039486850D+03  0.6884262226D-01
      0.2921015530D+02  0.2321844432D+00
      0.9286662960D+01  0.4679413484D+00
      0.3163926960D+01  0.3623119853D+00
 Atom C17      Shell    50 SP   3    bf  138 -   141          2.816064195151          2.893851010856         -6.268085730370
      0.7868272350D+01 -0.1193324198D+00  0.6899906659D-01
      0.1881288540D+01 -0.1608541517D+00  0.3164239610D+00
      0.5442492580D+00  0.1143456438D+01  0.7443082909D+00
 Atom C17      Shell    51 SP   1    bf  142 -   145          2.816064195151          2.893851010856         -6.268085730370
      0.1687144782D+00  0.1000000000D+01  0.1000000000D+01
 Atom C17      Shell    52 D   1     bf  146 -   151          2.816064195151          2.893851010856         -6.268085730370
      0.8000000000D+00  0.1000000000D+01
 Atom C18      Shell    53 S   6     bf  152 -   152         -4.781186470108          4.116469860454         -0.031900410157
      0.3047524880D+04  0.1834737132D-02
      0.4573695180D+03  0.1403732281D-01
      0.1039486850D+03  0.6884262226D-01
      0.2921015530D+02  0.2321844432D+00
      0.9286662960D+01  0.4679413484D+00
      0.3163926960D+01  0.3623119853D+00
 Atom C18      Shell    54 SP   3    bf  153 -   156         -4.781186470108          4.116469860454         -0.031900410157
      0.7868272350D+01 -0.1193324198D+00  0.6899906659D-01
      0.1881288540D+01 -0.1608541517D+00  0.3164239610D+00
      0.5442492580D+00  0.1143456438D+01  0.7443082909D+00
 Atom C18      Shell    55 SP   1    bf  157 -   160         -4.781186470108          4.116469860454         -0.031900410157
      0.1687144782D+00  0.1000000000D+01  0.1000000000D+01
 Atom C18      Shell    56 D   1     bf  161 -   166         -4.781186470108          4.116469860454         -0.031900410157
      0.8000000000D+00  0.1000000000D+01
 Atom H19      Shell    57 S   3     bf  167 -   167         -4.684291046103          2.452180779776          1.189088078220
      0.1873113696D+02  0.3349460434D-01
      0.2825394365D+01  0.2347269535D+00
      0.6401216923D+00  0.8137573261D+00
 Atom H19      Shell    58 S   1     bf  168 -   168         -4.684291046103          2.452180779776          1.189088078220
      0.1612777588D+00  0.1000000000D+01
 Atom H20      Shell    59 S   3     bf  169 -   169         -6.105664317269          3.668703675226         -1.563985365517
      0.1873113696D+02  0.3349460434D-01
      0.2825394365D+01  0.2347269535D+00
      0.6401216923D+00  0.8137573261D+00
 Atom H20      Shell    60 S   1     bf  170 -   170         -6.105664317269          3.668703675226         -1.563985365517
      0.1612777588D+00  0.1000000000D+01
 Atom C21      Shell    61 S   6     bf  171 -   171          1.669186532719          7.231638887466         -4.237303957165
      0.3047524880D+04  0.1834737132D-02
      0.4573695180D+03  0.1403732281D-01
      0.1039486850D+03  0.6884262226D-01
      0.2921015530D+02  0.2321844432D+00
      0.9286662960D+01  0.4679413484D+00
      0.3163926960D+01  0.3623119853D+00
 Atom C21      Shell    62 SP   3    bf  172 -   175          1.669186532719          7.231638887466         -4.237303957165
      0.7868272350D+01 -0.1193324198D+00  0.6899906659D-01
      0.1881288540D+01 -0.1608541517D+00  0.3164239610D+00
      0.5442492580D+00  0.1143456438D+01  0.7443082909D+00
 Atom C21      Shell    63 SP   1    bf  176 -   179          1.669186532719          7.231638887466         -4.237303957165
      0.1687144782D+00  0.1000000000D+01  0.1000000000D+01
 Atom C21      Shell    64 D   1     bf  180 -   185          1.669186532719          7.231638887466         -4.237303957165
      0.8000000000D+00  0.1000000000D+01
 Atom H22      Shell    65 S   3     bf  186 -   186          0.767319516806          7.773897067414         -6.017776178390
      0.1873113696D+02  0.3349460434D-01
      0.2825394365D+01  0.2347269535D+00
      0.6401216923D+00  0.8137573261D+00
 Atom H22      Shell    66 S   1     bf  187 -   187          0.767319516806          7.773897067414         -6.017776178390
      0.1612777588D+00  0.1000000000D+01
 Atom H23      Shell    67 S   3     bf  188 -   188          3.629816682994          7.885069032202         -4.373870477467
      0.1873113696D+02  0.3349460434D-01
      0.2825394365D+01  0.2347269535D+00
      0.6401216923D+00  0.8137573261D+00
 Atom H23      Shell    68 S   1     bf  189 -   189          3.629816682994          7.885069032202         -4.373870477467
      0.1612777588D+00  0.1000000000D+01
 Atom C24      Shell    69 S   6     bf  190 -   190         -5.647030808380          6.532105075368          1.423495244641
      0.3047524880D+04  0.1834737132D-02
      0.4573695180D+03  0.1403732281D-01
      0.1039486850D+03  0.6884262226D-01
      0.2921015530D+02  0.2321844432D+00
      0.9286662960D+01  0.4679413484D+00
      0.3163926960D+01  0.3623119853D+00
 Atom C24      Shell    70 SP   3    bf  191 -   194         -5.647030808380          6.532105075368          1.423495244641
      0.7868272350D+01 -0.1193324198D+00  0.6899906659D-01
      0.1881288540D+01 -0.1608541517D+00  0.3164239610D+00
      0.5442492580D+00  0.1143456438D+01  0.7443082909D+00
 Atom C24      Shell    71 SP   1    bf  195 -   198         -5.647030808380          6.532105075368          1.423495244641
      0.1687144782D+00  0.1000000000D+01  0.1000000000D+01
 Atom C24      Shell    72 D   1     bf  199 -   204         -5.647030808380          6.532105075368          1.423495244641
      0.8000000000D+00  0.1000000000D+01
 Atom H25      Shell    73 S   3     bf  205 -   205         -7.509885697060          7.141208424431          0.767645570153
      0.1873113696D+02  0.3349460434D-01
      0.2825394365D+01  0.2347269535D+00
      0.6401216923D+00  0.8137573261D+00
 Atom H25      Shell    74 S   1     bf  206 -   206         -7.509885697060          7.141208424431          0.767645570153
      0.1612777588D+00  0.1000000000D+01
 Atom H26      Shell    75 S   3     bf  207 -   207         -5.830999710327          6.173145983940          3.452768714035
      0.1873113696D+02  0.3349460434D-01
      0.2825394365D+01  0.2347269535D+00
      0.6401216923D+00  0.8137573261D+00
 Atom H26      Shell    76 S   1     bf  208 -   208         -5.830999710327          6.173145983940          3.452768714035
      0.1612777588D+00  0.1000000000D+01
 Atom C27      Shell    77 S   6     bf  209 -   209         -0.849226748063          0.441829213739         -2.561888868215
      0.3047524880D+04  0.1834737132D-02
      0.4573695180D+03  0.1403732281D-01
      0.1039486850D+03  0.6884262226D-01
      0.2921015530D+02  0.2321844432D+00
      0.9286662960D+01  0.4679413484D+00
      0.3163926960D+01  0.3623119853D+00
 Atom C27      Shell    78 SP   3    bf  210 -   213         -0.849226748063          0.441829213739         -2.561888868215
      0.7868272350D+01 -0.1193324198D+00  0.6899906659D-01
      0.1881288540D+01 -0.1608541517D+00  0.3164239610D+00
      0.5442492580D+00  0.1143456438D+01  0.7443082909D+00
 Atom C27      Shell    79 SP   1    bf  214 -   217         -0.849226748063          0.441829213739         -2.561888868215
      0.1687144782D+00  0.1000000000D+01  0.1000000000D+01
 Atom C27      Shell    80 D   1     bf  218 -   223         -0.849226748063          0.441829213739         -2.561888868215
      0.8000000000D+00  0.1000000000D+01
 Atom H28      Shell    81 S   3     bf  224 -   224         -2.763728777921         -0.349050803779         -2.576428307698
      0.1873113696D+02  0.3349460434D-01
      0.2825394365D+01  0.2347269535D+00
      0.6401216923D+00  0.8137573261D+00
 Atom H28      Shell    82 S   1     bf  225 -   225         -2.763728777921         -0.349050803779         -2.576428307698
      0.1612777588D+00  0.1000000000D+01
 Atom C29      Shell    83 S   6     bf  226 -   226         -4.400891180112         11.401907569067          1.157482616517
      0.3047524880D+04  0.1834737132D-02
      0.4573695180D+03  0.1403732281D-01
      0.1039486850D+03  0.6884262226D-01
      0.2921015530D+02  0.2321844432D+00
      0.9286662960D+01  0.4679413484D+00
      0.3163926960D+01  0.3623119853D+00
 Atom C29      Shell    84 SP   3    bf  227 -   230         -4.400891180112         11.401907569067          1.157482616517
      0.7868272350D+01 -0.1193324198D+00  0.6899906659D-01
      0.1881288540D+01 -0.1608541517D+00  0.3164239610D+00
      0.5442492580D+00  0.1143456438D+01  0.7443082909D+00
 Atom C29      Shell    85 SP   1    bf  231 -   234         -4.400891180112         11.401907569067          1.157482616517
      0.1687144782D+00  0.1000000000D+01  0.1000000000D+01
 Atom C29      Shell    86 D   1     bf  235 -   240         -4.400891180112         11.401907569067          1.157482616517
      0.8000000000D+00  0.1000000000D+01
 Atom H30      Shell    87 S   3     bf  241 -   241         -3.073929306846         12.510359521416          0.000000000000
      0.1873113696D+02  0.3349460434D-01
      0.2825394365D+01  0.2347269535D+00
      0.6401216923D+00  0.8137573261D+00
 Atom H30      Shell    88 S   1     bf  242 -   242         -3.073929306846         12.510359521416          0.000000000000
      0.1612777588D+00  0.1000000000D+01
 Atom C31      Shell    89 S   6     bf  243 -   243         -4.023917102692          8.312535987180         -3.936082821008
      0.3047524880D+04  0.1834737132D-02
      0.4573695180D+03  0.1403732281D-01
      0.1039486850D+03  0.6884262226D-01
      0.2921015530D+02  0.2321844432D+00
      0.9286662960D+01  0.4679413484D+00
      0.3163926960D+01  0.3623119853D+00
 Atom C31      Shell    90 SP   3    bf  244 -   247         -4.023917102692          8.312535987180         -3.936082821008
      0.7868272350D+01 -0.1193324198D+00  0.6899906659D-01
      0.1881288540D+01 -0.1608541517D+00  0.3164239610D+00
      0.5442492580D+00  0.1143456438D+01  0.7443082909D+00
 Atom C31      Shell    91 SP   1    bf  248 -   251         -4.023917102692          8.312535987180         -3.936082821008
      0.1687144782D+00  0.1000000000D+01  0.1000000000D+01
 Atom C31      Shell    92 D   1     bf  252 -   257         -4.023917102692          8.312535987180         -3.936082821008
      0.8000000000D+00  0.1000000000D+01
 Atom H32      Shell    93 S   3     bf  258 -   258         -3.294010005919          7.473834749116         -5.676878220066
      0.1873113696D+02  0.3349460434D-01
      0.2825394365D+01  0.2347269535D+00
      0.6401216923D+00  0.8137573261D+00
 Atom H32      Shell    94 S   1     bf  259 -   259         -3.294010005919          7.473834749116         -5.676878220066
      0.1612777588D+00  0.1000000000D+01
 Atom H33      Shell    95 S   3     bf  260 -   260         -5.958662143447          7.625348511800         -3.700584167670
      0.1873113696D+02  0.3349460434D-01
      0.2825394365D+01  0.2347269535D+00
      0.6401216923D+00  0.8137573261D+00
 Atom H33      Shell    96 S   1     bf  261 -   261         -5.958662143447          7.625348511800         -3.700584167670
      0.1612777588D+00  0.1000000000D+01
 Atom H34      Shell    97 S   3     bf  262 -   262         -4.116553254068         10.358039293878         -4.240990718364
      0.1873113696D+02  0.3349460434D-01
      0.2825394365D+01  0.2347269535D+00
      0.6401216923D+00  0.8137573261D+00
 Atom H34      Shell    98 S   1     bf  263 -   263         -4.116553254068         10.358039293878         -4.240990718364
      0.1612777588D+00  0.1000000000D+01
 Atom C35      Shell    99 S   6     bf  264 -   264          2.425297857063          0.032118843601         -6.005992942267
      0.3047524880D+04  0.1834737132D-02
      0.4573695180D+03  0.1403732281D-01
      0.1039486850D+03  0.6884262226D-01
      0.2921015530D+02  0.2321844432D+00
      0.9286662960D+01  0.4679413484D+00
      0.3163926960D+01  0.3623119853D+00
 Atom C35      Shell   100 SP   3    bf  265 -   268          2.425297857063          0.032118843601         -6.005992942267
      0.7868272350D+01 -0.1193324198D+00  0.6899906659D-01
      0.1881288540D+01 -0.1608541517D+00  0.3164239610D+00
      0.5442492580D+00  0.1143456438D+01  0.7443082909D+00
 Atom C35      Shell   101 SP   1    bf  269 -   272          2.425297857063          0.032118843601         -6.005992942267
      0.1687144782D+00  0.1000000000D+01  0.1000000000D+01
 Atom C35      Shell   102 D   1     bf  273 -   278          2.425297857063          0.032118843601         -6.005992942267
      0.8000000000D+00  0.1000000000D+01
 Atom C36      Shell   103 S   6     bf  279 -   279          5.714490516433          3.431434669755         -6.326618409966
      0.3047524880D+04  0.1834737132D-02
      0.4573695180D+03  0.1403732281D-01
      0.1039486850D+03  0.6884262226D-01
      0.2921015530D+02  0.2321844432D+00
      0.9286662960D+01  0.4679413484D+00
      0.3163926960D+01  0.3623119853D+00
 Atom C36      Shell   104 SP   3    bf  280 -   283          5.714490516433          3.431434669755         -6.326618409966
      0.7868272350D+01 -0.1193324198D+00  0.6899906659D-01
      0.1881288540D+01 -0.1608541517D+00  0.3164239610D+00
      0.5442492580D+00  0.1143456438D+01  0.7443082909D+00
 Atom C36      Shell   105 SP   1    bf  284 -   287          5.714490516433          3.431434669755         -6.326618409966
      0.1687144782D+00  0.1000000000D+01  0.1000000000D+01
 Atom C36      Shell   106 D   1     bf  288 -   293          5.714490516433          3.431434669755         -6.326618409966
      0.8000000000D+00  0.1000000000D+01
 Atom H37      Shell   107 S   3     bf  294 -   294          6.469014338545          3.135256910290         -4.414595209466
      0.1873113696D+02  0.3349460434D-01
      0.2825394365D+01  0.2347269535D+00
      0.6401216923D+00  0.8137573261D+00
 Atom H37      Shell   108 S   1     bf  295 -   295          6.469014338545          3.135256910290         -4.414595209466
      0.1612777588D+00  0.1000000000D+01
 Atom H38      Shell   109 S   3     bf  296 -   296          6.031288986357          5.426453527073         -6.776972442852
      0.1873113696D+02  0.3349460434D-01
      0.2825394365D+01  0.2347269535D+00
      0.6401216923D+00  0.8137573261D+00
 Atom H38      Shell   110 S   1     bf  297 -   297          6.031288986357          5.426453527073         -6.776972442852
      0.1612777588D+00  0.1000000000D+01
 Atom C39      Shell   111 S   6     bf  298 -   298          0.785593565353         -1.007389795604         -4.370625628724
      0.3047524880D+04  0.1834737132D-02
      0.4573695180D+03  0.1403732281D-01
      0.1039486850D+03  0.6884262226D-01
      0.2921015530D+02  0.2321844432D+00
      0.9286662960D+01  0.4679413484D+00
      0.3163926960D+01  0.3623119853D+00
 Atom C39      Shell   112 SP   3    bf  299 -   302          0.785593565353         -1.007389795604         -4.370625628724
      0.7868272350D+01 -0.1193324198D+00  0.6899906659D-01
      0.1881288540D+01 -0.1608541517D+00  0.3164239610D+00
      0.5442492580D+00  0.1143456438D+01  0.7443082909D+00
 Atom C39      Shell   113 SP   1    bf  303 -   306          0.785593565353         -1.007389795604         -4.370625628724
      0.1687144782D+00  0.1000000000D+01  0.1000000000D+01
 Atom C39      Shell   114 D   1     bf  307 -   312          0.785593565353         -1.007389795604         -4.370625628724
      0.8000000000D+00  0.1000000000D+01
 Atom H40      Shell   115 S   3     bf  313 -   313          0.640772607920         -3.058409723110         -4.260078275115
[...]
 **** Fit       0.005360
 **** Fit       0.004427
 **** Fit       0.004593
 **** Fit       0.004890
 **** Fit       0.005317
 **** Fit       0.005822
 **** Fit       0.006294
 **** Fit       0.006603
 **** Fit       0.006670
 **** Fit       0.006510
 **** Fit       0.006206
 **** Fit       0.005855
 **** Fit       0.005525
 **** Fit       0.005248
 **** Fit       0.004702
 **** Fit       0.004926
 **** Fit       0.005218
 **** Fit       0.005544
 **** Fit       0.005842
 **** Fit       0.006042
 **** Fit       0.006101
 **** Fit       0.006018
 **** Fit       0.005831
 **** Fit       0.005592
 **** Fit       0.005345
 **** Fit       0.005140
 **** Fit       0.005365
 **** Fit       0.005564
 **** Fit       0.005698
 **** Fit       0.005741
 **** Fit       0.005688
 **** Fit       0.005559
 **** Fit      -0.022177
 **** Fit      -0.024366
 **** Fit      -0.025570
 **** Fit      -0.025642
 **** Fit      -0.024641
 **** Fit      -0.017472
 **** Fit      -0.021331
 **** Fit      -0.024852
 **** Fit      -0.027541
 **** Fit      -0.028977
 **** Fit      -0.028963
 **** Fit      -0.027596
 **** Fit      -0.025213
 **** Fit      -0.014212
 **** Fit      -0.018581
 **** Fit      -0.023143
 **** Fit      -0.027359
 **** Fit      -0.030580
 **** Fit      -0.032243
 **** Fit      -0.032095
 **** Fit      -0.030292
 **** Fit      -0.027305
 **** Fit      -0.023710
 **** Fit      -0.010150
 **** Fit      -0.014377
 **** Fit      -0.019288
 **** Fit      -0.024504
 **** Fit      -0.029376
 **** Fit      -0.033091
 **** Fit      -0.034938
 **** Fit      -0.034609
 **** Fit      -0.032336
 **** Fit      -0.028748
 **** Fit      -0.024564
 **** Fit      -0.020364
 **** Fit      -0.006086
 **** Fit      -0.009631
 **** Fit      -0.014118
 **** Fit      -0.019423
 **** Fit      -0.025132
 **** Fit      -0.030500
 **** Fit      -0.034574
 **** Fit      -0.036512
 **** Fit      -0.035974
 **** Fit      -0.033278
 **** Fit      -0.029194
 **** Fit      -0.024568
 **** Fit      -0.020036
 **** Fit      -0.015962
 **** Fit      -0.012489
 **** Fit      -0.005258
 **** Fit      -0.008815
 **** Fit      -0.013381
 **** Fit      -0.018840
 **** Fit      -0.024758
 **** Fit      -0.030332
 **** Fit      -0.034522
 **** Fit      -0.036422
 **** Fit      -0.035690
 **** Fit      -0.032717
 **** Fit      -0.028369
 **** Fit      -0.023555
 **** Fit      -0.018930
 **** Fit      -0.014838
 **** Fit      -0.011400
 **** Fit      -0.008606
 **** Fit      -0.004306
 **** Fit      -0.007732
 **** Fit      -0.012160
 **** Fit      -0.017473
 **** Fit      -0.023232
 **** Fit      -0.028629
 **** Fit      -0.032630
 **** Fit      -0.034351
 **** Fit      -0.033490
 **** Fit      -0.030474
 **** Fit      -0.026180
 **** Fit      -0.021501
 **** Fit      -0.017062
 **** Fit      -0.013174
 **** Fit      -0.009933
 **** Fit      -0.007321
 **** Fit      -0.005267
 **** Fit      -0.003279
 **** Fit      -0.006438
 **** Fit      -0.010515
 **** Fit      -0.015382
 **** Fit      -0.020615
 **** Fit      -0.025460
 **** Fit      -0.028982
 **** Fit      -0.030410
 **** Fit      -0.029512
 **** Fit      -0.026701
 **** Fit      -0.022780
 **** Fit      -0.018550
 **** Fit      -0.014557
 **** Fit      -0.011074
 **** Fit      -0.008178
 **** Fit      -0.005850
 **** Fit      -0.004026
 **** Fit      -0.002228
 **** Fit      -0.005015
 **** Fit      -0.008575
 **** Fit      -0.012768
 **** Fit      -0.017201
 **** Fit      -0.021226
 **** Fit      -0.024072
 **** Fit      -0.025138
 **** Fit      -0.024274
 **** Fit      -0.021848
 **** Fit      -0.018529
 **** Fit      -0.014971
 **** Fit      -0.011618
 **** Fit      -0.008687
 **** Fit      -0.006244
 **** Fit      -0.004274
 **** Fit      -0.002730
 **** Fit      -0.003556
 **** Fit      -0.006509
 **** Fit      -0.009912
 **** Fit      -0.013421
 **** Fit      -0.016512
 **** Fit      -0.018603
 **** Fit      -0.019272
 **** Fit      -0.018457
 **** Fit      -0.016478
 **** Fit      -0.013854
 **** Fit      -0.011076
 **** Fit      -0.008464
 **** Fit      -0.006171
 **** Fit      -0.004244
 **** Fit      -0.002677
 **** Fit      -0.001439
 **** Fit      -0.007093
 **** Fit      -0.009689
 **** Fit      -0.011864
 **** Fit      -0.013204
 **** Fit      -0.013452
 **** Fit      -0.012635
 **** Fit      -0.011051
 **** Fit      -0.009105
 **** Fit      -0.007124
 **** Fit      -0.005287
 **** Fit      -0.003666
 **** Fit      -0.002279
 **** Fit      -0.001129
 **** Fit      -0.004519
 **** Fit      -0.006300
 **** Fit      -0.007652
 **** Fit      -0.008289
 **** Fit      -0.008084
 **** Fit      -0.007166
 **** Fit      -0.005864
 **** Fit      -0.004519
 **** Fit      -0.003305
 **** Fit      -0.002239
 **** Fit      -0.001288
 **** Fit      -0.000435
 **** Fit       0.000310
 **** Fit      -0.001009
 **** Fit      -0.002305
 **** Fit      -0.003409
 **** Fit      -0.004069
 **** Fit      -0.004080
 **** Fit      -0.003411
 **** Fit      -0.002299
 **** Fit      -0.001159
 **** Fit      -0.000317
 **** Fit       0.000191
 **** Fit       0.000529
 **** Fit       0.000853
 **** Fit       0.001211
 **** Fit       0.001585
 **** Fit       0.001936
 **** Fit       0.000334
 **** Fit      -0.000492
 **** Fit      -0.001074
 **** Fit      -0.001200
 **** Fit      -0.000715
 **** Fit       0.000348
 **** Fit       0.001658
 **** Fit       0.002708
 **** Fit       0.003160
 **** Fit       0.003094
 **** Fit       0.002833
 **** Fit       0.002637
 **** Fit       0.002587
 **** Fit       0.002653
 **** Fit       0.002776
 **** Fit       0.001409
 **** Fit       0.000929
 **** Fit       0.000714
 **** Fit       0.000938
 **** Fit       0.001721
 **** Fit       0.002989
 **** Fit       0.004371
 **** Fit       0.005327
 **** Fit       0.005530
 **** Fit       0.005117
 **** Fit       0.004490
 **** Fit       0.003961
 **** Fit       0.003635
 **** Fit       0.003482
 **** Fit       0.003436
 **** Fit       0.002241
 **** Fit       0.001998
 **** Fit       0.002005
 **** Fit       0.002399
 **** Fit       0.003258
 **** Fit       0.004490
 **** Fit       0.005750
 **** Fit       0.006564
 **** Fit       0.006655
 **** Fit       0.006155
 **** Fit       0.005434
 **** Fit       0.004790
 **** Fit       0.004338
 **** Fit       0.004064
 **** Fit       0.003912
 **** Fit       0.002865
 **** Fit       0.002771
 **** Fit       0.002889
 **** Fit       0.003312
 **** Fit       0.004080
 **** Fit       0.005102
 **** Fit       0.006106
 **** Fit       0.006743
 **** Fit       0.006811
 **** Fit       0.006400
 **** Fit       0.005782
 **** Fit       0.005190
 **** Fit       0.004734
 **** Fit       0.004422
 **** Fit       0.004220
 **** Fit       0.003312
 **** Fit       0.003467
 **** Fit       0.003842
 **** Fit       0.004448
 **** Fit       0.005207
 **** Fit       0.005932
 **** Fit       0.006397
 **** Fit       0.006472
 **** Fit       0.006203
 **** Fit       0.005756
 **** Fit       0.005291
 **** Fit       0.004898
 **** Fit       0.004602
 **** Fit       0.003679
 **** Fit       0.003835
 **** Fit       0.004138
 **** Fit       0.004584
 **** Fit       0.005114
 **** Fit       0.005609
 **** Fit       0.005935
 **** Fit       0.006013
 **** Fit       0.005859
 **** Fit       0.005564
 **** Fit       0.005227
 **** Fit       0.004915
 **** Fit       0.004657
 **** Fit       0.004063
 **** Fit       0.004300
 **** Fit       0.004621
 **** Fit       0.004984
 **** Fit       0.005316
 **** Fit       0.005541
 **** Fit       0.005610
 **** Fit       0.005526
 **** Fit       0.005335
 **** Fit       0.005095
 **** Fit       0.004854
 **** Fit       0.004384
 **** Fit       0.004617
 **** Fit       0.004868
 **** Fit       0.005094
 **** Fit       0.005249
 **** Fit       0.005303
 **** Fit       0.005254
 **** Fit       0.005125
 **** Fit       0.004950
 **** Fit       0.004772
 **** Fit       0.004930
 **** Fit       0.005037
 **** Fit       0.005076
 **** Fit       0.005042
 **** Fit      -0.022097
 **** Fit      -0.024288
 **** Fit      -0.025439
 **** Fit      -0.025411
 **** Fit      -0.024281
 **** Fit      -0.019996
 **** Fit      -0.023259
 **** Fit      -0.025703
 **** Fit      -0.026946
 **** Fit      -0.026824
 **** Fit      -0.025450
 **** Fit      -0.023149
 **** Fit      -0.016366
 **** Fit      -0.020241
 **** Fit      -0.023746
 **** Fit      -0.026356
 **** Fit      -0.027636
 **** Fit      -0.027410
 **** Fit      -0.025826
 **** Fit      -0.023268
 **** Fit      -0.015810
 **** Fit      -0.019770
 **** Fit      -0.023352
 **** Fit      -0.025994
 **** Fit      -0.027240
 **** Fit      -0.026917
 **** Fit      -0.025199
 **** Fit      -0.022512
 **** Fit      -0.019351
 **** Fit      -0.014681
 **** Fit      -0.018518
 **** Fit      -0.021972
 **** Fit      -0.024489
 **** Fit      -0.025626
 **** Fit      -0.025230
 **** Fit      -0.023490
 **** Fit      -0.020838
 **** Fit      -0.013030
 **** Fit      -0.016540
 **** Fit      -0.019668
 **** Fit      -0.021911
 **** Fit      -0.022876
 **** Fit      -0.022442
 **** Fit      -0.020796
 **** Fit      -0.018341
 **** Fit      -0.014015
 **** Fit      -0.016671
 **** Fit      -0.018530
 **** Fit      -0.019278
 **** Fit      -0.018832
 **** Fit      -0.017368
 **** Fit      -0.015233
 **** Fit      -0.012802
 **** Fit      -0.010373
 **** Fit      -0.013307
 **** Fit      -0.014726
 **** Fit      -0.015230
 **** Fit      -0.014780
 **** Fit      -0.013537
 **** Fit      -0.011784
 **** Fit      -0.009815
 **** Fit      -0.007858
 **** Fit      -0.006052
 **** Fit      -0.008356
 **** Fit      -0.009902
 **** Fit      -0.010870
 **** Fit      -0.011116
 **** Fit      -0.010646
 **** Fit      -0.009614
 **** Fit      -0.008248
 **** Fit      -0.006761
 **** Fit      -0.005302
 **** Fit      -0.003956
 **** Fit      -0.002764
 **** Fit      -0.004346
 **** Fit      -0.005688
 **** Fit      -0.006713
 **** Fit      -0.007253
 **** Fit      -0.007235
 **** Fit      -0.006715
 **** Fit      -0.005855
 **** Fit      -0.004843
 **** Fit      -0.003818
 **** Fit      -0.002846
 **** Fit      -0.001952
 **** Fit      -0.001147
 **** Fit      -0.000439
 **** Fit      -0.002454
 **** Fit      -0.003333
 **** Fit      -0.003908
 **** Fit      -0.004069
 **** Fit      -0.003799
 **** Fit      -0.003205
 **** Fit      -0.002470
 **** Fit      -0.001759
 **** Fit      -0.001145
 **** Fit      -0.000617
 **** Fit      -0.000137
 **** Fit       0.000315
 **** Fit       0.000736
 **** Fit      -0.000852
 **** Fit      -0.001360
 **** Fit      -0.001579
 **** Fit      -0.001438
 **** Fit      -0.000964
 **** Fit      -0.000302
 **** Fit       0.000342
 **** Fit       0.000817
 **** Fit       0.001099
 **** Fit       0.001265
 **** Fit       0.001403
 **** Fit       0.001561
 **** Fit       0.001741
 **** Fit       0.000446
 **** Fit       0.000211
 **** Fit       0.000242
 **** Fit       0.000581
 **** Fit       0.001174
 **** Fit       0.001858
 **** Fit       0.002423
 **** Fit       0.002729
 **** Fit       0.002785
 **** Fit       0.002704
 **** Fit       0.002604
 **** Fit       0.002550
 **** Fit       0.002551
 **** Fit       0.001458
 **** Fit       0.001402
 **** Fit       0.001577
 **** Fit       0.002002
 **** Fit       0.002614
 **** Fit       0.003255
 **** Fit       0.003735
 **** Fit       0.003936
 **** Fit       0.003877
 **** Fit       0.003674
 **** Fit       0.003448
 **** Fit       0.003270
 **** Fit       0.003157
 **** Fit       0.002217
 **** Fit       0.002263
 **** Fit       0.002495
 **** Fit       0.002918
 **** Fit       0.003467
 **** Fit       0.004013
 **** Fit       0.004402
 **** Fit       0.004543
 **** Fit       0.004454
 **** Fit       0.004227
 **** Fit       0.003969
 **** Fit       0.003743
 **** Fit       0.003575
 **** Fit       0.002862
 **** Fit       0.003096
 **** Fit       0.003463
 **** Fit       0.003911
 **** Fit       0.004339
 **** Fit       0.004641
 **** Fit       0.004748
 **** Fit       0.004672
 **** Fit       0.004476
 **** Fit       0.004240
 **** Fit       0.004017
 **** Fit       0.003267
 **** Fit       0.003474
 **** Fit       0.003770
 **** Fit       0.004112
 **** Fit       0.004432
 **** Fit       0.004657
 **** Fit       0.004742
 **** Fit       0.004689
 **** Fit       0.004539
 **** Fit       0.004345
 **** Fit       0.004149
 **** Fit       0.003707
 **** Fit       0.003936
 **** Fit       0.004189
 **** Fit       0.004422
 **** Fit       0.004585
 **** Fit       0.004651
 **** Fit       0.004617
 **** Fit       0.004507
 **** Fit       0.004354
 **** Fit       0.004207
 **** Fit       0.004375
 **** Fit       0.004493
 **** Fit       0.004541
 **** Fit       0.004518
 **** Fit      -0.020075
 **** Fit      -0.020930
 **** Fit      -0.019655
 **** Fit      -0.012204
 **** Fit      -0.011956
 **** Fit      -0.011159
 **** Fit      -0.009971
 **** Fit      -0.008571
 **** Fit      -0.008999
 **** Fit      -0.009222
 **** Fit      -0.008951
 **** Fit      -0.008270
 **** Fit      -0.007310
 **** Fit      -0.006207
 **** Fit      -0.005073
 **** Fit      -0.005849
 **** Fit      -0.006295
 **** Fit      -0.006355
 **** Fit      -0.006054
 **** Fit      -0.005475
 **** Fit      -0.004730
 **** Fit      -0.003915
 **** Fit      -0.003097
 **** Fit      -0.002316
 **** Fit      -0.003160
 **** Fit      -0.003648
 **** Fit      -0.003854
 **** Fit      -0.003764
 **** Fit      -0.003427
 **** Fit      -0.002933
 **** Fit      -0.002376
 **** Fit      -0.001818
 **** Fit      -0.001287
 **** Fit      -0.000788
 **** Fit      -0.000323
 **** Fit      -0.001516
 **** Fit      -0.001762
 **** Fit      -0.001773
 **** Fit      -0.001563
 **** Fit      -0.001196
 **** Fit      -0.000770
 **** Fit      -0.000366
 **** Fit      -0.000021
 **** Fit       0.000272
 **** Fit       0.000535
 **** Fit       0.000784
 **** Fit      -0.000162
 **** Fit      -0.000228
 **** Fit      -0.000103
 **** Fit       0.000186
 **** Fit       0.000562
 **** Fit       0.000929
 **** Fit       0.001216
 **** Fit       0.001405
 **** Fit       0.001523
 **** Fit       0.001609
 **** Fit       0.001694
 **** Fit       0.000908
 **** Fit       0.000957
 **** Fit       0.001159
 **** Fit       0.001477
 **** Fit       0.001835
 **** Fit       0.002147
 **** Fit       0.002350
 **** Fit       0.002439
 **** Fit       0.002446
 **** Fit       0.002420
 **** Fit       0.002396
 **** Fit       0.001719
 **** Fit       0.001829
 **** Fit       0.002056
 **** Fit       0.002362
 **** Fit       0.002680
 **** Fit       0.002936
 **** Fit       0.003083
 **** Fit       0.003117
 **** Fit       0.003070
 **** Fit       0.002986
 **** Fit       0.002902
 **** Fit       0.002446
 **** Fit       0.002662
 **** Fit       0.002930
 **** Fit       0.003194
 **** Fit       0.003399
 **** Fit       0.003507
 **** Fit       0.003516
 **** Fit       0.003452
 **** Fit       0.003349
 **** Fit       0.003057
 **** Fit       0.003276
 **** Fit       0.003486
 **** Fit       0.003644
 **** Fit       0.003725
 **** Fit       0.003725
 **** Fit       0.003662
 **** Fit       0.003641
 **** Fit       0.003761
 **** Fit       0.003821
 **** Fit      -0.005541
 **** Fit      -0.005366
 **** Fit      -0.004972
 **** Fit      -0.004426
 **** Fit      -0.003793
 **** Fit      -0.003555
 **** Fit      -0.003550
 **** Fit      -0.003354
 **** Fit      -0.003015
 **** Fit      -0.002590
 **** Fit      -0.002124
 **** Fit      -0.001652
 **** Fit      -0.001895
 **** Fit      -0.001812
 **** Fit      -0.001600
 **** Fit      -0.001308
 **** Fit      -0.000985
 **** Fit      -0.000662
 **** Fit      -0.000353
 **** Fit      -0.000512
 **** Fit      -0.000374
 **** Fit      -0.000156
 **** Fit       0.000094
 **** Fit       0.000335
 **** Fit       0.000547
 **** Fit       0.000729
 **** Fit       0.000586
 **** Fit       0.000752
 **** Fit       0.000963
 **** Fit       0.001175
 **** Fit       0.001354
 **** Fit       0.001485
 **** Fit       0.001577
 **** Fit       0.001418
 **** Fit       0.001589
 **** Fit       0.001782
 **** Fit       0.001959
 **** Fit       0.002091
 **** Fit       0.002169
 **** Fit       0.002204
 **** Fit       0.002185
 **** Fit       0.002352
 **** Fit       0.002495
 **** Fit       0.002593
 **** Fit       0.002639
 -----------------------------------------------------------------
 Leave Link  602 at Wed May 17 12:18:36 2017, MaxMem=   33554432 cpu:      93.6
 (Enter /scratch/michal/g09/l9999.exe)

 Test job not archived.
 1\1\GINC-RZEPICHA\SP\RHF\6-31G(d)\C27H46O2\MICHAL\17-May-2017\0\\#P HF
 /6-31G* SCF(Conver=6) NoSymm Test Pop=chelpg IOp(6/33=2) GFInput GFPri
 nt\\MEP - Input generated by R.E.D.-III.x MOLECULE\\0,1\O,0,0.,0.,0.\H
 ,0,0.96651949,0.,0.\O,0,4.36466436,-1.38574774,-4.91454208\H,0,4.08871
 375,-1.21584977,-5.8262186\C,0,-1.24259043,4.07353757,-0.86055769\C,0,
 -1.1446825,2.55397894,-0.57443128\H,0,-0.44325015,2.45630929,0.2658775
 \C,0,-0.53827398,1.73136747,-1.71650771\H,0,-1.19753148,1.78969446,-2.
 59454614\C,0,0.86381347,2.28377467,-2.09036871\H,0,1.51413816,2.051454
 64,-1.230637\C,0,-1.90243461,4.54305509,0.47385318\H,0,-1.11455661,4.3
 9563,1.22665264\C,0,0.1896795,4.5857556,-1.09173209\H,0,0.76550364,4.4
 527751,-0.16454719\H,0,0.20000377,5.66095033,-1.31607377\C,0,1.4901969
 9,1.53136,-3.31692811\C,0,-2.53009491,2.17834203,-0.01688097\H,0,-2.47
 882006,1.29763818,0.62923831\H,0,-3.2309784,1.94139437,-0.82762541\C,0
 ,0.88329547,3.82681848,-2.24228468\H,0,0.406048,4.11376915,-3.18447\H,
 0,1.92081626,4.17259882,-2.31455257\C,0,-2.98828,3.45664113,0.75328124
 \H,0,-3.97406035,3.77896474,0.40622054\H,0,-3.08563215,3.26668816,1.82
 712651\C,0,-0.44939144,0.23380595,-1.3556932\H,0,-1.46250228,-0.184709
 73,-1.36338714\C,0,-2.32885131,6.03362962,0.61251342\H,0,-1.62665333,6
 .62019713,0.\C,0,-2.12936522,4.39880459,-2.08288532\H,0,-1.74311502,3.
 95498301,-3.00407457\H,0,-3.1531882,4.03516064,-1.9582648\H,0,-2.17838
 616,5.48123832,-2.24423563\C,0,1.28341235,0.01699656,-3.17823458\C,0,3
 .02397814,1.81583702,-3.34790227\H,0,3.42325495,1.6591065,-2.33610317\
 H,0,3.19162067,2.87155553,-3.58621936\C,0,0.41571821,-0.53308772,-2.31
 283547\H,0,0.33908226,-1.61844072,-2.25433633\C,0,0.85017659,1.9887130
 5,-4.65622829\H,0,1.12628494,3.01937456,-4.89820287\H,0,1.17608508,1.3
 6430503,-5.49177559\H,0,-0.24139494,1.9267478,-4.61504442\C,0,2.108429
 32,-0.87326962,-4.08945188\H,0,1.95382054,-1.92550562,-3.83136998\H,0,
 1.77313529,-0.75199982,-5.13189094\C,0,3.82756917,0.94301001,-4.324027
 77\H,0,3.53515991,1.1581545,-5.36245653\H,0,4.89522494,1.17691153,-4.2
 4420094\C,0,-3.75660369,6.37240044,0.1204315\H,0,-3.99929298,5.7932797
 8,-0.7762312\H,0,-4.48341307,6.06234062,0.88485898\C,0,3.60796369,-0.5
 4298183,-4.04191173\H,0,3.99265538,-0.77937437,-3.04213012\C,0,-2.1445
 4918,6.49389003,2.07334135\H,0,-2.76696653,5.89582326,2.7505999\H,0,-2
 .42218713,7.54398989,2.21027057\H,0,-1.10288993,6.38385732,2.39480415\
 C,0,-3.97272221,7.86059244,-0.20258107\H,0,-3.737076,8.47050497,0.6776
 8539\H,0,-3.2588676,8.15780729,-0.98285274\C,0,-5.40776883,8.15730478,
 -0.6665819\H,0,-6.10418558,7.8380416,0.12227898\H,0,-5.63212286,7.5278
 3763,-1.54004056\C,0,-5.72921031,9.62546375,-1.03179183\H,0,-6.7871122
 9,9.63587334,-1.33351421\C,0,-4.91293746,10.12971559,-2.23353272\H,0,-
 3.84629382,10.20839057,-1.99360712\H,0,-5.2515134,11.12450806,-2.54502
 377\H,0,-5.01363354,9.45811961,-3.0943594\C,0,-5.59310892,10.57846809,
 0.16729976\H,0,-4.55045947,10.67448037,0.49151882\H,0,-5.94820388,11.5
 8274329,-0.09077449\H,0,-6.17912785,10.22727459,1.02479879\\Version=EM
 64L-G09RevC.01\HF=-1198.9245959\RMSD=5.023e-07\Dipole=-0.0118045,0.650
 3616,-0.7992433\Quadrupole=-5.2637676,-2.1927523,7.4565199,5.5426537,2
 .5386388,-4.644139\PG=C01 [X(C27H46O2)]\\@


 DO YOU KNOW THAT THE LETTERS IN "EPISCOPAL", WHEN
 REARRANGED, SPELL "PEPSI COLA"?
 Job cpu time:  0 days  0 hours 44 minutes 29.8 seconds.
 File lengths (MBytes):  RWF=    151 Int=      0 D2E=      0 Chk=     11 Scr=      1
 Normal termination of Gaussian 09 at Wed May 17 12:18:36 2017.
