 Entering Gaussian System, Link 0=/scratch/michal/g09//g09
 Input=JOB2-gau_m1-19-3.com
 Output=JOB2-gau_m1-19-3.log
 Initial command:
 /scratch/michal/g09/l1.exe /scratch/michal/gauss_scratch/Gau-32719.inp -scrdir=/scratch/michal/gauss_scratch/
 Entering Link 1 = /scratch/michal/g09/l1.exe PID=     32721.
  
 Copyright (c) 1988,1990,1992,1993,1995,1998,2003,2009,2011,
            Gaussian, Inc.  All Rights Reserved.
  
 This is part of the Gaussian(R) 09 program.  It is based on
 the Gaussian(R) 03 system (copyright 2003, Gaussian, Inc.),
 the Gaussian(R) 98 system (copyright 1998, Gaussian, Inc.),
 the Gaussian(R) 94 system (copyright 1995, Gaussian, Inc.),
 the Gaussian 92(TM) system (copyright 1992, Gaussian, Inc.),
 the Gaussian 90(TM) system (copyright 1990, Gaussian, Inc.),
 the Gaussian 88(TM) system (copyright 1988, Gaussian, Inc.),
 the Gaussian 86(TM) system (copyright 1986, Carnegie Mellon
 University), and the Gaussian 82(TM) system (copyright 1983,
 Carnegie Mellon University). Gaussian is a federally registered
 trademark of Gaussian, Inc.
  
 This software contains proprietary and confidential information,
 including trade secrets, belonging to Gaussian, Inc.
  
 This software is provided under written license and may be
 used, copied, transmitted, or stored only in accord with that
 written license.
  
 The following legend is applicable only to US Government
 contracts under FAR:
  
                    RESTRICTED RIGHTS LEGEND
  
 Use, reproduction and disclosure by the US Government is
 subject to restrictions as set forth in subparagraphs (a)
 and (c) of the Commercial Computer Software - Restricted
 Rights clause in FAR 52.227-19.
  
 Gaussian, Inc.
 340 Quinnipiac St., Bldg. 40, Wallingford CT 06492
  
  
 ---------------------------------------------------------------
 Warning -- This program may not be used in any manner that
 competes with the business of Gaussian, Inc. or will provide
 assistance to any competitor of Gaussian, Inc.  The licensee
 of this program is prohibited from giving any competitor of
 Gaussian, Inc. access to this program.  By using this program,
 the user acknowledges that Gaussian, Inc. is engaged in the
 business of creating and licensing software in the field of
 computational chemistry and represents and warrants to the
 licensee that it is not a competitor of Gaussian, Inc. and that
 it will not use this program in any manner prohibited above.
 ---------------------------------------------------------------
  

 Cite this work as:
 Gaussian 09, Revision C.01,
 M. J. Frisch, G. W. Trucks, H. B. Schlegel, G. E. Scuseria, 
 M. A. Robb, J. R. Cheeseman, G. Scalmani, V. Barone, B. Mennucci, 
 G. A. Petersson, H. Nakatsuji, M. Caricato, X. Li, H. P. Hratchian, 
 A. F. Izmaylov, J. Bloino, G. Zheng, J. L. Sonnenberg, M. Hada, 
 M. Ehara, K. Toyota, R. Fukuda, J. Hasegawa, M. Ishida, T. Nakajima, 
 Y. Honda, O. Kitao, H. Nakai, T. Vreven, J. A. Montgomery, Jr., 
 J. E. Peralta, F. Ogliaro, M. Bearpark, J. J. Heyd, E. Brothers, 
 K. N. Kudin, V. N. Staroverov, T. Keith, R. Kobayashi, J. Normand, 
 K. Raghavachari, A. Rendell, J. C. Burant, S. S. Iyengar, J. Tomasi, 
 M. Cossi, N. Rega, J. M. Millam, M. Klene, J. E. Knox, J. B. Cross, 
 V. Bakken, C. Adamo, J. Jaramillo, R. Gomperts, R. E. Stratmann, 
 O. Yazyev, A. J. Austin, R. Cammi, C. Pomelli, J. W. Ochterski, 
 R. L. Martin, K. Morokuma, V. G. Zakrzewski, G. A. Voth, 
 P. Salvador, J. J. Dannenberg, S. Dapprich, A. D. Daniels, 
 O. Farkas, J. B. Foresman, J. V. Ortiz, J. Cioslowski, 
 and D. J. Fox, Gaussian, Inc., Wallingford CT, 2010.
 
 ******************************************
 Gaussian 09:  EM64L-G09RevC.01 23-Sep-2011
                17-May-2017 
 ******************************************
 %Mem=256MB
 %NProc=48
 Will use up to   48 processors via shared memory.
 ----------------------------------------------------------------------
 #P HF/6-31G* SCF(Conver=6) NoSymm Test Pop=chelpg IOp(6/33=2) GFInput 
 GFPrint
 ----------------------------------------------------------------------
 1/38=1/1;
 2/12=2,15=1,17=6,18=5,40=1/2;
 3/5=1,6=6,7=1,11=9,16=1,24=110,25=1,30=1/1,2,3;
 4//1;
 5/5=2,6=6,38=5/2;
 6/7=2,8=2,9=2,10=2,15=8,20=3,28=1,33=2/1,2;
 99/5=1,9=1/99;
 Leave Link    1 at Wed May 17 13:21:45 2017, MaxMem=   33554432 cpu:       3.9
 (Enter /scratch/michal/g09/l101.exe)
 ----------------------------------------------
 MEP - Input generated by R.E.D.-III.x MOLECULE
 ----------------------------------------------
 Charge =  0 Multiplicity = 1
 Symbolic Z-Matrix:
 O                     5.74573   3.47551   0. 
 H                     5.10979   3.31252   0.70937 
 O                     0.        0.        0. 
 H                    -0.08117  -0.74218  -0.61543 
 C                     8.81621   0.4137    0.35167 
 C                     7.88711   1.58627  -0.06905 
 H                     7.70688   2.16084   0.85064 
 C                     6.50253   1.16736  -0.57793 
 H                     6.61982   0.58759  -1.50501 
 C                     5.77688   0.29677   0.47915 
 H                     5.55276   0.97131   1.3223 
 C                     10.09483   1.2246    0.76078 
 H                     9.84364   1.70847   1.71594 
 C                     8.08561  -0.33469   1.48508 
 H                     7.98631   0.34186   2.3461 
 H                     8.65539  -1.2018    1.83455 
 C                     4.38921  -0.22914  -0.03045 
 C                     8.76498   2.47628  -0.96085 
 H                     8.41308   3.51157  -0.97321 
 H                     8.75832   2.12109  -1.99941 
 C                     6.68864  -0.81821   1.04418 
 H                     6.81742  -1.60693   0.29581 
 H                     6.19889  -1.29463   1.90136 
 C                     10.18122   2.33747  -0.3358 
 H                     10.91792   2.06166  -1.09971 
 H                     10.52434   3.28386   0.09388 
 C                     5.64183   2.39195  -0.95386 
 H                     6.04105   2.82687  -1.87736 
 C                     11.43919   0.48074   0.95719 
 H                     11.68889   0.        0. 
 C                     9.13869  -0.54487  -0.81717 
 H                     8.23842  -0.96884  -1.26946 
 H                     9.69403  -0.04357  -1.61568 
 H                     9.75143  -1.38463  -0.47173 
 C                     3.62277   0.8906   -0.74677 
 C                     3.54754  -0.68988   1.19977 
 H                     3.59592   0.09815   1.96418 
 H                     4.00992  -1.57859   1.64248 
 C                     4.19784   2.03427  -1.15386 
 H                     3.58512   2.79496  -1.6368 
 C                     4.55498  -1.41542  -1.01914 
 H                     4.93045  -2.30812  -0.51005 
 H                     3.60438  -1.68689  -1.48487 
 H                     5.24885  -1.1641   -1.82694 
 C                     2.14532   0.65467  -1.00168 
 H                     1.68524   1.55461  -1.42138 
 H                     2.01931  -0.14273  -1.75143 
 C                     2.069    -0.9826    0.90236 
 H                     1.97581  -1.84539   0.22638 
 H                     1.54656  -1.25144   1.82743 
 C                     12.61548   1.45226   1.24927 
 H                     13.53528   0.85273   1.25955 
 H                     12.72596   2.15196   0.411 
 C                     1.38673   0.22706   0.26405 
 H                     1.39004   1.05942   0.97861 
 C                     11.38494  -0.62887   2.02414 
 H                     10.9823  -0.2624    2.97512 
 H                     12.38975  -1.02244   2.2188 
 H                     10.76394  -1.47065   1.70748 
 C                     12.52508   2.2621    2.55363 
 H                     11.58573   2.82914   2.56702 
 H                     12.47695   1.58472   3.415 
 C                     13.67614   3.26787   2.7473 
 H                     13.46456   3.87502   3.6401 
 H                     13.67323   3.96737   1.89877 
 C                     15.09809   2.68462   2.89174 
 H                     15.32061   2.08911   1.99487 
 C                     15.23302   1.76378   4.11489 
 H                     14.99901   2.30804   5.03924 
 H                     16.25597   1.38093   4.20552 
 H                     14.56241   0.90025   4.05851 
 C                     16.13191   3.82046   2.95647 
 H                     15.96417   4.45215   3.83837 
 H                     17.15285   3.42675   3.01965 
 H                     16.07453   4.46394   2.071 
 
 NAtoms=     75 NQM=        0 NQMF=       0 NMMI=     75 NMMIF=      0
                NMic=       0 NMicF=      0.
                    Isotopes and Nuclear Properties:
 (Nuclear quadrupole moments (NQMom) in fm**2, nuclear magnetic moments (NMagM)
  in nuclear magnetons)

  Atom         1           2           3           4           5           6           7           8           9          10
 IAtWgt=          16           1          16           1          12          12           1          12           1          12
 AtmWgt=  15.9949146   1.0078250  15.9949146   1.0078250  12.0000000  12.0000000   1.0078250  12.0000000   1.0078250  12.0000000
 NucSpn=           0           1           0           1           0           0           1           0           1           0
 AtZEff=   0.0000000   0.0000000   0.0000000   0.0000000   0.0000000   0.0000000   0.0000000   0.0000000   0.0000000   0.0000000
 NQMom=    0.0000000   0.0000000   0.0000000   0.0000000   0.0000000   0.0000000   0.0000000   0.0000000   0.0000000   0.0000000
 NMagM=    0.0000000   2.7928460   0.0000000   2.7928460   0.0000000   0.0000000   2.7928460   0.0000000   2.7928460   0.0000000

  Atom        11          12          13          14          15          16          17          18          19          20
 IAtWgt=           1          12           1          12           1           1          12          12           1           1
 AtmWgt=   1.0078250  12.0000000   1.0078250  12.0000000   1.0078250   1.0078250  12.0000000  12.0000000   1.0078250   1.0078250
 NucSpn=           1           0           1           0           1           1           0           0           1           1
 AtZEff=   0.0000000   0.0000000   0.0000000   0.0000000   0.0000000   0.0000000   0.0000000   0.0000000   0.0000000   0.0000000
 NQMom=    0.0000000   0.0000000   0.0000000   0.0000000   0.0000000   0.0000000   0.0000000   0.0000000   0.0000000   0.0000000
 NMagM=    2.7928460   0.0000000   2.7928460   0.0000000   2.7928460   2.7928460   0.0000000   0.0000000   2.7928460   2.7928460

  Atom        21          22          23          24          25          26          27          28          29          30
 IAtWgt=          12           1           1          12           1           1          12           1          12           1
 AtmWgt=  12.0000000   1.0078250   1.0078250  12.0000000   1.0078250   1.0078250  12.0000000   1.0078250  12.0000000   1.0078250
 NucSpn=           0           1           1           0           1           1           0           1           0           1
 AtZEff=   0.0000000   0.0000000   0.0000000   0.0000000   0.0000000   0.0000000   0.0000000   0.0000000   0.0000000   0.0000000
 NQMom=    0.0000000   0.0000000   0.0000000   0.0000000   0.0000000   0.0000000   0.0000000   0.0000000   0.0000000   0.0000000
 NMagM=    0.0000000   2.7928460   2.7928460   0.0000000   2.7928460   2.7928460   0.0000000   2.7928460   0.0000000   2.7928460

  Atom        31          32          33          34          35          36          37          38          39          40
 IAtWgt=          12           1           1           1          12          12           1           1          12           1
 AtmWgt=  12.0000000   1.0078250   1.0078250   1.0078250  12.0000000  12.0000000   1.0078250   1.0078250  12.0000000   1.0078250
 NucSpn=           0           1           1           1           0           0           1           1           0           1
 AtZEff=   0.0000000   0.0000000   0.0000000   0.0000000   0.0000000   0.0000000   0.0000000   0.0000000   0.0000000   0.0000000
 NQMom=    0.0000000   0.0000000   0.0000000   0.0000000   0.0000000   0.0000000   0.0000000   0.0000000   0.0000000   0.0000000
 NMagM=    0.0000000   2.7928460   2.7928460   2.7928460   0.0000000   0.0000000   2.7928460   2.7928460   0.0000000   2.7928460

  Atom        41          42          43          44          45          46          47          48          49          50
 IAtWgt=          12           1           1           1          12           1           1          12           1           1
 AtmWgt=  12.0000000   1.0078250   1.0078250   1.0078250  12.0000000   1.0078250   1.0078250  12.0000000   1.0078250   1.0078250
 NucSpn=           0           1           1           1           0           1           1           0           1           1
 AtZEff=   0.0000000   0.0000000   0.0000000   0.0000000   0.0000000   0.0000000   0.0000000   0.0000000   0.0000000   0.0000000
 NQMom=    0.0000000   0.0000000   0.0000000   0.0000000   0.0000000   0.0000000   0.0000000   0.0000000   0.0000000   0.0000000
 NMagM=    0.0000000   2.7928460   2.7928460   2.7928460   0.0000000   2.7928460   2.7928460   0.0000000   2.7928460   2.7928460

  Atom        51          52          53          54          55          56          57          58          59          60
 IAtWgt=          12           1           1          12           1          12           1           1           1          12
 AtmWgt=  12.0000000   1.0078250   1.0078250  12.0000000   1.0078250  12.0000000   1.0078250   1.0078250   1.0078250  12.0000000
 NucSpn=           0           1           1           0           1           0           1           1           1           0
 AtZEff=   0.0000000   0.0000000   0.0000000   0.0000000   0.0000000   0.0000000   0.0000000   0.0000000   0.0000000   0.0000000
 NQMom=    0.0000000   0.0000000   0.0000000   0.0000000   0.0000000   0.0000000   0.0000000   0.0000000   0.0000000   0.0000000
 NMagM=    0.0000000   2.7928460   2.7928460   0.0000000   2.7928460   0.0000000   2.7928460   2.7928460   2.7928460   0.0000000

  Atom        61          62          63          64          65          66          67          68          69          70
 IAtWgt=           1           1          12           1           1          12           1          12           1           1
 AtmWgt=   1.0078250   1.0078250  12.0000000   1.0078250   1.0078250  12.0000000   1.0078250  12.0000000   1.0078250   1.0078250
 NucSpn=           1           1           0           1           1           0           1           0           1           1
 AtZEff=   0.0000000   0.0000000   0.0000000   0.0000000   0.0000000   0.0000000   0.0000000   0.0000000   0.0000000   0.0000000
 NQMom=    0.0000000   0.0000000   0.0000000   0.0000000   0.0000000   0.0000000   0.0000000   0.0000000   0.0000000   0.0000000
 NMagM=    2.7928460   2.7928460   0.0000000   2.7928460   2.7928460   0.0000000   2.7928460   0.0000000   2.7928460   2.7928460

  Atom        71          72          73          74          75
 IAtWgt=           1          12           1           1           1
 AtmWgt=   1.0078250  12.0000000   1.0078250   1.0078250   1.0078250
 NucSpn=           1           0           1           1           1
 AtZEff=   0.0000000   0.0000000   0.0000000   0.0000000   0.0000000
 NQMom=    0.0000000   0.0000000   0.0000000   0.0000000   0.0000000
 NMagM=    2.7928460   0.0000000   2.7928460   2.7928460   2.7928460
 Leave Link  101 at Wed May 17 13:21:45 2017, MaxMem=   33554432 cpu:       6.6
 (Enter /scratch/michal/g09/l202.exe)
 Symmetry turned off by external request.
 Stoichiometry    C27H46O2
 Framework group  C1[X(C27H46O2)]
 Deg. of freedom   219
 Full point group                 C1      NOp   1
                          Input orientation:                          
 ---------------------------------------------------------------------
 Center     Atomic      Atomic             Coordinates (Angstroms)
 Number     Number       Type             X           Y           Z
 ---------------------------------------------------------------------
      1          8           0        5.745731    3.475513    0.000000
      2          1           0        5.109793    3.312523    0.709367
      3          8           0        0.000000    0.000000    0.000000
      4          1           0       -0.081171   -0.742177   -0.615432
      5          6           0        8.816209    0.413702    0.351667
      6          6           0        7.887111    1.586269   -0.069048
      7          1           0        7.706882    2.160844    0.850641
      8          6           0        6.502531    1.167360   -0.577934
      9          1           0        6.619823    0.587593   -1.505007
     10          6           0        5.776881    0.296766    0.479154
     11          1           0        5.552763    0.971313    1.322295
     12          6           0       10.094833    1.224600    0.760779
     13          1           0        9.843642    1.708469    1.715942
     14          6           0        8.085609   -0.334690    1.485084
     15          1           0        7.986313    0.341861    2.346097
     16          1           0        8.655388   -1.201796    1.834548
     17          6           0        4.389206   -0.229142   -0.030451
     18          6           0        8.764975    2.476280   -0.960850
     19          1           0        8.413078    3.511572   -0.973215
     20          1           0        8.758318    2.121095   -1.999410
     21          6           0        6.688642   -0.818214    1.044185
     22          1           0        6.817423   -1.606926    0.295809
     23          1           0        6.198885   -1.294630    1.901355
     24          6           0       10.181223    2.337469   -0.335803
     25          1           0       10.917916    2.061664   -1.099711
     26          1           0       10.524343    3.283855    0.093878
     27          6           0        5.641830    2.391948   -0.953857
     28          1           0        6.041049    2.826873   -1.877358
     29          6           0       11.439190    0.480738    0.957186
     30          1           0       11.688888    0.000000    0.000000
     31          6           0        9.138686   -0.544873   -0.817171
     32          1           0        8.238418   -0.968845   -1.269464
     33          1           0        9.694034   -0.043569   -1.615678
     34          1           0        9.751430   -1.384633   -0.471725
     35          6           0        3.622771    0.890602   -0.746774
     36          6           0        3.547539   -0.689884    1.199767
     37          1           0        3.595919    0.098150    1.964176
     38          1           0        4.009921   -1.578595    1.642476
     39          6           0        4.197844    2.034266   -1.153864
     40          1           0        3.585119    2.794957   -1.636802
     41          6           0        4.554984   -1.415423   -1.019137
     42          1           0        4.930449   -2.308123   -0.510055
     43          1           0        3.604385   -1.686890   -1.484868
     44          1           0        5.248853   -1.164098   -1.826941
     45          6           0        2.145319    0.654667   -1.001676
     46          1           0        1.685242    1.554607   -1.421378
     47          1           0        2.019306   -0.142727   -1.751432
     48          6           0        2.069004   -0.982598    0.902357
     49          1           0        1.975810   -1.845395    0.226376
     50          1           0        1.546564   -1.251445    1.827430
     51          6           0       12.615480    1.452260    1.249275
     52          1           0       13.535284    0.852733    1.259552
     53          1           0       12.725964    2.151957    0.410996
     54          6           0        1.386729    0.227061    0.264045
     55          1           0        1.390038    1.059425    0.978607
     56          6           0       11.384944   -0.628870    2.024136
     57          1           0       10.982297   -0.262399    2.975117
     58          1           0       12.389748   -1.022440    2.218801
     59          1           0       10.763937   -1.470650    1.707484
     60          6           0       12.525084    2.262099    2.553633
     61          1           0       11.585732    2.829138    2.567022
     62          1           0       12.476955    1.584718    3.414997
     63          6           0       13.676140    3.267868    2.747297
     64          1           0       13.464555    3.875018    3.640098
     65          1           0       13.673227    3.967372    1.898770
     66          6           0       15.098092    2.684621    2.891740
     67          1           0       15.320609    2.089107    1.994873
     68          6           0       15.233018    1.763782    4.114892
     69          1           0       14.999011    2.308037    5.039240
     70          1           0       16.255970    1.380929    4.205521
     71          1           0       14.562411    0.900254    4.058512
     72          6           0       16.131913    3.820461    2.956470
     73          1           0       15.964175    4.452153    3.838373
     74          1           0       17.152849    3.426747    3.019651
     75          1           0       16.074529    4.463939    2.071002
 ---------------------------------------------------------------------
 Rotational constants (GHZ):      0.4608253      0.0562504      0.0542410
 Leave Link  202 at Wed May 17 13:21:45 2017, MaxMem=   33554432 cpu:       0.2
 (Enter /scratch/michal/g09/l301.exe)
 Standard basis: 6-31G(d) (6D, 7F)
 Ernie: Thresh=  0.10000D-02 Tol=  0.10000D-05 Strict=F.
 AO basis set in the form of general basis input (Overlap normalization):
      1 0
 S   6 1.00       0.000000000000
      0.5484671660D+04  0.1831074430D-02
      0.8252349460D+03  0.1395017220D-01
      0.1880469580D+03  0.6844507810D-01
      0.5296450000D+02  0.2327143360D+00
      0.1689757040D+02  0.4701928980D+00
      0.5799635340D+01  0.3585208530D+00
 SP   3 1.00       0.000000000000
      0.1553961625D+02 -0.1107775495D+00  0.7087426823D-01
      0.3599933586D+01 -0.1480262627D+00  0.3397528391D+00
      0.1013761750D+01  0.1130767015D+01  0.7271585773D+00
 SP   1 1.00       0.000000000000
      0.2700058226D+00  0.1000000000D+01  0.1000000000D+01
 D   1 1.00       0.000000000000
      0.8000000000D+00  0.1000000000D+01
 ****
      2 0
 S   3 1.00       0.000000000000
      0.1873113696D+02  0.3349460434D-01
      0.2825394365D+01  0.2347269535D+00
      0.6401216923D+00  0.8137573261D+00
 S   1 1.00       0.000000000000
      0.1612777588D+00  0.1000000000D+01
 ****
      3 0
 S   6 1.00       0.000000000000
      0.5484671660D+04  0.1831074430D-02
      0.8252349460D+03  0.1395017220D-01
      0.1880469580D+03  0.6844507810D-01
      0.5296450000D+02  0.2327143360D+00
      0.1689757040D+02  0.4701928980D+00
      0.5799635340D+01  0.3585208530D+00
 SP   3 1.00       0.000000000000
      0.1553961625D+02 -0.1107775495D+00  0.7087426823D-01
      0.3599933586D+01 -0.1480262627D+00  0.3397528391D+00
      0.1013761750D+01  0.1130767015D+01  0.7271585773D+00
 SP   1 1.00       0.000000000000
      0.2700058226D+00  0.1000000000D+01  0.1000000000D+01
 D   1 1.00       0.000000000000
      0.8000000000D+00  0.1000000000D+01
 ****
      4 0
 S   3 1.00       0.000000000000
      0.1873113696D+02  0.3349460434D-01
      0.2825394365D+01  0.2347269535D+00
      0.6401216923D+00  0.8137573261D+00
 S   1 1.00       0.000000000000
      0.1612777588D+00  0.1000000000D+01
 ****
      5 0
 S   6 1.00       0.000000000000
      0.3047524880D+04  0.1834737132D-02
      0.4573695180D+03  0.1403732281D-01
      0.1039486850D+03  0.6884262226D-01
      0.2921015530D+02  0.2321844432D+00
      0.9286662960D+01  0.4679413484D+00
      0.3163926960D+01  0.3623119853D+00
 SP   3 1.00       0.000000000000
      0.7868272350D+01 -0.1193324198D+00  0.6899906659D-01
      0.1881288540D+01 -0.1608541517D+00  0.3164239610D+00
      0.5442492580D+00  0.1143456438D+01  0.7443082909D+00
 SP   1 1.00       0.000000000000
      0.1687144782D+00  0.1000000000D+01  0.1000000000D+01
 D   1 1.00       0.000000000000
      0.8000000000D+00  0.1000000000D+01
 ****
      6 0
 S   6 1.00       0.000000000000
      0.3047524880D+04  0.1834737132D-02
      0.4573695180D+03  0.1403732281D-01
      0.1039486850D+03  0.6884262226D-01
      0.2921015530D+02  0.2321844432D+00
      0.9286662960D+01  0.4679413484D+00
      0.3163926960D+01  0.3623119853D+00
 SP   3 1.00       0.000000000000
      0.7868272350D+01 -0.1193324198D+00  0.6899906659D-01
      0.1881288540D+01 -0.1608541517D+00  0.3164239610D+00
      0.5442492580D+00  0.1143456438D+01  0.7443082909D+00
 SP   1 1.00       0.000000000000
      0.1687144782D+00  0.1000000000D+01  0.1000000000D+01
 D   1 1.00       0.000000000000
      0.8000000000D+00  0.1000000000D+01
 ****
      7 0
 S   3 1.00       0.000000000000
      0.1873113696D+02  0.3349460434D-01
      0.2825394365D+01  0.2347269535D+00
      0.6401216923D+00  0.8137573261D+00
 S   1 1.00       0.000000000000
      0.1612777588D+00  0.1000000000D+01
 ****
      8 0
 S   6 1.00       0.000000000000
      0.3047524880D+04  0.1834737132D-02
      0.4573695180D+03  0.1403732281D-01
      0.1039486850D+03  0.6884262226D-01
      0.2921015530D+02  0.2321844432D+00
      0.9286662960D+01  0.4679413484D+00
      0.3163926960D+01  0.3623119853D+00
 SP   3 1.00       0.000000000000
      0.7868272350D+01 -0.1193324198D+00  0.6899906659D-01
      0.1881288540D+01 -0.1608541517D+00  0.3164239610D+00
      0.5442492580D+00  0.1143456438D+01  0.7443082909D+00
 SP   1 1.00       0.000000000000
      0.1687144782D+00  0.1000000000D+01  0.1000000000D+01
 D   1 1.00       0.000000000000
      0.8000000000D+00  0.1000000000D+01
 ****
      9 0
 S   3 1.00       0.000000000000
      0.1873113696D+02  0.3349460434D-01
      0.2825394365D+01  0.2347269535D+00
      0.6401216923D+00  0.8137573261D+00
 S   1 1.00       0.000000000000
      0.1612777588D+00  0.1000000000D+01
 ****
     10 0
 S   6 1.00       0.000000000000
      0.3047524880D+04  0.1834737132D-02
      0.4573695180D+03  0.1403732281D-01
      0.1039486850D+03  0.6884262226D-01
      0.2921015530D+02  0.2321844432D+00
      0.9286662960D+01  0.4679413484D+00
      0.3163926960D+01  0.3623119853D+00
 SP   3 1.00       0.000000000000
      0.7868272350D+01 -0.1193324198D+00  0.6899906659D-01
      0.1881288540D+01 -0.1608541517D+00  0.3164239610D+00
      0.5442492580D+00  0.1143456438D+01  0.7443082909D+00
 SP   1 1.00       0.000000000000
      0.1687144782D+00  0.1000000000D+01  0.1000000000D+01
 D   1 1.00       0.000000000000
      0.8000000000D+00  0.1000000000D+01
 ****
     11 0
 S   3 1.00       0.000000000000
      0.1873113696D+02  0.3349460434D-01
      0.2825394365D+01  0.2347269535D+00
      0.6401216923D+00  0.8137573261D+00
 S   1 1.00       0.000000000000
      0.1612777588D+00  0.1000000000D+01
 ****
     12 0
 S   6 1.00       0.000000000000
      0.3047524880D+04  0.1834737132D-02
      0.4573695180D+03  0.1403732281D-01
      0.1039486850D+03  0.6884262226D-01
      0.2921015530D+02  0.2321844432D+00
      0.9286662960D+01  0.4679413484D+00
      0.3163926960D+01  0.3623119853D+00
 SP   3 1.00       0.000000000000
      0.7868272350D+01 -0.1193324198D+00  0.6899906659D-01
      0.1881288540D+01 -0.1608541517D+00  0.3164239610D+00
      0.5442492580D+00  0.1143456438D+01  0.7443082909D+00
 SP   1 1.00       0.000000000000
      0.1687144782D+00  0.1000000000D+01  0.1000000000D+01
 D   1 1.00       0.000000000000
      0.8000000000D+00  0.1000000000D+01
 ****
     13 0
 S   3 1.00       0.000000000000
      0.1873113696D+02  0.3349460434D-01
      0.2825394365D+01  0.2347269535D+00
      0.6401216923D+00  0.8137573261D+00
 S   1 1.00       0.000000000000
      0.1612777588D+00  0.1000000000D+01
 ****
     14 0
 S   6 1.00       0.000000000000
      0.3047524880D+04  0.1834737132D-02
      0.4573695180D+03  0.1403732281D-01
      0.1039486850D+03  0.6884262226D-01
      0.2921015530D+02  0.2321844432D+00
      0.9286662960D+01  0.4679413484D+00
      0.3163926960D+01  0.3623119853D+00
 SP   3 1.00       0.000000000000
      0.7868272350D+01 -0.1193324198D+00  0.6899906659D-01
      0.1881288540D+01 -0.1608541517D+00  0.3164239610D+00
      0.5442492580D+00  0.1143456438D+01  0.7443082909D+00
 SP   1 1.00       0.000000000000
      0.1687144782D+00  0.1000000000D+01  0.1000000000D+01
 D   1 1.00       0.000000000000
      0.8000000000D+00  0.1000000000D+01
 ****
     15 0
 S   3 1.00       0.000000000000
      0.1873113696D+02  0.3349460434D-01
      0.2825394365D+01  0.2347269535D+00
      0.6401216923D+00  0.8137573261D+00
 S   1 1.00       0.000000000000
      0.1612777588D+00  0.1000000000D+01
 ****
     16 0
 S   3 1.00       0.000000000000
      0.1873113696D+02  0.3349460434D-01
      0.2825394365D+01  0.2347269535D+00
      0.6401216923D+00  0.8137573261D+00
 S   1 1.00       0.000000000000
      0.1612777588D+00  0.1000000000D+01
 ****
     17 0
 S   6 1.00       0.000000000000
      0.3047524880D+04  0.1834737132D-02
      0.4573695180D+03  0.1403732281D-01
      0.1039486850D+03  0.6884262226D-01
      0.2921015530D+02  0.2321844432D+00
      0.9286662960D+01  0.4679413484D+00
      0.3163926960D+01  0.3623119853D+00
 SP   3 1.00       0.000000000000
      0.7868272350D+01 -0.1193324198D+00  0.6899906659D-01
      0.1881288540D+01 -0.1608541517D+00  0.3164239610D+00
      0.5442492580D+00  0.1143456438D+01  0.7443082909D+00
 SP   1 1.00       0.000000000000
      0.1687144782D+00  0.1000000000D+01  0.1000000000D+01
 D   1 1.00       0.000000000000
      0.8000000000D+00  0.1000000000D+01
 ****
     18 0
 S   6 1.00       0.000000000000
      0.3047524880D+04  0.1834737132D-02
      0.4573695180D+03  0.1403732281D-01
      0.1039486850D+03  0.6884262226D-01
      0.2921015530D+02  0.2321844432D+00
      0.9286662960D+01  0.4679413484D+00
      0.3163926960D+01  0.3623119853D+00
 SP   3 1.00       0.000000000000
      0.7868272350D+01 -0.1193324198D+00  0.6899906659D-01
      0.1881288540D+01 -0.1608541517D+00  0.3164239610D+00
      0.5442492580D+00  0.1143456438D+01  0.7443082909D+00
 SP   1 1.00       0.000000000000
      0.1687144782D+00  0.1000000000D+01  0.1000000000D+01
 D   1 1.00       0.000000000000
      0.8000000000D+00  0.1000000000D+01
 ****
     19 0
 S   3 1.00       0.000000000000
      0.1873113696D+02  0.3349460434D-01
      0.2825394365D+01  0.2347269535D+00
      0.6401216923D+00  0.8137573261D+00
 S   1 1.00       0.000000000000
      0.1612777588D+00  0.1000000000D+01
 ****
     20 0
 S   3 1.00       0.000000000000
      0.1873113696D+02  0.3349460434D-01
      0.2825394365D+01  0.2347269535D+00
      0.6401216923D+00  0.8137573261D+00
 S   1 1.00       0.000000000000
      0.1612777588D+00  0.1000000000D+01
 ****
     21 0
 S   6 1.00       0.000000000000
      0.3047524880D+04  0.1834737132D-02
      0.4573695180D+03  0.1403732281D-01
      0.1039486850D+03  0.6884262226D-01
      0.2921015530D+02  0.2321844432D+00
      0.9286662960D+01  0.4679413484D+00
      0.3163926960D+01  0.3623119853D+00
 SP   3 1.00       0.000000000000
      0.7868272350D+01 -0.1193324198D+00  0.6899906659D-01
      0.1881288540D+01 -0.1608541517D+00  0.3164239610D+00
      0.5442492580D+00  0.1143456438D+01  0.7443082909D+00
 SP   1 1.00       0.000000000000
      0.1687144782D+00  0.1000000000D+01  0.1000000000D+01
 D   1 1.00       0.000000000000
      0.8000000000D+00  0.1000000000D+01
 ****
     22 0
 S   3 1.00       0.000000000000
      0.1873113696D+02  0.3349460434D-01
      0.2825394365D+01  0.2347269535D+00
      0.6401216923D+00  0.8137573261D+00
 S   1 1.00       0.000000000000
      0.1612777588D+00  0.1000000000D+01
 ****
     23 0
 S   3 1.00       0.000000000000
      0.1873113696D+02  0.3349460434D-01
      0.2825394365D+01  0.2347269535D+00
      0.6401216923D+00  0.8137573261D+00
 S   1 1.00       0.000000000000
      0.1612777588D+00  0.1000000000D+01
 ****
     24 0
 S   6 1.00       0.000000000000
      0.3047524880D+04  0.1834737132D-02
      0.4573695180D+03  0.1403732281D-01
      0.1039486850D+03  0.6884262226D-01
      0.2921015530D+02  0.2321844432D+00
      0.9286662960D+01  0.4679413484D+00
      0.3163926960D+01  0.3623119853D+00
 SP   3 1.00       0.000000000000
      0.7868272350D+01 -0.1193324198D+00  0.6899906659D-01
      0.1881288540D+01 -0.1608541517D+00  0.3164239610D+00
      0.5442492580D+00  0.1143456438D+01  0.7443082909D+00
 SP   1 1.00       0.000000000000
      0.1687144782D+00  0.1000000000D+01  0.1000000000D+01
 D   1 1.00       0.000000000000
      0.8000000000D+00  0.1000000000D+01
 ****
     25 0
 S   3 1.00       0.000000000000
      0.1873113696D+02  0.3349460434D-01
      0.2825394365D+01  0.2347269535D+00
      0.6401216923D+00  0.8137573261D+00
 S   1 1.00       0.000000000000
      0.1612777588D+00  0.1000000000D+01
 ****
     26 0
 S   3 1.00       0.000000000000
      0.1873113696D+02  0.3349460434D-01
      0.2825394365D+01  0.2347269535D+00
      0.6401216923D+00  0.8137573261D+00
 S   1 1.00       0.000000000000
      0.1612777588D+00  0.1000000000D+01
 ****
     27 0
 S   6 1.00       0.000000000000
      0.3047524880D+04  0.1834737132D-02
      0.4573695180D+03  0.1403732281D-01
      0.1039486850D+03  0.6884262226D-01
      0.2921015530D+02  0.2321844432D+00
      0.9286662960D+01  0.4679413484D+00
      0.3163926960D+01  0.3623119853D+00
 SP   3 1.00       0.000000000000
      0.7868272350D+01 -0.1193324198D+00  0.6899906659D-01
      0.1881288540D+01 -0.1608541517D+00  0.3164239610D+00
      0.5442492580D+00  0.1143456438D+01  0.7443082909D+00
 SP   1 1.00       0.000000000000
      0.1687144782D+00  0.1000000000D+01  0.1000000000D+01
 D   1 1.00       0.000000000000
      0.8000000000D+00  0.1000000000D+01
 ****
     28 0
 S   3 1.00       0.000000000000
      0.1873113696D+02  0.3349460434D-01
      0.2825394365D+01  0.2347269535D+00
      0.6401216923D+00  0.8137573261D+00
 S   1 1.00       0.000000000000
      0.1612777588D+00  0.1000000000D+01
 ****
     29 0
 S   6 1.00       0.000000000000
      0.3047524880D+04  0.1834737132D-02
      0.4573695180D+03  0.1403732281D-01
      0.1039486850D+03  0.6884262226D-01
      0.2921015530D+02  0.2321844432D+00
      0.9286662960D+01  0.4679413484D+00
      0.3163926960D+01  0.3623119853D+00
 SP   3 1.00       0.000000000000
      0.7868272350D+01 -0.1193324198D+00  0.6899906659D-01
      0.1881288540D+01 -0.1608541517D+00  0.3164239610D+00
      0.5442492580D+00  0.1143456438D+01  0.7443082909D+00
 SP   1 1.00       0.000000000000
      0.1687144782D+00  0.1000000000D+01  0.1000000000D+01
 D   1 1.00       0.000000000000
      0.8000000000D+00  0.1000000000D+01
 ****
     30 0
 S   3 1.00       0.000000000000
      0.1873113696D+02  0.3349460434D-01
      0.2825394365D+01  0.2347269535D+00
      0.6401216923D+00  0.8137573261D+00
 S   1 1.00       0.000000000000
      0.1612777588D+00  0.1000000000D+01
 ****
     31 0
 S   6 1.00       0.000000000000
      0.3047524880D+04  0.1834737132D-02
      0.4573695180D+03  0.1403732281D-01
      0.1039486850D+03  0.6884262226D-01
      0.2921015530D+02  0.2321844432D+00
      0.9286662960D+01  0.4679413484D+00
      0.3163926960D+01  0.3623119853D+00
 SP   3 1.00       0.000000000000
      0.7868272350D+01 -0.1193324198D+00  0.6899906659D-01
      0.1881288540D+01 -0.1608541517D+00  0.3164239610D+00
      0.5442492580D+00  0.1143456438D+01  0.7443082909D+00
 SP   1 1.00       0.000000000000
      0.1687144782D+00  0.1000000000D+01  0.1000000000D+01
 D   1 1.00       0.000000000000
      0.8000000000D+00  0.1000000000D+01
 ****
     32 0
 S   3 1.00       0.000000000000
      0.1873113696D+02  0.3349460434D-01
      0.2825394365D+01  0.2347269535D+00
      0.6401216923D+00  0.8137573261D+00
 S   1 1.00       0.000000000000
      0.1612777588D+00  0.1000000000D+01
 ****
     33 0
 S   3 1.00       0.000000000000
      0.1873113696D+02  0.3349460434D-01
      0.2825394365D+01  0.2347269535D+00
      0.6401216923D+00  0.8137573261D+00
 S   1 1.00       0.000000000000
      0.1612777588D+00  0.1000000000D+01
 ****
     34 0
 S   3 1.00       0.000000000000
      0.1873113696D+02  0.3349460434D-01
      0.2825394365D+01  0.2347269535D+00
      0.6401216923D+00  0.8137573261D+00
 S   1 1.00       0.000000000000
      0.1612777588D+00  0.1000000000D+01
 ****
     35 0
 S   6 1.00       0.000000000000
      0.3047524880D+04  0.1834737132D-02
      0.4573695180D+03  0.1403732281D-01
      0.1039486850D+03  0.6884262226D-01
      0.2921015530D+02  0.2321844432D+00
      0.9286662960D+01  0.4679413484D+00
      0.3163926960D+01  0.3623119853D+00
 SP   3 1.00       0.000000000000
      0.7868272350D+01 -0.1193324198D+00  0.6899906659D-01
      0.1881288540D+01 -0.1608541517D+00  0.3164239610D+00
      0.5442492580D+00  0.1143456438D+01  0.7443082909D+00
 SP   1 1.00       0.000000000000
      0.1687144782D+00  0.1000000000D+01  0.1000000000D+01
 D   1 1.00       0.000000000000
      0.8000000000D+00  0.1000000000D+01
 ****
     36 0
 S   6 1.00       0.000000000000
      0.3047524880D+04  0.1834737132D-02
      0.4573695180D+03  0.1403732281D-01
      0.1039486850D+03  0.6884262226D-01
      0.2921015530D+02  0.2321844432D+00
      0.9286662960D+01  0.4679413484D+00
      0.3163926960D+01  0.3623119853D+00
 SP   3 1.00       0.000000000000
      0.7868272350D+01 -0.1193324198D+00  0.6899906659D-01
      0.1881288540D+01 -0.1608541517D+00  0.3164239610D+00
      0.5442492580D+00  0.1143456438D+01  0.7443082909D+00
 SP   1 1.00       0.000000000000
      0.1687144782D+00  0.1000000000D+01  0.1000000000D+01
 D   1 1.00       0.000000000000
      0.8000000000D+00  0.1000000000D+01
 ****
     37 0
 S   3 1.00       0.000000000000
      0.1873113696D+02  0.3349460434D-01
      0.2825394365D+01  0.2347269535D+00
      0.6401216923D+00  0.8137573261D+00
 S   1 1.00       0.000000000000
      0.1612777588D+00  0.1000000000D+01
 ****
     38 0
 S   3 1.00       0.000000000000
      0.1873113696D+02  0.3349460434D-01
      0.2825394365D+01  0.2347269535D+00
      0.6401216923D+00  0.8137573261D+00
 S   1 1.00       0.000000000000
      0.1612777588D+00  0.1000000000D+01
 ****
     39 0
 S   6 1.00       0.000000000000
      0.3047524880D+04  0.1834737132D-02
      0.4573695180D+03  0.1403732281D-01
      0.1039486850D+03  0.6884262226D-01
      0.2921015530D+02  0.2321844432D+00
      0.9286662960D+01  0.4679413484D+00
      0.3163926960D+01  0.3623119853D+00
 SP   3 1.00       0.000000000000
      0.7868272350D+01 -0.1193324198D+00  0.6899906659D-01
      0.1881288540D+01 -0.1608541517D+00  0.3164239610D+00
      0.5442492580D+00  0.1143456438D+01  0.7443082909D+00
 SP   1 1.00       0.000000000000
      0.1687144782D+00  0.1000000000D+01  0.1000000000D+01
 D   1 1.00       0.000000000000
      0.8000000000D+00  0.1000000000D+01
 ****
     40 0
 S   3 1.00       0.000000000000
      0.1873113696D+02  0.3349460434D-01
      0.2825394365D+01  0.2347269535D+00
      0.6401216923D+00  0.8137573261D+00
 S   1 1.00       0.000000000000
      0.1612777588D+00  0.1000000000D+01
 ****
     41 0
 S   6 1.00       0.000000000000
      0.3047524880D+04  0.1834737132D-02
      0.4573695180D+03  0.1403732281D-01
      0.1039486850D+03  0.6884262226D-01
      0.2921015530D+02  0.2321844432D+00
      0.9286662960D+01  0.4679413484D+00
      0.3163926960D+01  0.3623119853D+00
 SP   3 1.00       0.000000000000
      0.7868272350D+01 -0.1193324198D+00  0.6899906659D-01
      0.1881288540D+01 -0.1608541517D+00  0.3164239610D+00
      0.5442492580D+00  0.1143456438D+01  0.7443082909D+00
 SP   1 1.00       0.000000000000
      0.1687144782D+00  0.1000000000D+01  0.1000000000D+01
 D   1 1.00       0.000000000000
      0.8000000000D+00  0.1000000000D+01
 ****
     42 0
 S   3 1.00       0.000000000000
      0.1873113696D+02  0.3349460434D-01
      0.2825394365D+01  0.2347269535D+00
      0.6401216923D+00  0.8137573261D+00
 S   1 1.00       0.000000000000
      0.1612777588D+00  0.1000000000D+01
 ****
     43 0
 S   3 1.00       0.000000000000
      0.1873113696D+02  0.3349460434D-01
      0.2825394365D+01  0.2347269535D+00
      0.6401216923D+00  0.8137573261D+00
 S   1 1.00       0.000000000000
      0.1612777588D+00  0.1000000000D+01
 ****
     44 0
 S   3 1.00       0.000000000000
      0.1873113696D+02  0.3349460434D-01
      0.2825394365D+01  0.2347269535D+00
      0.6401216923D+00  0.8137573261D+00
 S   1 1.00       0.000000000000
      0.1612777588D+00  0.1000000000D+01
 ****
     45 0
 S   6 1.00       0.000000000000
      0.3047524880D+04  0.1834737132D-02
      0.4573695180D+03  0.1403732281D-01
      0.1039486850D+03  0.6884262226D-01
      0.2921015530D+02  0.2321844432D+00
      0.9286662960D+01  0.4679413484D+00
      0.3163926960D+01  0.3623119853D+00
 SP   3 1.00       0.000000000000
      0.7868272350D+01 -0.1193324198D+00  0.6899906659D-01
      0.1881288540D+01 -0.1608541517D+00  0.3164239610D+00
      0.5442492580D+00  0.1143456438D+01  0.7443082909D+00
 SP   1 1.00       0.000000000000
      0.1687144782D+00  0.1000000000D+01  0.1000000000D+01
 D   1 1.00       0.000000000000
      0.8000000000D+00  0.1000000000D+01
 ****
     46 0
 S   3 1.00       0.000000000000
      0.1873113696D+02  0.3349460434D-01
      0.2825394365D+01  0.2347269535D+00
      0.6401216923D+00  0.8137573261D+00
 S   1 1.00       0.000000000000
      0.1612777588D+00  0.1000000000D+01
 ****
     47 0
 S   3 1.00       0.000000000000
      0.1873113696D+02  0.3349460434D-01
      0.2825394365D+01  0.2347269535D+00
      0.6401216923D+00  0.8137573261D+00
 S   1 1.00       0.000000000000
      0.1612777588D+00  0.1000000000D+01
 ****
     48 0
 S   6 1.00       0.000000000000
      0.3047524880D+04  0.1834737132D-02
      0.4573695180D+03  0.1403732281D-01
      0.1039486850D+03  0.6884262226D-01
      0.2921015530D+02  0.2321844432D+00
      0.9286662960D+01  0.4679413484D+00
      0.3163926960D+01  0.3623119853D+00
 SP   3 1.00       0.000000000000
      0.7868272350D+01 -0.1193324198D+00  0.6899906659D-01
      0.1881288540D+01 -0.1608541517D+00  0.3164239610D+00
      0.5442492580D+00  0.1143456438D+01  0.7443082909D+00
 SP   1 1.00       0.000000000000
      0.1687144782D+00  0.1000000000D+01  0.1000000000D+01
 D   1 1.00       0.000000000000
      0.8000000000D+00  0.1000000000D+01
 ****
     49 0
 S   3 1.00       0.000000000000
      0.1873113696D+02  0.3349460434D-01
      0.2825394365D+01  0.2347269535D+00
      0.6401216923D+00  0.8137573261D+00
 S   1 1.00       0.000000000000
      0.1612777588D+00  0.1000000000D+01
 ****
     50 0
 S   3 1.00       0.000000000000
      0.1873113696D+02  0.3349460434D-01
      0.2825394365D+01  0.2347269535D+00
      0.6401216923D+00  0.8137573261D+00
 S   1 1.00       0.000000000000
      0.1612777588D+00  0.1000000000D+01
 ****
     51 0
 S   6 1.00       0.000000000000
      0.3047524880D+04  0.1834737132D-02
      0.4573695180D+03  0.1403732281D-01
      0.1039486850D+03  0.6884262226D-01
      0.2921015530D+02  0.2321844432D+00
      0.9286662960D+01  0.4679413484D+00
      0.3163926960D+01  0.3623119853D+00
 SP   3 1.00       0.000000000000
      0.7868272350D+01 -0.1193324198D+00  0.6899906659D-01
      0.1881288540D+01 -0.1608541517D+00  0.3164239610D+00
      0.5442492580D+00  0.1143456438D+01  0.7443082909D+00
 SP   1 1.00       0.000000000000
      0.1687144782D+00  0.1000000000D+01  0.1000000000D+01
 D   1 1.00       0.000000000000
      0.8000000000D+00  0.1000000000D+01
 ****
     52 0
 S   3 1.00       0.000000000000
      0.1873113696D+02  0.3349460434D-01
      0.2825394365D+01  0.2347269535D+00
      0.6401216923D+00  0.8137573261D+00
 S   1 1.00       0.000000000000
      0.1612777588D+00  0.1000000000D+01
 ****
     53 0
 S   3 1.00       0.000000000000
      0.1873113696D+02  0.3349460434D-01
      0.2825394365D+01  0.2347269535D+00
      0.6401216923D+00  0.8137573261D+00
 S   1 1.00       0.000000000000
      0.1612777588D+00  0.1000000000D+01
 ****
     54 0
 S   6 1.00       0.000000000000
      0.3047524880D+04  0.1834737132D-02
      0.4573695180D+03  0.1403732281D-01
      0.1039486850D+03  0.6884262226D-01
      0.2921015530D+02  0.2321844432D+00
      0.9286662960D+01  0.4679413484D+00
      0.3163926960D+01  0.3623119853D+00
 SP   3 1.00       0.000000000000
      0.7868272350D+01 -0.1193324198D+00  0.6899906659D-01
      0.1881288540D+01 -0.1608541517D+00  0.3164239610D+00
      0.5442492580D+00  0.1143456438D+01  0.7443082909D+00
 SP   1 1.00       0.000000000000
      0.1687144782D+00  0.1000000000D+01  0.1000000000D+01
 D   1 1.00       0.000000000000
      0.8000000000D+00  0.1000000000D+01
 ****
     55 0
 S   3 1.00       0.000000000000
      0.1873113696D+02  0.3349460434D-01
      0.2825394365D+01  0.2347269535D+00
      0.6401216923D+00  0.8137573261D+00
 S   1 1.00       0.000000000000
      0.1612777588D+00  0.1000000000D+01
 ****
     56 0
 S   6 1.00       0.000000000000
      0.3047524880D+04  0.1834737132D-02
      0.4573695180D+03  0.1403732281D-01
      0.1039486850D+03  0.6884262226D-01
      0.2921015530D+02  0.2321844432D+00
      0.9286662960D+01  0.4679413484D+00
      0.3163926960D+01  0.3623119853D+00
 SP   3 1.00       0.000000000000
      0.7868272350D+01 -0.1193324198D+00  0.6899906659D-01
      0.1881288540D+01 -0.1608541517D+00  0.3164239610D+00
      0.5442492580D+00  0.1143456438D+01  0.7443082909D+00
 SP   1 1.00       0.000000000000
      0.1687144782D+00  0.1000000000D+01  0.1000000000D+01
 D   1 1.00       0.000000000000
      0.8000000000D+00  0.1000000000D+01
 ****
     57 0
 S   3 1.00       0.000000000000
      0.1873113696D+02  0.3349460434D-01
      0.2825394365D+01  0.2347269535D+00
      0.6401216923D+00  0.8137573261D+00
 S   1 1.00       0.000000000000
      0.1612777588D+00  0.1000000000D+01
 ****
     58 0
 S   3 1.00       0.000000000000
      0.1873113696D+02  0.3349460434D-01
      0.2825394365D+01  0.2347269535D+00
      0.6401216923D+00  0.8137573261D+00
 S   1 1.00       0.000000000000
      0.1612777588D+00  0.1000000000D+01
 ****
     59 0
 S   3 1.00       0.000000000000
      0.1873113696D+02  0.3349460434D-01
      0.2825394365D+01  0.2347269535D+00
      0.6401216923D+00  0.8137573261D+00
 S   1 1.00       0.000000000000
      0.1612777588D+00  0.1000000000D+01
 ****
     60 0
 S   6 1.00       0.000000000000
      0.3047524880D+04  0.1834737132D-02
      0.4573695180D+03  0.1403732281D-01
      0.1039486850D+03  0.6884262226D-01
      0.2921015530D+02  0.2321844432D+00
      0.9286662960D+01  0.4679413484D+00
      0.3163926960D+01  0.3623119853D+00
 SP   3 1.00       0.000000000000
      0.7868272350D+01 -0.1193324198D+00  0.6899906659D-01
      0.1881288540D+01 -0.1608541517D+00  0.3164239610D+00
      0.5442492580D+00  0.1143456438D+01  0.7443082909D+00
 SP   1 1.00       0.000000000000
      0.1687144782D+00  0.1000000000D+01  0.1000000000D+01
 D   1 1.00       0.000000000000
      0.8000000000D+00  0.1000000000D+01
 ****
     61 0
 S   3 1.00       0.000000000000
      0.1873113696D+02  0.3349460434D-01
      0.2825394365D+01  0.2347269535D+00
      0.6401216923D+00  0.8137573261D+00
 S   1 1.00       0.000000000000
      0.1612777588D+00  0.1000000000D+01
 ****
     62 0
 S   3 1.00       0.000000000000
      0.1873113696D+02  0.3349460434D-01
      0.2825394365D+01  0.2347269535D+00
      0.6401216923D+00  0.8137573261D+00
 S   1 1.00       0.000000000000
      0.1612777588D+00  0.1000000000D+01
 ****
     63 0
 S   6 1.00       0.000000000000
      0.3047524880D+04  0.1834737132D-02
      0.4573695180D+03  0.1403732281D-01
      0.1039486850D+03  0.6884262226D-01
      0.2921015530D+02  0.2321844432D+00
      0.9286662960D+01  0.4679413484D+00
      0.3163926960D+01  0.3623119853D+00
 SP   3 1.00       0.000000000000
      0.7868272350D+01 -0.1193324198D+00  0.6899906659D-01
      0.1881288540D+01 -0.1608541517D+00  0.3164239610D+00
      0.5442492580D+00  0.1143456438D+01  0.7443082909D+00
 SP   1 1.00       0.000000000000
      0.1687144782D+00  0.1000000000D+01  0.1000000000D+01
 D   1 1.00       0.000000000000
      0.8000000000D+00  0.1000000000D+01
 ****
     64 0
 S   3 1.00       0.000000000000
      0.1873113696D+02  0.3349460434D-01
      0.2825394365D+01  0.2347269535D+00
      0.6401216923D+00  0.8137573261D+00
 S   1 1.00       0.000000000000
      0.1612777588D+00  0.1000000000D+01
 ****
     65 0
 S   3 1.00       0.000000000000
      0.1873113696D+02  0.3349460434D-01
      0.2825394365D+01  0.2347269535D+00
      0.6401216923D+00  0.8137573261D+00
 S   1 1.00       0.000000000000
      0.1612777588D+00  0.1000000000D+01
 ****
     66 0
 S   6 1.00       0.000000000000
      0.3047524880D+04  0.1834737132D-02
      0.4573695180D+03  0.1403732281D-01
      0.1039486850D+03  0.6884262226D-01
      0.2921015530D+02  0.2321844432D+00
      0.9286662960D+01  0.4679413484D+00
      0.3163926960D+01  0.3623119853D+00
 SP   3 1.00       0.000000000000
      0.7868272350D+01 -0.1193324198D+00  0.6899906659D-01
      0.1881288540D+01 -0.1608541517D+00  0.3164239610D+00
      0.5442492580D+00  0.1143456438D+01  0.7443082909D+00
 SP   1 1.00       0.000000000000
      0.1687144782D+00  0.1000000000D+01  0.1000000000D+01
 D   1 1.00       0.000000000000
      0.8000000000D+00  0.1000000000D+01
 ****
     67 0
 S   3 1.00       0.000000000000
      0.1873113696D+02  0.3349460434D-01
      0.2825394365D+01  0.2347269535D+00
      0.6401216923D+00  0.8137573261D+00
 S   1 1.00       0.000000000000
      0.1612777588D+00  0.1000000000D+01
 ****
     68 0
 S   6 1.00       0.000000000000
      0.3047524880D+04  0.1834737132D-02
      0.4573695180D+03  0.1403732281D-01
      0.1039486850D+03  0.6884262226D-01
      0.2921015530D+02  0.2321844432D+00
      0.9286662960D+01  0.4679413484D+00
      0.3163926960D+01  0.3623119853D+00
 SP   3 1.00       0.000000000000
      0.7868272350D+01 -0.1193324198D+00  0.6899906659D-01
      0.1881288540D+01 -0.1608541517D+00  0.3164239610D+00
      0.5442492580D+00  0.1143456438D+01  0.7443082909D+00
 SP   1 1.00       0.000000000000
      0.1687144782D+00  0.1000000000D+01  0.1000000000D+01
 D   1 1.00       0.000000000000
      0.8000000000D+00  0.1000000000D+01
 ****
     69 0
 S   3 1.00       0.000000000000
      0.1873113696D+02  0.3349460434D-01
      0.2825394365D+01  0.2347269535D+00
      0.6401216923D+00  0.8137573261D+00
 S   1 1.00       0.000000000000
      0.1612777588D+00  0.1000000000D+01
 ****
     70 0
 S   3 1.00       0.000000000000
      0.1873113696D+02  0.3349460434D-01
      0.2825394365D+01  0.2347269535D+00
      0.6401216923D+00  0.8137573261D+00
 S   1 1.00       0.000000000000
      0.1612777588D+00  0.1000000000D+01
 ****
     71 0
 S   3 1.00       0.000000000000
      0.1873113696D+02  0.3349460434D-01
      0.2825394365D+01  0.2347269535D+00
      0.6401216923D+00  0.8137573261D+00
 S   1 1.00       0.000000000000
      0.1612777588D+00  0.1000000000D+01
 ****
     72 0
 S   6 1.00       0.000000000000
      0.3047524880D+04  0.1834737132D-02
      0.4573695180D+03  0.1403732281D-01
      0.1039486850D+03  0.6884262226D-01
      0.2921015530D+02  0.2321844432D+00
      0.9286662960D+01  0.4679413484D+00
      0.3163926960D+01  0.3623119853D+00
 SP   3 1.00       0.000000000000
      0.7868272350D+01 -0.1193324198D+00  0.6899906659D-01
      0.1881288540D+01 -0.1608541517D+00  0.3164239610D+00
      0.5442492580D+00  0.1143456438D+01  0.7443082909D+00
 SP   1 1.00       0.000000000000
      0.1687144782D+00  0.1000000000D+01  0.1000000000D+01
 D   1 1.00       0.000000000000
      0.8000000000D+00  0.1000000000D+01
 ****
     73 0
 S   3 1.00       0.000000000000
      0.1873113696D+02  0.3349460434D-01
      0.2825394365D+01  0.2347269535D+00
      0.6401216923D+00  0.8137573261D+00
 S   1 1.00       0.000000000000
      0.1612777588D+00  0.1000000000D+01
 ****
     74 0
 S   3 1.00       0.000000000000
      0.1873113696D+02  0.3349460434D-01
      0.2825394365D+01  0.2347269535D+00
      0.6401216923D+00  0.8137573261D+00
 S   1 1.00       0.000000000000
      0.1612777588D+00  0.1000000000D+01
 ****
     75 0
 S   3 1.00       0.000000000000
      0.1873113696D+02  0.3349460434D-01
      0.2825394365D+01  0.2347269535D+00
      0.6401216923D+00  0.8137573261D+00
 S   1 1.00       0.000000000000
      0.1612777588D+00  0.1000000000D+01
 ****

 AO basis set (Overlap normalization):
 Atom O1       Shell     1 S   6     bf    1 -     1         10.857857437416          6.567767571208          0.000000000000
      0.5484671660D+04  0.1831074430D-02
      0.8252349460D+03  0.1395017220D-01
      0.1880469580D+03  0.6844507810D-01
      0.5296450000D+02  0.2327143360D+00
      0.1689757040D+02  0.4701928980D+00
      0.5799635340D+01  0.3585208530D+00
 Atom O1       Shell     2 SP   3    bf    2 -     5         10.857857437416          6.567767571208          0.000000000000
      0.1553961625D+02 -0.1107775495D+00  0.7087426823D-01
      0.3599933586D+01 -0.1480262627D+00  0.3397528391D+00
      0.1013761750D+01  0.1130767015D+01  0.7271585773D+00
 Atom O1       Shell     3 SP   1    bf    6 -     9         10.857857437416          6.567767571208          0.000000000000
      0.2700058226D+00  0.1000000000D+01  0.1000000000D+01
 Atom O1       Shell     4 D   1     bf   10 -    15         10.857857437416          6.567767571208          0.000000000000
      0.8000000000D+00  0.1000000000D+01
 Atom H2       Shell     5 S   3     bf   16 -    16          9.656109120072          6.259761430063          1.340510245878
      0.1873113696D+02  0.3349460434D-01
      0.2825394365D+01  0.2347269535D+00
      0.6401216923D+00  0.8137573261D+00
 Atom H2       Shell     6 S   1     bf   17 -    17          9.656109120072          6.259761430063          1.340510245878
      0.1612777588D+00  0.1000000000D+01
 Atom O3       Shell     7 S   6     bf   18 -    18          0.000000000000          0.000000000000          0.000000000000
      0.5484671660D+04  0.1831074430D-02
      0.8252349460D+03  0.1395017220D-01
      0.1880469580D+03  0.6844507810D-01
      0.5296450000D+02  0.2327143360D+00
      0.1689757040D+02  0.4701928980D+00
      0.5799635340D+01  0.3585208530D+00
 Atom O3       Shell     8 SP   3    bf   19 -    22          0.000000000000          0.000000000000          0.000000000000
      0.1553961625D+02 -0.1107775495D+00  0.7087426823D-01
      0.3599933586D+01 -0.1480262627D+00  0.3397528391D+00
      0.1013761750D+01  0.1130767015D+01  0.7271585773D+00
 Atom O3       Shell     9 SP   1    bf   23 -    26          0.000000000000          0.000000000000          0.000000000000
      0.2700058226D+00  0.1000000000D+01  0.1000000000D+01
 Atom O3       Shell    10 D   1     bf   27 -    32          0.000000000000          0.000000000000          0.000000000000
      0.8000000000D+00  0.1000000000D+01
 Atom H4       Shell    11 S   3     bf   33 -    33         -0.153390241837         -1.402510327264         -1.162997820031
      0.1873113696D+02  0.3349460434D-01
      0.2825394365D+01  0.2347269535D+00
      0.6401216923D+00  0.8137573261D+00
 Atom H4       Shell    12 S   1     bf   34 -    34         -0.153390241837         -1.402510327264         -1.162997820031
      0.1612777588D+00  0.1000000000D+01
 Atom C5       Shell    13 S   6     bf   35 -    35         16.660221107199          0.781783556216          0.664554584535
      0.3047524880D+04  0.1834737132D-02
      0.4573695180D+03  0.1403732281D-01
      0.1039486850D+03  0.6884262226D-01
      0.2921015530D+02  0.2321844432D+00
      0.9286662960D+01  0.4679413484D+00
      0.3163926960D+01  0.3623119853D+00
 Atom C5       Shell    14 SP   3    bf   36 -    39         16.660221107199          0.781783556216          0.664554584535
      0.7868272350D+01 -0.1193324198D+00  0.6899906659D-01
      0.1881288540D+01 -0.1608541517D+00  0.3164239610D+00
      0.5442492580D+00  0.1143456438D+01  0.7443082909D+00
 Atom C5       Shell    15 SP   1    bf   40 -    43         16.660221107199          0.781783556216          0.664554584535
      0.1687144782D+00  0.1000000000D+01  0.1000000000D+01
 Atom C5       Shell    16 D   1     bf   44 -    49         16.660221107199          0.781783556216          0.664554584535
      0.8000000000D+00  0.1000000000D+01
 Atom C6       Shell    17 S   6     bf   50 -    50         14.904479731875          2.997614474415         -0.130481810023
      0.3047524880D+04  0.1834737132D-02
      0.4573695180D+03  0.1403732281D-01
      0.1039486850D+03  0.6884262226D-01
      0.2921015530D+02  0.2321844432D+00
      0.9286662960D+01  0.4679413484D+00
      0.3163926960D+01  0.3623119853D+00
 Atom C6       Shell    18 SP   3    bf   51 -    54         14.904479731875          2.997614474415         -0.130481810023
      0.7868272350D+01 -0.1193324198D+00  0.6899906659D-01
      0.1881288540D+01 -0.1608541517D+00  0.3164239610D+00
      0.5442492580D+00  0.1143456438D+01  0.7443082909D+00
 Atom C6       Shell    19 SP   1    bf   55 -    58         14.904479731875          2.997614474415         -0.130481810023
      0.1687144782D+00  0.1000000000D+01  0.1000000000D+01
 Atom C6       Shell    20 D   1     bf   59 -    64         14.904479731875          2.997614474415         -0.130481810023
      0.8000000000D+00  0.1000000000D+01
 Atom H7       Shell    21 S   3     bf   65 -    65         14.563896979870          4.083403942807          1.607477884897
      0.1873113696D+02  0.3349460434D-01
      0.2825394365D+01  0.2347269535D+00
      0.6401216923D+00  0.8137573261D+00
 Atom H7       Shell    22 S   1     bf   66 -    66         14.563896979870          4.083403942807          1.607477884897
      0.1612777588D+00  0.1000000000D+01
 Atom C8       Shell    23 S   6     bf   67 -    67         12.288002496037          2.205991246506         -1.092137682082
      0.3047524880D+04  0.1834737132D-02
      0.4573695180D+03  0.1403732281D-01
      0.1039486850D+03  0.6884262226D-01
      0.2921015530D+02  0.2321844432D+00
      0.9286662960D+01  0.4679413484D+00
      0.3163926960D+01  0.3623119853D+00
 Atom C8       Shell    24 SP   3    bf   68 -    71         12.288002496037          2.205991246506         -1.092137682082
      0.7868272350D+01 -0.1193324198D+00  0.6899906659D-01
      0.1881288540D+01 -0.1608541517D+00  0.3164239610D+00
      0.5442492580D+00  0.1143456438D+01  0.7443082909D+00
 Atom C8       Shell    25 SP   1    bf   72 -    75         12.288002496037          2.205991246506         -1.092137682082
      0.1687144782D+00  0.1000000000D+01  0.1000000000D+01
 Atom C8       Shell    26 D   1     bf   76 -    81         12.288002496037          2.205991246506         -1.092137682082
      0.8000000000D+00  0.1000000000D+01
 Atom H9       Shell    27 S   3     bf   82 -    82         12.509651724492          1.110390301135         -2.844050831309
      0.1873113696D+02  0.3349460434D-01
      0.2825394365D+01  0.2347269535D+00
      0.6401216923D+00  0.8137573261D+00
 Atom H9       Shell    28 S   1     bf   83 -    83         12.509651724492          1.110390301135         -2.844050831309
      0.1612777588D+00  0.1000000000D+01
 Atom C10      Shell    29 S   6     bf   84 -    84         10.916722671017          0.560807032470          0.905470043347
      0.3047524880D+04  0.1834737132D-02
      0.4573695180D+03  0.1403732281D-01
      0.1039486850D+03  0.6884262226D-01
      0.2921015530D+02  0.2321844432D+00
      0.9286662960D+01  0.4679413484D+00
      0.3163926960D+01  0.3623119853D+00
 Atom C10      Shell    30 SP   3    bf   85 -    88         10.916722671017          0.560807032470          0.905470043347
      0.7868272350D+01 -0.1193324198D+00  0.6899906659D-01
      0.1881288540D+01 -0.1608541517D+00  0.3164239610D+00
      0.5442492580D+00  0.1143456438D+01  0.7443082909D+00
 Atom C10      Shell    31 SP   1    bf   89 -    92         10.916722671017          0.560807032470          0.905470043347
      0.1687144782D+00  0.1000000000D+01  0.1000000000D+01
 Atom C10      Shell    32 D   1     bf   93 -    98         10.916722671017          0.560807032470          0.905470043347
      0.8000000000D+00  0.1000000000D+01
 Atom H11      Shell    33 S   3     bf   99 -    99         10.493200443752          1.835515767181          2.498775624754
      0.1873113696D+02  0.3349460434D-01
      0.2825394365D+01  0.2347269535D+00
      0.6401216923D+00  0.8137573261D+00
 Atom H11      Shell    34 S   1     bf  100 -   100         10.493200443752          1.835515767181          2.498775624754
      0.1612777588D+00  0.1000000000D+01
 Atom C12      Shell    35 S   6     bf  101 -   101         19.076470010675          2.314159472709          1.437663466322
      0.3047524880D+04  0.1834737132D-02
      0.4573695180D+03  0.1403732281D-01
      0.1039486850D+03  0.6884262226D-01
      0.2921015530D+02  0.2321844432D+00
      0.9286662960D+01  0.4679413484D+00
      0.3163926960D+01  0.3623119853D+00
 Atom C12      Shell    36 SP   3    bf  102 -   105         19.076470010675          2.314159472709          1.437663466322
      0.7868272350D+01 -0.1193324198D+00  0.6899906659D-01
      0.1881288540D+01 -0.1608541517D+00  0.3164239610D+00
      0.5442492580D+00  0.1143456438D+01  0.7443082909D+00
 Atom C12      Shell    37 SP   1    bf  106 -   109         19.076470010675          2.314159472709          1.437663466322
      0.1687144782D+00  0.1000000000D+01  0.1000000000D+01
 Atom C12      Shell    38 D   1     bf  110 -   115         19.076470010675          2.314159472709          1.437663466322
      0.8000000000D+00  0.1000000000D+01
 Atom H13      Shell    39 S   3     bf  116 -   116         18.601788418342          3.228539196826          3.242660345430
      0.1873113696D+02  0.3349460434D-01
      0.2825394365D+01  0.2347269535D+00
      0.6401216923D+00  0.8137573261D+00
 Atom H13      Shell    40 S   1     bf  117 -   117         18.601788418342          3.228539196826          3.242660345430
      0.1612777588D+00  0.1000000000D+01
 Atom C14      Shell    41 S   6     bf  118 -   118         15.279586608698         -0.632472496107          2.806402044330
      0.3047524880D+04  0.1834737132D-02
      0.4573695180D+03  0.1403732281D-01
      0.1039486850D+03  0.6884262226D-01
      0.2921015530D+02  0.2321844432D+00
      0.9286662960D+01  0.4679413484D+00
      0.3163926960D+01  0.3623119853D+00
 Atom C14      Shell    42 SP   3    bf  119 -   122         15.279586608698         -0.632472496107          2.806402044330
      0.7868272350D+01 -0.1193324198D+00  0.6899906659D-01
      0.1881288540D+01 -0.1608541517D+00  0.3164239610D+00
      0.5442492580D+00  0.1143456438D+01  0.7443082909D+00
 Atom C14      Shell    43 SP   1    bf  123 -   126         15.279586608698         -0.632472496107          2.806402044330
      0.1687144782D+00  0.1000000000D+01  0.1000000000D+01
 Atom C14      Shell    44 D   1     bf  127 -   132         15.279586608698         -0.632472496107          2.806402044330
      0.8000000000D+00  0.1000000000D+01
 Atom H15      Shell    45 S   3     bf  133 -   133         15.091944589374          0.646024402508          4.433481434794
      0.1873113696D+02  0.3349460434D-01
      0.2825394365D+01  0.2347269535D+00
      0.6401216923D+00  0.8137573261D+00
 Atom H15      Shell    46 S   1     bf  134 -   134         15.091944589374          0.646024402508          4.433481434794
      0.1612777588D+00  0.1000000000D+01
 Atom H16      Shell    47 S   3     bf  135 -   135         16.356312988351         -2.271065950104          3.466793448811
      0.1873113696D+02  0.3349460434D-01
      0.2825394365D+01  0.2347269535D+00
      0.6401216923D+00  0.8137573261D+00
 Atom H16      Shell    48 S   1     bf  136 -   136         16.356312988351         -2.271065950104          3.466793448811
      0.1612777588D+00  0.1000000000D+01
 Atom C17      Shell    49 S   6     bf  137 -   137          8.294397791045         -0.433016003487         -0.057544485110
      0.3047524880D+04  0.1834737132D-02
      0.4573695180D+03  0.1403732281D-01
      0.1039486850D+03  0.6884262226D-01
      0.2921015530D+02  0.2321844432D+00
      0.9286662960D+01  0.4679413484D+00
      0.3163926960D+01  0.3623119853D+00
 Atom C17      Shell    50 SP   3    bf  138 -   141          8.294397791045         -0.433016003487         -0.057544485110
      0.7868272350D+01 -0.1193324198D+00  0.6899906659D-01
      0.1881288540D+01 -0.1608541517D+00  0.3164239610D+00
      0.5442492580D+00  0.1143456438D+01  0.7443082909D+00
 Atom C17      Shell    51 SP   1    bf  142 -   145          8.294397791045         -0.433016003487         -0.057544485110
      0.1687144782D+00  0.1000000000D+01  0.1000000000D+01
 Atom C17      Shell    52 D   1     bf  146 -   151          8.294397791045         -0.433016003487         -0.057544485110
      0.8000000000D+00  0.1000000000D+01
 Atom C18      Shell    53 S   6     bf  152 -   152         16.563402954096          4.679490366938         -1.815743543756
      0.3047524880D+04  0.1834737132D-02
      0.4573695180D+03  0.1403732281D-01
      0.1039486850D+03  0.6884262226D-01
      0.2921015530D+02  0.2321844432D+00
      0.9286662960D+01  0.4679413484D+00
      0.3163926960D+01  0.3623119853D+00
 Atom C18      Shell    54 SP   3    bf  153 -   156         16.563402954096          4.679490366938         -1.815743543756
      0.7868272350D+01 -0.1193324198D+00  0.6899906659D-01
      0.1881288540D+01 -0.1608541517D+00  0.3164239610D+00
      0.5442492580D+00  0.1143456438D+01  0.7443082909D+00
 Atom C18      Shell    55 SP   1    bf  157 -   160         16.563402954096          4.679490366938         -1.815743543756
      0.1687144782D+00  0.1000000000D+01  0.1000000000D+01
 Atom C18      Shell    56 D   1     bf  161 -   166         16.563402954096          4.679490366938         -1.815743543756
      0.8000000000D+00  0.1000000000D+01
 Atom H19      Shell    57 S   3     bf  167 -   167         15.898413260119          6.635909338115         -1.839109705033
      0.1873113696D+02  0.3349460434D-01
      0.2825394365D+01  0.2347269535D+00
      0.6401216923D+00  0.8137573261D+00
 Atom H19      Shell    58 S   1     bf  168 -   168         15.898413260119          6.635909338115         -1.839109705033
      0.1612777588D+00  0.1000000000D+01
 Atom H20      Shell    59 S   3     bf  169 -   169         16.550823028332          4.008287895943         -3.778336817127
      0.1873113696D+02  0.3349460434D-01
      0.2825394365D+01  0.2347269535D+00
      0.6401216923D+00  0.8137573261D+00
 Atom H20      Shell    60 S   1     bf  170 -   170         16.550823028332          4.008287895943         -3.778336817127
      0.1612777588D+00  0.1000000000D+01
 Atom C21      Shell    61 S   6     bf  171 -   171         12.639701278560         -1.546200737141          1.973223644273
      0.3047524880D+04  0.1834737132D-02
      0.4573695180D+03  0.1403732281D-01
      0.1039486850D+03  0.6884262226D-01
      0.2921015530D+02  0.2321844432D+00
      0.9286662960D+01  0.4679413484D+00
      0.3163926960D+01  0.3623119853D+00
 Atom C21      Shell    62 SP   3    bf  172 -   175         12.639701278560         -1.546200737141          1.973223644273
      0.7868272350D+01 -0.1193324198D+00  0.6899906659D-01
      0.1881288540D+01 -0.1608541517D+00  0.3164239610D+00
      0.5442492580D+00  0.1143456438D+01  0.7443082909D+00
 Atom C21      Shell    63 SP   1    bf  176 -   179         12.639701278560         -1.546200737141          1.973223644273
      0.1687144782D+00  0.1000000000D+01  0.1000000000D+01
 Atom C21      Shell    64 D   1     bf  180 -   185         12.639701278560         -1.546200737141          1.973223644273
      0.8000000000D+00  0.1000000000D+01
 Atom H22      Shell    65 S   3     bf  186 -   186         12.883062704392         -3.036649488896          0.558998829122
      0.1873113696D+02  0.3349460434D-01
      0.2825394365D+01  0.2347269535D+00
      0.6401216923D+00  0.8137573261D+00
 Atom H22      Shell    66 S   1     bf  187 -   187         12.883062704392         -3.036649488896          0.558998829122
      0.1612777588D+00  0.1000000000D+01
 Atom H23      Shell    67 S   3     bf  188 -   188         11.714195886321         -2.446496596952          3.593041081770
      0.1873113696D+02  0.3349460434D-01
      0.2825394365D+01  0.2347269535D+00
      0.6401216923D+00  0.8137573261D+00
 Atom H23      Shell    68 S   1     bf  189 -   189         11.714195886321         -2.446496596952          3.593041081770
      0.1612777588D+00  0.1000000000D+01
 Atom C24      Shell    69 S   6     bf  190 -   190         19.239722676508          4.417175970651         -0.634575175478
      0.3047524880D+04  0.1834737132D-02
      0.4573695180D+03  0.1403732281D-01
      0.1039486850D+03  0.6884262226D-01
      0.2921015530D+02  0.2321844432D+00
      0.9286662960D+01  0.4679413484D+00
      0.3163926960D+01  0.3623119853D+00
 Atom C24      Shell    70 SP   3    bf  191 -   194         19.239722676508          4.417175970651         -0.634575175478
      0.7868272350D+01 -0.1193324198D+00  0.6899906659D-01
      0.1881288540D+01 -0.1608541517D+00  0.3164239610D+00
      0.5442492580D+00  0.1143456438D+01  0.7443082909D+00
 Atom C24      Shell    71 SP   1    bf  195 -   198         19.239722676508          4.417175970651         -0.634575175478
      0.1687144782D+00  0.1000000000D+01  0.1000000000D+01
 Atom C24      Shell    72 D   1     bf  199 -   204         19.239722676508          4.417175970651         -0.634575175478
      0.8000000000D+00  0.1000000000D+01
 Atom H25      Shell    73 S   3     bf  205 -   205         20.631870425960          3.895981226201         -2.078152199582
      0.1873113696D+02  0.3349460434D-01
      0.2825394365D+01  0.2347269535D+00
      0.6401216923D+00  0.8137573261D+00
 Atom H25      Shell    74 S   1     bf  206 -   206         20.631870425960          3.895981226201         -2.078152199582
      0.1612777588D+00  0.1000000000D+01
 Atom H26      Shell    75 S   3     bf  207 -   207         19.888126924518          6.205587101436          0.177404371307
      0.1873113696D+02  0.3349460434D-01
      0.2825394365D+01  0.2347269535D+00
      0.6401216923D+00  0.8137573261D+00
 Atom H26      Shell    76 S   1     bf  208 -   208         19.888126924518          6.205587101436          0.177404371307
      0.1612777588D+00  0.1000000000D+01
 Atom C27      Shell    77 S   6     bf  209 -   209         10.661513833963          4.520126398439         -1.802529029059
      0.3047524880D+04  0.1834737132D-02
      0.4573695180D+03  0.1403732281D-01
      0.1039486850D+03  0.6884262226D-01
      0.2921015530D+02  0.2321844432D+00
      0.9286662960D+01  0.4679413484D+00
      0.3163926960D+01  0.3623119853D+00
 Atom C27      Shell    78 SP   3    bf  210 -   213         10.661513833963          4.520126398439         -1.802529029059
      0.7868272350D+01 -0.1193324198D+00  0.6899906659D-01
      0.1881288540D+01 -0.1608541517D+00  0.3164239610D+00
      0.5442492580D+00  0.1143456438D+01  0.7443082909D+00
 Atom C27      Shell    79 SP   1    bf  214 -   217         10.661513833963          4.520126398439         -1.802529029059
      0.1687144782D+00  0.1000000000D+01  0.1000000000D+01
 Atom C27      Shell    80 D   1     bf  218 -   223         10.661513833963          4.520126398439         -1.802529029059
      0.8000000000D+00  0.1000000000D+01
 Atom H28      Shell    81 S   3     bf  224 -   224         11.415927522836          5.342015820243         -3.547693115889
      0.1873113696D+02  0.3349460434D-01
      0.2825394365D+01  0.2347269535D+00
      0.6401216923D+00  0.8137573261D+00
 Atom H28      Shell    82 S   1     bf  225 -   225         11.415927522836          5.342015820243         -3.547693115889
      0.1612777588D+00  0.1000000000D+01
 Atom C29      Shell    83 S   6     bf  226 -   226         21.616935941893          0.908463823075          1.808818585650
      0.3047524880D+04  0.1834737132D-02
      0.4573695180D+03  0.1403732281D-01
      0.1039486850D+03  0.6884262226D-01
      0.2921015530D+02  0.2321844432D+00
      0.9286662960D+01  0.4679413484D+00
      0.3163926960D+01  0.3623119853D+00
 Atom C29      Shell    84 SP   3    bf  227 -   230         21.616935941893          0.908463823075          1.808818585650
      0.7868272350D+01 -0.1193324198D+00  0.6899906659D-01
      0.1881288540D+01 -0.1608541517D+00  0.3164239610D+00
      0.5442492580D+00  0.1143456438D+01  0.7443082909D+00
 Atom C29      Shell    85 SP   1    bf  231 -   234         21.616935941893          0.908463823075          1.808818585650
      0.1687144782D+00  0.1000000000D+01  0.1000000000D+01
 Atom C29      Shell    86 D   1     bf  235 -   240         21.616935941893          0.908463823075          1.808818585650
      0.8000000000D+00  0.1000000000D+01
 Atom H30      Shell    87 S   3     bf  241 -   241         22.088796267597          0.000000000000          0.000000000000
      0.1873113696D+02  0.3349460434D-01
      0.2825394365D+01  0.2347269535D+00
      0.6401216923D+00  0.8137573261D+00
 Atom H30      Shell    88 S   1     bf  242 -   242         22.088796267597          0.000000000000          0.000000000000
      0.1612777588D+00  0.1000000000D+01
 Atom C31      Shell    89 S   6     bf  243 -   243         17.269613074135         -1.029660199183         -1.544229091380
      0.3047524880D+04  0.1834737132D-02
      0.4573695180D+03  0.1403732281D-01
      0.1039486850D+03  0.6884262226D-01
      0.2921015530D+02  0.2321844432D+00
      0.9286662960D+01  0.4679413484D+00
      0.3163926960D+01  0.3623119853D+00
 Atom C31      Shell    90 SP   3    bf  244 -   247         17.269613074135         -1.029660199183         -1.544229091380
      0.7868272350D+01 -0.1193324198D+00  0.6899906659D-01
      0.1881288540D+01 -0.1608541517D+00  0.3164239610D+00
      0.5442492580D+00  0.1143456438D+01  0.7443082909D+00
 Atom C31      Shell    91 SP   1    bf  248 -   251         17.269613074135         -1.029660199183         -1.544229091380
      0.1687144782D+00  0.1000000000D+01  0.1000000000D+01
 Atom C31      Shell    92 D   1     bf  252 -   257         17.269613074135         -1.029660199183         -1.544229091380
      0.8000000000D+00  0.1000000000D+01
 Atom H32      Shell    93 S   3     bf  258 -   258         15.568353051242         -1.830851696318         -2.398939522325
      0.1873113696D+02  0.3349460434D-01
      0.2825394365D+01  0.2347269535D+00
      0.6401216923D+00  0.8137573261D+00
 Atom H32      Shell    94 S   1     bf  259 -   259         15.568353051242         -1.830851696318         -2.398939522325
      0.1612777588D+00  0.1000000000D+01
 Atom H33      Shell    95 S   3     bf  260 -   260         18.319069552957         -0.082333742445         -3.053189581435
      0.1873113696D+02  0.3349460434D-01
      0.2825394365D+01  0.2347269535D+00
      0.6401216923D+00  0.8137573261D+00
 Atom H33      Shell    96 S   1     bf  261 -   261         18.319069552957         -0.082333742445         -3.053189581435
      0.1612777588D+00  0.1000000000D+01
 Atom H34      Shell    97 S   3     bf  262 -   262         18.427532236286         -2.616577429118         -0.891431400186
      0.1873113696D+02  0.3349460434D-01
      0.2825394365D+01  0.2347269535D+00
      0.6401216923D+00  0.8137573261D+00
 Atom H34      Shell    98 S   1     bf  263 -   263         18.427532236286         -2.616577429118         -0.891431400186
      0.1612777588D+00  0.1000000000D+01
 Atom C35      Shell    99 S   6     bf  264 -   264          6.846045731359          1.682994421421         -1.411198532132
      0.3047524880D+04  0.1834737132D-02
      0.4573695180D+03  0.1403732281D-01
      0.1039486850D+03  0.6884262226D-01
      0.2921015530D+02  0.2321844432D+00
      0.9286662960D+01  0.4679413484D+00
      0.3163926960D+01  0.3623119853D+00
 Atom C35      Shell   100 SP   3    bf  265 -   268          6.846045731359          1.682994421421         -1.411198532132
      0.7868272350D+01 -0.1193324198D+00  0.6899906659D-01
      0.1881288540D+01 -0.1608541517D+00  0.3164239610D+00
      0.5442492580D+00  0.1143456438D+01  0.7443082909D+00
 Atom C35      Shell   101 SP   1    bf  269 -   272          6.846045731359          1.682994421421         -1.411198532132
      0.1687144782D+00  0.1000000000D+01  0.1000000000D+01
 Atom C35      Shell   102 D   1     bf  273 -   278          6.846045731359          1.682994421421         -1.411198532132
      0.8000000000D+00  0.1000000000D+01
 Atom C36      Shell   103 S   6     bf  279 -   279          6.703877647060         -1.303692730528          2.267230864301
      0.3047524880D+04  0.1834737132D-02
      0.4573695180D+03  0.1403732281D-01
      0.1039486850D+03  0.6884262226D-01
      0.2921015530D+02  0.2321844432D+00
      0.9286662960D+01  0.4679413484D+00
      0.3163926960D+01  0.3623119853D+00
 Atom C36      Shell   104 SP   3    bf  280 -   283          6.703877647060         -1.303692730528          2.267230864301
      0.7868272350D+01 -0.1193324198D+00  0.6899906659D-01
      0.1881288540D+01 -0.1608541517D+00  0.3164239610D+00
      0.5442492580D+00  0.1143456438D+01  0.7443082909D+00
 Atom C36      Shell   105 SP   1    bf  284 -   287          6.703877647060         -1.303692730528          2.267230864301
      0.1687144782D+00  0.1000000000D+01  0.1000000000D+01
 Atom C36      Shell   106 D   1     bf  288 -   293          6.703877647060         -1.303692730528          2.267230864301
      0.8000000000D+00  0.1000000000D+01
 Atom H37      Shell   107 S   3     bf  294 -   294          6.795302956417          0.185476128614          3.711754112074
      0.1873113696D+02  0.3349460434D-01
      0.2825394365D+01  0.2347269535D+00
      0.6401216923D+00  0.8137573261D+00
 Atom H37      Shell   108 S   1     bf  295 -   295          6.795302956417          0.185476128614          3.711754112074
      0.1612777588D+00  0.1000000000D+01
 Atom H38      Shell   109 S   3     bf  296 -   296          7.577652882452         -2.983111638928          3.103829895427
      0.1873113696D+02  0.3349460434D-01
      0.2825394365D+01  0.2347269535D+00
      0.6401216923D+00  0.8137573261D+00
 Atom H38      Shell   110 S   1     bf  297 -   297          7.577652882452         -2.983111638928          3.103829895427
      0.1612777588D+00  0.1000000000D+01
 Atom C39      Shell   111 S   6     bf  298 -   298          7.932776075495          3.844205167906         -2.180486293192
      0.3047524880D+04  0.1834737132D-02
      0.4573695180D+03  0.1403732281D-01
      0.1039486850D+03  0.6884262226D-01
      0.2921015530D+02  0.2321844432D+00
      0.9286662960D+01  0.4679413484D+00
      0.3163926960D+01  0.3623119853D+00
 Atom C39      Shell   112 SP   3    bf  299 -   302          7.932776075495          3.844205167906         -2.180486293192
      0.7868272350D+01 -0.1193324198D+00  0.6899906659D-01
      0.1881288540D+01 -0.1608541517D+00  0.3164239610D+00
      0.5442492580D+00  0.1143456438D+01  0.7443082909D+00
 Atom C39      Shell   113 SP   1    bf  303 -   306          7.932776075495          3.844205167906         -2.180486293192
      0.1687144782D+00  0.1000000000D+01  0.1000000000D+01
 Atom C39      Shell   114 D   1     bf  307 -   312          7.932776075495          3.844205167906         -2.180486293192
      0.8000000000D+00  0.1000000000D+01
[...]
 **** Fit       0.000465
 **** Fit       0.000122
 **** Fit       0.000726
 **** Fit       0.001003
 **** Fit       0.001293
 **** Fit       0.001563
 **** Fit       0.001774
 **** Fit       0.001896
 **** Fit       0.001904
 **** Fit       0.001781
 **** Fit       0.001525
 **** Fit       0.001164
 **** Fit       0.000752
 **** Fit       0.000350
 **** Fit       0.000005
 **** Fit       0.000227
 **** Fit       0.000466
 **** Fit       0.000784
 **** Fit       0.001160
 **** Fit       0.001543
 **** Fit       0.001865
 **** Fit       0.002064
 **** Fit       0.002106
 **** Fit       0.001995
 **** Fit       0.001750
 **** Fit       0.001399
 **** Fit       0.000984
 **** Fit       0.000553
 **** Fit       0.000158
 **** Fit      -0.000166
 **** Fit       0.000113
 **** Fit       0.000425
 **** Fit       0.000862
 **** Fit       0.001397
 **** Fit       0.001939
 **** Fit       0.002357
 **** Fit       0.002535
 **** Fit       0.002441
 **** Fit       0.002129
 **** Fit       0.001692
 **** Fit       0.001205
 **** Fit       0.000722
 **** Fit       0.000281
 **** Fit      -0.000090
 **** Fit      -0.000374
 **** Fit      -0.000272
 **** Fit      -0.000045
 **** Fit       0.000354
 **** Fit       0.000960
 **** Fit       0.001745
 **** Fit       0.002562
 **** Fit       0.003163
 **** Fit       0.003325
 **** Fit       0.003011
 **** Fit       0.002385
 **** Fit       0.001662
 **** Fit       0.000988
 **** Fit       0.000421
 **** Fit      -0.000029
 **** Fit      -0.000365
 **** Fit      -0.000599
 **** Fit      -0.000510
 **** Fit      -0.000265
 **** Fit       0.000225
 **** Fit       0.001043
 **** Fit       0.002183
 **** Fit       0.003428
 **** Fit       0.004338
 **** Fit       0.004494
 **** Fit       0.003855
 **** Fit       0.002772
 **** Fit       0.001663
 **** Fit       0.000757
 **** Fit       0.000098
 **** Fit      -0.000353
 **** Fit      -0.000646
 **** Fit      -0.000845
 **** Fit      -0.000796
 **** Fit      -0.000563
 **** Fit      -0.000011
 **** Fit       0.001012
 **** Fit       0.002551
 **** Fit       0.004325
 **** Fit       0.005643
 **** Fit       0.005804
 **** Fit       0.004758
 **** Fit       0.003131
 **** Fit       0.001599
 **** Fit       0.000469
 **** Fit      -0.000257
 **** Fit      -0.000686
 **** Fit      -0.000921
 **** Fit      -0.001100
 **** Fit      -0.001117
 **** Fit      -0.000942
 **** Fit      -0.000404
 **** Fit       0.000713
 **** Fit       0.002517
 **** Fit       0.004699
 **** Fit       0.006356
 **** Fit       0.006524
 **** Fit       0.005145
 **** Fit       0.003103
 **** Fit       0.001289
 **** Fit       0.000052
 **** Fit      -0.000663
 **** Fit      -0.001028
 **** Fit      -0.001184
 **** Fit      -0.001340
 **** Fit      -0.001442
 **** Fit      -0.001376
 **** Fit      -0.000960
 **** Fit       0.000044
 **** Fit       0.001776
 **** Fit       0.003947
 **** Fit       0.004385
 **** Fit       0.002345
 **** Fit       0.000595
 **** Fit      -0.000531
 **** Fit      -0.001122
 **** Fit      -0.001368
 **** Fit      -0.001425
 **** Fit      -0.001535
 **** Fit      -0.001728
 **** Fit      -0.001800
 **** Fit      -0.001593
 **** Fit      -0.000901
 **** Fit       0.000401
 **** Fit       0.002084
 **** Fit       0.003404
 **** Fit       0.003552
 **** Fit       0.002475
 **** Fit       0.000908
 **** Fit      -0.000414
 **** Fit      -0.001221
 **** Fit      -0.001587
 **** Fit      -0.001679
 **** Fit      -0.001628
 **** Fit      -0.001663
 **** Fit      -0.001930
 **** Fit      -0.002134
 **** Fit      -0.002156
 **** Fit      -0.001847
 **** Fit      -0.001120
 **** Fit      -0.000123
 **** Fit       0.000680
 **** Fit       0.000797
 **** Fit       0.000188
 **** Fit      -0.000718
 **** Fit      -0.001464
 **** Fit      -0.001873
 **** Fit      -0.001988
 **** Fit      -0.001924
 **** Fit      -0.001775
 **** Fit      -0.002028
 **** Fit      -0.002325
 **** Fit      -0.002527
 **** Fit      -0.002536
 **** Fit      -0.002291
 **** Fit      -0.001865
 **** Fit      -0.001490
 **** Fit      -0.001408
 **** Fit      -0.001649
 **** Fit      -0.002013
 **** Fit      -0.002278
 **** Fit      -0.002352
 **** Fit      -0.002261
 **** Fit      -0.002075
 **** Fit      -0.002027
 **** Fit      -0.002368
 **** Fit      -0.002673
 **** Fit      -0.002875
 **** Fit      -0.002928
 **** Fit      -0.002851
 **** Fit      -0.002736
 **** Fit      -0.002687
 **** Fit      -0.002722
 **** Fit      -0.002768
 **** Fit      -0.002739
 **** Fit      -0.002605
 **** Fit      -0.002387
 **** Fit      -0.002130
 **** Fit      -0.001955
 **** Fit      -0.002299
 **** Fit      -0.002638
 **** Fit      -0.002925
 **** Fit      -0.003120
 **** Fit      -0.003212
 **** Fit      -0.003228
 **** Fit      -0.003204
 **** Fit      -0.003153
 **** Fit      -0.003055
 **** Fit      -0.002890
 **** Fit      -0.002658
 **** Fit      -0.002385
 **** Fit      -0.002166
 **** Fit      -0.002495
 **** Fit      -0.002799
 **** Fit      -0.003041
 **** Fit      -0.003198
 **** Fit      -0.003269
 **** Fit      -0.003262
 **** Fit      -0.003186
 **** Fit      -0.003042
 **** Fit      -0.002833
 **** Fit      -0.002576
 **** Fit      -0.002307
 **** Fit      -0.002591
 **** Fit      -0.002831
 **** Fit      -0.003001
 **** Fit      -0.003089
 **** Fit      -0.003094
 **** Fit      -0.003019
 **** Fit      -0.002871
 **** Fit      -0.002666
 **** Fit       0.001032
 **** Fit       0.000932
 **** Fit       0.001193
 **** Fit       0.001216
 **** Fit       0.001167
 **** Fit       0.001042
 **** Fit       0.000852
 **** Fit       0.001334
 **** Fit       0.001338
 **** Fit       0.001261
 **** Fit       0.001102
 **** Fit       0.000877
 **** Fit       0.000613
 **** Fit       0.000880
 **** Fit       0.001098
 **** Fit       0.001285
 **** Fit       0.001415
 **** Fit       0.001468
 **** Fit       0.001431
 **** Fit       0.001305
 **** Fit       0.001099
 **** Fit       0.000835
 **** Fit       0.000544
 **** Fit       0.000702
 **** Fit       0.000987
 **** Fit       0.001263
 **** Fit       0.001484
 **** Fit       0.001609
 **** Fit       0.001616
 **** Fit       0.001508
 **** Fit       0.001306
 **** Fit       0.001035
 **** Fit       0.000727
 **** Fit       0.000415
 **** Fit       0.000158
 **** Fit       0.000413
 **** Fit       0.000744
 **** Fit       0.001121
 **** Fit       0.001485
 **** Fit       0.001757
 **** Fit       0.001872
 **** Fit       0.001808
 **** Fit       0.001593
 **** Fit       0.001281
 **** Fit       0.000925
 **** Fit       0.000567
 **** Fit       0.000037
 **** Fit       0.000348
 **** Fit       0.000773
 **** Fit       0.001277
 **** Fit       0.001769
 **** Fit       0.002120
 **** Fit       0.002226
 **** Fit       0.002063
 **** Fit       0.001700
 **** Fit       0.001243
 **** Fit       0.000782
 **** Fit       0.000368
 **** Fit      -0.000344
 **** Fit      -0.000132
 **** Fit       0.000229
 **** Fit       0.000757
 **** Fit       0.001413
 **** Fit       0.002071
 **** Fit       0.002534
 **** Fit       0.002633
 **** Fit       0.002346
 **** Fit       0.001801
 **** Fit       0.001176
 **** Fit       0.000603
 **** Fit       0.000137
 **** Fit      -0.000212
 **** Fit      -0.000564
 **** Fit      -0.000359
 **** Fit       0.000027
 **** Fit       0.000636
 **** Fit       0.001434
 **** Fit       0.002263
 **** Fit       0.002847
 **** Fit       0.002945
 **** Fit       0.002531
 **** Fit       0.001804
 **** Fit       0.001025
 **** Fit       0.000361
 **** Fit      -0.000132
 **** Fit      -0.000467
 **** Fit      -0.000812
 **** Fit      -0.000647
 **** Fit      -0.000281
 **** Fit       0.000344
 **** Fit       0.001210
 **** Fit       0.002140
 **** Fit       0.002804
 **** Fit       0.002901
 **** Fit       0.002404
 **** Fit       0.001569
 **** Fit       0.000713
 **** Fit       0.000025
 **** Fit      -0.000448
 **** Fit      -0.000739
 **** Fit      -0.001071
 **** Fit      -0.000976
 **** Fit      -0.000689
 **** Fit      -0.000141
 **** Fit       0.000661
 **** Fit       0.001549
 **** Fit       0.002193
 **** Fit       0.002286
 **** Fit       0.001800
 **** Fit       0.000998
 **** Fit       0.000200
 **** Fit      -0.000412
 **** Fit      -0.000804
 **** Fit      -0.001016
 **** Fit      -0.001311
 **** Fit      -0.001308
 **** Fit      -0.001145
 **** Fit      -0.000759
 **** Fit      -0.000150
 **** Fit       0.000549
 **** Fit       0.001066
 **** Fit       0.001149
 **** Fit       0.000772
 **** Fit       0.000148
 **** Fit      -0.000463
 **** Fit      -0.000910
 **** Fit      -0.001169
 **** Fit      -0.001279
 **** Fit      -0.001503
 **** Fit      -0.001592
 **** Fit      -0.001567
 **** Fit      -0.001377
 **** Fit      -0.001018
 **** Fit      -0.000578
 **** Fit      -0.000240
 **** Fit      -0.000173
 **** Fit      -0.000399
 **** Fit      -0.000780
 **** Fit      -0.001144
 **** Fit      -0.001389
 **** Fit      -0.001498
 **** Fit      -0.001502
 **** Fit      -0.001629
 **** Fit      -0.001791
 **** Fit      -0.001883
 **** Fit      -0.001867
 **** Fit      -0.001732
 **** Fit      -0.001527
 **** Fit      -0.001353
 **** Fit      -0.001305
 **** Fit      -0.001399
 **** Fit      -0.001564
 **** Fit      -0.001707
 **** Fit      -0.001772
 **** Fit      -0.001750
 **** Fit      -0.001664
 **** Fit      -0.001891
 **** Fit      -0.002062
 **** Fit      -0.002166
 **** Fit      -0.002188
 **** Fit      -0.002147
 **** Fit      -0.002088
 **** Fit      -0.002058
 **** Fit      -0.002068
 **** Fit      -0.002088
 **** Fit      -0.002079
 **** Fit      -0.002017
 **** Fit      -0.001904
 **** Fit      -0.002115
 **** Fit      -0.002284
 **** Fit      -0.002396
 **** Fit      -0.002448
 **** Fit      -0.002458
 **** Fit      -0.002443
 **** Fit      -0.002410
 **** Fit      -0.002353
 **** Fit      -0.002260
 **** Fit      -0.002127
 **** Fit      -0.002271
 **** Fit      -0.002421
 **** Fit      -0.002517
 **** Fit      -0.002561
 **** Fit      -0.002557
 **** Fit      -0.002510
 **** Fit      -0.002421
 **** Fit      -0.002292
 **** Fit      -0.002446
 **** Fit      -0.002503
 **** Fit      -0.002507
 **** Fit      -0.002458
 **** Fit       0.000800
 **** Fit       0.000995
 **** Fit       0.001145
 **** Fit       0.001223
 **** Fit       0.001217
 **** Fit       0.001128
 **** Fit       0.000601
 **** Fit       0.000863
 **** Fit       0.001106
 **** Fit       0.001283
 **** Fit       0.001357
 **** Fit       0.001313
 **** Fit       0.001167
 **** Fit       0.000947
 **** Fit       0.000292
 **** Fit       0.000587
 **** Fit       0.000914
 **** Fit       0.001218
 **** Fit       0.001430
 **** Fit       0.001498
 **** Fit       0.001408
 **** Fit       0.001190
 **** Fit       0.000897
 **** Fit       0.000583
 **** Fit      -0.000076
 **** Fit       0.000182
 **** Fit       0.000526
 **** Fit       0.000920
 **** Fit       0.001291
 **** Fit       0.001545
 **** Fit       0.001609
 **** Fit       0.001467
 **** Fit       0.001172
 **** Fit       0.000804
 **** Fit       0.000435
 **** Fit       0.000110
 **** Fit      -0.000256
 **** Fit       0.000011
 **** Fit       0.000386
 **** Fit       0.000831
 **** Fit       0.001259
 **** Fit       0.001551
 **** Fit       0.001612
 **** Fit       0.001426
 **** Fit       0.001065
 **** Fit       0.000639
 **** Fit       0.000234
 **** Fit      -0.000100
 **** Fit      -0.000480
 **** Fit      -0.000231
 **** Fit       0.000139
 **** Fit       0.000596
 **** Fit       0.001046
 **** Fit       0.001355
 **** Fit       0.001413
 **** Fit       0.001204
 **** Fit       0.000815
 **** Fit       0.000371
 **** Fit      -0.000032
 **** Fit      -0.000347
 **** Fit      -0.000734
 **** Fit      -0.000536
 **** Fit      -0.000217
 **** Fit       0.000196
 **** Fit       0.000613
 **** Fit       0.000903
 **** Fit       0.000957
 **** Fit       0.000759
 **** Fit       0.000397
 **** Fit      -0.000008
 **** Fit      -0.000362
 **** Fit      -0.000623
 **** Fit      -0.000993
 **** Fit      -0.000871
 **** Fit      -0.000642
 **** Fit      -0.000325
 **** Fit       0.000007
 **** Fit       0.000242
 **** Fit       0.000289
 **** Fit       0.000134
 **** Fit      -0.000151
 **** Fit      -0.000464
 **** Fit      -0.000728
 **** Fit      -0.000909
 **** Fit      -0.001227
 **** Fit      -0.001190
 **** Fit      -0.001068
 **** Fit      -0.000872
 **** Fit      -0.000654
 **** Fit      -0.000493
 **** Fit      -0.000455
 **** Fit      -0.000551
 **** Fit      -0.000734
 **** Fit      -0.000930
 **** Fit      -0.001084
 **** Fit      -0.001174
 **** Fit      -0.001410
 **** Fit      -0.001449
 **** Fit      -0.001426
 **** Fit      -0.001345
 **** Fit      -0.001236
 **** Fit      -0.001147
 **** Fit      -0.001119
 **** Fit      -0.001162
 **** Fit      -0.001248
 **** Fit      -0.001333
 **** Fit      -0.001385
 **** Fit      -0.001392
 **** Fit      -0.001624
 **** Fit      -0.001677
 **** Fit      -0.001685
 **** Fit      -0.001660
 **** Fit      -0.001627
 **** Fit      -0.001610
 **** Fit      -0.001614
 **** Fit      -0.001626
 **** Fit      -0.001628
 **** Fit      -0.001601
 **** Fit      -0.001814
 **** Fit      -0.001879
 **** Fit      -0.001909
 **** Fit      -0.001914
 **** Fit      -0.001905
 **** Fit      -0.001887
 **** Fit      -0.001855
 **** Fit      -0.001803
 **** Fit      -0.002011
 **** Fit      -0.002039
 **** Fit      -0.002037
 **** Fit      -0.002008
 **** Fit       0.000804
 **** Fit       0.000920
 **** Fit       0.000966
 **** Fit       0.000935
 **** Fit       0.000636
 **** Fit       0.000828
 **** Fit       0.000960
 **** Fit       0.001003
 **** Fit       0.000950
 **** Fit       0.000813
 **** Fit       0.000344
 **** Fit       0.000588
 **** Fit       0.000808
 **** Fit       0.000956
 **** Fit       0.000996
 **** Fit       0.000920
 **** Fit       0.000749
 **** Fit       0.000523
 **** Fit      -0.000027
 **** Fit       0.000209
 **** Fit       0.000471
 **** Fit       0.000711
 **** Fit       0.000871
 **** Fit       0.000908
 **** Fit       0.000814
 **** Fit       0.000619
 **** Fit       0.000370
 **** Fit       0.000116
 **** Fit      -0.000220
 **** Fit       0.000007
 **** Fit       0.000266
 **** Fit       0.000507
 **** Fit       0.000668
 **** Fit       0.000703
 **** Fit       0.000602
 **** Fit       0.000400
 **** Fit       0.000151
 **** Fit      -0.000096
 **** Fit      -0.000453
 **** Fit      -0.000259
 **** Fit      -0.000029
 **** Fit       0.000190
 **** Fit       0.000338
 **** Fit       0.000369
 **** Fit       0.000276
 **** Fit       0.000091
 **** Fit      -0.000133
 **** Fit      -0.000348
 **** Fit      -0.000705
 **** Fit      -0.000563
 **** Fit      -0.000386
 **** Fit      -0.000211
 **** Fit      -0.000091
 **** Fit      -0.000064
 **** Fit      -0.000138
 **** Fit      -0.000285
 **** Fit      -0.000460
 **** Fit      -0.000622
 **** Fit      -0.000949
 **** Fit      -0.000869
 **** Fit      -0.000756
 **** Fit      -0.000638
 **** Fit      -0.000554
 **** Fit      -0.000532
 **** Fit      -0.000580
 **** Fit      -0.000677
 **** Fit      -0.000791
 **** Fit      -0.000890
 **** Fit      -0.001138
 **** Fit      -0.001088
 **** Fit      -0.001026
 **** Fit      -0.000977
 **** Fit      -0.000962
 **** Fit      -0.000984
 **** Fit      -0.001033
 **** Fit      -0.001086
 **** Fit      -0.001344
 **** Fit      -0.001329
 **** Fit      -0.001311
 **** Fit      -0.001301
 **** Fit      -0.001304
 **** Fit      -0.001313
 **** Fit       0.000583
 **** Fit       0.000608
 **** Fit       0.000242
 **** Fit       0.000383
 **** Fit       0.000476
 **** Fit       0.000498
 **** Fit       0.000447
 **** Fit       0.000333
 **** Fit       0.000071
 **** Fit       0.000208
 **** Fit       0.000299
 **** Fit       0.000319
 **** Fit       0.000266
 **** Fit       0.000152
 **** Fit      -0.000151
 **** Fit      -0.000029
 **** Fit       0.000052
 **** Fit       0.000070
 **** Fit       0.000021
 **** Fit      -0.000082
 **** Fit      -0.000408
 **** Fit      -0.000310
 **** Fit      -0.000245
 **** Fit      -0.000229
 **** Fit      -0.000269
 **** Fit      -0.000351
 **** Fit      -0.000605
 **** Fit      -0.000558
 **** Fit      -0.000546
 **** Fit      -0.000572
 -----------------------------------------------------------------
 Leave Link  602 at Wed May 17 13:23:03 2017, MaxMem=   33554432 cpu:      96.6
 (Enter /scratch/michal/g09/l9999.exe)

 Test job not archived.
 1\1\GINC-RZEPICHA\SP\RHF\6-31G(d)\C27H46O2\MICHAL\17-May-2017\0\\#P HF
 /6-31G* SCF(Conver=6) NoSymm Test Pop=chelpg IOp(6/33=2) GFInput GFPri
 nt\\MEP - Input generated by R.E.D.-III.x MOLECULE\\0,1\O,0,5.74573069
 ,3.47551291,0.\H,0,5.10979287,3.31252308,0.70936747\O,0,0.,0.,0.\H,0,-
 0.08117062,-0.7421765,-0.61543194\C,0,8.8162093,0.41370204,0.35166714\
 C,0,7.88711098,1.58626926,-0.069048\H,0,7.70688235,2.1608443,0.8506406
 6\C,0,6.50253086,1.16736029,-0.57793437\H,0,6.61982258,0.58759324,-1.5
 0500688\C,0,5.77688083,0.2967663,0.47915411\H,0,5.55276252,0.97131311,
 1.32229511\C,0,10.09483315,1.22460045,0.76077874\H,0,9.84364247,1.7084
 6936,1.71594195\C,0,8.08560899,-0.33469003,1.485084\H,0,7.98631311,0.3
 4186139,2.34609733\H,0,8.65538805,-1.20179634,1.83454808\C,0,4.3892062
 7,-0.2291422,-0.03045123\C,0,8.76497534,2.47627965,-0.9608501\H,0,8.41
 307795,3.51157198,-0.97321494\H,0,8.75831833,2.1210946,-1.99940973\C,0
 ,6.68864184,-0.81821419,1.04418498\H,0,6.81742316,-1.6069257,0.2958094
 4\H,0,6.19888548,-1.29463024,1.90135545\C,0,10.18122274,2.33746885,-0.
 33580272\H,0,10.9179156,2.06166447,-1.09971078\H,0,10.52434349,3.28385
 526,0.09387835\C,0,5.64183013,2.39194787,-0.95385728\H,0,6.04104866,2.
 82687302,-1.87735834\C,0,11.43918982,0.48073835,0.95718557\H,0,11.6888
 8755,0.,0.\C,0,9.13868564,-0.54487271,-0.81717084\H,0,8.23841761,-0.96
 884499,-1.26946412\H,0,9.69403409,-0.04356914,-1.61567834\H,0,9.751430
 07,-1.38463314,-0.47172518\C,0,3.62277137,0.89060229,-0.7467741\C,0,3.
 54753926,-0.68988448,1.1997669\H,0,3.59591945,0.09814974,1.96417568\H,
 0,4.0099212,-1.57859469,1.64247604\C,0,4.1978443,2.03426576,-1.1538636
 5\H,0,3.5851188,2.7949567,-1.63680236\C,0,4.55498423,-1.41542299,-1.01
 913653\H,0,4.93044911,-2.30812268,-0.51005471\H,0,3.60438489,-1.686890
 04,-1.48486769\H,0,5.24885301,-1.16409786,-1.82694088\C,0,2.14531896,0
 .65466737,-1.00167635\H,0,1.6852421,1.55460694,-1.4213783\H,0,2.019305
 86,-0.142727,-1.75143198\C,0,2.06900432,-0.9825983,0.90235729\H,0,1.97
 580994,-1.84539464,0.22637629\H,0,1.54656362,-1.25144465,1.82743006\C,
 0,12.61548024,1.45225997,1.24927492\H,0,13.53528446,0.85273265,1.25955
 18\H,0,12.72596446,2.15195702,0.41099618\C,0,1.38672894,0.22706142,0.2
 6404521\H,0,1.39003799,1.05942466,0.97860742\C,0,11.38494439,-0.628869
 81,2.02413632\H,0,10.98229665,-0.26239949,2.97511746\H,0,12.38974764,-
 1.02244017,2.21880097\H,0,10.76393694,-1.47064968,1.70748391\C,0,12.52
 508442,2.26209913,2.55363259\H,0,11.58573227,2.82913754,2.56702207\H,0
 ,12.4769548,1.58471754,3.41499711\C,0,13.67613957,3.26786795,2.7472970
 9\H,0,13.46455542,3.87501846,3.64009754\H,0,13.67322674,3.96737228,1.8
 9876951\C,0,15.09809195,2.68462052,2.89173954\H,0,15.32060889,2.089106
 79,1.99487343\C,0,15.23301821,1.76378209,4.11489244\H,0,14.99901064,2.
 30803744,5.03924011\H,0,16.25597005,1.38092868,4.20552089\H,0,14.56241
 117,0.90025415,4.05851175\C,0,16.13191306,3.82046093,2.95646953\H,0,15
 .9641746,4.45215326,3.83837269\H,0,17.15284894,3.42674728,3.01965088\H
 ,0,16.07452905,4.4639391,2.07100209\\Version=EM64L-G09RevC.01\HF=-1198
 .9265527\RMSD=4.857e-07\Dipole=0.0860452,-1.0213647,-0.1810516\Quadrup
 ole=-4.9841034,-1.0614588,6.0455622,-9.2281468,-0.2624622,1.3327052\PG
 =C01 [X(C27H46O2)]\\@


 A true friend is someone who is there for
 you when he'd rather be anywhere else.
                               -- Len Wein
 Job cpu time:  0 days  0 hours 40 minutes 10.6 seconds.
 File lengths (MBytes):  RWF=    151 Int=      0 D2E=      0 Chk=     11 Scr=      1
 Normal termination of Gaussian 09 at Wed May 17 13:23:04 2017.
