 Entering Gaussian System, Link 0=/scratch/michal/g09//g09
 Input=JOB2-gau_m1-14-2.com
 Output=JOB2-gau_m1-14-2.log
 Initial command:
 /scratch/michal/g09/l1.exe /scratch/michal/gauss_scratch/Gau-21703.inp -scrdir=/scratch/michal/gauss_scratch/
 Entering Link 1 = /scratch/michal/g09/l1.exe PID=     21705.
  
 Copyright (c) 1988,1990,1992,1993,1995,1998,2003,2009,2011,
            Gaussian, Inc.  All Rights Reserved.
  
 This is part of the Gaussian(R) 09 program.  It is based on
 the Gaussian(R) 03 system (copyright 2003, Gaussian, Inc.),
 the Gaussian(R) 98 system (copyright 1998, Gaussian, Inc.),
 the Gaussian(R) 94 system (copyright 1995, Gaussian, Inc.),
 the Gaussian 92(TM) system (copyright 1992, Gaussian, Inc.),
 the Gaussian 90(TM) system (copyright 1990, Gaussian, Inc.),
 the Gaussian 88(TM) system (copyright 1988, Gaussian, Inc.),
 the Gaussian 86(TM) system (copyright 1986, Carnegie Mellon
 University), and the Gaussian 82(TM) system (copyright 1983,
 Carnegie Mellon University). Gaussian is a federally registered
 trademark of Gaussian, Inc.
  
 This software contains proprietary and confidential information,
 including trade secrets, belonging to Gaussian, Inc.
  
 This software is provided under written license and may be
 used, copied, transmitted, or stored only in accord with that
 written license.
  
 The following legend is applicable only to US Government
 contracts under FAR:
  
                    RESTRICTED RIGHTS LEGEND
  
 Use, reproduction and disclosure by the US Government is
 subject to restrictions as set forth in subparagraphs (a)
 and (c) of the Commercial Computer Software - Restricted
 Rights clause in FAR 52.227-19.
  
 Gaussian, Inc.
 340 Quinnipiac St., Bldg. 40, Wallingford CT 06492
  
  
 ---------------------------------------------------------------
 Warning -- This program may not be used in any manner that
 competes with the business of Gaussian, Inc. or will provide
 assistance to any competitor of Gaussian, Inc.  The licensee
 of this program is prohibited from giving any competitor of
 Gaussian, Inc. access to this program.  By using this program,
 the user acknowledges that Gaussian, Inc. is engaged in the
 business of creating and licensing software in the field of
 computational chemistry and represents and warrants to the
 licensee that it is not a competitor of Gaussian, Inc. and that
 it will not use this program in any manner prohibited above.
 ---------------------------------------------------------------
  

 Cite this work as:
 Gaussian 09, Revision C.01,
 M. J. Frisch, G. W. Trucks, H. B. Schlegel, G. E. Scuseria, 
 M. A. Robb, J. R. Cheeseman, G. Scalmani, V. Barone, B. Mennucci, 
 G. A. Petersson, H. Nakatsuji, M. Caricato, X. Li, H. P. Hratchian, 
 A. F. Izmaylov, J. Bloino, G. Zheng, J. L. Sonnenberg, M. Hada, 
 M. Ehara, K. Toyota, R. Fukuda, J. Hasegawa, M. Ishida, T. Nakajima, 
 Y. Honda, O. Kitao, H. Nakai, T. Vreven, J. A. Montgomery, Jr., 
 J. E. Peralta, F. Ogliaro, M. Bearpark, J. J. Heyd, E. Brothers, 
 K. N. Kudin, V. N. Staroverov, T. Keith, R. Kobayashi, J. Normand, 
 K. Raghavachari, A. Rendell, J. C. Burant, S. S. Iyengar, J. Tomasi, 
 M. Cossi, N. Rega, J. M. Millam, M. Klene, J. E. Knox, J. B. Cross, 
 V. Bakken, C. Adamo, J. Jaramillo, R. Gomperts, R. E. Stratmann, 
 O. Yazyev, A. J. Austin, R. Cammi, C. Pomelli, J. W. Ochterski, 
 R. L. Martin, K. Morokuma, V. G. Zakrzewski, G. A. Voth, 
 P. Salvador, J. J. Dannenberg, S. Dapprich, A. D. Daniels, 
 O. Farkas, J. B. Foresman, J. V. Ortiz, J. Cioslowski, 
 and D. J. Fox, Gaussian, Inc., Wallingford CT, 2010.
 
 ******************************************
 Gaussian 09:  EM64L-G09RevC.01 23-Sep-2011
                17-May-2017 
 ******************************************
 %Mem=256MB
 %NProc=48
 Will use up to   48 processors via shared memory.
 ----------------------------------------------------------------------
 #P HF/6-31G* SCF(Conver=6) NoSymm Test Pop=chelpg IOp(6/33=2) GFInput 
 GFPrint
 ----------------------------------------------------------------------
 1/38=1/1;
 2/12=2,15=1,17=6,18=5,40=1/2;
 3/5=1,6=6,7=1,11=9,16=1,24=110,25=1,30=1/1,2,3;
 4//1;
 5/5=2,6=6,38=5/2;
 6/7=2,8=2,9=2,10=2,15=8,20=3,28=1,33=2/1,2;
 99/5=1,9=1/99;
 Leave Link    1 at Wed May 17 12:51:45 2017, MaxMem=   33554432 cpu:       5.2
 (Enter /scratch/michal/g09/l101.exe)
 ----------------------------------------------
 MEP - Input generated by R.E.D.-III.x MOLECULE
 ----------------------------------------------
 Charge =  0 Multiplicity = 1
 Symbolic Z-Matrix:
 O                     6.72848   0.81978   0. 
 H                     7.24047   0.        0. 
 O                     11.39498  -1.42745   4.27053 
 H                     11.34191  -1.14092   5.19316 
 C                     2.97085  -0.05153   2.01001 
 C                     4.19549   0.6009    1.30565 
 H                     4.43705  -0.05975   0.46155 
 C                     5.47157   0.67053   2.153 
 H                     5.30195   1.33727   3.01058 
 C                     5.85727  -0.73899   2.67203 
 H                     6.16751  -1.31256   1.78268 
 C                     1.92578   0.08314   0.84848 
 H                     2.29252  -0.60447   0.07445 
 C                     3.38976  -1.48568   2.38644 
 H                     3.58855  -2.05224   1.46597 
 H                     2.58586  -2.01305   2.9136 
 C                     7.10866  -0.70398   3.61806 
 C                     3.63978   1.89644   0.68966 
 H                     4.23371   2.2245   -0.16801 
 H                     3.65031   2.7146    1.42123 
 C                     4.64944  -1.49537   3.27653 
 H                     4.38914  -1.06471   4.24876 
 H                     4.92972  -2.53657   3.47349 
 C                     2.18201   1.52173   0.29544 
 H                     1.46977   2.2407    0.7129 
 H                     2.03588   1.541    -0.79005 
 C                     6.64194   1.29508   1.36425 
 H                     6.44882   2.36778   1.24841 
 C                     0.41291  -0.25268   0.99061 
 H                     0.        0.        0. 
 C                     2.5441    0.7285    3.27534 
 H                     3.38481   0.90651   3.95101 
 H                     2.11496   1.70425   3.0338 
 H                     1.7927    0.16971   3.84108 
 C                     8.19212   0.21542   3.03877 
 C                     7.69541  -2.14583   3.72384 
 H                     7.77774  -2.55872   2.70874 
 H                     6.98811  -2.78625   4.26154 
 C                     7.96154   1.09632   2.05123 
 H                     8.78631   1.70072   1.6747 
 C                     6.73923  -0.1888    5.03585 
 H                     6.10631  -0.90589   5.56707 
 H                     7.62874  -0.02847   5.65012 
 H                     6.2071    0.76586   4.98463 
 C                     9.57976   0.10434   3.64344 
 H                     10.28602   0.72825   3.08699 
 H                     9.56779   0.48652   4.67669 
 C                     9.07412  -2.23878   4.39531 
 H                     9.00821  -1.94205   5.45252 
 H                     9.42811  -3.27585   4.38249 
 C                     0.09978  -1.75223   1.20914 
 H                     0.51809  -2.08297   2.16918 
 H                    -0.9906   -1.84714   1.31524 
 C                     10.09159  -1.3435    3.68871 
 H                     10.23365  -1.70247   2.66188 
 C                    -0.39301   0.58172   2.00689 
 H                    -0.22145   0.25378   3.0363 
 H                    -1.46463   0.46869   1.80677 
 H                    -0.16419   1.65      1.95411 
 C                     0.55081  -2.7095    0.09477 
 H                     0.17434  -2.33415  -0.86659 
 H                     1.64382  -2.71043   0.0195 
 C                     0.05162  -4.1453    0.32601 
 H                    -1.0454   -4.12803   0.39981 
 H                     0.41447  -4.48958   1.30549 
 C                     0.44978  -5.19695  -0.7357 
 H                     0.00167  -6.14507  -0.40316 
 C                     1.96957  -5.41911  -0.81095 
 H                     2.48913  -4.53459  -1.1971 
 H                     2.20865  -6.25484  -1.47854 
 H                     2.38851  -5.64963   0.17573 
 C                    -0.1318   -4.88559  -2.12479 
 H                     0.31387  -3.98196  -2.55633 
 H                     0.06079  -5.70928  -2.82168 
 H                    -1.21672  -4.73424  -2.07853 
 
 NAtoms=     75 NQM=        0 NQMF=       0 NMMI=     75 NMMIF=      0
                NMic=       0 NMicF=      0.
                    Isotopes and Nuclear Properties:
 (Nuclear quadrupole moments (NQMom) in fm**2, nuclear magnetic moments (NMagM)
  in nuclear magnetons)

  Atom         1           2           3           4           5           6           7           8           9          10
 IAtWgt=          16           1          16           1          12          12           1          12           1          12
 AtmWgt=  15.9949146   1.0078250  15.9949146   1.0078250  12.0000000  12.0000000   1.0078250  12.0000000   1.0078250  12.0000000
 NucSpn=           0           1           0           1           0           0           1           0           1           0
 AtZEff=   0.0000000   0.0000000   0.0000000   0.0000000   0.0000000   0.0000000   0.0000000   0.0000000   0.0000000   0.0000000
 NQMom=    0.0000000   0.0000000   0.0000000   0.0000000   0.0000000   0.0000000   0.0000000   0.0000000   0.0000000   0.0000000
 NMagM=    0.0000000   2.7928460   0.0000000   2.7928460   0.0000000   0.0000000   2.7928460   0.0000000   2.7928460   0.0000000

  Atom        11          12          13          14          15          16          17          18          19          20
 IAtWgt=           1          12           1          12           1           1          12          12           1           1
 AtmWgt=   1.0078250  12.0000000   1.0078250  12.0000000   1.0078250   1.0078250  12.0000000  12.0000000   1.0078250   1.0078250
 NucSpn=           1           0           1           0           1           1           0           0           1           1
 AtZEff=   0.0000000   0.0000000   0.0000000   0.0000000   0.0000000   0.0000000   0.0000000   0.0000000   0.0000000   0.0000000
 NQMom=    0.0000000   0.0000000   0.0000000   0.0000000   0.0000000   0.0000000   0.0000000   0.0000000   0.0000000   0.0000000
 NMagM=    2.7928460   0.0000000   2.7928460   0.0000000   2.7928460   2.7928460   0.0000000   0.0000000   2.7928460   2.7928460

  Atom        21          22          23          24          25          26          27          28          29          30
 IAtWgt=          12           1           1          12           1           1          12           1          12           1
 AtmWgt=  12.0000000   1.0078250   1.0078250  12.0000000   1.0078250   1.0078250  12.0000000   1.0078250  12.0000000   1.0078250
 NucSpn=           0           1           1           0           1           1           0           1           0           1
 AtZEff=   0.0000000   0.0000000   0.0000000   0.0000000   0.0000000   0.0000000   0.0000000   0.0000000   0.0000000   0.0000000
 NQMom=    0.0000000   0.0000000   0.0000000   0.0000000   0.0000000   0.0000000   0.0000000   0.0000000   0.0000000   0.0000000
 NMagM=    0.0000000   2.7928460   2.7928460   0.0000000   2.7928460   2.7928460   0.0000000   2.7928460   0.0000000   2.7928460

  Atom        31          32          33          34          35          36          37          38          39          40
 IAtWgt=          12           1           1           1          12          12           1           1          12           1
 AtmWgt=  12.0000000   1.0078250   1.0078250   1.0078250  12.0000000  12.0000000   1.0078250   1.0078250  12.0000000   1.0078250
 NucSpn=           0           1           1           1           0           0           1           1           0           1
 AtZEff=   0.0000000   0.0000000   0.0000000   0.0000000   0.0000000   0.0000000   0.0000000   0.0000000   0.0000000   0.0000000
 NQMom=    0.0000000   0.0000000   0.0000000   0.0000000   0.0000000   0.0000000   0.0000000   0.0000000   0.0000000   0.0000000
 NMagM=    0.0000000   2.7928460   2.7928460   2.7928460   0.0000000   0.0000000   2.7928460   2.7928460   0.0000000   2.7928460

  Atom        41          42          43          44          45          46          47          48          49          50
 IAtWgt=          12           1           1           1          12           1           1          12           1           1
 AtmWgt=  12.0000000   1.0078250   1.0078250   1.0078250  12.0000000   1.0078250   1.0078250  12.0000000   1.0078250   1.0078250
 NucSpn=           0           1           1           1           0           1           1           0           1           1
 AtZEff=   0.0000000   0.0000000   0.0000000   0.0000000   0.0000000   0.0000000   0.0000000   0.0000000   0.0000000   0.0000000
 NQMom=    0.0000000   0.0000000   0.0000000   0.0000000   0.0000000   0.0000000   0.0000000   0.0000000   0.0000000   0.0000000
 NMagM=    0.0000000   2.7928460   2.7928460   2.7928460   0.0000000   2.7928460   2.7928460   0.0000000   2.7928460   2.7928460

  Atom        51          52          53          54          55          56          57          58          59          60
 IAtWgt=          12           1           1          12           1          12           1           1           1          12
 AtmWgt=  12.0000000   1.0078250   1.0078250  12.0000000   1.0078250  12.0000000   1.0078250   1.0078250   1.0078250  12.0000000
 NucSpn=           0           1           1           0           1           0           1           1           1           0
 AtZEff=   0.0000000   0.0000000   0.0000000   0.0000000   0.0000000   0.0000000   0.0000000   0.0000000   0.0000000   0.0000000
 NQMom=    0.0000000   0.0000000   0.0000000   0.0000000   0.0000000   0.0000000   0.0000000   0.0000000   0.0000000   0.0000000
 NMagM=    0.0000000   2.7928460   2.7928460   0.0000000   2.7928460   0.0000000   2.7928460   2.7928460   2.7928460   0.0000000

  Atom        61          62          63          64          65          66          67          68          69          70
 IAtWgt=           1           1          12           1           1          12           1          12           1           1
 AtmWgt=   1.0078250   1.0078250  12.0000000   1.0078250   1.0078250  12.0000000   1.0078250  12.0000000   1.0078250   1.0078250
 NucSpn=           1           1           0           1           1           0           1           0           1           1
 AtZEff=   0.0000000   0.0000000   0.0000000   0.0000000   0.0000000   0.0000000   0.0000000   0.0000000   0.0000000   0.0000000
 NQMom=    0.0000000   0.0000000   0.0000000   0.0000000   0.0000000   0.0000000   0.0000000   0.0000000   0.0000000   0.0000000
 NMagM=    2.7928460   2.7928460   0.0000000   2.7928460   2.7928460   0.0000000   2.7928460   0.0000000   2.7928460   2.7928460

  Atom        71          72          73          74          75
 IAtWgt=           1          12           1           1           1
 AtmWgt=   1.0078250  12.0000000   1.0078250   1.0078250   1.0078250
 NucSpn=           1           0           1           1           1
 AtZEff=   0.0000000   0.0000000   0.0000000   0.0000000   0.0000000
 NQMom=    0.0000000   0.0000000   0.0000000   0.0000000   0.0000000
 NMagM=    2.7928460   0.0000000   2.7928460   2.7928460   2.7928460
 Leave Link  101 at Wed May 17 12:51:46 2017, MaxMem=   33554432 cpu:       6.9
 (Enter /scratch/michal/g09/l202.exe)
 Symmetry turned off by external request.
 Stoichiometry    C27H46O2
 Framework group  C1[X(C27H46O2)]
 Deg. of freedom   219
 Full point group                 C1      NOp   1
                          Input orientation:                          
 ---------------------------------------------------------------------
 Center     Atomic      Atomic             Coordinates (Angstroms)
 Number     Number       Type             X           Y           Z
 ---------------------------------------------------------------------
      1          8           0        6.728481    0.819779    0.000000
      2          1           0        7.240473    0.000000    0.000000
      3          8           0       11.394978   -1.427449    4.270527
      4          1           0       11.341912   -1.140924    5.193165
      5          6           0        2.970850   -0.051535    2.010009
      6          6           0        4.195490    0.600904    1.305654
      7          1           0        4.437048   -0.059748    0.461545
      8          6           0        5.471569    0.670526    2.152996
      9          1           0        5.301947    1.337271    3.010577
     10          6           0        5.857268   -0.738985    2.672028
     11          1           0        6.167505   -1.312556    1.782684
     12          6           0        1.925783    0.083138    0.848479
     13          1           0        2.292517   -0.604473    0.074448
     14          6           0        3.389761   -1.485682    2.386436
     15          1           0        3.588552   -2.052236    1.465972
     16          1           0        2.585863   -2.013048    2.913598
     17          6           0        7.108658   -0.703982    3.618061
     18          6           0        3.639777    1.896437    0.689662
     19          1           0        4.233715    2.224504   -0.168014
     20          1           0        3.650308    2.714595    1.421232
     21          6           0        4.649438   -1.495368    3.276527
     22          1           0        4.389140   -1.064713    4.248765
     23          1           0        4.929723   -2.536570    3.473487
     24          6           0        2.182007    1.521731    0.295439
     25          1           0        1.469766    2.240702    0.712899
     26          1           0        2.035882    1.541003   -0.790053
     27          6           0        6.641943    1.295081    1.364247
     28          1           0        6.448821    2.367783    1.248414
     29          6           0        0.412910   -0.252681    0.990613
     30          1           0        0.000000    0.000000    0.000000
     31          6           0        2.544097    0.728497    3.275338
     32          1           0        3.384813    0.906507    3.951008
     33          1           0        2.114958    1.704252    3.033801
     34          1           0        1.792699    0.169709    3.841076
     35          6           0        8.192123    0.215417    3.038772
     36          6           0        7.695409   -2.145829    3.723837
     37          1           0        7.777745   -2.558721    2.708738
     38          1           0        6.988110   -2.786252    4.261540
     39          6           0        7.961538    1.096320    2.051232
     40          1           0        8.786310    1.700719    1.674701
     41          6           0        6.739234   -0.188802    5.035846
     42          1           0        6.106312   -0.905892    5.567073
     43          1           0        7.628736   -0.028471    5.650116
     44          1           0        6.207101    0.765862    4.984628
     45          6           0        9.579757    0.104337    3.643441
     46          1           0       10.286016    0.728250    3.086988
     47          1           0        9.567794    0.486520    4.676686
     48          6           0        9.074121   -2.238783    4.395311
     49          1           0        9.008206   -1.942051    5.452521
     50          1           0        9.428112   -3.275851    4.382490
     51          6           0        0.099781   -1.752226    1.209136
     52          1           0        0.518091   -2.082967    2.169180
     53          1           0       -0.990600   -1.847144    1.315239
     54          6           0       10.091595   -1.343496    3.688713
     55          1           0       10.233651   -1.702469    2.661876
     56          6           0       -0.393009    0.581716    2.006887
     57          1           0       -0.221446    0.253782    3.036302
     58          1           0       -1.464626    0.468694    1.806769
     59          1           0       -0.164187    1.650000    1.954106
     60          6           0        0.550812   -2.709496    0.094771
     61          1           0        0.174337   -2.334153   -0.866592
     62          1           0        1.643824   -2.710433    0.019503
     63          6           0        0.051620   -4.145302    0.326013
     64          1           0       -1.045399   -4.128029    0.399814
     65          1           0        0.414475   -4.489575    1.305490
     66          6           0        0.449780   -5.196954   -0.735701
     67          1           0        0.001670   -6.145069   -0.403162
     68          6           0        1.969574   -5.419112   -0.810954
     69          1           0        2.489131   -4.534589   -1.197101
     70          1           0        2.208648   -6.254840   -1.478537
     71          1           0        2.388509   -5.649629    0.175732
     72          6           0       -0.131795   -4.885587   -2.124789
     73          1           0        0.313866   -3.981956   -2.556333
     74          1           0        0.060787   -5.709283   -2.821683
     75          1           0       -1.216720   -4.734238   -2.078534
 ---------------------------------------------------------------------
 Rotational constants (GHZ):      0.2487445      0.0779396      0.0684560
 Leave Link  202 at Wed May 17 12:51:46 2017, MaxMem=   33554432 cpu:       0.2
 (Enter /scratch/michal/g09/l301.exe)
 Standard basis: 6-31G(d) (6D, 7F)
 Ernie: Thresh=  0.10000D-02 Tol=  0.10000D-05 Strict=F.
 AO basis set in the form of general basis input (Overlap normalization):
      1 0
 S   6 1.00       0.000000000000
      0.5484671660D+04  0.1831074430D-02
      0.8252349460D+03  0.1395017220D-01
      0.1880469580D+03  0.6844507810D-01
      0.5296450000D+02  0.2327143360D+00
      0.1689757040D+02  0.4701928980D+00
      0.5799635340D+01  0.3585208530D+00
 SP   3 1.00       0.000000000000
      0.1553961625D+02 -0.1107775495D+00  0.7087426823D-01
      0.3599933586D+01 -0.1480262627D+00  0.3397528391D+00
      0.1013761750D+01  0.1130767015D+01  0.7271585773D+00
 SP   1 1.00       0.000000000000
      0.2700058226D+00  0.1000000000D+01  0.1000000000D+01
 D   1 1.00       0.000000000000
      0.8000000000D+00  0.1000000000D+01
 ****
      2 0
 S   3 1.00       0.000000000000
      0.1873113696D+02  0.3349460434D-01
      0.2825394365D+01  0.2347269535D+00
      0.6401216923D+00  0.8137573261D+00
 S   1 1.00       0.000000000000
      0.1612777588D+00  0.1000000000D+01
 ****
      3 0
 S   6 1.00       0.000000000000
      0.5484671660D+04  0.1831074430D-02
      0.8252349460D+03  0.1395017220D-01
      0.1880469580D+03  0.6844507810D-01
      0.5296450000D+02  0.2327143360D+00
      0.1689757040D+02  0.4701928980D+00
      0.5799635340D+01  0.3585208530D+00
 SP   3 1.00       0.000000000000
      0.1553961625D+02 -0.1107775495D+00  0.7087426823D-01
      0.3599933586D+01 -0.1480262627D+00  0.3397528391D+00
      0.1013761750D+01  0.1130767015D+01  0.7271585773D+00
 SP   1 1.00       0.000000000000
      0.2700058226D+00  0.1000000000D+01  0.1000000000D+01
 D   1 1.00       0.000000000000
      0.8000000000D+00  0.1000000000D+01
 ****
      4 0
 S   3 1.00       0.000000000000
      0.1873113696D+02  0.3349460434D-01
      0.2825394365D+01  0.2347269535D+00
      0.6401216923D+00  0.8137573261D+00
 S   1 1.00       0.000000000000
      0.1612777588D+00  0.1000000000D+01
 ****
      5 0
 S   6 1.00       0.000000000000
      0.3047524880D+04  0.1834737132D-02
      0.4573695180D+03  0.1403732281D-01
      0.1039486850D+03  0.6884262226D-01
      0.2921015530D+02  0.2321844432D+00
      0.9286662960D+01  0.4679413484D+00
      0.3163926960D+01  0.3623119853D+00
 SP   3 1.00       0.000000000000
      0.7868272350D+01 -0.1193324198D+00  0.6899906659D-01
      0.1881288540D+01 -0.1608541517D+00  0.3164239610D+00
      0.5442492580D+00  0.1143456438D+01  0.7443082909D+00
 SP   1 1.00       0.000000000000
      0.1687144782D+00  0.1000000000D+01  0.1000000000D+01
 D   1 1.00       0.000000000000
      0.8000000000D+00  0.1000000000D+01
 ****
      6 0
 S   6 1.00       0.000000000000
      0.3047524880D+04  0.1834737132D-02
      0.4573695180D+03  0.1403732281D-01
      0.1039486850D+03  0.6884262226D-01
      0.2921015530D+02  0.2321844432D+00
      0.9286662960D+01  0.4679413484D+00
      0.3163926960D+01  0.3623119853D+00
 SP   3 1.00       0.000000000000
      0.7868272350D+01 -0.1193324198D+00  0.6899906659D-01
      0.1881288540D+01 -0.1608541517D+00  0.3164239610D+00
      0.5442492580D+00  0.1143456438D+01  0.7443082909D+00
 SP   1 1.00       0.000000000000
      0.1687144782D+00  0.1000000000D+01  0.1000000000D+01
 D   1 1.00       0.000000000000
      0.8000000000D+00  0.1000000000D+01
 ****
      7 0
 S   3 1.00       0.000000000000
      0.1873113696D+02  0.3349460434D-01
      0.2825394365D+01  0.2347269535D+00
      0.6401216923D+00  0.8137573261D+00
 S   1 1.00       0.000000000000
      0.1612777588D+00  0.1000000000D+01
 ****
      8 0
 S   6 1.00       0.000000000000
      0.3047524880D+04  0.1834737132D-02
      0.4573695180D+03  0.1403732281D-01
      0.1039486850D+03  0.6884262226D-01
      0.2921015530D+02  0.2321844432D+00
      0.9286662960D+01  0.4679413484D+00
      0.3163926960D+01  0.3623119853D+00
 SP   3 1.00       0.000000000000
      0.7868272350D+01 -0.1193324198D+00  0.6899906659D-01
      0.1881288540D+01 -0.1608541517D+00  0.3164239610D+00
      0.5442492580D+00  0.1143456438D+01  0.7443082909D+00
 SP   1 1.00       0.000000000000
      0.1687144782D+00  0.1000000000D+01  0.1000000000D+01
 D   1 1.00       0.000000000000
      0.8000000000D+00  0.1000000000D+01
 ****
      9 0
 S   3 1.00       0.000000000000
      0.1873113696D+02  0.3349460434D-01
      0.2825394365D+01  0.2347269535D+00
      0.6401216923D+00  0.8137573261D+00
 S   1 1.00       0.000000000000
      0.1612777588D+00  0.1000000000D+01
 ****
     10 0
 S   6 1.00       0.000000000000
      0.3047524880D+04  0.1834737132D-02
      0.4573695180D+03  0.1403732281D-01
      0.1039486850D+03  0.6884262226D-01
      0.2921015530D+02  0.2321844432D+00
      0.9286662960D+01  0.4679413484D+00
      0.3163926960D+01  0.3623119853D+00
 SP   3 1.00       0.000000000000
      0.7868272350D+01 -0.1193324198D+00  0.6899906659D-01
      0.1881288540D+01 -0.1608541517D+00  0.3164239610D+00
      0.5442492580D+00  0.1143456438D+01  0.7443082909D+00
 SP   1 1.00       0.000000000000
      0.1687144782D+00  0.1000000000D+01  0.1000000000D+01
 D   1 1.00       0.000000000000
      0.8000000000D+00  0.1000000000D+01
 ****
     11 0
 S   3 1.00       0.000000000000
      0.1873113696D+02  0.3349460434D-01
      0.2825394365D+01  0.2347269535D+00
      0.6401216923D+00  0.8137573261D+00
 S   1 1.00       0.000000000000
      0.1612777588D+00  0.1000000000D+01
 ****
     12 0
 S   6 1.00       0.000000000000
      0.3047524880D+04  0.1834737132D-02
      0.4573695180D+03  0.1403732281D-01
      0.1039486850D+03  0.6884262226D-01
      0.2921015530D+02  0.2321844432D+00
      0.9286662960D+01  0.4679413484D+00
      0.3163926960D+01  0.3623119853D+00
 SP   3 1.00       0.000000000000
      0.7868272350D+01 -0.1193324198D+00  0.6899906659D-01
      0.1881288540D+01 -0.1608541517D+00  0.3164239610D+00
      0.5442492580D+00  0.1143456438D+01  0.7443082909D+00
 SP   1 1.00       0.000000000000
      0.1687144782D+00  0.1000000000D+01  0.1000000000D+01
 D   1 1.00       0.000000000000
      0.8000000000D+00  0.1000000000D+01
 ****
     13 0
 S   3 1.00       0.000000000000
      0.1873113696D+02  0.3349460434D-01
      0.2825394365D+01  0.2347269535D+00
      0.6401216923D+00  0.8137573261D+00
 S   1 1.00       0.000000000000
      0.1612777588D+00  0.1000000000D+01
 ****
     14 0
 S   6 1.00       0.000000000000
      0.3047524880D+04  0.1834737132D-02
      0.4573695180D+03  0.1403732281D-01
      0.1039486850D+03  0.6884262226D-01
      0.2921015530D+02  0.2321844432D+00
      0.9286662960D+01  0.4679413484D+00
      0.3163926960D+01  0.3623119853D+00
 SP   3 1.00       0.000000000000
      0.7868272350D+01 -0.1193324198D+00  0.6899906659D-01
      0.1881288540D+01 -0.1608541517D+00  0.3164239610D+00
      0.5442492580D+00  0.1143456438D+01  0.7443082909D+00
 SP   1 1.00       0.000000000000
      0.1687144782D+00  0.1000000000D+01  0.1000000000D+01
 D   1 1.00       0.000000000000
      0.8000000000D+00  0.1000000000D+01
 ****
     15 0
 S   3 1.00       0.000000000000
      0.1873113696D+02  0.3349460434D-01
      0.2825394365D+01  0.2347269535D+00
      0.6401216923D+00  0.8137573261D+00
 S   1 1.00       0.000000000000
      0.1612777588D+00  0.1000000000D+01
 ****
     16 0
 S   3 1.00       0.000000000000
      0.1873113696D+02  0.3349460434D-01
      0.2825394365D+01  0.2347269535D+00
      0.6401216923D+00  0.8137573261D+00
 S   1 1.00       0.000000000000
      0.1612777588D+00  0.1000000000D+01
 ****
     17 0
 S   6 1.00       0.000000000000
      0.3047524880D+04  0.1834737132D-02
      0.4573695180D+03  0.1403732281D-01
      0.1039486850D+03  0.6884262226D-01
      0.2921015530D+02  0.2321844432D+00
      0.9286662960D+01  0.4679413484D+00
      0.3163926960D+01  0.3623119853D+00
 SP   3 1.00       0.000000000000
      0.7868272350D+01 -0.1193324198D+00  0.6899906659D-01
      0.1881288540D+01 -0.1608541517D+00  0.3164239610D+00
      0.5442492580D+00  0.1143456438D+01  0.7443082909D+00
 SP   1 1.00       0.000000000000
      0.1687144782D+00  0.1000000000D+01  0.1000000000D+01
 D   1 1.00       0.000000000000
      0.8000000000D+00  0.1000000000D+01
 ****
     18 0
 S   6 1.00       0.000000000000
      0.3047524880D+04  0.1834737132D-02
      0.4573695180D+03  0.1403732281D-01
      0.1039486850D+03  0.6884262226D-01
      0.2921015530D+02  0.2321844432D+00
      0.9286662960D+01  0.4679413484D+00
      0.3163926960D+01  0.3623119853D+00
 SP   3 1.00       0.000000000000
      0.7868272350D+01 -0.1193324198D+00  0.6899906659D-01
      0.1881288540D+01 -0.1608541517D+00  0.3164239610D+00
      0.5442492580D+00  0.1143456438D+01  0.7443082909D+00
 SP   1 1.00       0.000000000000
      0.1687144782D+00  0.1000000000D+01  0.1000000000D+01
 D   1 1.00       0.000000000000
      0.8000000000D+00  0.1000000000D+01
 ****
     19 0
 S   3 1.00       0.000000000000
      0.1873113696D+02  0.3349460434D-01
      0.2825394365D+01  0.2347269535D+00
      0.6401216923D+00  0.8137573261D+00
 S   1 1.00       0.000000000000
      0.1612777588D+00  0.1000000000D+01
 ****
     20 0
 S   3 1.00       0.000000000000
      0.1873113696D+02  0.3349460434D-01
      0.2825394365D+01  0.2347269535D+00
      0.6401216923D+00  0.8137573261D+00
 S   1 1.00       0.000000000000
      0.1612777588D+00  0.1000000000D+01
 ****
     21 0
 S   6 1.00       0.000000000000
      0.3047524880D+04  0.1834737132D-02
      0.4573695180D+03  0.1403732281D-01
      0.1039486850D+03  0.6884262226D-01
      0.2921015530D+02  0.2321844432D+00
      0.9286662960D+01  0.4679413484D+00
      0.3163926960D+01  0.3623119853D+00
 SP   3 1.00       0.000000000000
      0.7868272350D+01 -0.1193324198D+00  0.6899906659D-01
      0.1881288540D+01 -0.1608541517D+00  0.3164239610D+00
      0.5442492580D+00  0.1143456438D+01  0.7443082909D+00
 SP   1 1.00       0.000000000000
      0.1687144782D+00  0.1000000000D+01  0.1000000000D+01
 D   1 1.00       0.000000000000
      0.8000000000D+00  0.1000000000D+01
 ****
     22 0
 S   3 1.00       0.000000000000
      0.1873113696D+02  0.3349460434D-01
      0.2825394365D+01  0.2347269535D+00
      0.6401216923D+00  0.8137573261D+00
 S   1 1.00       0.000000000000
      0.1612777588D+00  0.1000000000D+01
 ****
     23 0
 S   3 1.00       0.000000000000
      0.1873113696D+02  0.3349460434D-01
      0.2825394365D+01  0.2347269535D+00
      0.6401216923D+00  0.8137573261D+00
 S   1 1.00       0.000000000000
      0.1612777588D+00  0.1000000000D+01
 ****
     24 0
 S   6 1.00       0.000000000000
      0.3047524880D+04  0.1834737132D-02
      0.4573695180D+03  0.1403732281D-01
      0.1039486850D+03  0.6884262226D-01
      0.2921015530D+02  0.2321844432D+00
      0.9286662960D+01  0.4679413484D+00
      0.3163926960D+01  0.3623119853D+00
 SP   3 1.00       0.000000000000
      0.7868272350D+01 -0.1193324198D+00  0.6899906659D-01
      0.1881288540D+01 -0.1608541517D+00  0.3164239610D+00
      0.5442492580D+00  0.1143456438D+01  0.7443082909D+00
 SP   1 1.00       0.000000000000
      0.1687144782D+00  0.1000000000D+01  0.1000000000D+01
 D   1 1.00       0.000000000000
      0.8000000000D+00  0.1000000000D+01
 ****
     25 0
 S   3 1.00       0.000000000000
      0.1873113696D+02  0.3349460434D-01
      0.2825394365D+01  0.2347269535D+00
      0.6401216923D+00  0.8137573261D+00
 S   1 1.00       0.000000000000
      0.1612777588D+00  0.1000000000D+01
 ****
     26 0
 S   3 1.00       0.000000000000
      0.1873113696D+02  0.3349460434D-01
      0.2825394365D+01  0.2347269535D+00
      0.6401216923D+00  0.8137573261D+00
 S   1 1.00       0.000000000000
      0.1612777588D+00  0.1000000000D+01
 ****
     27 0
 S   6 1.00       0.000000000000
      0.3047524880D+04  0.1834737132D-02
      0.4573695180D+03  0.1403732281D-01
      0.1039486850D+03  0.6884262226D-01
      0.2921015530D+02  0.2321844432D+00
      0.9286662960D+01  0.4679413484D+00
      0.3163926960D+01  0.3623119853D+00
 SP   3 1.00       0.000000000000
      0.7868272350D+01 -0.1193324198D+00  0.6899906659D-01
      0.1881288540D+01 -0.1608541517D+00  0.3164239610D+00
      0.5442492580D+00  0.1143456438D+01  0.7443082909D+00
 SP   1 1.00       0.000000000000
      0.1687144782D+00  0.1000000000D+01  0.1000000000D+01
 D   1 1.00       0.000000000000
      0.8000000000D+00  0.1000000000D+01
 ****
     28 0
 S   3 1.00       0.000000000000
      0.1873113696D+02  0.3349460434D-01
      0.2825394365D+01  0.2347269535D+00
      0.6401216923D+00  0.8137573261D+00
 S   1 1.00       0.000000000000
      0.1612777588D+00  0.1000000000D+01
 ****
     29 0
 S   6 1.00       0.000000000000
      0.3047524880D+04  0.1834737132D-02
      0.4573695180D+03  0.1403732281D-01
      0.1039486850D+03  0.6884262226D-01
      0.2921015530D+02  0.2321844432D+00
      0.9286662960D+01  0.4679413484D+00
      0.3163926960D+01  0.3623119853D+00
 SP   3 1.00       0.000000000000
      0.7868272350D+01 -0.1193324198D+00  0.6899906659D-01
      0.1881288540D+01 -0.1608541517D+00  0.3164239610D+00
      0.5442492580D+00  0.1143456438D+01  0.7443082909D+00
 SP   1 1.00       0.000000000000
      0.1687144782D+00  0.1000000000D+01  0.1000000000D+01
 D   1 1.00       0.000000000000
      0.8000000000D+00  0.1000000000D+01
 ****
     30 0
 S   3 1.00       0.000000000000
      0.1873113696D+02  0.3349460434D-01
      0.2825394365D+01  0.2347269535D+00
      0.6401216923D+00  0.8137573261D+00
 S   1 1.00       0.000000000000
      0.1612777588D+00  0.1000000000D+01
 ****
     31 0
 S   6 1.00       0.000000000000
      0.3047524880D+04  0.1834737132D-02
      0.4573695180D+03  0.1403732281D-01
      0.1039486850D+03  0.6884262226D-01
      0.2921015530D+02  0.2321844432D+00
      0.9286662960D+01  0.4679413484D+00
      0.3163926960D+01  0.3623119853D+00
 SP   3 1.00       0.000000000000
      0.7868272350D+01 -0.1193324198D+00  0.6899906659D-01
      0.1881288540D+01 -0.1608541517D+00  0.3164239610D+00
      0.5442492580D+00  0.1143456438D+01  0.7443082909D+00
 SP   1 1.00       0.000000000000
      0.1687144782D+00  0.1000000000D+01  0.1000000000D+01
 D   1 1.00       0.000000000000
      0.8000000000D+00  0.1000000000D+01
 ****
     32 0
 S   3 1.00       0.000000000000
      0.1873113696D+02  0.3349460434D-01
      0.2825394365D+01  0.2347269535D+00
      0.6401216923D+00  0.8137573261D+00
 S   1 1.00       0.000000000000
      0.1612777588D+00  0.1000000000D+01
 ****
     33 0
 S   3 1.00       0.000000000000
      0.1873113696D+02  0.3349460434D-01
      0.2825394365D+01  0.2347269535D+00
      0.6401216923D+00  0.8137573261D+00
 S   1 1.00       0.000000000000
      0.1612777588D+00  0.1000000000D+01
 ****
     34 0
 S   3 1.00       0.000000000000
      0.1873113696D+02  0.3349460434D-01
      0.2825394365D+01  0.2347269535D+00
      0.6401216923D+00  0.8137573261D+00
 S   1 1.00       0.000000000000
      0.1612777588D+00  0.1000000000D+01
 ****
     35 0
 S   6 1.00       0.000000000000
      0.3047524880D+04  0.1834737132D-02
      0.4573695180D+03  0.1403732281D-01
      0.1039486850D+03  0.6884262226D-01
      0.2921015530D+02  0.2321844432D+00
      0.9286662960D+01  0.4679413484D+00
      0.3163926960D+01  0.3623119853D+00
 SP   3 1.00       0.000000000000
      0.7868272350D+01 -0.1193324198D+00  0.6899906659D-01
      0.1881288540D+01 -0.1608541517D+00  0.3164239610D+00
      0.5442492580D+00  0.1143456438D+01  0.7443082909D+00
 SP   1 1.00       0.000000000000
      0.1687144782D+00  0.1000000000D+01  0.1000000000D+01
 D   1 1.00       0.000000000000
      0.8000000000D+00  0.1000000000D+01
 ****
     36 0
 S   6 1.00       0.000000000000
      0.3047524880D+04  0.1834737132D-02
      0.4573695180D+03  0.1403732281D-01
      0.1039486850D+03  0.6884262226D-01
      0.2921015530D+02  0.2321844432D+00
      0.9286662960D+01  0.4679413484D+00
      0.3163926960D+01  0.3623119853D+00
 SP   3 1.00       0.000000000000
      0.7868272350D+01 -0.1193324198D+00  0.6899906659D-01
      0.1881288540D+01 -0.1608541517D+00  0.3164239610D+00
      0.5442492580D+00  0.1143456438D+01  0.7443082909D+00
 SP   1 1.00       0.000000000000
      0.1687144782D+00  0.1000000000D+01  0.1000000000D+01
 D   1 1.00       0.000000000000
      0.8000000000D+00  0.1000000000D+01
 ****
     37 0
 S   3 1.00       0.000000000000
      0.1873113696D+02  0.3349460434D-01
      0.2825394365D+01  0.2347269535D+00
      0.6401216923D+00  0.8137573261D+00
 S   1 1.00       0.000000000000
      0.1612777588D+00  0.1000000000D+01
 ****
     38 0
 S   3 1.00       0.000000000000
      0.1873113696D+02  0.3349460434D-01
      0.2825394365D+01  0.2347269535D+00
      0.6401216923D+00  0.8137573261D+00
 S   1 1.00       0.000000000000
      0.1612777588D+00  0.1000000000D+01
 ****
     39 0
 S   6 1.00       0.000000000000
      0.3047524880D+04  0.1834737132D-02
      0.4573695180D+03  0.1403732281D-01
      0.1039486850D+03  0.6884262226D-01
      0.2921015530D+02  0.2321844432D+00
      0.9286662960D+01  0.4679413484D+00
      0.3163926960D+01  0.3623119853D+00
 SP   3 1.00       0.000000000000
      0.7868272350D+01 -0.1193324198D+00  0.6899906659D-01
      0.1881288540D+01 -0.1608541517D+00  0.3164239610D+00
      0.5442492580D+00  0.1143456438D+01  0.7443082909D+00
 SP   1 1.00       0.000000000000
      0.1687144782D+00  0.1000000000D+01  0.1000000000D+01
 D   1 1.00       0.000000000000
      0.8000000000D+00  0.1000000000D+01
 ****
     40 0
 S   3 1.00       0.000000000000
      0.1873113696D+02  0.3349460434D-01
      0.2825394365D+01  0.2347269535D+00
      0.6401216923D+00  0.8137573261D+00
 S   1 1.00       0.000000000000
      0.1612777588D+00  0.1000000000D+01
 ****
     41 0
 S   6 1.00       0.000000000000
      0.3047524880D+04  0.1834737132D-02
      0.4573695180D+03  0.1403732281D-01
      0.1039486850D+03  0.6884262226D-01
      0.2921015530D+02  0.2321844432D+00
      0.9286662960D+01  0.4679413484D+00
      0.3163926960D+01  0.3623119853D+00
 SP   3 1.00       0.000000000000
      0.7868272350D+01 -0.1193324198D+00  0.6899906659D-01
      0.1881288540D+01 -0.1608541517D+00  0.3164239610D+00
      0.5442492580D+00  0.1143456438D+01  0.7443082909D+00
 SP   1 1.00       0.000000000000
      0.1687144782D+00  0.1000000000D+01  0.1000000000D+01
 D   1 1.00       0.000000000000
      0.8000000000D+00  0.1000000000D+01
 ****
     42 0
 S   3 1.00       0.000000000000
      0.1873113696D+02  0.3349460434D-01
      0.2825394365D+01  0.2347269535D+00
      0.6401216923D+00  0.8137573261D+00
 S   1 1.00       0.000000000000
      0.1612777588D+00  0.1000000000D+01
 ****
     43 0
 S   3 1.00       0.000000000000
      0.1873113696D+02  0.3349460434D-01
      0.2825394365D+01  0.2347269535D+00
      0.6401216923D+00  0.8137573261D+00
 S   1 1.00       0.000000000000
      0.1612777588D+00  0.1000000000D+01
 ****
     44 0
 S   3 1.00       0.000000000000
      0.1873113696D+02  0.3349460434D-01
      0.2825394365D+01  0.2347269535D+00
      0.6401216923D+00  0.8137573261D+00
 S   1 1.00       0.000000000000
      0.1612777588D+00  0.1000000000D+01
 ****
     45 0
 S   6 1.00       0.000000000000
      0.3047524880D+04  0.1834737132D-02
      0.4573695180D+03  0.1403732281D-01
      0.1039486850D+03  0.6884262226D-01
      0.2921015530D+02  0.2321844432D+00
      0.9286662960D+01  0.4679413484D+00
      0.3163926960D+01  0.3623119853D+00
 SP   3 1.00       0.000000000000
      0.7868272350D+01 -0.1193324198D+00  0.6899906659D-01
      0.1881288540D+01 -0.1608541517D+00  0.3164239610D+00
      0.5442492580D+00  0.1143456438D+01  0.7443082909D+00
 SP   1 1.00       0.000000000000
      0.1687144782D+00  0.1000000000D+01  0.1000000000D+01
 D   1 1.00       0.000000000000
      0.8000000000D+00  0.1000000000D+01
 ****
     46 0
 S   3 1.00       0.000000000000
      0.1873113696D+02  0.3349460434D-01
      0.2825394365D+01  0.2347269535D+00
      0.6401216923D+00  0.8137573261D+00
 S   1 1.00       0.000000000000
      0.1612777588D+00  0.1000000000D+01
 ****
     47 0
 S   3 1.00       0.000000000000
      0.1873113696D+02  0.3349460434D-01
      0.2825394365D+01  0.2347269535D+00
      0.6401216923D+00  0.8137573261D+00
 S   1 1.00       0.000000000000
      0.1612777588D+00  0.1000000000D+01
 ****
     48 0
 S   6 1.00       0.000000000000
      0.3047524880D+04  0.1834737132D-02
      0.4573695180D+03  0.1403732281D-01
      0.1039486850D+03  0.6884262226D-01
      0.2921015530D+02  0.2321844432D+00
      0.9286662960D+01  0.4679413484D+00
      0.3163926960D+01  0.3623119853D+00
 SP   3 1.00       0.000000000000
      0.7868272350D+01 -0.1193324198D+00  0.6899906659D-01
      0.1881288540D+01 -0.1608541517D+00  0.3164239610D+00
      0.5442492580D+00  0.1143456438D+01  0.7443082909D+00
 SP   1 1.00       0.000000000000
      0.1687144782D+00  0.1000000000D+01  0.1000000000D+01
 D   1 1.00       0.000000000000
      0.8000000000D+00  0.1000000000D+01
 ****
     49 0
 S   3 1.00       0.000000000000
      0.1873113696D+02  0.3349460434D-01
      0.2825394365D+01  0.2347269535D+00
      0.6401216923D+00  0.8137573261D+00
 S   1 1.00       0.000000000000
      0.1612777588D+00  0.1000000000D+01
 ****
     50 0
 S   3 1.00       0.000000000000
      0.1873113696D+02  0.3349460434D-01
      0.2825394365D+01  0.2347269535D+00
      0.6401216923D+00  0.8137573261D+00
 S   1 1.00       0.000000000000
      0.1612777588D+00  0.1000000000D+01
 ****
     51 0
 S   6 1.00       0.000000000000
      0.3047524880D+04  0.1834737132D-02
      0.4573695180D+03  0.1403732281D-01
      0.1039486850D+03  0.6884262226D-01
      0.2921015530D+02  0.2321844432D+00
      0.9286662960D+01  0.4679413484D+00
      0.3163926960D+01  0.3623119853D+00
 SP   3 1.00       0.000000000000
      0.7868272350D+01 -0.1193324198D+00  0.6899906659D-01
      0.1881288540D+01 -0.1608541517D+00  0.3164239610D+00
      0.5442492580D+00  0.1143456438D+01  0.7443082909D+00
 SP   1 1.00       0.000000000000
      0.1687144782D+00  0.1000000000D+01  0.1000000000D+01
 D   1 1.00       0.000000000000
      0.8000000000D+00  0.1000000000D+01
 ****
     52 0
 S   3 1.00       0.000000000000
      0.1873113696D+02  0.3349460434D-01
      0.2825394365D+01  0.2347269535D+00
      0.6401216923D+00  0.8137573261D+00
 S   1 1.00       0.000000000000
      0.1612777588D+00  0.1000000000D+01
 ****
     53 0
 S   3 1.00       0.000000000000
      0.1873113696D+02  0.3349460434D-01
      0.2825394365D+01  0.2347269535D+00
      0.6401216923D+00  0.8137573261D+00
 S   1 1.00       0.000000000000
      0.1612777588D+00  0.1000000000D+01
 ****
     54 0
 S   6 1.00       0.000000000000
      0.3047524880D+04  0.1834737132D-02
      0.4573695180D+03  0.1403732281D-01
      0.1039486850D+03  0.6884262226D-01
      0.2921015530D+02  0.2321844432D+00
      0.9286662960D+01  0.4679413484D+00
      0.3163926960D+01  0.3623119853D+00
 SP   3 1.00       0.000000000000
      0.7868272350D+01 -0.1193324198D+00  0.6899906659D-01
      0.1881288540D+01 -0.1608541517D+00  0.3164239610D+00
      0.5442492580D+00  0.1143456438D+01  0.7443082909D+00
 SP   1 1.00       0.000000000000
      0.1687144782D+00  0.1000000000D+01  0.1000000000D+01
 D   1 1.00       0.000000000000
      0.8000000000D+00  0.1000000000D+01
 ****
     55 0
 S   3 1.00       0.000000000000
      0.1873113696D+02  0.3349460434D-01
      0.2825394365D+01  0.2347269535D+00
      0.6401216923D+00  0.8137573261D+00
 S   1 1.00       0.000000000000
      0.1612777588D+00  0.1000000000D+01
 ****
     56 0
 S   6 1.00       0.000000000000
      0.3047524880D+04  0.1834737132D-02
      0.4573695180D+03  0.1403732281D-01
      0.1039486850D+03  0.6884262226D-01
      0.2921015530D+02  0.2321844432D+00
      0.9286662960D+01  0.4679413484D+00
      0.3163926960D+01  0.3623119853D+00
 SP   3 1.00       0.000000000000
      0.7868272350D+01 -0.1193324198D+00  0.6899906659D-01
      0.1881288540D+01 -0.1608541517D+00  0.3164239610D+00
      0.5442492580D+00  0.1143456438D+01  0.7443082909D+00
 SP   1 1.00       0.000000000000
      0.1687144782D+00  0.1000000000D+01  0.1000000000D+01
 D   1 1.00       0.000000000000
      0.8000000000D+00  0.1000000000D+01
 ****
     57 0
 S   3 1.00       0.000000000000
      0.1873113696D+02  0.3349460434D-01
      0.2825394365D+01  0.2347269535D+00
      0.6401216923D+00  0.8137573261D+00
 S   1 1.00       0.000000000000
      0.1612777588D+00  0.1000000000D+01
 ****
     58 0
 S   3 1.00       0.000000000000
      0.1873113696D+02  0.3349460434D-01
      0.2825394365D+01  0.2347269535D+00
      0.6401216923D+00  0.8137573261D+00
 S   1 1.00       0.000000000000
      0.1612777588D+00  0.1000000000D+01
 ****
     59 0
 S   3 1.00       0.000000000000
      0.1873113696D+02  0.3349460434D-01
      0.2825394365D+01  0.2347269535D+00
      0.6401216923D+00  0.8137573261D+00
 S   1 1.00       0.000000000000
      0.1612777588D+00  0.1000000000D+01
 ****
     60 0
 S   6 1.00       0.000000000000
      0.3047524880D+04  0.1834737132D-02
      0.4573695180D+03  0.1403732281D-01
      0.1039486850D+03  0.6884262226D-01
      0.2921015530D+02  0.2321844432D+00
      0.9286662960D+01  0.4679413484D+00
      0.3163926960D+01  0.3623119853D+00
 SP   3 1.00       0.000000000000
      0.7868272350D+01 -0.1193324198D+00  0.6899906659D-01
      0.1881288540D+01 -0.1608541517D+00  0.3164239610D+00
      0.5442492580D+00  0.1143456438D+01  0.7443082909D+00
 SP   1 1.00       0.000000000000
      0.1687144782D+00  0.1000000000D+01  0.1000000000D+01
 D   1 1.00       0.000000000000
      0.8000000000D+00  0.1000000000D+01
 ****
     61 0
 S   3 1.00       0.000000000000
      0.1873113696D+02  0.3349460434D-01
      0.2825394365D+01  0.2347269535D+00
      0.6401216923D+00  0.8137573261D+00
 S   1 1.00       0.000000000000
      0.1612777588D+00  0.1000000000D+01
 ****
     62 0
 S   3 1.00       0.000000000000
      0.1873113696D+02  0.3349460434D-01
      0.2825394365D+01  0.2347269535D+00
      0.6401216923D+00  0.8137573261D+00
 S   1 1.00       0.000000000000
      0.1612777588D+00  0.1000000000D+01
 ****
     63 0
 S   6 1.00       0.000000000000
      0.3047524880D+04  0.1834737132D-02
      0.4573695180D+03  0.1403732281D-01
      0.1039486850D+03  0.6884262226D-01
      0.2921015530D+02  0.2321844432D+00
      0.9286662960D+01  0.4679413484D+00
      0.3163926960D+01  0.3623119853D+00
 SP   3 1.00       0.000000000000
      0.7868272350D+01 -0.1193324198D+00  0.6899906659D-01
      0.1881288540D+01 -0.1608541517D+00  0.3164239610D+00
      0.5442492580D+00  0.1143456438D+01  0.7443082909D+00
 SP   1 1.00       0.000000000000
      0.1687144782D+00  0.1000000000D+01  0.1000000000D+01
 D   1 1.00       0.000000000000
      0.8000000000D+00  0.1000000000D+01
 ****
     64 0
 S   3 1.00       0.000000000000
      0.1873113696D+02  0.3349460434D-01
      0.2825394365D+01  0.2347269535D+00
      0.6401216923D+00  0.8137573261D+00
 S   1 1.00       0.000000000000
      0.1612777588D+00  0.1000000000D+01
 ****
     65 0
 S   3 1.00       0.000000000000
      0.1873113696D+02  0.3349460434D-01
      0.2825394365D+01  0.2347269535D+00
      0.6401216923D+00  0.8137573261D+00
 S   1 1.00       0.000000000000
      0.1612777588D+00  0.1000000000D+01
 ****
     66 0
 S   6 1.00       0.000000000000
      0.3047524880D+04  0.1834737132D-02
      0.4573695180D+03  0.1403732281D-01
      0.1039486850D+03  0.6884262226D-01
      0.2921015530D+02  0.2321844432D+00
      0.9286662960D+01  0.4679413484D+00
      0.3163926960D+01  0.3623119853D+00
 SP   3 1.00       0.000000000000
      0.7868272350D+01 -0.1193324198D+00  0.6899906659D-01
      0.1881288540D+01 -0.1608541517D+00  0.3164239610D+00
      0.5442492580D+00  0.1143456438D+01  0.7443082909D+00
 SP   1 1.00       0.000000000000
      0.1687144782D+00  0.1000000000D+01  0.1000000000D+01
 D   1 1.00       0.000000000000
      0.8000000000D+00  0.1000000000D+01
 ****
     67 0
 S   3 1.00       0.000000000000
      0.1873113696D+02  0.3349460434D-01
      0.2825394365D+01  0.2347269535D+00
      0.6401216923D+00  0.8137573261D+00
 S   1 1.00       0.000000000000
      0.1612777588D+00  0.1000000000D+01
 ****
     68 0
 S   6 1.00       0.000000000000
      0.3047524880D+04  0.1834737132D-02
      0.4573695180D+03  0.1403732281D-01
      0.1039486850D+03  0.6884262226D-01
      0.2921015530D+02  0.2321844432D+00
      0.9286662960D+01  0.4679413484D+00
      0.3163926960D+01  0.3623119853D+00
 SP   3 1.00       0.000000000000
      0.7868272350D+01 -0.1193324198D+00  0.6899906659D-01
      0.1881288540D+01 -0.1608541517D+00  0.3164239610D+00
      0.5442492580D+00  0.1143456438D+01  0.7443082909D+00
 SP   1 1.00       0.000000000000
      0.1687144782D+00  0.1000000000D+01  0.1000000000D+01
 D   1 1.00       0.000000000000
      0.8000000000D+00  0.1000000000D+01
 ****
     69 0
 S   3 1.00       0.000000000000
      0.1873113696D+02  0.3349460434D-01
      0.2825394365D+01  0.2347269535D+00
      0.6401216923D+00  0.8137573261D+00
 S   1 1.00       0.000000000000
      0.1612777588D+00  0.1000000000D+01
 ****
     70 0
 S   3 1.00       0.000000000000
      0.1873113696D+02  0.3349460434D-01
      0.2825394365D+01  0.2347269535D+00
      0.6401216923D+00  0.8137573261D+00
 S   1 1.00       0.000000000000
      0.1612777588D+00  0.1000000000D+01
 ****
     71 0
 S   3 1.00       0.000000000000
      0.1873113696D+02  0.3349460434D-01
      0.2825394365D+01  0.2347269535D+00
      0.6401216923D+00  0.8137573261D+00
 S   1 1.00       0.000000000000
      0.1612777588D+00  0.1000000000D+01
 ****
     72 0
 S   6 1.00       0.000000000000
      0.3047524880D+04  0.1834737132D-02
      0.4573695180D+03  0.1403732281D-01
      0.1039486850D+03  0.6884262226D-01
      0.2921015530D+02  0.2321844432D+00
      0.9286662960D+01  0.4679413484D+00
      0.3163926960D+01  0.3623119853D+00
 SP   3 1.00       0.000000000000
      0.7868272350D+01 -0.1193324198D+00  0.6899906659D-01
      0.1881288540D+01 -0.1608541517D+00  0.3164239610D+00
      0.5442492580D+00  0.1143456438D+01  0.7443082909D+00
 SP   1 1.00       0.000000000000
      0.1687144782D+00  0.1000000000D+01  0.1000000000D+01
 D   1 1.00       0.000000000000
      0.8000000000D+00  0.1000000000D+01
 ****
     73 0
 S   3 1.00       0.000000000000
      0.1873113696D+02  0.3349460434D-01
      0.2825394365D+01  0.2347269535D+00
      0.6401216923D+00  0.8137573261D+00
 S   1 1.00       0.000000000000
      0.1612777588D+00  0.1000000000D+01
 ****
     74 0
 S   3 1.00       0.000000000000
      0.1873113696D+02  0.3349460434D-01
      0.2825394365D+01  0.2347269535D+00
      0.6401216923D+00  0.8137573261D+00
 S   1 1.00       0.000000000000
      0.1612777588D+00  0.1000000000D+01
 ****
     75 0
 S   3 1.00       0.000000000000
      0.1873113696D+02  0.3349460434D-01
      0.2825394365D+01  0.2347269535D+00
      0.6401216923D+00  0.8137573261D+00
 S   1 1.00       0.000000000000
      0.1612777588D+00  0.1000000000D+01
 ****

 AO basis set (Overlap normalization):
 Atom O1       Shell     1 S   6     bf    1 -     1         12.714987155112          1.549157950669          0.000000000000
      0.5484671660D+04  0.1831074430D-02
      0.8252349460D+03  0.1395017220D-01
      0.1880469580D+03  0.6844507810D-01
      0.5296450000D+02  0.2327143360D+00
      0.1689757040D+02  0.4701928980D+00
      0.5799635340D+01  0.3585208530D+00
 Atom O1       Shell     2 SP   3    bf    2 -     5         12.714987155112          1.549157950669          0.000000000000
      0.1553961625D+02 -0.1107775495D+00  0.7087426823D-01
      0.3599933586D+01 -0.1480262627D+00  0.3397528391D+00
      0.1013761750D+01  0.1130767015D+01  0.7271585773D+00
 Atom O1       Shell     3 SP   1    bf    6 -     9         12.714987155112          1.549157950669          0.000000000000
      0.2700058226D+00  0.1000000000D+01  0.1000000000D+01
 Atom O1       Shell     4 D   1     bf   10 -    15         12.714987155112          1.549157950669          0.000000000000
      0.8000000000D+00  0.1000000000D+01
 Atom H2       Shell     5 S   3     bf   16 -    16         13.682510796889          0.000000000000          0.000000000000
      0.1873113696D+02  0.3349460434D-01
      0.2825394365D+01  0.2347269535D+00
      0.6401216923D+00  0.8137573261D+00
 Atom H2       Shell     6 S   1     bf   17 -    17         13.682510796889          0.000000000000          0.000000000000
      0.1612777588D+00  0.1000000000D+01
 Atom O3       Shell     7 S   6     bf   18 -    18         21.533387672462         -2.697486771593          8.070126000662
      0.5484671660D+04  0.1831074430D-02
      0.8252349460D+03  0.1395017220D-01
      0.1880469580D+03  0.6844507810D-01
      0.5296450000D+02  0.2327143360D+00
      0.1689757040D+02  0.4701928980D+00
      0.5799635340D+01  0.3585208530D+00
 Atom O3       Shell     8 SP   3    bf   19 -    22         21.533387672462         -2.697486771593          8.070126000662
      0.1553961625D+02 -0.1107775495D+00  0.7087426823D-01
      0.3599933586D+01 -0.1480262627D+00  0.3397528391D+00
      0.1013761750D+01  0.1130767015D+01  0.7271585773D+00
 Atom O3       Shell     9 SP   1    bf   23 -    26         21.533387672462         -2.697486771593          8.070126000662
      0.2700058226D+00  0.1000000000D+01  0.1000000000D+01
 Atom O3       Shell    10 D   1     bf   27 -    32         21.533387672462         -2.697486771593          8.070126000662
      0.8000000000D+00  0.1000000000D+01
 Atom H4       Shell    11 S   3     bf   33 -    33         21.433107616673         -2.156033898436          9.813658668024
      0.1873113696D+02  0.3349460434D-01
      0.2825394365D+01  0.2347269535D+00
      0.6401216923D+00  0.8137573261D+00
 Atom H4       Shell    12 S   1     bf   34 -    34         21.433107616673         -2.156033898436          9.813658668024
      0.1612777588D+00  0.1000000000D+01
 Atom C5       Shell    13 S   6     bf   35 -    35          5.614092806294         -0.097386242573          3.798366194485
      0.3047524880D+04  0.1834737132D-02
      0.4573695180D+03  0.1403732281D-01
      0.1039486850D+03  0.6884262226D-01
      0.2921015530D+02  0.2321844432D+00
      0.9286662960D+01  0.4679413484D+00
      0.3163926960D+01  0.3623119853D+00
 Atom C5       Shell    14 SP   3    bf   36 -    39          5.614092806294         -0.097386242573          3.798366194485
      0.7868272350D+01 -0.1193324198D+00  0.6899906659D-01
      0.1881288540D+01 -0.1608541517D+00  0.3164239610D+00
      0.5442492580D+00  0.1143456438D+01  0.7443082909D+00
 Atom C5       Shell    15 SP   1    bf   40 -    43          5.614092806294         -0.097386242573          3.798366194485
      0.1687144782D+00  0.1000000000D+01  0.1000000000D+01
 Atom C5       Shell    16 D   1     bf   44 -    49          5.614092806294         -0.097386242573          3.798366194485
      0.8000000000D+00  0.1000000000D+01
 Atom C6       Shell    17 S   6     bf   50 -    50          7.928327471206          1.135543463032          2.467328786663
      0.3047524880D+04  0.1834737132D-02
      0.4573695180D+03  0.1403732281D-01
      0.1039486850D+03  0.6884262226D-01
      0.2921015530D+02  0.2321844432D+00
      0.9286662960D+01  0.4679413484D+00
      0.3163926960D+01  0.3623119853D+00
 Atom C6       Shell    18 SP   3    bf   51 -    54          7.928327471206          1.135543463032          2.467328786663
      0.7868272350D+01 -0.1193324198D+00  0.6899906659D-01
      0.1881288540D+01 -0.1608541517D+00  0.3164239610D+00
      0.5442492580D+00  0.1143456438D+01  0.7443082909D+00
 Atom C6       Shell    19 SP   1    bf   55 -    58          7.928327471206          1.135543463032          2.467328786663
      0.1687144782D+00  0.1000000000D+01  0.1000000000D+01
 Atom C6       Shell    20 D   1     bf   59 -    64          7.928327471206          1.135543463032          2.467328786663
      0.8000000000D+00  0.1000000000D+01
 Atom H7       Shell    21 S   3     bf   65 -    65          8.384806163180         -0.112907111323          0.872193761386
      0.1873113696D+02  0.3349460434D-01
      0.2825394365D+01  0.2347269535D+00
      0.6401216923D+00  0.8137573261D+00
 Atom H7       Shell    22 S   1     bf   66 -    66          8.384806163180         -0.112907111323          0.872193761386
      0.1612777588D+00  0.1000000000D+01
 Atom C8       Shell    23 S   6     bf   67 -    67         10.339767815358          1.267110599466          4.068572691815
      0.3047524880D+04  0.1834737132D-02
      0.4573695180D+03  0.1403732281D-01
      0.1039486850D+03  0.6884262226D-01
      0.2921015530D+02  0.2321844432D+00
      0.9286662960D+01  0.4679413484D+00
      0.3163926960D+01  0.3623119853D+00
 Atom C8       Shell    24 SP   3    bf   68 -    71         10.339767815358          1.267110599466          4.068572691815
      0.7868272350D+01 -0.1193324198D+00  0.6899906659D-01
      0.1881288540D+01 -0.1608541517D+00  0.3164239610D+00
      0.5442492580D+00  0.1143456438D+01  0.7443082909D+00
 Atom C8       Shell    25 SP   1    bf   72 -    75         10.339767815358          1.267110599466          4.068572691815
      0.1687144782D+00  0.1000000000D+01  0.1000000000D+01
 Atom C8       Shell    26 D   1     bf   76 -    81         10.339767815358          1.267110599466          4.068572691815
      0.8000000000D+00  0.1000000000D+01
 Atom H9       Shell    27 S   3     bf   82 -    82         10.019226969595          2.527075823169          5.689166202040
      0.1873113696D+02  0.3349460434D-01
      0.2825394365D+01  0.2347269535D+00
      0.6401216923D+00  0.8137573261D+00
 Atom H9       Shell    28 S   1     bf   83 -    83         10.019226969595          2.527075823169          5.689166202040
      0.1612777588D+00  0.1000000000D+01
 Atom C10      Shell    29 S   6     bf   84 -    84         11.068632482504         -1.396479908817          5.049401687423
      0.3047524880D+04  0.1834737132D-02
      0.4573695180D+03  0.1403732281D-01
      0.1039486850D+03  0.6884262226D-01
      0.2921015530D+02  0.2321844432D+00
      0.9286662960D+01  0.4679413484D+00
      0.3163926960D+01  0.3623119853D+00
 Atom C10      Shell    30 SP   3    bf   85 -    88         11.068632482504         -1.396479908817          5.049401687423
      0.7868272350D+01 -0.1193324198D+00  0.6899906659D-01
      0.1881288540D+01 -0.1608541517D+00  0.3164239610D+00
      0.5442492580D+00  0.1143456438D+01  0.7443082909D+00
 Atom C10      Shell    31 SP   1    bf   89 -    92         11.068632482504         -1.396479908817          5.049401687423
      0.1687144782D+00  0.1000000000D+01  0.1000000000D+01
 Atom C10      Shell    32 D   1     bf   93 -    98         11.068632482504         -1.396479908817          5.049401687423
      0.8000000000D+00  0.1000000000D+01
 Atom H11      Shell    33 S   3     bf   99 -    99         11.654895448792         -2.480371449665          3.368784730450
      0.1873113696D+02  0.3349460434D-01
      0.2825394365D+01  0.2347269535D+00
      0.6401216923D+00  0.8137573261D+00
 Atom H11      Shell    34 S   1     bf  100 -   100         11.654895448792         -2.480371449665          3.368784730450
      0.1612777588D+00  0.1000000000D+01
 Atom C12      Shell    35 S   6     bf  101 -   101          3.639203217257          0.157107257551          1.603392183614
      0.3047524880D+04  0.1834737132D-02
      0.4573695180D+03  0.1403732281D-01
      0.1039486850D+03  0.6884262226D-01
      0.2921015530D+02  0.2321844432D+00
      0.9286662960D+01  0.4679413484D+00
      0.3163926960D+01  0.3623119853D+00
 Atom C12      Shell    36 SP   3    bf  102 -   105          3.639203217257          0.157107257551          1.603392183614
      0.7868272350D+01 -0.1193324198D+00  0.6899906659D-01
      0.1881288540D+01 -0.1608541517D+00  0.3164239610D+00
      0.5442492580D+00  0.1143456438D+01  0.7443082909D+00
 Atom C12      Shell    37 SP   1    bf  106 -   109          3.639203217257          0.157107257551          1.603392183614
      0.1687144782D+00  0.1000000000D+01  0.1000000000D+01
 Atom C12      Shell    38 D   1     bf  110 -   115          3.639203217257          0.157107257551          1.603392183614
      0.8000000000D+00  0.1000000000D+01
 Atom H13      Shell    39 S   3     bf  116 -   116          4.332228925937         -1.142289350690          0.140685877607
      0.1873113696D+02  0.3349460434D-01
      0.2825394365D+01  0.2347269535D+00
      0.6401216923D+00  0.8137573261D+00
 Atom H13      Shell    40 S   1     bf  117 -   117          4.332228925937         -1.142289350690          0.140685877607
      0.1612777588D+00  0.1000000000D+01
 Atom C14      Shell    41 S   6     bf  118 -   118          6.405719643580         -2.807532572989          4.509710794913
      0.3047524880D+04  0.1834737132D-02
      0.4573695180D+03  0.1403732281D-01
      0.1039486850D+03  0.6884262226D-01
      0.2921015530D+02  0.2321844432D+00
      0.9286662960D+01  0.4679413484D+00
      0.3163926960D+01  0.3623119853D+00
 Atom C14      Shell    42 SP   3    bf  119 -   122          6.405719643580         -2.807532572989          4.509710794913
      0.7868272350D+01 -0.1193324198D+00  0.6899906659D-01
      0.1881288540D+01 -0.1608541517D+00  0.3164239610D+00
      0.5442492580D+00  0.1143456438D+01  0.7443082909D+00
 Atom C14      Shell    43 SP   1    bf  123 -   126          6.405719643580         -2.807532572989          4.509710794913
      0.1687144782D+00  0.1000000000D+01  0.1000000000D+01
 Atom C14      Shell    44 D   1     bf  127 -   132          6.405719643580         -2.807532572989          4.509710794913
      0.8000000000D+00  0.1000000000D+01
 Atom H15      Shell    45 S   3     bf  133 -   133          6.781381173920         -3.878164737042          2.770286014218
      0.1873113696D+02  0.3349460434D-01
      0.2825394365D+01  0.2347269535D+00
      0.6401216923D+00  0.8137573261D+00
 Atom H15      Shell    46 S   1     bf  134 -   134          6.781381173920         -3.878164737042          2.770286014218
      0.1612777588D+00  0.1000000000D+01
 Atom H16      Shell    47 S   3     bf  135 -   135          4.886572376936         -3.804109695812          5.505903056111
      0.1873113696D+02  0.3349460434D-01
      0.2825394365D+01  0.2347269535D+00
      0.6401216923D+00  0.8137573261D+00
 Atom H16      Shell    48 S   1     bf  136 -   136          4.886572376936         -3.804109695812          5.505903056111
      0.1612777588D+00  0.1000000000D+01
 Atom C17      Shell    49 S   6     bf  137 -   137         13.433416395504         -1.330332842330          6.837143892951
      0.3047524880D+04  0.1834737132D-02
      0.4573695180D+03  0.1403732281D-01
      0.1039486850D+03  0.6884262226D-01
      0.2921015530D+02  0.2321844432D+00
      0.9286662960D+01  0.4679413484D+00
      0.3163926960D+01  0.3623119853D+00
 Atom C17      Shell    50 SP   3    bf  138 -   141         13.433416395504         -1.330332842330          6.837143892951
      0.7868272350D+01 -0.1193324198D+00  0.6899906659D-01
      0.1881288540D+01 -0.1608541517D+00  0.3164239610D+00
      0.5442492580D+00  0.1143456438D+01  0.7443082909D+00
 Atom C17      Shell    51 SP   1    bf  142 -   145         13.433416395504         -1.330332842330          6.837143892951
      0.1687144782D+00  0.1000000000D+01  0.1000000000D+01
 Atom C17      Shell    52 D   1     bf  146 -   151         13.433416395504         -1.330332842330          6.837143892951
      0.8000000000D+00  0.1000000000D+01
 Atom C18      Shell    53 S   6     bf  152 -   152          6.878181828160          3.583746992908          1.303271416087
      0.3047524880D+04  0.1834737132D-02
      0.4573695180D+03  0.1403732281D-01
      0.1039486850D+03  0.6884262226D-01
      0.2921015530D+02  0.2321844432D+00
      0.9286662960D+01  0.4679413484D+00
      0.3163926960D+01  0.3623119853D+00
 Atom C18      Shell    54 SP   3    bf  153 -   156          6.878181828160          3.583746992908          1.303271416087
      0.7868272350D+01 -0.1193324198D+00  0.6899906659D-01
      0.1881288540D+01 -0.1608541517D+00  0.3164239610D+00
      0.5442492580D+00  0.1143456438D+01  0.7443082909D+00
 Atom C18      Shell    55 SP   1    bf  157 -   160          6.878181828160          3.583746992908          1.303271416087
      0.1687144782D+00  0.1000000000D+01  0.1000000000D+01
 Atom C18      Shell    56 D   1     bf  161 -   166          6.878181828160          3.583746992908          1.303271416087
      0.8000000000D+00  0.1000000000D+01
 Atom H19      Shell    57 S   3     bf  167 -   167          8.000561591231          4.203704248577         -0.317499501628
      0.1873113696D+02  0.3349460434D-01
      0.2825394365D+01  0.2347269535D+00
      0.6401216923D+00  0.8137573261D+00
 Atom H19      Shell    58 S   1     bf  168 -   168          8.000561591231          4.203704248577         -0.317499501628
      0.1612777588D+00  0.1000000000D+01
 Atom H20      Shell    59 S   3     bf  169 -   169          6.898083195469          5.129841621927          2.685738627684
      0.1873113696D+02  0.3349460434D-01
      0.2825394365D+01  0.2347269535D+00
      0.6401216923D+00  0.8137573261D+00
 Atom H20      Shell    60 S   1     bf  170 -   170          6.898083195469          5.129841621927          2.685738627684
      0.1612777588D+00  0.1000000000D+01
 Atom C21      Shell    61 S   6     bf  171 -   171          8.786164831982         -2.825835269785          6.191738092293
      0.3047524880D+04  0.1834737132D-02
      0.4573695180D+03  0.1403732281D-01
      0.1039486850D+03  0.6884262226D-01
      0.2921015530D+02  0.2321844432D+00
      0.9286662960D+01  0.4679413484D+00
      0.3163926960D+01  0.3623119853D+00
 Atom C21      Shell    62 SP   3    bf  172 -   175          8.786164831982         -2.825835269785          6.191738092293
      0.7868272350D+01 -0.1193324198D+00  0.6899906659D-01
      0.1881288540D+01 -0.1608541517D+00  0.3164239610D+00
      0.5442492580D+00  0.1143456438D+01  0.7443082909D+00
 Atom C21      Shell    63 SP   1    bf  176 -   179          8.786164831982         -2.825835269785          6.191738092293
      0.1687144782D+00  0.1000000000D+01  0.1000000000D+01
 Atom C21      Shell    64 D   1     bf  180 -   185          8.786164831982         -2.825835269785          6.191738092293
      0.8000000000D+00  0.1000000000D+01
 Atom H22      Shell    65 S   3     bf  186 -   186          8.294272313229         -2.012016509246          8.029001799456
      0.1873113696D+02  0.3349460434D-01
      0.2825394365D+01  0.2347269535D+00
      0.6401216923D+00  0.8137573261D+00
 Atom H22      Shell    66 S   1     bf  187 -   187          8.294272313229         -2.012016509246          8.029001799456
      0.1612777588D+00  0.1000000000D+01
 Atom H23      Shell    67 S   3     bf  188 -   188          9.315825662891         -4.793422768072          6.563938967166
      0.1873113696D+02  0.3349460434D-01
      0.2825394365D+01  0.2347269535D+00
      0.6401216923D+00  0.8137573261D+00
 Atom H23      Shell    68 S   1     bf  189 -   189          9.315825662891         -4.793422768072          6.563938967166
      0.1612777588D+00  0.1000000000D+01
 Atom C24      Shell    69 S   6     bf  190 -   190          4.123394875252          2.875654233210          0.558298383234
      0.3047524880D+04  0.1834737132D-02
      0.4573695180D+03  0.1403732281D-01
      0.1039486850D+03  0.6884262226D-01
      0.2921015530D+02  0.2321844432D+00
      0.9286662960D+01  0.4679413484D+00
      0.3163926960D+01  0.3623119853D+00
 Atom C24      Shell    70 SP   3    bf  191 -   194          4.123394875252          2.875654233210          0.558298383234
      0.7868272350D+01 -0.1193324198D+00  0.6899906659D-01
      0.1881288540D+01 -0.1608541517D+00  0.3164239610D+00
      0.5442492580D+00  0.1143456438D+01  0.7443082909D+00
 Atom C24      Shell    71 SP   1    bf  195 -   198          4.123394875252          2.875654233210          0.558298383234
      0.1687144782D+00  0.1000000000D+01  0.1000000000D+01
 Atom C24      Shell    72 D   1     bf  199 -   204          4.123394875252          2.875654233210          0.558298383234
      0.8000000000D+00  0.1000000000D+01
 Atom H25      Shell    73 S   3     bf  205 -   205          2.777454444639          4.234313881300          1.347183700333
      0.1873113696D+02  0.3349460434D-01
      0.2825394365D+01  0.2347269535D+00
      0.6401216923D+00  0.8137573261D+00
 Atom H25      Shell    74 S   1     bf  206 -   206          2.777454444639          4.234313881300          1.347183700333
      0.1612777588D+00  0.1000000000D+01
 Atom H26      Shell    75 S   3     bf  207 -   207          3.847258530700          2.912073016346         -1.492983630389
      0.1873113696D+02  0.3349460434D-01
      0.2825394365D+01  0.2347269535D+00
      0.6401216923D+00  0.8137573261D+00
 Atom H26      Shell    76 S   1     bf  208 -   208          3.847258530700          2.912073016346         -1.492983630389
      0.1612777588D+00  0.1000000000D+01
 Atom C27      Shell    77 S   6     bf  209 -   209         12.551452768908          2.447347767397          2.578052772974
      0.3047524880D+04  0.1834737132D-02
      0.4573695180D+03  0.1403732281D-01
      0.1039486850D+03  0.6884262226D-01
      0.2921015530D+02  0.2321844432D+00
      0.9286662960D+01  0.4679413484D+00
      0.3163926960D+01  0.3623119853D+00
 Atom C27      Shell    78 SP   3    bf  210 -   213         12.551452768908          2.447347767397          2.578052772974
      0.7868272350D+01 -0.1193324198D+00  0.6899906659D-01
      0.1881288540D+01 -0.1608541517D+00  0.3164239610D+00
      0.5442492580D+00  0.1143456438D+01  0.7443082909D+00
 Atom C27      Shell    79 SP   1    bf  214 -   217         12.551452768908          2.447347767397          2.578052772974
      0.1687144782D+00  0.1000000000D+01  0.1000000000D+01
 Atom C27      Shell    80 D   1     bf  218 -   223         12.551452768908          2.447347767397          2.578052772974
      0.8000000000D+00  0.1000000000D+01
 Atom H28      Shell    81 S   3     bf  224 -   224         12.186505815666          4.474460750698          2.359160711638
      0.1873113696D+02  0.3349460434D-01
      0.2825394365D+01  0.2347269535D+00
      0.6401216923D+00  0.8137573261D+00
 Atom H28      Shell    82 S   1     bf  225 -   225         12.186505815666          4.474460750698          2.359160711638
      0.1612777588D+00  0.1000000000D+01
 Atom C29      Shell    83 S   6     bf  226 -   226          0.780286401790         -0.477497019710          1.871986498889
      0.3047524880D+04  0.1834737132D-02
      0.4573695180D+03  0.1403732281D-01
      0.1039486850D+03  0.6884262226D-01
      0.2921015530D+02  0.2321844432D+00
      0.9286662960D+01  0.4679413484D+00
      0.3163926960D+01  0.3623119853D+00
 Atom C29      Shell    84 SP   3    bf  227 -   230          0.780286401790         -0.477497019710          1.871986498889
      0.7868272350D+01 -0.1193324198D+00  0.6899906659D-01
      0.1881288540D+01 -0.1608541517D+00  0.3164239610D+00
      0.5442492580D+00  0.1143456438D+01  0.7443082909D+00
 Atom C29      Shell    85 SP   1    bf  231 -   234          0.780286401790         -0.477497019710          1.871986498889
      0.1687144782D+00  0.1000000000D+01  0.1000000000D+01
 Atom C29      Shell    86 D   1     bf  235 -   240          0.780286401790         -0.477497019710          1.871986498889
      0.8000000000D+00  0.1000000000D+01
 Atom H30      Shell    87 S   3     bf  241 -   241          0.000000000000          0.000000000000          0.000000000000
      0.1873113696D+02  0.3349460434D-01
      0.2825394365D+01  0.2347269535D+00
      0.6401216923D+00  0.8137573261D+00
 Atom H30      Shell    88 S   1     bf  242 -   242          0.000000000000          0.000000000000          0.000000000000
      0.1612777588D+00  0.1000000000D+01
 Atom C31      Shell    89 S   6     bf  243 -   243          4.807647133517          1.376660706800          6.189491359099
      0.3047524880D+04  0.1834737132D-02
      0.4573695180D+03  0.1403732281D-01
      0.1039486850D+03  0.6884262226D-01
      0.2921015530D+02  0.2321844432D+00
      0.9286662960D+01  0.4679413484D+00
      0.3163926960D+01  0.3623119853D+00
 Atom C31      Shell    90 SP   3    bf  244 -   247          4.807647133517          1.376660706800          6.189491359099
      0.7868272350D+01 -0.1193324198D+00  0.6899906659D-01
      0.1881288540D+01 -0.1608541517D+00  0.3164239610D+00
      0.5442492580D+00  0.1143456438D+01  0.7443082909D+00
 Atom C31      Shell    91 SP   1    bf  248 -   251          4.807647133517          1.376660706800          6.189491359099
      0.1687144782D+00  0.1000000000D+01  0.1000000000D+01
 Atom C31      Shell    92 D   1     bf  252 -   257          4.807647133517          1.376660706800          6.189491359099
      0.8000000000D+00  0.1000000000D+01
 Atom H32      Shell    93 S   3     bf  258 -   258          6.396370488100          1.713049230551          7.466322237361
      0.1873113696D+02  0.3349460434D-01
      0.2825394365D+01  0.2347269535D+00
      0.6401216923D+00  0.8137573261D+00
 Atom H32      Shell    94 S   1     bf  259 -   259          6.396370488100          1.713049230551          7.466322237361
      0.1612777588D+00  0.1000000000D+01
 Atom H33      Shell    95 S   3     bf  260 -   260          3.996692177343          3.220569163477          5.733053126161
      0.1873113696D+02  0.3349460434D-01
      0.2825394365D+01  0.2347269535D+00
      0.6401216923D+00  0.8137573261D+00
 Atom H33      Shell    96 S   1     bf  261 -   261          3.996692177343          3.220569163477          5.733053126161
      0.1612777588D+00  0.1000000000D+01
 Atom H34      Shell    97 S   3     bf  262 -   262          3.387710791205          0.320704080306          7.258581223168
      0.1873113696D+02  0.3349460434D-01
      0.2825394365D+01  0.2347269535D+00
      0.6401216923D+00  0.8137573261D+00
 Atom H34      Shell    98 S   1     bf  263 -   263          3.387710791205          0.320704080306          7.258581223168
      0.1612777588D+00  0.1000000000D+01
 Atom C35      Shell    99 S   6     bf  264 -   264         15.480869748393          0.407078397375          5.742446652411
      0.3047524880D+04  0.1834737132D-02
      0.4573695180D+03  0.1403732281D-01
      0.1039486850D+03  0.6884262226D-01
      0.2921015530D+02  0.2321844432D+00
      0.9286662960D+01  0.4679413484D+00
      0.3163926960D+01  0.3623119853D+00
 Atom C35      Shell   100 SP   3    bf  265 -   268         15.480869748393          0.407078397375          5.742446652411
      0.7868272350D+01 -0.1193324198D+00  0.6899906659D-01
      0.1881288540D+01 -0.1608541517D+00  0.3164239610D+00
      0.5442492580D+00  0.1143456438D+01  0.7443082909D+00
 Atom C35      Shell   101 SP   1    bf  269 -   272         15.480869748393          0.407078397375          5.742446652411
      0.1687144782D+00  0.1000000000D+01  0.1000000000D+01
 Atom C35      Shell   102 D   1     bf  273 -   278         15.480869748393          0.407078397375          5.742446652411
      0.8000000000D+00  0.1000000000D+01
 Atom C36      Shell   103 S   6     bf  279 -   279         14.542214583475         -4.055029837203          7.037032471452
      0.3047524880D+04  0.1834737132D-02
      0.4573695180D+03  0.1403732281D-01
      0.1039486850D+03  0.6884262226D-01
      0.2921015530D+02  0.2321844432D+00
      0.9286662960D+01  0.4679413484D+00
      0.3163926960D+01  0.3623119853D+00
 Atom C36      Shell   104 SP   3    bf  280 -   283         14.542214583475         -4.055029837203          7.037032471452
      0.7868272350D+01 -0.1193324198D+00  0.6899906659D-01
      0.1881288540D+01 -0.1608541517D+00  0.3164239610D+00
      0.5442492580D+00  0.1143456438D+01  0.7443082909D+00
 Atom C36      Shell   105 SP   1    bf  284 -   287         14.542214583475         -4.055029837203          7.037032471452
      0.1687144782D+00  0.1000000000D+01  0.1000000000D+01
 Atom C36      Shell   106 D   1     bf  288 -   293         14.542214583475         -4.055029837203          7.037032471452
      0.8000000000D+00  0.1000000000D+01
 Atom H37      Shell   107 S   3     bf  294 -   294         14.697807603475         -4.835282167230          5.118772702281
      0.1873113696D+02  0.3349460434D-01
      0.2825394365D+01  0.2347269535D+00
      0.6401216923D+00  0.8137573261D+00
 Atom H37      Shell   108 S   1     bf  295 -   295         14.697807603475         -4.835282167230          5.118772702281
      0.1612777588D+00  0.1000000000D+01
 Atom H38      Shell   109 S   3     bf  296 -   296         13.205614615603         -5.265253689636          8.053142880728
      0.1873113696D+02  0.3349460434D-01
      0.2825394365D+01  0.2347269535D+00
      0.6401216923D+00  0.8137573261D+00
 Atom H38      Shell   110 S   1     bf  297 -   297         13.205614615603         -5.265253689636          8.053142880728
      0.1612777588D+00  0.1000000000D+01
 Atom C39      Shell   111 S   6     bf  298 -   298         15.045126246487          2.071745347690          3.876266242580
      0.3047524880D+04  0.1834737132D-02
      0.4573695180D+03  0.1403732281D-01
      0.1039486850D+03  0.6884262226D-01
      0.2921015530D+02  0.2321844432D+00
      0.9286662960D+01  0.4679413484D+00
      0.3163926960D+01  0.3623119853D+00
 Atom C39      Shell   112 SP   3    bf  299 -   302         15.045126246487          2.071745347690          3.876266242580
      0.7868272350D+01 -0.1193324198D+00  0.6899906659D-01
      0.1881288540D+01 -0.1608541517D+00  0.3164239610D+00
      0.5442492580D+00  0.1143456438D+01  0.7443082909D+00
 Atom C39      Shell   113 SP   1    bf  303 -   306         15.045126246487          2.071745347690          3.876266242580
      0.1687144782D+00  0.1000000000D+01  0.1000000000D+01
 Atom C39      Shell   114 D   1     bf  307 -   312         15.045126246487          2.071745347690          3.876266242580
      0.8000000000D+00  0.1000000000D+01
 Atom H40      Shell   115 S   3     bf  313 -   313         16.603718711566          3.213892704358          3.164725545271
[...]
 **** Fit      -0.002208
 **** Fit       0.004198
 **** Fit       0.008602
 **** Fit       0.011067
 **** Fit       0.012034
 **** Fit       0.012023
 **** Fit       0.011464
 **** Fit      -0.008626
 **** Fit      -0.010499
 **** Fit      -0.012718
 **** Fit      -0.015181
 **** Fit      -0.017626
 **** Fit      -0.019593
 **** Fit      -0.020465
 **** Fit      -0.019653
 **** Fit      -0.016875
 **** Fit      -0.012368
 **** Fit      -0.006867
 **** Fit      -0.001331
 **** Fit       0.003412
 **** Fit       0.006903
 **** Fit       0.009078
 **** Fit       0.010144
 **** Fit       0.010408
 **** Fit       0.010164
 **** Fit      -0.006763
 **** Fit      -0.008060
 **** Fit      -0.009563
 **** Fit      -0.011182
 **** Fit      -0.012718
 **** Fit      -0.013858
 **** Fit      -0.014215
 **** Fit      -0.013448
 **** Fit      -0.011413
 **** Fit      -0.008268
 **** Fit      -0.004452
 **** Fit      -0.000544
 **** Fit       0.002931
 **** Fit       0.005639
 **** Fit       0.007475
 **** Fit       0.008518
 **** Fit      -0.005155
 **** Fit      -0.006008
 **** Fit      -0.006983
 **** Fit      -0.008010
 **** Fit      -0.008949
 **** Fit      -0.009589
 **** Fit      -0.009684
 **** Fit      -0.009029
 **** Fit      -0.007547
 **** Fit      -0.005337
 **** Fit      -0.002669
 **** Fit       0.000106
 **** Fit       0.002650
 **** Fit       0.004728
 **** Fit       0.006236
 **** Fit      -0.004365
 **** Fit      -0.004968
 **** Fit      -0.005596
 **** Fit      -0.006150
 **** Fit      -0.006490
 **** Fit      -0.006458
 **** Fit      -0.005923
 **** Fit      -0.003456
 **** Fit      -0.003820
 **** Fit      -0.004129
 **** Fit      -0.004289
 **** Fit      -0.004195
 **** Fit      -0.003763
 **** Fit      -0.002549
 **** Fit      -0.002702
 **** Fit      -0.002752
 **** Fit      -0.023514
 **** Fit      -0.025108
 **** Fit      -0.025720
 **** Fit      -0.025111
 **** Fit      -0.023257
 **** Fit      -0.020383
 **** Fit      -0.016885
 **** Fit      -0.025413
 **** Fit      -0.028492
 **** Fit      -0.030772
 **** Fit      -0.031705
 **** Fit      -0.030904
 **** Fit      -0.028333
 **** Fit      -0.024363
 **** Fit      -0.019631
 **** Fit      -0.014800
 **** Fit      -0.010380
 **** Fit      -0.006654
 **** Fit      -0.025547
 **** Fit      -0.029955
 **** Fit      -0.034106
 **** Fit      -0.037267
 **** Fit      -0.038597
 **** Fit      -0.037488
 **** Fit      -0.033905
 **** Fit      -0.028463
 **** Fit      -0.022153
 **** Fit      -0.015940
 **** Fit      -0.010491
 **** Fit      -0.006108
 **** Fit      -0.002813
 **** Fit      -0.023924
 **** Fit      -0.029067
 **** Fit      -0.034647
 **** Fit      -0.040044
 **** Fit      -0.044222
 **** Fit      -0.045946
 **** Fit      -0.044324
 **** Fit      -0.039373
 **** Fit      -0.032083
 **** Fit      -0.023924
 **** Fit      -0.016214
 **** Fit      -0.009759
 **** Fit      -0.004833
 **** Fit      -0.001340
 **** Fit       0.000990
 **** Fit      -0.026190
 **** Fit      -0.032281
 **** Fit      -0.039046
 **** Fit      -0.045710
 **** Fit      -0.050873
 **** Fit      -0.052819
 **** Fit      -0.050375
 **** Fit      -0.043723
 **** Fit      -0.034369
 **** Fit      -0.024316
 **** Fit      -0.015216
 **** Fit      -0.007964
 **** Fit      -0.002742
 **** Fit       0.000717
 **** Fit       0.002840
 **** Fit       0.004041
 **** Fit      -0.022194
 **** Fit      -0.027897
 **** Fit      -0.034778
 **** Fit      -0.042548
 **** Fit      -0.050266
 **** Fit      -0.056136
 **** Fit      -0.057964
 **** Fit      -0.054382
 **** Fit      -0.045892
 **** Fit      -0.034578
 **** Fit      -0.022922
 **** Fit      -0.012806
 **** Fit      -0.005138
 **** Fit       0.000046
 **** Fit       0.003208
 **** Fit       0.004939
 **** Fit       0.005752
 **** Fit      -0.022748
 **** Fit      -0.028779
 **** Fit      -0.036134
 **** Fit      -0.044508
 **** Fit      -0.052815
 **** Fit      -0.058941
 **** Fit      -0.060329
 **** Fit      -0.045465
 **** Fit      -0.032670
 **** Fit      -0.019970
 **** Fit      -0.009361
 **** Fit      -0.001702
 **** Fit       0.003135
 **** Fit       0.005802
 **** Fit       0.007031
 **** Fit       0.007404
 **** Fit       0.007309
 **** Fit      -0.022592
 **** Fit      -0.028637
 **** Fit      -0.036023
 **** Fit      -0.044423
 **** Fit      -0.052686
 **** Fit      -0.058576
 **** Fit      -0.059429
 **** Fit      -0.029389
 **** Fit      -0.016329
 **** Fit      -0.005740
 **** Fit       0.001588
 **** Fit       0.005923
 **** Fit       0.008057
 **** Fit       0.008805
 **** Fit       0.008783
 **** Fit       0.008379
 **** Fit      -0.021691
 **** Fit      -0.027410
 **** Fit      -0.034341
 **** Fit      -0.042136
 **** Fit      -0.049678
 **** Fit      -0.054874
 **** Fit      -0.055263
 **** Fit      -0.049552
 **** Fit      -0.038745
 **** Fit      -0.025564
 **** Fit      -0.012918
 **** Fit      -0.002817
 **** Fit       0.004000
 **** Fit       0.007856
 **** Fit       0.009579
 **** Fit       0.009996
 **** Fit       0.009714
 **** Fit       0.009110
 **** Fit      -0.020112
 **** Fit      -0.025210
 **** Fit      -0.031281
 **** Fit      -0.037956
 **** Fit      -0.044236
 **** Fit      -0.048370
 **** Fit      -0.048351
 **** Fit      -0.043107
 **** Fit      -0.033416
 **** Fit      -0.021565
 **** Fit      -0.010135
 **** Fit      -0.000974
 **** Fit       0.005213
 **** Fit       0.008691
 **** Fit       0.010196
 **** Fit       0.010482
 **** Fit       0.010113
 **** Fit       0.009445
 **** Fit      -0.022305
 **** Fit      -0.027283
 **** Fit      -0.032578
 **** Fit      -0.037353
 **** Fit      -0.040273
 **** Fit      -0.039879
 **** Fit      -0.035397
 **** Fit      -0.027377
 **** Fit      -0.017532
 **** Fit      -0.007904
 **** Fit      -0.000039
 **** Fit       0.005406
 **** Fit       0.008568
 **** Fit       0.010000
 **** Fit       0.010318
 **** Fit       0.010010
 **** Fit       0.009396
 **** Fit      -0.019035
 **** Fit      -0.022883
 **** Fit      -0.026811
 **** Fit      -0.030158
 **** Fit      -0.031977
 **** Fit      -0.031299
 **** Fit      -0.027636
 **** Fit      -0.021371
 **** Fit      -0.013684
 **** Fit      -0.006040
 **** Fit       0.000382
 **** Fit       0.005009
 **** Fit       0.007848
 **** Fit       0.009256
 **** Fit       0.009683
 **** Fit       0.009518
 **** Fit      -0.018552
 **** Fit      -0.021309
 **** Fit      -0.023502
 **** Fit      -0.024490
 **** Fit      -0.023669
 **** Fit      -0.020763
 **** Fit      -0.016040
 **** Fit      -0.010273
 **** Fit      -0.004446
 **** Fit       0.000603
 **** Fit       0.004406
 **** Fit       0.006892
 **** Fit       0.008253
 **** Fit       0.008789
 **** Fit      -0.016461
 **** Fit      -0.017818
 **** Fit      -0.018263
 **** Fit      -0.017429
 **** Fit      -0.015171
 **** Fit      -0.011676
 **** Fit      -0.007438
 **** Fit      -0.003096
 **** Fit       0.000776
 **** Fit       0.003824
 **** Fit       0.005940
 **** Fit       0.007209
 **** Fit       0.007812
 **** Fit      -0.011222
 **** Fit      -0.012418
 **** Fit      -0.013215
 **** Fit      -0.012577
 **** Fit      -0.010846
 **** Fit      -0.008278
 **** Fit      -0.005188
 **** Fit      -0.001985
 **** Fit       0.000948
 **** Fit       0.003349
 **** Fit       0.005109
 **** Fit      -0.024586
 **** Fit      -0.026053
 **** Fit      -0.026486
 **** Fit      -0.025672
 **** Fit      -0.023620
 **** Fit      -0.020582
 **** Fit      -0.016967
 **** Fit      -0.025851
 **** Fit      -0.028649
 **** Fit      -0.030583
 **** Fit      -0.031167
 **** Fit      -0.030089
 **** Fit      -0.027375
 **** Fit      -0.023409
 **** Fit      -0.018792
 **** Fit      -0.014135
 **** Fit      -0.009898
 **** Fit      -0.006336
 **** Fit      -0.025363
 **** Fit      -0.029255
 **** Fit      -0.032745
 **** Fit      -0.035182
 **** Fit      -0.035890
 **** Fit      -0.034440
 **** Fit      -0.030896
 **** Fit      -0.025830
 **** Fit      -0.020089
 **** Fit      -0.014475
 **** Fit      -0.009547
 **** Fit      -0.005563
 **** Fit      -0.002546
 **** Fit      -0.023306
 **** Fit      -0.027731
 **** Fit      -0.032311
 **** Fit      -0.036469
 **** Fit      -0.039367
 **** Fit      -0.040116
 **** Fit      -0.038168
 **** Fit      -0.033663
 **** Fit      -0.027414
 **** Fit      -0.020539
 **** Fit      -0.014037
 **** Fit      -0.008535
 **** Fit      -0.004268
 **** Fit      -0.001186
 **** Fit       0.000911
 **** Fit      -0.024588
 **** Fit      -0.029492
 **** Fit      -0.034624
 **** Fit      -0.039307
 **** Fit      -0.042522
 **** Fit      -0.043178
 **** Fit      -0.040638
 **** Fit      -0.035154
 **** Fit      -0.027799
 **** Fit      -0.019951
 **** Fit      -0.012761
 **** Fit      -0.006895
 **** Fit      -0.002535
 **** Fit       0.000460
 **** Fit       0.002376
 **** Fit       0.003515
 **** Fit      -0.025199
 **** Fit      -0.030367
 **** Fit      -0.035799
 **** Fit      -0.040743
 **** Fit      -0.044045
 **** Fit      -0.044474
 **** Fit      -0.041356
 **** Fit      -0.035065
 **** Fit      -0.026889
 **** Fit      -0.018392
 **** Fit      -0.010824
 **** Fit      -0.004848
 **** Fit      -0.000584
 **** Fit       0.002197
 **** Fit       0.003855
 **** Fit       0.004739
 **** Fit      -0.025009
 **** Fit      -0.030160
 **** Fit      -0.035556
 **** Fit      -0.040414
 **** Fit      -0.043538
 **** Fit      -0.043666
 **** Fit      -0.040143
 **** Fit      -0.033421
 **** Fit      -0.024890
 **** Fit      -0.016191
 **** Fit      -0.008599
 **** Fit      -0.002757
 **** Fit       0.001271
 **** Fit       0.003773
 **** Fit       0.005156
 **** Fit       0.005796
 **** Fit      -0.023989
 **** Fit      -0.028827
 **** Fit      -0.033838
 **** Fit      -0.038259
 **** Fit      -0.040962
 **** Fit      -0.040782
 **** Fit      -0.037137
 **** Fit      -0.030484
 **** Fit      -0.022162
 **** Fit      -0.013755
 **** Fit      -0.006491
 **** Fit      -0.000979
 **** Fit       0.002738
 **** Fit       0.004966
 **** Fit       0.006118
 **** Fit       0.006570
 **** Fit      -0.022229
 **** Fit      -0.026509
 **** Fit      -0.030852
 **** Fit      -0.034569
 **** Fit      -0.036689
 **** Fit      -0.036239
 **** Fit      -0.032752
 **** Fit      -0.026633
 **** Fit      -0.019043
 **** Fit      -0.011378
 **** Fit      -0.004748
 **** Fit       0.000282
 **** Fit       0.003661
 **** Fit       0.005659
 **** Fit       0.006656
 **** Fit       0.006998
 **** Fit      -0.023494
 **** Fit      -0.027018
 **** Fit      -0.029910
 **** Fit      -0.031397
 **** Fit      -0.030742
 **** Fit      -0.027609
 **** Fit      -0.022326
 **** Fit      -0.015812
 **** Fit      -0.009197
 **** Fit      -0.003415
 **** Fit       0.001029
 **** Fit       0.004056
 **** Fit       0.005869
 **** Fit       0.006780
 **** Fit       0.007088
 **** Fit      -0.022827
 **** Fit      -0.024920
 **** Fit      -0.025836
 **** Fit      -0.025059
 **** Fit      -0.022371
 **** Fit      -0.018026
 **** Fit      -0.012703
 **** Fit      -0.007255
 **** Fit      -0.002412
 **** Fit       0.001394
 **** Fit       0.004059
 **** Fit       0.005709
 **** Fit       0.006576
 **** Fit      -0.020122
 **** Fit      -0.020594
 **** Fit      -0.019779
 **** Fit      -0.017549
 **** Fit      -0.014096
 **** Fit      -0.009897
 **** Fit      -0.005561
 **** Fit      -0.001634
 **** Fit       0.001539
 **** Fit       0.003838
 **** Fit       0.005327
 **** Fit      -0.015222
 **** Fit      -0.013416
 **** Fit      -0.010730
 **** Fit      -0.007490
 **** Fit      -0.004118
 **** Fit      -0.001005
 **** Fit       0.001582
 **** Fit       0.003528
 **** Fit      -0.002919
 **** Fit      -0.025144
 **** Fit      -0.025325
 **** Fit      -0.024364
 **** Fit      -0.022302
 **** Fit      -0.019380
 **** Fit      -0.024554
 **** Fit      -0.026799
 **** Fit      -0.028205
 **** Fit      -0.028398
 **** Fit      -0.027175
 **** Fit      -0.024603
 **** Fit      -0.021019
 **** Fit      -0.016917
 **** Fit      -0.012795
 **** Fit      -0.009030
 **** Fit      -0.026657
 **** Fit      -0.029245
 **** Fit      -0.030851
 **** Fit      -0.031010
 **** Fit      -0.029473
 **** Fit      -0.026346
 **** Fit      -0.022080
 **** Fit      -0.017304
 **** Fit      -0.012620
 **** Fit      -0.008458
 **** Fit      -0.005036
 **** Fit      -0.024798
 **** Fit      -0.028168
 **** Fit      -0.031006
 **** Fit      -0.032729
 **** Fit      -0.032792
 **** Fit      -0.030914
 **** Fit      -0.027252
 **** Fit      -0.022370
 **** Fit      -0.017025
 **** Fit      -0.011904
 **** Fit      -0.007472
 **** Fit      -0.003934
 **** Fit      -0.001292
 **** Fit      -0.025344
 **** Fit      -0.028855
 **** Fit      -0.031791
 **** Fit      -0.033515
 **** Fit      -0.033426
 **** Fit      -0.031234
 **** Fit      -0.027146
 **** Fit      -0.021819
 **** Fit      -0.016098
 **** Fit      -0.010728
 **** Fit      -0.006187
 **** Fit      -0.002658
 **** Fit      -0.000106
 **** Fit       0.001627
 **** Fit      -0.025104
 **** Fit      -0.028564
 **** Fit      -0.031418
 **** Fit      -0.033012
 **** Fit      -0.032742
 **** Fit      -0.030328
 **** Fit      -0.026013
 **** Fit      -0.020498
 **** Fit      -0.014663
 **** Fit      -0.009268
 **** Fit      -0.004786
 **** Fit      -0.001377
 **** Fit       0.001023
 **** Fit       0.002594
 **** Fit      -0.024063
 **** Fit      -0.027279
 **** Fit      -0.029873
 **** Fit      -0.031226
 **** Fit      -0.030777
 **** Fit      -0.028281
 **** Fit      -0.023990
 **** Fit      -0.018587
 **** Fit      -0.012923
 **** Fit      -0.007730
 **** Fit      -0.003458
 **** Fit      -0.000252
 **** Fit       0.001963
 **** Fit       0.003372
 **** Fit      -0.025134
 **** Fit      -0.027336
 **** Fit      -0.028377
 **** Fit      -0.027779
 **** Fit      -0.025348
 **** Fit      -0.021320
 **** Fit      -0.016305
 **** Fit      -0.011068
 **** Fit      -0.006274
 **** Fit      -0.002334
 **** Fit       0.000613
 **** Fit       0.002633
 **** Fit       0.003900
 **** Fit      -0.022384
 **** Fit      -0.024127
 **** Fit      -0.024838
 **** Fit      -0.024140
 **** Fit      -0.021891
 **** Fit      -0.018298
 **** Fit      -0.013867
 **** Fit      -0.009239
 **** Fit      -0.004982
 **** Fit      -0.001460
 **** Fit       0.001193
 **** Fit       0.003022
 **** Fit      -0.020619
 **** Fit      -0.021030
 **** Fit      -0.020284
 **** Fit      -0.018290
 **** Fit      -0.015215
 **** Fit      -0.011458
 **** Fit      -0.007524
 **** Fit      -0.003872
 **** Fit      -0.000811
 **** Fit       0.001530
 **** Fit       0.003170
 **** Fit      -0.016566
 **** Fit      -0.014853
 **** Fit      -0.012305
 **** Fit      -0.009218
 **** Fit      -0.005975
 **** Fit      -0.002930
 **** Fit      -0.000334
 **** Fit      -0.021801
 **** Fit      -0.024569
 **** Fit      -0.024463
 **** Fit      -0.023253
 **** Fit      -0.021018
 **** Fit      -0.018018
 **** Fit      -0.024792
 **** Fit      -0.025709
 **** Fit      -0.025521
 **** Fit      -0.024103
 **** Fit      -0.021560
 **** Fit      -0.018207
 **** Fit      -0.014471
 **** Fit      -0.010769
 **** Fit      -0.007417
 **** Fit      -0.025216
 **** Fit      -0.026104
 **** Fit      -0.025811
 **** Fit      -0.024210
 **** Fit      -0.021428
 **** Fit      -0.017824
 **** Fit      -0.013868
 **** Fit      -0.010008
 **** Fit      -0.006570
 **** Fit      -0.024861
 **** Fit      -0.025658
 **** Fit      -0.025250
 **** Fit      -0.023520
 **** Fit      -0.020612
 **** Fit      -0.016902
 **** Fit      -0.012880
 **** Fit      -0.009001
 **** Fit      -0.005591
 **** Fit      -0.002812
 **** Fit      -0.023732
 **** Fit      -0.024387
 **** Fit      -0.023873
 **** Fit      -0.022091
 **** Fit      -0.019189
 **** Fit      -0.015539
 **** Fit      -0.011616
 **** Fit      -0.007862
 **** Fit      -0.004586
 **** Fit      -0.001941
 **** Fit      -0.022421
 **** Fit      -0.021825
 **** Fit      -0.020072
 **** Fit      -0.017307
 **** Fit      -0.013872
 **** Fit      -0.010199
 **** Fit      -0.006693
 **** Fit      -0.003641
 **** Fit      -0.001185
 **** Fit      -0.019329
 **** Fit      -0.017677
 **** Fit      -0.015151
 **** Fit      -0.012046
 **** Fit      -0.008734
 **** Fit      -0.005570
 **** Fit      -0.002807
 -----------------------------------------------------------------
 Leave Link  602 at Wed May 17 12:53:07 2017, MaxMem=   33554432 cpu:      95.9
 (Enter /scratch/michal/g09/l9999.exe)

 Test job not archived.
 1\1\GINC-RZEPICHA\SP\RHF\6-31G(d)\C27H46O2\MICHAL\17-May-2017\0\\#P HF
 /6-31G* SCF(Conver=6) NoSymm Test Pop=chelpg IOp(6/33=2) GFInput GFPri
 nt\\MEP - Input generated by R.E.D.-III.x MOLECULE\\0,1\O,0,6.72848141
 ,0.81977908,0.\H,0,7.24047287,0.,0.\O,0,11.39497798,-1.42744852,4.2705
 2675\H,0,11.34191206,-1.140924,5.1931645\C,0,2.97084996,-0.05153458,2.
 01000882\C,0,4.1954902,0.60090372,1.30565416\H,0,4.43704832,-0.0597478
 7,0.46154506\C,0,5.47156947,0.67052605,2.15299594\H,0,5.30194656,1.337
 27093,3.01057709\C,0,5.85726804,-0.73898534,2.67202829\H,0,6.16750504,
 -1.31255604,1.7826841\C,0,1.9257834,0.08313758,0.8484786\H,0,2.2925168
 1,-0.60447349,0.07444776\C,0,3.38976084,-1.48568225,2.38643617\H,0,3.5
 8855236,-2.05223639,1.46597222\H,0,2.58586273,-2.01304815,2.91359841\C
 ,0,7.10865779,-0.70398182,3.61806072\C,0,3.63977706,1.89643723,0.68966
 153\H,0,4.23371485,2.22450448,-0.1680135\H,0,3.65030841,2.71459527,1.4
 2123167\C,0,4.64943818,-1.49536762,3.27652668\H,0,4.38913987,-1.064713
 28,4.24876476\H,0,4.92972262,-2.53657008,3.4734869\C,0,2.18200659,1.52
 173068,0.29543878\H,0,1.46976559,2.2407024,0.71289891\H,0,2.03588153,1
 .54100267,-0.79005291\C,0,6.64194274,1.29508066,1.36424677\H,0,6.44882
 113,2.36778265,1.24841408\C,0,0.41290978,-0.25268054,0.99061259\H,0,0.
 ,0.,0.\C,0,2.54409729,0.72849747,3.27533776\H,0,3.38481348,0.90650661,
 3.95100756\H,0,2.11495841,1.7042518,3.03380105\H,0,1.79269934,0.169709
 29,3.84107575\C,0,8.19212344,0.21541661,3.03877189\C,0,7.69540852,-2.1
 4582937,3.7238372\H,0,7.7777448,-2.55872112,2.70873785\H,0,6.98811028,
 -2.78625225,4.26153967\C,0,7.96153791,1.09632042,2.05123175\H,0,8.7863
 0952,1.70071877,1.67470063\C,0,6.73923368,-0.18880206,5.035846\H,0,6.1
 0631209,-0.905892,5.56707324\H,0,7.62873571,-0.02847096,5.65011639\H,0
 ,6.20710146,0.76586213,4.98462814\C,0,9.57975666,0.10433689,3.64344117
 \H,0,10.28601557,0.72824994,3.08698793\H,0,9.56779392,0.48652035,4.676
 68554\C,0,9.07412117,-2.23878289,4.39531096\H,0,9.008206,-1.94205098,5
 .45252099\H,0,9.42811206,-3.27585121,4.38249012\C,0,0.09978118,-1.7522
 2557,1.20913558\H,0,0.51809084,-2.08296698,2.16918011\H,0,-0.99059984,
 -1.84714362,1.3152389\C,0,10.09159487,-1.34349608,3.68871335\H,0,10.23
 365129,-1.70246912,2.66187596\C,0,-0.39300889,0.58171568,2.00688712\H,
 0,-0.22144562,0.25378247,3.0363017\H,0,-1.46462611,0.46869445,1.806768
 61\H,0,-0.16418659,1.64999962,1.95410602\C,0,0.55081168,-2.70949634,0.
 09477068\H,0,0.17433746,-2.3341532,-0.86659217\H,0,1.64382405,-2.71043
 291,0.01950307\C,0,0.05162047,-4.1453019,0.32601335\H,0,-1.04539907,-4
 .12802934,0.39981426\H,0,0.41447469,-4.48957501,1.30548953\C,0,0.44978
 025,-5.19695411,-0.73570094\H,0,0.00166961,-6.14506887,-0.40316185\C,0
 ,1.96957358,-5.41911167,-0.81095381\H,0,2.48913062,-4.5345888,-1.19710
 092\H,0,2.20864766,-6.25484003,-1.47853657\H,0,2.38850874,-5.6496291,0
 .17573222\C,0,-0.13179537,-4.88558686,-2.12478948\H,0,0.31386631,-3.98
 195559,-2.55633302\H,0,0.06078652,-5.70928282,-2.82168286\H,0,-1.21671
 958,-4.73423791,-2.07853409\\Version=EM64L-G09RevC.01\HF=-1198.9209176
 \RMSD=5.167e-07\Dipole=-0.3546691,-0.2438366,0.9167205\Quadrupole=-15.
 0942899,2.9566562,12.1376337,0.8264445,10.977564,1.1309437\PG=C01 [X(C
 27H46O2)]\\@


 BLESSED ARE THOSE WHO NOUGHT EXPECT,
 FOR THEY SHALL NOT BE DISAPPOINTED..  WALCOT - ODE TO PITT
 Job cpu time:  0 days  0 hours 41 minutes 28.1 seconds.
 File lengths (MBytes):  RWF=    151 Int=      0 D2E=      0 Chk=     11 Scr=      1
 Normal termination of Gaussian 09 at Wed May 17 12:53:07 2017.
