 Entering Gaussian System, Link 0=/scratch/michal/g09//g09
 Input=JOB2-gau_m1-8-2.com
 Output=JOB2-gau_m1-8-2.log
 Initial command:
 /scratch/michal/g09/l1.exe /scratch/michal/gauss_scratch/Gau-9207.inp -scrdir=/scratch/michal/gauss_scratch/
 Entering Link 1 = /scratch/michal/g09/l1.exe PID=      9209.
  
 Copyright (c) 1988,1990,1992,1993,1995,1998,2003,2009,2011,
            Gaussian, Inc.  All Rights Reserved.
  
 This is part of the Gaussian(R) 09 program.  It is based on
 the Gaussian(R) 03 system (copyright 2003, Gaussian, Inc.),
 the Gaussian(R) 98 system (copyright 1998, Gaussian, Inc.),
 the Gaussian(R) 94 system (copyright 1995, Gaussian, Inc.),
 the Gaussian 92(TM) system (copyright 1992, Gaussian, Inc.),
 the Gaussian 90(TM) system (copyright 1990, Gaussian, Inc.),
 the Gaussian 88(TM) system (copyright 1988, Gaussian, Inc.),
 the Gaussian 86(TM) system (copyright 1986, Carnegie Mellon
 University), and the Gaussian 82(TM) system (copyright 1983,
 Carnegie Mellon University). Gaussian is a federally registered
 trademark of Gaussian, Inc.
  
 This software contains proprietary and confidential information,
 including trade secrets, belonging to Gaussian, Inc.
  
 This software is provided under written license and may be
 used, copied, transmitted, or stored only in accord with that
 written license.
  
 The following legend is applicable only to US Government
 contracts under FAR:
  
                    RESTRICTED RIGHTS LEGEND
  
 Use, reproduction and disclosure by the US Government is
 subject to restrictions as set forth in subparagraphs (a)
 and (c) of the Commercial Computer Software - Restricted
 Rights clause in FAR 52.227-19.
  
 Gaussian, Inc.
 340 Quinnipiac St., Bldg. 40, Wallingford CT 06492
  
  
 ---------------------------------------------------------------
 Warning -- This program may not be used in any manner that
 competes with the business of Gaussian, Inc. or will provide
 assistance to any competitor of Gaussian, Inc.  The licensee
 of this program is prohibited from giving any competitor of
 Gaussian, Inc. access to this program.  By using this program,
 the user acknowledges that Gaussian, Inc. is engaged in the
 business of creating and licensing software in the field of
 computational chemistry and represents and warrants to the
 licensee that it is not a competitor of Gaussian, Inc. and that
 it will not use this program in any manner prohibited above.
 ---------------------------------------------------------------
  

 Cite this work as:
 Gaussian 09, Revision C.01,
 M. J. Frisch, G. W. Trucks, H. B. Schlegel, G. E. Scuseria, 
 M. A. Robb, J. R. Cheeseman, G. Scalmani, V. Barone, B. Mennucci, 
 G. A. Petersson, H. Nakatsuji, M. Caricato, X. Li, H. P. Hratchian, 
 A. F. Izmaylov, J. Bloino, G. Zheng, J. L. Sonnenberg, M. Hada, 
 M. Ehara, K. Toyota, R. Fukuda, J. Hasegawa, M. Ishida, T. Nakajima, 
 Y. Honda, O. Kitao, H. Nakai, T. Vreven, J. A. Montgomery, Jr., 
 J. E. Peralta, F. Ogliaro, M. Bearpark, J. J. Heyd, E. Brothers, 
 K. N. Kudin, V. N. Staroverov, T. Keith, R. Kobayashi, J. Normand, 
 K. Raghavachari, A. Rendell, J. C. Burant, S. S. Iyengar, J. Tomasi, 
 M. Cossi, N. Rega, J. M. Millam, M. Klene, J. E. Knox, J. B. Cross, 
 V. Bakken, C. Adamo, J. Jaramillo, R. Gomperts, R. E. Stratmann, 
 O. Yazyev, A. J. Austin, R. Cammi, C. Pomelli, J. W. Ochterski, 
 R. L. Martin, K. Morokuma, V. G. Zakrzewski, G. A. Voth, 
 P. Salvador, J. J. Dannenberg, S. Dapprich, A. D. Daniels, 
 O. Farkas, J. B. Foresman, J. V. Ortiz, J. Cioslowski, 
 and D. J. Fox, Gaussian, Inc., Wallingford CT, 2010.
 
 ******************************************
 Gaussian 09:  EM64L-G09RevC.01 23-Sep-2011
                17-May-2017 
 ******************************************
 %Mem=256MB
 %NProc=48
 Will use up to   48 processors via shared memory.
 ----------------------------------------------------------------------
 #P HF/6-31G* SCF(Conver=6) NoSymm Test Pop=chelpg IOp(6/33=2) GFInput 
 GFPrint
 ----------------------------------------------------------------------
 1/38=1/1;
 2/12=2,15=1,17=6,18=5,40=1/2;
 3/5=1,6=6,7=1,11=9,16=1,24=110,25=1,30=1/1,2,3;
 4//1;
 5/5=2,6=6,38=5/2;
 6/7=2,8=2,9=2,10=2,15=8,20=3,28=1,33=2/1,2;
 99/5=1,9=1/99;
 Leave Link    1 at Wed May 17 12:18:37 2017, MaxMem=   33554432 cpu:       3.5
 (Enter /scratch/michal/g09/l101.exe)
 ----------------------------------------------
 MEP - Input generated by R.E.D.-III.x MOLECULE
 ----------------------------------------------
 Charge =  0 Multiplicity = 1
 Symbolic Z-Matrix:
 O                     6.75745   0.89994   0. 
 H                     7.10996   0.        0. 
 O                     9.63964  -2.65865   4.91454 
 H                     9.3808   -2.46367   5.82622 
 C                     2.51131   0.57122   0.86056 
 C                     3.96191   1.03428   0.57443 
 H                     4.30868   0.41678  -0.26588 
 C                     4.94902   0.76967   1.71651 
 H                     4.65427   1.36224   2.59455 
 C                     4.94604  -0.73732   2.09037 
 H                     5.39955  -1.25811   1.23064 
 C                     1.83348   1.01437  -0.47385 
 H                     2.2581    0.33453  -1.22665 
 C                     2.55676  -0.94921   1.09173 
 H                     2.8906   -1.43686   0.16455 
 H                     1.5594   -1.35097   1.31607 
 C                     5.87509  -1.04613   3.31693 
 C                     3.80637   2.46126   0.01688 
 H                     4.64511   2.73473  -0.62924 
 H                     3.77137   3.20028   0.82763 
 C                     3.5164   -1.31824   2.24228 
 H                     3.07515  -0.97853   3.18447 
 H                     3.57284  -2.41041   2.31455 
 C                     2.44902   2.42166  -0.75328 
 H                     1.78936   3.22197  -0.40622 
 H                     2.59038   2.58158  -1.82713 
 C                     6.37584   1.2331    1.35569 
 H                     6.39603   2.32907   1.36339 
 C                     0.29005   0.86776  -0.61251 
 H                     0.        0.        0. 
 C                     1.88502   1.27828   2.08289 
 H                     2.43915   1.08051   3.00407 
 H                     1.8502    2.36421   1.95826 
 H                     0.85927   0.92913   2.24424 
 C                     7.20971  -0.30126   3.17823 
 C                     6.16961  -2.57801   3.3479 
 H                     6.46117  -2.89262   2.3361 
 H                     5.24776  -3.11915   3.58622 
 C                     7.40544   0.70729   2.31284 
 H                     8.38808   1.1745    2.25434 
 C                     5.21581  -0.617     4.65623 
 H                     4.35684  -1.25      4.8982 
 H                     5.91607  -0.69272   5.49178 
 H                     4.87538   0.42198   4.61504 
 C                     8.33956  -0.74475   4.08945 
 H                     9.26292  -0.21701   3.83137 
 H                     8.10435  -0.47678   5.13189 
 C                     7.2754   -3.00791   4.32403 
 H                     6.96843  -2.81411   5.36246 
 H                     7.44701  -4.08733   4.2442 
 C                    -0.54612   2.07361  -0.12043 
 H                    -0.0954    2.5108    0.77623 
 H                    -0.5225    2.86344  -0.88486 
 C                     8.57894  -2.26145   4.04191 
 H                     8.93935  -2.53343   3.04213 
 C                    -0.07128   0.52829  -2.07334 
 H                     0.25858   1.32596  -2.7506 
 H                    -1.15031   0.4038   -2.21027 
 H                     0.41109  -0.40149  -2.3948 
 C                    -2.01062   1.73206   0.20258 
 H                    -2.49257   1.2902   -0.67769 
 H                    -2.027     0.95898   0.98285 
 C                    -2.81029   2.96004   0.66658 
 H                    -2.76702   3.72492  -0.12228 
 H                    -2.30601   3.39852   1.54004 
 C                    -4.29455   2.72386   1.03179 
 H                    -4.69009   3.7051    1.33351 
 C                    -4.46635   1.77991   2.23353 
 H                    -4.15058   0.75804   1.99361 
 H                    -5.51611   1.73233   2.54502 
 H                    -3.87775   2.11861   3.09436 
 C                    -5.13227   2.24955  -0.1673 
 H                    -4.84139   1.24371  -0.49152 
 H                    -6.19688   2.2139    0.09077 
 H                    -5.019     2.92329  -1.0248 
 
 NAtoms=     75 NQM=        0 NQMF=       0 NMMI=     75 NMMIF=      0
                NMic=       0 NMicF=      0.
                    Isotopes and Nuclear Properties:
 (Nuclear quadrupole moments (NQMom) in fm**2, nuclear magnetic moments (NMagM)
  in nuclear magnetons)

  Atom         1           2           3           4           5           6           7           8           9          10
 IAtWgt=          16           1          16           1          12          12           1          12           1          12
 AtmWgt=  15.9949146   1.0078250  15.9949146   1.0078250  12.0000000  12.0000000   1.0078250  12.0000000   1.0078250  12.0000000
 NucSpn=           0           1           0           1           0           0           1           0           1           0
 AtZEff=   0.0000000   0.0000000   0.0000000   0.0000000   0.0000000   0.0000000   0.0000000   0.0000000   0.0000000   0.0000000
 NQMom=    0.0000000   0.0000000   0.0000000   0.0000000   0.0000000   0.0000000   0.0000000   0.0000000   0.0000000   0.0000000
 NMagM=    0.0000000   2.7928460   0.0000000   2.7928460   0.0000000   0.0000000   2.7928460   0.0000000   2.7928460   0.0000000

  Atom        11          12          13          14          15          16          17          18          19          20
 IAtWgt=           1          12           1          12           1           1          12          12           1           1
 AtmWgt=   1.0078250  12.0000000   1.0078250  12.0000000   1.0078250   1.0078250  12.0000000  12.0000000   1.0078250   1.0078250
 NucSpn=           1           0           1           0           1           1           0           0           1           1
 AtZEff=   0.0000000   0.0000000   0.0000000   0.0000000   0.0000000   0.0000000   0.0000000   0.0000000   0.0000000   0.0000000
 NQMom=    0.0000000   0.0000000   0.0000000   0.0000000   0.0000000   0.0000000   0.0000000   0.0000000   0.0000000   0.0000000
 NMagM=    2.7928460   0.0000000   2.7928460   0.0000000   2.7928460   2.7928460   0.0000000   0.0000000   2.7928460   2.7928460

  Atom        21          22          23          24          25          26          27          28          29          30
 IAtWgt=          12           1           1          12           1           1          12           1          12           1
 AtmWgt=  12.0000000   1.0078250   1.0078250  12.0000000   1.0078250   1.0078250  12.0000000   1.0078250  12.0000000   1.0078250
 NucSpn=           0           1           1           0           1           1           0           1           0           1
 AtZEff=   0.0000000   0.0000000   0.0000000   0.0000000   0.0000000   0.0000000   0.0000000   0.0000000   0.0000000   0.0000000
 NQMom=    0.0000000   0.0000000   0.0000000   0.0000000   0.0000000   0.0000000   0.0000000   0.0000000   0.0000000   0.0000000
 NMagM=    0.0000000   2.7928460   2.7928460   0.0000000   2.7928460   2.7928460   0.0000000   2.7928460   0.0000000   2.7928460

  Atom        31          32          33          34          35          36          37          38          39          40
 IAtWgt=          12           1           1           1          12          12           1           1          12           1
 AtmWgt=  12.0000000   1.0078250   1.0078250   1.0078250  12.0000000  12.0000000   1.0078250   1.0078250  12.0000000   1.0078250
 NucSpn=           0           1           1           1           0           0           1           1           0           1
 AtZEff=   0.0000000   0.0000000   0.0000000   0.0000000   0.0000000   0.0000000   0.0000000   0.0000000   0.0000000   0.0000000
 NQMom=    0.0000000   0.0000000   0.0000000   0.0000000   0.0000000   0.0000000   0.0000000   0.0000000   0.0000000   0.0000000
 NMagM=    0.0000000   2.7928460   2.7928460   2.7928460   0.0000000   0.0000000   2.7928460   2.7928460   0.0000000   2.7928460

  Atom        41          42          43          44          45          46          47          48          49          50
 IAtWgt=          12           1           1           1          12           1           1          12           1           1
 AtmWgt=  12.0000000   1.0078250   1.0078250   1.0078250  12.0000000   1.0078250   1.0078250  12.0000000   1.0078250   1.0078250
 NucSpn=           0           1           1           1           0           1           1           0           1           1
 AtZEff=   0.0000000   0.0000000   0.0000000   0.0000000   0.0000000   0.0000000   0.0000000   0.0000000   0.0000000   0.0000000
 NQMom=    0.0000000   0.0000000   0.0000000   0.0000000   0.0000000   0.0000000   0.0000000   0.0000000   0.0000000   0.0000000
 NMagM=    0.0000000   2.7928460   2.7928460   2.7928460   0.0000000   2.7928460   2.7928460   0.0000000   2.7928460   2.7928460

  Atom        51          52          53          54          55          56          57          58          59          60
 IAtWgt=          12           1           1          12           1          12           1           1           1          12
 AtmWgt=  12.0000000   1.0078250   1.0078250  12.0000000   1.0078250  12.0000000   1.0078250   1.0078250   1.0078250  12.0000000
 NucSpn=           0           1           1           0           1           0           1           1           1           0
 AtZEff=   0.0000000   0.0000000   0.0000000   0.0000000   0.0000000   0.0000000   0.0000000   0.0000000   0.0000000   0.0000000
 NQMom=    0.0000000   0.0000000   0.0000000   0.0000000   0.0000000   0.0000000   0.0000000   0.0000000   0.0000000   0.0000000
 NMagM=    0.0000000   2.7928460   2.7928460   0.0000000   2.7928460   0.0000000   2.7928460   2.7928460   2.7928460   0.0000000

  Atom        61          62          63          64          65          66          67          68          69          70
 IAtWgt=           1           1          12           1           1          12           1          12           1           1
 AtmWgt=   1.0078250   1.0078250  12.0000000   1.0078250   1.0078250  12.0000000   1.0078250  12.0000000   1.0078250   1.0078250
 NucSpn=           1           1           0           1           1           0           1           0           1           1
 AtZEff=   0.0000000   0.0000000   0.0000000   0.0000000   0.0000000   0.0000000   0.0000000   0.0000000   0.0000000   0.0000000
 NQMom=    0.0000000   0.0000000   0.0000000   0.0000000   0.0000000   0.0000000   0.0000000   0.0000000   0.0000000   0.0000000
 NMagM=    2.7928460   2.7928460   0.0000000   2.7928460   2.7928460   0.0000000   2.7928460   0.0000000   2.7928460   2.7928460

  Atom        71          72          73          74          75
 IAtWgt=           1          12           1           1           1
 AtmWgt=   1.0078250  12.0000000   1.0078250   1.0078250   1.0078250
 NucSpn=           1           0           1           1           1
 AtZEff=   0.0000000   0.0000000   0.0000000   0.0000000   0.0000000
 NQMom=    0.0000000   0.0000000   0.0000000   0.0000000   0.0000000
 NMagM=    2.7928460   0.0000000   2.7928460   2.7928460   2.7928460
 Leave Link  101 at Wed May 17 12:18:37 2017, MaxMem=   33554432 cpu:      13.1
 (Enter /scratch/michal/g09/l202.exe)
 Symmetry turned off by external request.
 Stoichiometry    C27H46O2
 Framework group  C1[X(C27H46O2)]
 Deg. of freedom   219
 Full point group                 C1      NOp   1
                          Input orientation:                          
 ---------------------------------------------------------------------
 Center     Atomic      Atomic             Coordinates (Angstroms)
 Number     Number       Type             X           Y           Z
 ---------------------------------------------------------------------
      1          8           0        6.757449    0.899942    0.000000
      2          1           0        7.109962    0.000000    0.000000
      3          8           0        9.639638   -2.658651    4.914542
      4          1           0        9.380797   -2.463675    5.826219
      5          6           0        2.511312    0.571221    0.860558
      6          6           0        3.961906    1.034276    0.574431
      7          1           0        4.308677    0.416784   -0.265878
      8          6           0        4.949024    0.769666    1.716508
      9          1           0        4.654268    1.362238    2.594546
     10          6           0        4.946044   -0.737316    2.090369
     11          1           0        5.399550   -1.258111    1.230637
     12          6           0        1.833476    1.014368   -0.473853
     13          1           0        2.258103    0.334531   -1.226653
     14          6           0        2.556760   -0.949207    1.091732
     15          1           0        2.890598   -1.436864    0.164547
     16          1           0        1.559395   -1.350969    1.316074
     17          6           0        5.875086   -1.046128    3.316928
     18          6           0        3.806374    2.461259    0.016881
     19          1           0        4.645113    2.734730   -0.629238
     20          1           0        3.771371    3.200283    0.827625
     21          6           0        3.516397   -1.318241    2.242285
     22          1           0        3.075149   -0.978526    3.184470
     23          1           0        3.572844   -2.410407    2.314553
     24          6           0        2.449019    2.421656   -0.753281
     25          1           0        1.789361    3.221973   -0.406221
     26          1           0        2.590381    2.581583   -1.827127
     27          6           0        6.375845    1.233102    1.355693
     28          1           0        6.396026    2.329068    1.363387
     29          6           0        0.290054    0.867763   -0.612513
     30          1           0        0.000000    0.000000    0.000000
     31          6           0        1.885022    1.278278    2.082885
     32          1           0        2.439146    1.080507    3.004075
     33          1           0        1.850204    2.364205    1.958265
     34          1           0        0.859272    0.929133    2.244236
     35          6           0        7.209714   -0.301263    3.178235
     36          6           0        6.169612   -2.578011    3.347902
     37          1           0        6.461172   -2.892621    2.336103
     38          1           0        5.247759   -3.119152    3.586219
     39          6           0        7.405438    0.707290    2.312835
     40          1           0        8.388076    1.174501    2.254336
     41          6           0        5.215807   -0.617002    4.656228
     42          1           0        4.356845   -1.249998    4.898203
     43          1           0        5.916069   -0.692724    5.491776
     44          1           0        4.875381    0.421977    4.615044
     45          6           0        8.339559   -0.744748    4.089452
     46          1           0        9.262923   -0.217014    3.831370
     47          1           0        8.104353   -0.476780    5.131891
     48          6           0        7.275403   -3.007907    4.324028
     49          1           0        6.968430   -2.814108    5.362457
     50          1           0        7.447014   -4.087327    4.244201
     51          6           0       -0.546116    2.073608   -0.120432
     52          1           0       -0.095403    2.510799    0.776231
     53          1           0       -0.522500    2.863438   -0.884859
     54          6           0        8.578938   -2.261452    4.041912
     55          1           0        8.939353   -2.533426    3.042130
     56          6           0       -0.071282    0.528288   -2.073341
     57          1           0        0.258576    1.325960   -2.750600
     58          1           0       -1.150308    0.403805   -2.210271
     59          1           0        0.411089   -0.401486   -2.394804
     60          6           0       -2.010619    1.732060    0.202581
     61          1           0       -2.492572    1.290196   -0.677685
     62          1           0       -2.027001    0.958977    0.982853
     63          6           0       -2.810288    2.960036    0.666582
     64          1           0       -2.767017    3.724924   -0.122279
     65          1           0       -2.306009    3.398518    1.540041
     66          6           0       -4.294552    2.723863    1.031792
     67          1           0       -4.690086    3.705095    1.333514
     68          6           0       -4.466354    1.779906    2.233533
     69          1           0       -4.150579    0.758042    1.993607
     70          1           0       -5.516108    1.732334    2.545024
     71          1           0       -3.877747    2.118612    3.094359
     72          6           0       -5.132269    2.249553   -0.167300
     73          1           0       -4.841389    1.243708   -0.491519
     74          1           0       -6.196877    2.213905    0.090774
     75          1           0       -5.019003    2.923293   -1.024799
 ---------------------------------------------------------------------
 Rotational constants (GHZ):      0.3783383      0.0588526      0.0548648
 Leave Link  202 at Wed May 17 12:18:37 2017, MaxMem=   33554432 cpu:       0.1
 (Enter /scratch/michal/g09/l301.exe)
 Standard basis: 6-31G(d) (6D, 7F)
 Ernie: Thresh=  0.10000D-02 Tol=  0.10000D-05 Strict=F.
 AO basis set in the form of general basis input (Overlap normalization):
      1 0
 S   6 1.00       0.000000000000
      0.5484671660D+04  0.1831074430D-02
      0.8252349460D+03  0.1395017220D-01
      0.1880469580D+03  0.6844507810D-01
      0.5296450000D+02  0.2327143360D+00
      0.1689757040D+02  0.4701928980D+00
      0.5799635340D+01  0.3585208530D+00
 SP   3 1.00       0.000000000000
      0.1553961625D+02 -0.1107775495D+00  0.7087426823D-01
      0.3599933586D+01 -0.1480262627D+00  0.3397528391D+00
      0.1013761750D+01  0.1130767015D+01  0.7271585773D+00
 SP   1 1.00       0.000000000000
      0.2700058226D+00  0.1000000000D+01  0.1000000000D+01
 D   1 1.00       0.000000000000
      0.8000000000D+00  0.1000000000D+01
 ****
      2 0
 S   3 1.00       0.000000000000
      0.1873113696D+02  0.3349460434D-01
      0.2825394365D+01  0.2347269535D+00
      0.6401216923D+00  0.8137573261D+00
 S   1 1.00       0.000000000000
      0.1612777588D+00  0.1000000000D+01
 ****
      3 0
 S   6 1.00       0.000000000000
      0.5484671660D+04  0.1831074430D-02
      0.8252349460D+03  0.1395017220D-01
      0.1880469580D+03  0.6844507810D-01
      0.5296450000D+02  0.2327143360D+00
      0.1689757040D+02  0.4701928980D+00
      0.5799635340D+01  0.3585208530D+00
 SP   3 1.00       0.000000000000
      0.1553961625D+02 -0.1107775495D+00  0.7087426823D-01
      0.3599933586D+01 -0.1480262627D+00  0.3397528391D+00
      0.1013761750D+01  0.1130767015D+01  0.7271585773D+00
 SP   1 1.00       0.000000000000
      0.2700058226D+00  0.1000000000D+01  0.1000000000D+01
 D   1 1.00       0.000000000000
      0.8000000000D+00  0.1000000000D+01
 ****
      4 0
 S   3 1.00       0.000000000000
      0.1873113696D+02  0.3349460434D-01
      0.2825394365D+01  0.2347269535D+00
      0.6401216923D+00  0.8137573261D+00
 S   1 1.00       0.000000000000
      0.1612777588D+00  0.1000000000D+01
 ****
      5 0
 S   6 1.00       0.000000000000
      0.3047524880D+04  0.1834737132D-02
      0.4573695180D+03  0.1403732281D-01
      0.1039486850D+03  0.6884262226D-01
      0.2921015530D+02  0.2321844432D+00
      0.9286662960D+01  0.4679413484D+00
      0.3163926960D+01  0.3623119853D+00
 SP   3 1.00       0.000000000000
      0.7868272350D+01 -0.1193324198D+00  0.6899906659D-01
      0.1881288540D+01 -0.1608541517D+00  0.3164239610D+00
      0.5442492580D+00  0.1143456438D+01  0.7443082909D+00
 SP   1 1.00       0.000000000000
      0.1687144782D+00  0.1000000000D+01  0.1000000000D+01
 D   1 1.00       0.000000000000
      0.8000000000D+00  0.1000000000D+01
 ****
      6 0
 S   6 1.00       0.000000000000
      0.3047524880D+04  0.1834737132D-02
      0.4573695180D+03  0.1403732281D-01
      0.1039486850D+03  0.6884262226D-01
      0.2921015530D+02  0.2321844432D+00
      0.9286662960D+01  0.4679413484D+00
      0.3163926960D+01  0.3623119853D+00
 SP   3 1.00       0.000000000000
      0.7868272350D+01 -0.1193324198D+00  0.6899906659D-01
      0.1881288540D+01 -0.1608541517D+00  0.3164239610D+00
      0.5442492580D+00  0.1143456438D+01  0.7443082909D+00
 SP   1 1.00       0.000000000000
      0.1687144782D+00  0.1000000000D+01  0.1000000000D+01
 D   1 1.00       0.000000000000
      0.8000000000D+00  0.1000000000D+01
 ****
      7 0
 S   3 1.00       0.000000000000
      0.1873113696D+02  0.3349460434D-01
      0.2825394365D+01  0.2347269535D+00
      0.6401216923D+00  0.8137573261D+00
 S   1 1.00       0.000000000000
      0.1612777588D+00  0.1000000000D+01
 ****
      8 0
 S   6 1.00       0.000000000000
      0.3047524880D+04  0.1834737132D-02
      0.4573695180D+03  0.1403732281D-01
      0.1039486850D+03  0.6884262226D-01
      0.2921015530D+02  0.2321844432D+00
      0.9286662960D+01  0.4679413484D+00
      0.3163926960D+01  0.3623119853D+00
 SP   3 1.00       0.000000000000
      0.7868272350D+01 -0.1193324198D+00  0.6899906659D-01
      0.1881288540D+01 -0.1608541517D+00  0.3164239610D+00
      0.5442492580D+00  0.1143456438D+01  0.7443082909D+00
 SP   1 1.00       0.000000000000
      0.1687144782D+00  0.1000000000D+01  0.1000000000D+01
 D   1 1.00       0.000000000000
      0.8000000000D+00  0.1000000000D+01
 ****
      9 0
 S   3 1.00       0.000000000000
      0.1873113696D+02  0.3349460434D-01
      0.2825394365D+01  0.2347269535D+00
      0.6401216923D+00  0.8137573261D+00
 S   1 1.00       0.000000000000
      0.1612777588D+00  0.1000000000D+01
 ****
     10 0
 S   6 1.00       0.000000000000
      0.3047524880D+04  0.1834737132D-02
      0.4573695180D+03  0.1403732281D-01
      0.1039486850D+03  0.6884262226D-01
      0.2921015530D+02  0.2321844432D+00
      0.9286662960D+01  0.4679413484D+00
      0.3163926960D+01  0.3623119853D+00
 SP   3 1.00       0.000000000000
      0.7868272350D+01 -0.1193324198D+00  0.6899906659D-01
      0.1881288540D+01 -0.1608541517D+00  0.3164239610D+00
      0.5442492580D+00  0.1143456438D+01  0.7443082909D+00
 SP   1 1.00       0.000000000000
      0.1687144782D+00  0.1000000000D+01  0.1000000000D+01
 D   1 1.00       0.000000000000
      0.8000000000D+00  0.1000000000D+01
 ****
     11 0
 S   3 1.00       0.000000000000
      0.1873113696D+02  0.3349460434D-01
      0.2825394365D+01  0.2347269535D+00
      0.6401216923D+00  0.8137573261D+00
 S   1 1.00       0.000000000000
      0.1612777588D+00  0.1000000000D+01
 ****
     12 0
 S   6 1.00       0.000000000000
      0.3047524880D+04  0.1834737132D-02
      0.4573695180D+03  0.1403732281D-01
      0.1039486850D+03  0.6884262226D-01
      0.2921015530D+02  0.2321844432D+00
      0.9286662960D+01  0.4679413484D+00
      0.3163926960D+01  0.3623119853D+00
 SP   3 1.00       0.000000000000
      0.7868272350D+01 -0.1193324198D+00  0.6899906659D-01
      0.1881288540D+01 -0.1608541517D+00  0.3164239610D+00
      0.5442492580D+00  0.1143456438D+01  0.7443082909D+00
 SP   1 1.00       0.000000000000
      0.1687144782D+00  0.1000000000D+01  0.1000000000D+01
 D   1 1.00       0.000000000000
      0.8000000000D+00  0.1000000000D+01
 ****
     13 0
 S   3 1.00       0.000000000000
      0.1873113696D+02  0.3349460434D-01
      0.2825394365D+01  0.2347269535D+00
      0.6401216923D+00  0.8137573261D+00
 S   1 1.00       0.000000000000
      0.1612777588D+00  0.1000000000D+01
 ****
     14 0
 S   6 1.00       0.000000000000
      0.3047524880D+04  0.1834737132D-02
      0.4573695180D+03  0.1403732281D-01
      0.1039486850D+03  0.6884262226D-01
      0.2921015530D+02  0.2321844432D+00
      0.9286662960D+01  0.4679413484D+00
      0.3163926960D+01  0.3623119853D+00
 SP   3 1.00       0.000000000000
      0.7868272350D+01 -0.1193324198D+00  0.6899906659D-01
      0.1881288540D+01 -0.1608541517D+00  0.3164239610D+00
      0.5442492580D+00  0.1143456438D+01  0.7443082909D+00
 SP   1 1.00       0.000000000000
      0.1687144782D+00  0.1000000000D+01  0.1000000000D+01
 D   1 1.00       0.000000000000
      0.8000000000D+00  0.1000000000D+01
 ****
     15 0
 S   3 1.00       0.000000000000
      0.1873113696D+02  0.3349460434D-01
      0.2825394365D+01  0.2347269535D+00
      0.6401216923D+00  0.8137573261D+00
 S   1 1.00       0.000000000000
      0.1612777588D+00  0.1000000000D+01
 ****
     16 0
 S   3 1.00       0.000000000000
      0.1873113696D+02  0.3349460434D-01
      0.2825394365D+01  0.2347269535D+00
      0.6401216923D+00  0.8137573261D+00
 S   1 1.00       0.000000000000
      0.1612777588D+00  0.1000000000D+01
 ****
     17 0
 S   6 1.00       0.000000000000
      0.3047524880D+04  0.1834737132D-02
      0.4573695180D+03  0.1403732281D-01
      0.1039486850D+03  0.6884262226D-01
      0.2921015530D+02  0.2321844432D+00
      0.9286662960D+01  0.4679413484D+00
      0.3163926960D+01  0.3623119853D+00
 SP   3 1.00       0.000000000000
      0.7868272350D+01 -0.1193324198D+00  0.6899906659D-01
      0.1881288540D+01 -0.1608541517D+00  0.3164239610D+00
      0.5442492580D+00  0.1143456438D+01  0.7443082909D+00
 SP   1 1.00       0.000000000000
      0.1687144782D+00  0.1000000000D+01  0.1000000000D+01
 D   1 1.00       0.000000000000
      0.8000000000D+00  0.1000000000D+01
 ****
     18 0
 S   6 1.00       0.000000000000
      0.3047524880D+04  0.1834737132D-02
      0.4573695180D+03  0.1403732281D-01
      0.1039486850D+03  0.6884262226D-01
      0.2921015530D+02  0.2321844432D+00
      0.9286662960D+01  0.4679413484D+00
      0.3163926960D+01  0.3623119853D+00
 SP   3 1.00       0.000000000000
      0.7868272350D+01 -0.1193324198D+00  0.6899906659D-01
      0.1881288540D+01 -0.1608541517D+00  0.3164239610D+00
      0.5442492580D+00  0.1143456438D+01  0.7443082909D+00
 SP   1 1.00       0.000000000000
      0.1687144782D+00  0.1000000000D+01  0.1000000000D+01
 D   1 1.00       0.000000000000
      0.8000000000D+00  0.1000000000D+01
 ****
     19 0
 S   3 1.00       0.000000000000
      0.1873113696D+02  0.3349460434D-01
      0.2825394365D+01  0.2347269535D+00
      0.6401216923D+00  0.8137573261D+00
 S   1 1.00       0.000000000000
      0.1612777588D+00  0.1000000000D+01
 ****
     20 0
 S   3 1.00       0.000000000000
      0.1873113696D+02  0.3349460434D-01
      0.2825394365D+01  0.2347269535D+00
      0.6401216923D+00  0.8137573261D+00
 S   1 1.00       0.000000000000
      0.1612777588D+00  0.1000000000D+01
 ****
     21 0
 S   6 1.00       0.000000000000
      0.3047524880D+04  0.1834737132D-02
      0.4573695180D+03  0.1403732281D-01
      0.1039486850D+03  0.6884262226D-01
      0.2921015530D+02  0.2321844432D+00
      0.9286662960D+01  0.4679413484D+00
      0.3163926960D+01  0.3623119853D+00
 SP   3 1.00       0.000000000000
      0.7868272350D+01 -0.1193324198D+00  0.6899906659D-01
      0.1881288540D+01 -0.1608541517D+00  0.3164239610D+00
      0.5442492580D+00  0.1143456438D+01  0.7443082909D+00
 SP   1 1.00       0.000000000000
      0.1687144782D+00  0.1000000000D+01  0.1000000000D+01
 D   1 1.00       0.000000000000
      0.8000000000D+00  0.1000000000D+01
 ****
     22 0
 S   3 1.00       0.000000000000
      0.1873113696D+02  0.3349460434D-01
      0.2825394365D+01  0.2347269535D+00
      0.6401216923D+00  0.8137573261D+00
 S   1 1.00       0.000000000000
      0.1612777588D+00  0.1000000000D+01
 ****
     23 0
 S   3 1.00       0.000000000000
      0.1873113696D+02  0.3349460434D-01
      0.2825394365D+01  0.2347269535D+00
      0.6401216923D+00  0.8137573261D+00
 S   1 1.00       0.000000000000
      0.1612777588D+00  0.1000000000D+01
 ****
     24 0
 S   6 1.00       0.000000000000
      0.3047524880D+04  0.1834737132D-02
      0.4573695180D+03  0.1403732281D-01
      0.1039486850D+03  0.6884262226D-01
      0.2921015530D+02  0.2321844432D+00
      0.9286662960D+01  0.4679413484D+00
      0.3163926960D+01  0.3623119853D+00
 SP   3 1.00       0.000000000000
      0.7868272350D+01 -0.1193324198D+00  0.6899906659D-01
      0.1881288540D+01 -0.1608541517D+00  0.3164239610D+00
      0.5442492580D+00  0.1143456438D+01  0.7443082909D+00
 SP   1 1.00       0.000000000000
      0.1687144782D+00  0.1000000000D+01  0.1000000000D+01
 D   1 1.00       0.000000000000
      0.8000000000D+00  0.1000000000D+01
 ****
     25 0
 S   3 1.00       0.000000000000
      0.1873113696D+02  0.3349460434D-01
      0.2825394365D+01  0.2347269535D+00
      0.6401216923D+00  0.8137573261D+00
 S   1 1.00       0.000000000000
      0.1612777588D+00  0.1000000000D+01
 ****
     26 0
 S   3 1.00       0.000000000000
      0.1873113696D+02  0.3349460434D-01
      0.2825394365D+01  0.2347269535D+00
      0.6401216923D+00  0.8137573261D+00
 S   1 1.00       0.000000000000
      0.1612777588D+00  0.1000000000D+01
 ****
     27 0
 S   6 1.00       0.000000000000
      0.3047524880D+04  0.1834737132D-02
      0.4573695180D+03  0.1403732281D-01
      0.1039486850D+03  0.6884262226D-01
      0.2921015530D+02  0.2321844432D+00
      0.9286662960D+01  0.4679413484D+00
      0.3163926960D+01  0.3623119853D+00
 SP   3 1.00       0.000000000000
      0.7868272350D+01 -0.1193324198D+00  0.6899906659D-01
      0.1881288540D+01 -0.1608541517D+00  0.3164239610D+00
      0.5442492580D+00  0.1143456438D+01  0.7443082909D+00
 SP   1 1.00       0.000000000000
      0.1687144782D+00  0.1000000000D+01  0.1000000000D+01
 D   1 1.00       0.000000000000
      0.8000000000D+00  0.1000000000D+01
 ****
     28 0
 S   3 1.00       0.000000000000
      0.1873113696D+02  0.3349460434D-01
      0.2825394365D+01  0.2347269535D+00
      0.6401216923D+00  0.8137573261D+00
 S   1 1.00       0.000000000000
      0.1612777588D+00  0.1000000000D+01
 ****
     29 0
 S   6 1.00       0.000000000000
      0.3047524880D+04  0.1834737132D-02
      0.4573695180D+03  0.1403732281D-01
      0.1039486850D+03  0.6884262226D-01
      0.2921015530D+02  0.2321844432D+00
      0.9286662960D+01  0.4679413484D+00
      0.3163926960D+01  0.3623119853D+00
 SP   3 1.00       0.000000000000
      0.7868272350D+01 -0.1193324198D+00  0.6899906659D-01
      0.1881288540D+01 -0.1608541517D+00  0.3164239610D+00
      0.5442492580D+00  0.1143456438D+01  0.7443082909D+00
 SP   1 1.00       0.000000000000
      0.1687144782D+00  0.1000000000D+01  0.1000000000D+01
 D   1 1.00       0.000000000000
      0.8000000000D+00  0.1000000000D+01
 ****
     30 0
 S   3 1.00       0.000000000000
      0.1873113696D+02  0.3349460434D-01
      0.2825394365D+01  0.2347269535D+00
      0.6401216923D+00  0.8137573261D+00
 S   1 1.00       0.000000000000
      0.1612777588D+00  0.1000000000D+01
 ****
     31 0
 S   6 1.00       0.000000000000
      0.3047524880D+04  0.1834737132D-02
      0.4573695180D+03  0.1403732281D-01
      0.1039486850D+03  0.6884262226D-01
      0.2921015530D+02  0.2321844432D+00
      0.9286662960D+01  0.4679413484D+00
      0.3163926960D+01  0.3623119853D+00
 SP   3 1.00       0.000000000000
      0.7868272350D+01 -0.1193324198D+00  0.6899906659D-01
      0.1881288540D+01 -0.1608541517D+00  0.3164239610D+00
      0.5442492580D+00  0.1143456438D+01  0.7443082909D+00
 SP   1 1.00       0.000000000000
      0.1687144782D+00  0.1000000000D+01  0.1000000000D+01
 D   1 1.00       0.000000000000
      0.8000000000D+00  0.1000000000D+01
 ****
     32 0
 S   3 1.00       0.000000000000
      0.1873113696D+02  0.3349460434D-01
      0.2825394365D+01  0.2347269535D+00
      0.6401216923D+00  0.8137573261D+00
 S   1 1.00       0.000000000000
      0.1612777588D+00  0.1000000000D+01
 ****
     33 0
 S   3 1.00       0.000000000000
      0.1873113696D+02  0.3349460434D-01
      0.2825394365D+01  0.2347269535D+00
      0.6401216923D+00  0.8137573261D+00
 S   1 1.00       0.000000000000
      0.1612777588D+00  0.1000000000D+01
 ****
     34 0
 S   3 1.00       0.000000000000
      0.1873113696D+02  0.3349460434D-01
      0.2825394365D+01  0.2347269535D+00
      0.6401216923D+00  0.8137573261D+00
 S   1 1.00       0.000000000000
      0.1612777588D+00  0.1000000000D+01
 ****
     35 0
 S   6 1.00       0.000000000000
      0.3047524880D+04  0.1834737132D-02
      0.4573695180D+03  0.1403732281D-01
      0.1039486850D+03  0.6884262226D-01
      0.2921015530D+02  0.2321844432D+00
      0.9286662960D+01  0.4679413484D+00
      0.3163926960D+01  0.3623119853D+00
 SP   3 1.00       0.000000000000
      0.7868272350D+01 -0.1193324198D+00  0.6899906659D-01
      0.1881288540D+01 -0.1608541517D+00  0.3164239610D+00
      0.5442492580D+00  0.1143456438D+01  0.7443082909D+00
 SP   1 1.00       0.000000000000
      0.1687144782D+00  0.1000000000D+01  0.1000000000D+01
 D   1 1.00       0.000000000000
      0.8000000000D+00  0.1000000000D+01
 ****
     36 0
 S   6 1.00       0.000000000000
      0.3047524880D+04  0.1834737132D-02
      0.4573695180D+03  0.1403732281D-01
      0.1039486850D+03  0.6884262226D-01
      0.2921015530D+02  0.2321844432D+00
      0.9286662960D+01  0.4679413484D+00
      0.3163926960D+01  0.3623119853D+00
 SP   3 1.00       0.000000000000
      0.7868272350D+01 -0.1193324198D+00  0.6899906659D-01
      0.1881288540D+01 -0.1608541517D+00  0.3164239610D+00
      0.5442492580D+00  0.1143456438D+01  0.7443082909D+00
 SP   1 1.00       0.000000000000
      0.1687144782D+00  0.1000000000D+01  0.1000000000D+01
 D   1 1.00       0.000000000000
      0.8000000000D+00  0.1000000000D+01
 ****
     37 0
 S   3 1.00       0.000000000000
      0.1873113696D+02  0.3349460434D-01
      0.2825394365D+01  0.2347269535D+00
      0.6401216923D+00  0.8137573261D+00
 S   1 1.00       0.000000000000
      0.1612777588D+00  0.1000000000D+01
 ****
     38 0
 S   3 1.00       0.000000000000
      0.1873113696D+02  0.3349460434D-01
      0.2825394365D+01  0.2347269535D+00
      0.6401216923D+00  0.8137573261D+00
 S   1 1.00       0.000000000000
      0.1612777588D+00  0.1000000000D+01
 ****
     39 0
 S   6 1.00       0.000000000000
      0.3047524880D+04  0.1834737132D-02
      0.4573695180D+03  0.1403732281D-01
      0.1039486850D+03  0.6884262226D-01
      0.2921015530D+02  0.2321844432D+00
      0.9286662960D+01  0.4679413484D+00
      0.3163926960D+01  0.3623119853D+00
 SP   3 1.00       0.000000000000
      0.7868272350D+01 -0.1193324198D+00  0.6899906659D-01
      0.1881288540D+01 -0.1608541517D+00  0.3164239610D+00
      0.5442492580D+00  0.1143456438D+01  0.7443082909D+00
 SP   1 1.00       0.000000000000
      0.1687144782D+00  0.1000000000D+01  0.1000000000D+01
 D   1 1.00       0.000000000000
      0.8000000000D+00  0.1000000000D+01
 ****
     40 0
 S   3 1.00       0.000000000000
      0.1873113696D+02  0.3349460434D-01
      0.2825394365D+01  0.2347269535D+00
      0.6401216923D+00  0.8137573261D+00
 S   1 1.00       0.000000000000
      0.1612777588D+00  0.1000000000D+01
 ****
     41 0
 S   6 1.00       0.000000000000
      0.3047524880D+04  0.1834737132D-02
      0.4573695180D+03  0.1403732281D-01
      0.1039486850D+03  0.6884262226D-01
      0.2921015530D+02  0.2321844432D+00
      0.9286662960D+01  0.4679413484D+00
      0.3163926960D+01  0.3623119853D+00
 SP   3 1.00       0.000000000000
      0.7868272350D+01 -0.1193324198D+00  0.6899906659D-01
      0.1881288540D+01 -0.1608541517D+00  0.3164239610D+00
      0.5442492580D+00  0.1143456438D+01  0.7443082909D+00
 SP   1 1.00       0.000000000000
      0.1687144782D+00  0.1000000000D+01  0.1000000000D+01
 D   1 1.00       0.000000000000
      0.8000000000D+00  0.1000000000D+01
 ****
     42 0
 S   3 1.00       0.000000000000
      0.1873113696D+02  0.3349460434D-01
      0.2825394365D+01  0.2347269535D+00
      0.6401216923D+00  0.8137573261D+00
 S   1 1.00       0.000000000000
      0.1612777588D+00  0.1000000000D+01
 ****
     43 0
 S   3 1.00       0.000000000000
      0.1873113696D+02  0.3349460434D-01
      0.2825394365D+01  0.2347269535D+00
      0.6401216923D+00  0.8137573261D+00
 S   1 1.00       0.000000000000
      0.1612777588D+00  0.1000000000D+01
 ****
     44 0
 S   3 1.00       0.000000000000
      0.1873113696D+02  0.3349460434D-01
      0.2825394365D+01  0.2347269535D+00
      0.6401216923D+00  0.8137573261D+00
 S   1 1.00       0.000000000000
      0.1612777588D+00  0.1000000000D+01
 ****
     45 0
 S   6 1.00       0.000000000000
      0.3047524880D+04  0.1834737132D-02
      0.4573695180D+03  0.1403732281D-01
      0.1039486850D+03  0.6884262226D-01
      0.2921015530D+02  0.2321844432D+00
      0.9286662960D+01  0.4679413484D+00
      0.3163926960D+01  0.3623119853D+00
 SP   3 1.00       0.000000000000
      0.7868272350D+01 -0.1193324198D+00  0.6899906659D-01
      0.1881288540D+01 -0.1608541517D+00  0.3164239610D+00
      0.5442492580D+00  0.1143456438D+01  0.7443082909D+00
 SP   1 1.00       0.000000000000
      0.1687144782D+00  0.1000000000D+01  0.1000000000D+01
 D   1 1.00       0.000000000000
      0.8000000000D+00  0.1000000000D+01
 ****
     46 0
 S   3 1.00       0.000000000000
      0.1873113696D+02  0.3349460434D-01
      0.2825394365D+01  0.2347269535D+00
      0.6401216923D+00  0.8137573261D+00
 S   1 1.00       0.000000000000
      0.1612777588D+00  0.1000000000D+01
 ****
     47 0
 S   3 1.00       0.000000000000
      0.1873113696D+02  0.3349460434D-01
      0.2825394365D+01  0.2347269535D+00
      0.6401216923D+00  0.8137573261D+00
 S   1 1.00       0.000000000000
      0.1612777588D+00  0.1000000000D+01
 ****
     48 0
 S   6 1.00       0.000000000000
      0.3047524880D+04  0.1834737132D-02
      0.4573695180D+03  0.1403732281D-01
      0.1039486850D+03  0.6884262226D-01
      0.2921015530D+02  0.2321844432D+00
      0.9286662960D+01  0.4679413484D+00
      0.3163926960D+01  0.3623119853D+00
 SP   3 1.00       0.000000000000
      0.7868272350D+01 -0.1193324198D+00  0.6899906659D-01
      0.1881288540D+01 -0.1608541517D+00  0.3164239610D+00
      0.5442492580D+00  0.1143456438D+01  0.7443082909D+00
 SP   1 1.00       0.000000000000
      0.1687144782D+00  0.1000000000D+01  0.1000000000D+01
 D   1 1.00       0.000000000000
      0.8000000000D+00  0.1000000000D+01
 ****
     49 0
 S   3 1.00       0.000000000000
      0.1873113696D+02  0.3349460434D-01
      0.2825394365D+01  0.2347269535D+00
      0.6401216923D+00  0.8137573261D+00
 S   1 1.00       0.000000000000
      0.1612777588D+00  0.1000000000D+01
 ****
     50 0
 S   3 1.00       0.000000000000
      0.1873113696D+02  0.3349460434D-01
      0.2825394365D+01  0.2347269535D+00
      0.6401216923D+00  0.8137573261D+00
 S   1 1.00       0.000000000000
      0.1612777588D+00  0.1000000000D+01
 ****
     51 0
 S   6 1.00       0.000000000000
      0.3047524880D+04  0.1834737132D-02
      0.4573695180D+03  0.1403732281D-01
      0.1039486850D+03  0.6884262226D-01
      0.2921015530D+02  0.2321844432D+00
      0.9286662960D+01  0.4679413484D+00
      0.3163926960D+01  0.3623119853D+00
 SP   3 1.00       0.000000000000
      0.7868272350D+01 -0.1193324198D+00  0.6899906659D-01
      0.1881288540D+01 -0.1608541517D+00  0.3164239610D+00
      0.5442492580D+00  0.1143456438D+01  0.7443082909D+00
 SP   1 1.00       0.000000000000
      0.1687144782D+00  0.1000000000D+01  0.1000000000D+01
 D   1 1.00       0.000000000000
      0.8000000000D+00  0.1000000000D+01
 ****
     52 0
 S   3 1.00       0.000000000000
      0.1873113696D+02  0.3349460434D-01
      0.2825394365D+01  0.2347269535D+00
      0.6401216923D+00  0.8137573261D+00
 S   1 1.00       0.000000000000
      0.1612777588D+00  0.1000000000D+01
 ****
     53 0
 S   3 1.00       0.000000000000
      0.1873113696D+02  0.3349460434D-01
      0.2825394365D+01  0.2347269535D+00
      0.6401216923D+00  0.8137573261D+00
 S   1 1.00       0.000000000000
      0.1612777588D+00  0.1000000000D+01
 ****
     54 0
 S   6 1.00       0.000000000000
      0.3047524880D+04  0.1834737132D-02
      0.4573695180D+03  0.1403732281D-01
      0.1039486850D+03  0.6884262226D-01
      0.2921015530D+02  0.2321844432D+00
      0.9286662960D+01  0.4679413484D+00
      0.3163926960D+01  0.3623119853D+00
 SP   3 1.00       0.000000000000
      0.7868272350D+01 -0.1193324198D+00  0.6899906659D-01
      0.1881288540D+01 -0.1608541517D+00  0.3164239610D+00
      0.5442492580D+00  0.1143456438D+01  0.7443082909D+00
 SP   1 1.00       0.000000000000
      0.1687144782D+00  0.1000000000D+01  0.1000000000D+01
 D   1 1.00       0.000000000000
      0.8000000000D+00  0.1000000000D+01
 ****
     55 0
 S   3 1.00       0.000000000000
      0.1873113696D+02  0.3349460434D-01
      0.2825394365D+01  0.2347269535D+00
      0.6401216923D+00  0.8137573261D+00
 S   1 1.00       0.000000000000
      0.1612777588D+00  0.1000000000D+01
 ****
     56 0
 S   6 1.00       0.000000000000
      0.3047524880D+04  0.1834737132D-02
      0.4573695180D+03  0.1403732281D-01
      0.1039486850D+03  0.6884262226D-01
      0.2921015530D+02  0.2321844432D+00
      0.9286662960D+01  0.4679413484D+00
      0.3163926960D+01  0.3623119853D+00
 SP   3 1.00       0.000000000000
      0.7868272350D+01 -0.1193324198D+00  0.6899906659D-01
      0.1881288540D+01 -0.1608541517D+00  0.3164239610D+00
      0.5442492580D+00  0.1143456438D+01  0.7443082909D+00
 SP   1 1.00       0.000000000000
      0.1687144782D+00  0.1000000000D+01  0.1000000000D+01
 D   1 1.00       0.000000000000
      0.8000000000D+00  0.1000000000D+01
 ****
     57 0
 S   3 1.00       0.000000000000
      0.1873113696D+02  0.3349460434D-01
      0.2825394365D+01  0.2347269535D+00
      0.6401216923D+00  0.8137573261D+00
 S   1 1.00       0.000000000000
      0.1612777588D+00  0.1000000000D+01
 ****
     58 0
 S   3 1.00       0.000000000000
      0.1873113696D+02  0.3349460434D-01
      0.2825394365D+01  0.2347269535D+00
      0.6401216923D+00  0.8137573261D+00
 S   1 1.00       0.000000000000
      0.1612777588D+00  0.1000000000D+01
 ****
     59 0
 S   3 1.00       0.000000000000
      0.1873113696D+02  0.3349460434D-01
      0.2825394365D+01  0.2347269535D+00
      0.6401216923D+00  0.8137573261D+00
 S   1 1.00       0.000000000000
      0.1612777588D+00  0.1000000000D+01
 ****
     60 0
 S   6 1.00       0.000000000000
      0.3047524880D+04  0.1834737132D-02
      0.4573695180D+03  0.1403732281D-01
      0.1039486850D+03  0.6884262226D-01
      0.2921015530D+02  0.2321844432D+00
      0.9286662960D+01  0.4679413484D+00
      0.3163926960D+01  0.3623119853D+00
 SP   3 1.00       0.000000000000
      0.7868272350D+01 -0.1193324198D+00  0.6899906659D-01
      0.1881288540D+01 -0.1608541517D+00  0.3164239610D+00
      0.5442492580D+00  0.1143456438D+01  0.7443082909D+00
 SP   1 1.00       0.000000000000
      0.1687144782D+00  0.1000000000D+01  0.1000000000D+01
 D   1 1.00       0.000000000000
      0.8000000000D+00  0.1000000000D+01
 ****
     61 0
 S   3 1.00       0.000000000000
      0.1873113696D+02  0.3349460434D-01
      0.2825394365D+01  0.2347269535D+00
      0.6401216923D+00  0.8137573261D+00
 S   1 1.00       0.000000000000
      0.1612777588D+00  0.1000000000D+01
 ****
     62 0
 S   3 1.00       0.000000000000
      0.1873113696D+02  0.3349460434D-01
      0.2825394365D+01  0.2347269535D+00
      0.6401216923D+00  0.8137573261D+00
 S   1 1.00       0.000000000000
      0.1612777588D+00  0.1000000000D+01
 ****
     63 0
 S   6 1.00       0.000000000000
      0.3047524880D+04  0.1834737132D-02
      0.4573695180D+03  0.1403732281D-01
      0.1039486850D+03  0.6884262226D-01
      0.2921015530D+02  0.2321844432D+00
      0.9286662960D+01  0.4679413484D+00
      0.3163926960D+01  0.3623119853D+00
 SP   3 1.00       0.000000000000
      0.7868272350D+01 -0.1193324198D+00  0.6899906659D-01
      0.1881288540D+01 -0.1608541517D+00  0.3164239610D+00
      0.5442492580D+00  0.1143456438D+01  0.7443082909D+00
 SP   1 1.00       0.000000000000
      0.1687144782D+00  0.1000000000D+01  0.1000000000D+01
 D   1 1.00       0.000000000000
      0.8000000000D+00  0.1000000000D+01
 ****
     64 0
 S   3 1.00       0.000000000000
      0.1873113696D+02  0.3349460434D-01
      0.2825394365D+01  0.2347269535D+00
      0.6401216923D+00  0.8137573261D+00
 S   1 1.00       0.000000000000
      0.1612777588D+00  0.1000000000D+01
 ****
     65 0
 S   3 1.00       0.000000000000
      0.1873113696D+02  0.3349460434D-01
      0.2825394365D+01  0.2347269535D+00
      0.6401216923D+00  0.8137573261D+00
 S   1 1.00       0.000000000000
      0.1612777588D+00  0.1000000000D+01
 ****
     66 0
 S   6 1.00       0.000000000000
      0.3047524880D+04  0.1834737132D-02
      0.4573695180D+03  0.1403732281D-01
      0.1039486850D+03  0.6884262226D-01
      0.2921015530D+02  0.2321844432D+00
      0.9286662960D+01  0.4679413484D+00
      0.3163926960D+01  0.3623119853D+00
 SP   3 1.00       0.000000000000
      0.7868272350D+01 -0.1193324198D+00  0.6899906659D-01
      0.1881288540D+01 -0.1608541517D+00  0.3164239610D+00
      0.5442492580D+00  0.1143456438D+01  0.7443082909D+00
 SP   1 1.00       0.000000000000
      0.1687144782D+00  0.1000000000D+01  0.1000000000D+01
 D   1 1.00       0.000000000000
      0.8000000000D+00  0.1000000000D+01
 ****
     67 0
 S   3 1.00       0.000000000000
      0.1873113696D+02  0.3349460434D-01
      0.2825394365D+01  0.2347269535D+00
      0.6401216923D+00  0.8137573261D+00
 S   1 1.00       0.000000000000
      0.1612777588D+00  0.1000000000D+01
 ****
     68 0
 S   6 1.00       0.000000000000
      0.3047524880D+04  0.1834737132D-02
      0.4573695180D+03  0.1403732281D-01
      0.1039486850D+03  0.6884262226D-01
      0.2921015530D+02  0.2321844432D+00
      0.9286662960D+01  0.4679413484D+00
      0.3163926960D+01  0.3623119853D+00
 SP   3 1.00       0.000000000000
      0.7868272350D+01 -0.1193324198D+00  0.6899906659D-01
      0.1881288540D+01 -0.1608541517D+00  0.3164239610D+00
      0.5442492580D+00  0.1143456438D+01  0.7443082909D+00
 SP   1 1.00       0.000000000000
      0.1687144782D+00  0.1000000000D+01  0.1000000000D+01
 D   1 1.00       0.000000000000
      0.8000000000D+00  0.1000000000D+01
 ****
     69 0
 S   3 1.00       0.000000000000
      0.1873113696D+02  0.3349460434D-01
      0.2825394365D+01  0.2347269535D+00
      0.6401216923D+00  0.8137573261D+00
 S   1 1.00       0.000000000000
      0.1612777588D+00  0.1000000000D+01
 ****
     70 0
 S   3 1.00       0.000000000000
      0.1873113696D+02  0.3349460434D-01
      0.2825394365D+01  0.2347269535D+00
      0.6401216923D+00  0.8137573261D+00
 S   1 1.00       0.000000000000
      0.1612777588D+00  0.1000000000D+01
 ****
     71 0
 S   3 1.00       0.000000000000
      0.1873113696D+02  0.3349460434D-01
      0.2825394365D+01  0.2347269535D+00
      0.6401216923D+00  0.8137573261D+00
 S   1 1.00       0.000000000000
      0.1612777588D+00  0.1000000000D+01
 ****
     72 0
 S   6 1.00       0.000000000000
      0.3047524880D+04  0.1834737132D-02
      0.4573695180D+03  0.1403732281D-01
      0.1039486850D+03  0.6884262226D-01
      0.2921015530D+02  0.2321844432D+00
      0.9286662960D+01  0.4679413484D+00
      0.3163926960D+01  0.3623119853D+00
 SP   3 1.00       0.000000000000
      0.7868272350D+01 -0.1193324198D+00  0.6899906659D-01
      0.1881288540D+01 -0.1608541517D+00  0.3164239610D+00
      0.5442492580D+00  0.1143456438D+01  0.7443082909D+00
 SP   1 1.00       0.000000000000
      0.1687144782D+00  0.1000000000D+01  0.1000000000D+01
 D   1 1.00       0.000000000000
      0.8000000000D+00  0.1000000000D+01
 ****
     73 0
 S   3 1.00       0.000000000000
      0.1873113696D+02  0.3349460434D-01
      0.2825394365D+01  0.2347269535D+00
      0.6401216923D+00  0.8137573261D+00
 S   1 1.00       0.000000000000
      0.1612777588D+00  0.1000000000D+01
 ****
     74 0
 S   3 1.00       0.000000000000
      0.1873113696D+02  0.3349460434D-01
      0.2825394365D+01  0.2347269535D+00
      0.6401216923D+00  0.8137573261D+00
 S   1 1.00       0.000000000000
      0.1612777588D+00  0.1000000000D+01
 ****
     75 0
 S   3 1.00       0.000000000000
      0.1873113696D+02  0.3349460434D-01
      0.2825394365D+01  0.2347269535D+00
      0.6401216923D+00  0.8137573261D+00
 S   1 1.00       0.000000000000
      0.1612777588D+00  0.1000000000D+01
 ****

 AO basis set (Overlap normalization):
 Atom O1       Shell     1 S   6     bf    1 -     1         12.769727891353          1.700642970618          0.000000000000
      0.5484671660D+04  0.1831074430D-02
      0.8252349460D+03  0.1395017220D-01
      0.1880469580D+03  0.6844507810D-01
      0.5296450000D+02  0.2327143360D+00
      0.1689757040D+02  0.4701928980D+00
      0.5799635340D+01  0.3585208530D+00
 Atom O1       Shell     2 SP   3    bf    2 -     5         12.769727891353          1.700642970618          0.000000000000
      0.1553961625D+02 -0.1107775495D+00  0.7087426823D-01
      0.3599933586D+01 -0.1480262627D+00  0.3397528391D+00
      0.1013761750D+01  0.1130767015D+01  0.7271585773D+00
 Atom O1       Shell     3 SP   1    bf    6 -     9         12.769727891353          1.700642970618          0.000000000000
      0.2700058226D+00  0.1000000000D+01  0.1000000000D+01
 Atom O1       Shell     4 D   1     bf   10 -    15         12.769727891353          1.700642970618          0.000000000000
      0.8000000000D+00  0.1000000000D+01
 Atom H2       Shell     5 S   3     bf   16 -    16         13.435880428306          0.000000000000          0.000000000000
      0.1873113696D+02  0.3349460434D-01
      0.2825394365D+01  0.2347269535D+00
      0.6401216923D+00  0.8137573261D+00
 Atom H2       Shell     6 S   1     bf   17 -    17         13.435880428306          0.000000000000          0.000000000000
      0.1612777588D+00  0.1000000000D+01
 Atom O3       Shell     7 S   6     bf   18 -    18         18.216275443315         -5.024121932772          9.287138599742
      0.5484671660D+04  0.1831074430D-02
      0.8252349460D+03  0.1395017220D-01
      0.1880469580D+03  0.6844507810D-01
      0.5296450000D+02  0.2327143360D+00
      0.1689757040D+02  0.4701928980D+00
      0.5799635340D+01  0.3585208530D+00
 Atom O3       Shell     8 SP   3    bf   19 -    22         18.216275443315         -5.024121932772          9.287138599742
      0.1553961625D+02 -0.1107775495D+00  0.7087426823D-01
      0.3599933586D+01 -0.1480262627D+00  0.3397528391D+00
      0.1013761750D+01  0.1130767015D+01  0.7271585773D+00
 Atom O3       Shell     9 SP   1    bf   23 -    26         18.216275443315         -5.024121932772          9.287138599742
      0.2700058226D+00  0.1000000000D+01  0.1000000000D+01
 Atom O3       Shell    10 D   1     bf   27 -    32         18.216275443315         -5.024121932772          9.287138599742
      0.8000000000D+00  0.1000000000D+01
 Atom H4       Shell    11 S   3     bf   33 -    33         17.727137880702         -4.655670501314         11.009957544324
      0.1873113696D+02  0.3349460434D-01
      0.2825394365D+01  0.2347269535D+00
      0.6401216923D+00  0.8137573261D+00
 Atom H4       Shell    12 S   1     bf   34 -    34         17.727137880702         -4.655670501314         11.009957544324
      0.1612777588D+00  0.1000000000D+01
 Atom C5       Shell    13 S   6     bf   35 -    35          4.745691290620          1.079450419874          1.626218355649
      0.3047524880D+04  0.1834737132D-02
      0.4573695180D+03  0.1403732281D-01
      0.1039486850D+03  0.6884262226D-01
      0.2921015530D+02  0.2321844432D+00
      0.9286662960D+01  0.4679413484D+00
      0.3163926960D+01  0.3623119853D+00
 Atom C5       Shell    14 SP   3    bf   36 -    39          4.745691290620          1.079450419874          1.626218355649
      0.7868272350D+01 -0.1193324198D+00  0.6899906659D-01
      0.1881288540D+01 -0.1608541517D+00  0.3164239610D+00
      0.5442492580D+00  0.1143456438D+01  0.7443082909D+00
 Atom C5       Shell    15 SP   1    bf   40 -    43          4.745691290620          1.079450419874          1.626218355649
      0.1687144782D+00  0.1000000000D+01  0.1000000000D+01
 Atom C5       Shell    16 D   1     bf   44 -    49          4.745691290620          1.079450419874          1.626218355649
      0.8000000000D+00  0.1000000000D+01
 Atom C6       Shell    17 S   6     bf   50 -    50          7.486917247545          1.954498877145          1.085517801363
      0.3047524880D+04  0.1834737132D-02
      0.4573695180D+03  0.1403732281D-01
      0.1039486850D+03  0.6884262226D-01
      0.2921015530D+02  0.2321844432D+00
      0.9286662960D+01  0.4679413484D+00
      0.3163926960D+01  0.3623119853D+00
 Atom C6       Shell    18 SP   3    bf   51 -    54          7.486917247545          1.954498877145          1.085517801363
      0.7868272350D+01 -0.1193324198D+00  0.6899906659D-01
      0.1881288540D+01 -0.1608541517D+00  0.3164239610D+00
      0.5442492580D+00  0.1143456438D+01  0.7443082909D+00
 Atom C6       Shell    19 SP   1    bf   55 -    58          7.486917247545          1.954498877145          1.085517801363
      0.1687144782D+00  0.1000000000D+01  0.1000000000D+01
 Atom C6       Shell    20 D   1     bf   59 -    64          7.486917247545          1.954498877145          1.085517801363
      0.8000000000D+00  0.1000000000D+01
 Atom H7       Shell    21 S   3     bf   65 -    65          8.142219222707          0.787607673260         -0.502435659896
      0.1873113696D+02  0.3349460434D-01
      0.2825394365D+01  0.2347269535D+00
      0.6401216923D+00  0.8137573261D+00
 Atom H7       Shell    22 S   1     bf   66 -    66          8.142219222707          0.787607673260         -0.502435659896
      0.1612777588D+00  0.1000000000D+01
 Atom C8       Shell    23 S   6     bf   67 -    67          9.352300174051          1.454457594746          3.243729476887
      0.3047524880D+04  0.1834737132D-02
      0.4573695180D+03  0.1403732281D-01
      0.1039486850D+03  0.6884262226D-01
      0.2921015530D+02  0.2321844432D+00
      0.9286662960D+01  0.4679413484D+00
      0.3163926960D+01  0.3623119853D+00
 Atom C8       Shell    24 SP   3    bf   68 -    71          9.352300174051          1.454457594746          3.243729476887
      0.7868272350D+01 -0.1193324198D+00  0.6899906659D-01
      0.1881288540D+01 -0.1608541517D+00  0.3164239610D+00
      0.5442492580D+00  0.1143456438D+01  0.7443082909D+00
 Atom C8       Shell    25 SP   1    bf   72 -    75          9.352300174051          1.454457594746          3.243729476887
      0.1687144782D+00  0.1000000000D+01  0.1000000000D+01
 Atom C8       Shell    26 D   1     bf   76 -    81          9.352300174051          1.454457594746          3.243729476887
      0.8000000000D+00  0.1000000000D+01
 Atom H9       Shell    27 S   3     bf   82 -    82          8.795291812362          2.574255954125          4.902981643736
      0.1873113696D+02  0.3349460434D-01
      0.2825394365D+01  0.2347269535D+00
      0.6401216923D+00  0.8137573261D+00
 Atom H9       Shell    28 S   1     bf   83 -    83          8.795291812362          2.574255954125          4.902981643736
      0.1612777588D+00  0.1000000000D+01
 Atom C10      Shell    29 S   6     bf   84 -    84          9.346668336641         -1.393325237806          3.950224378653
      0.3047524880D+04  0.1834737132D-02
      0.4573695180D+03  0.1403732281D-01
      0.1039486850D+03  0.6884262226D-01
      0.2921015530D+02  0.2321844432D+00
      0.9286662960D+01  0.4679413484D+00
      0.3163926960D+01  0.3623119853D+00
 Atom C10      Shell    30 SP   3    bf   85 -    88          9.346668336641         -1.393325237806          3.950224378653
      0.7868272350D+01 -0.1193324198D+00  0.6899906659D-01
      0.1881288540D+01 -0.1608541517D+00  0.3164239610D+00
      0.5442492580D+00  0.1143456438D+01  0.7443082909D+00
 Atom C10      Shell    31 SP   1    bf   89 -    92          9.346668336641         -1.393325237806          3.950224378653
      0.1687144782D+00  0.1000000000D+01  0.1000000000D+01
 Atom C10      Shell    32 D   1     bf   93 -    98          9.346668336641         -1.393325237806          3.950224378653
      0.8000000000D+00  0.1000000000D+01
 Atom H11      Shell    33 S   3     bf   99 -    99         10.203670041624         -2.377484932415          2.325566898996
      0.1873113696D+02  0.3349460434D-01
      0.2825394365D+01  0.2347269535D+00
      0.6401216923D+00  0.8137573261D+00
 Atom H11      Shell    34 S   1     bf  100 -   100         10.203670041624         -2.377484932415          2.325566898996
      0.1612777588D+00  0.1000000000D+01
 Atom C12      Shell    35 S   6     bf  101 -   101          3.464766755328          1.916876962072         -0.895452737397
      0.3047524880D+04  0.1834737132D-02
      0.4573695180D+03  0.1403732281D-01
      0.1039486850D+03  0.6884262226D-01
      0.2921015530D+02  0.2321844432D+00
      0.9286662960D+01  0.4679413484D+00
      0.3163926960D+01  0.3623119853D+00
 Atom C12      Shell    36 SP   3    bf  102 -   105          3.464766755328          1.916876962072         -0.895452737397
      0.7868272350D+01 -0.1193324198D+00  0.6899906659D-01
      0.1881288540D+01 -0.1608541517D+00  0.3164239610D+00
      0.5442492580D+00  0.1143456438D+01  0.7443082909D+00
 Atom C12      Shell    37 SP   1    bf  106 -   109          3.464766755328          1.916876962072         -0.895452737397
      0.1687144782D+00  0.1000000000D+01  0.1000000000D+01
 Atom C12      Shell    38 D   1     bf  110 -   115          3.464766755328          1.916876962072         -0.895452737397
      0.8000000000D+00  0.1000000000D+01
 Atom H13      Shell    39 S   3     bf  116 -   116          4.267196892354          0.632172823337         -2.318037549781
      0.1873113696D+02  0.3349460434D-01
      0.2825394365D+01  0.2347269535D+00
      0.6401216923D+00  0.8137573261D+00
 Atom H13      Shell    40 S   1     bf  117 -   117          4.267196892354          0.632172823337         -2.318037549781
      0.1612777588D+00  0.1000000000D+01
 Atom C14      Shell    41 S   6     bf  118 -   118          4.831577056791         -1.793740593117          2.063074660583
      0.3047524880D+04  0.1834737132D-02
      0.4573695180D+03  0.1403732281D-01
      0.1039486850D+03  0.6884262226D-01
      0.2921015530D+02  0.2321844432D+00
      0.9286662960D+01  0.4679413484D+00
      0.3163926960D+01  0.3623119853D+00
 Atom C14      Shell    42 SP   3    bf  119 -   122          4.831577056791         -1.793740593117          2.063074660583
      0.7868272350D+01 -0.1193324198D+00  0.6899906659D-01
      0.1881288540D+01 -0.1608541517D+00  0.3164239610D+00
      0.5442492580D+00  0.1143456438D+01  0.7443082909D+00
 Atom C14      Shell    43 SP   1    bf  123 -   126          4.831577056791         -1.793740593117          2.063074660583
      0.1687144782D+00  0.1000000000D+01  0.1000000000D+01
 Atom C14      Shell    44 D   1     bf  127 -   132          4.831577056791         -1.793740593117          2.063074660583
      0.8000000000D+00  0.1000000000D+01
 Atom H15      Shell    45 S   3     bf  133 -   133          5.462437654301         -2.715280206093          0.310949125036
      0.1873113696D+02  0.3349460434D-01
      0.2825394365D+01  0.2347269535D+00
      0.6401216923D+00  0.8137573261D+00
 Atom H15      Shell    46 S   1     bf  134 -   134          5.462437654301         -2.715280206093          0.310949125036
      0.1612777588D+00  0.1000000000D+01
 Atom H16      Shell    47 S   3     bf  135 -   135          2.946829936525         -2.552961291738          2.487018995974
      0.1873113696D+02  0.3349460434D-01
      0.2825394365D+01  0.2347269535D+00
      0.6401216923D+00  0.8137573261D+00
 Atom H16      Shell    48 S   1     bf  136 -   136          2.946829936525         -2.552961291738          2.487018995974
      0.1612777588D+00  0.1000000000D+01
 Atom C17      Shell    49 S   6     bf  137 -   137         11.102303566048         -1.976895268765          6.268085730370
      0.3047524880D+04  0.1834737132D-02
      0.4573695180D+03  0.1403732281D-01
      0.1039486850D+03  0.6884262226D-01
      0.2921015530D+02  0.2321844432D+00
      0.9286662960D+01  0.4679413484D+00
      0.3163926960D+01  0.3623119853D+00
 Atom C17      Shell    50 SP   3    bf  138 -   141         11.102303566048         -1.976895268765          6.268085730370
      0.7868272350D+01 -0.1193324198D+00  0.6899906659D-01
      0.1881288540D+01 -0.1608541517D+00  0.3164239610D+00
      0.5442492580D+00  0.1143456438D+01  0.7443082909D+00
 Atom C17      Shell    51 SP   1    bf  142 -   145         11.102303566048         -1.976895268765          6.268085730370
      0.1687144782D+00  0.1000000000D+01  0.1000000000D+01
 Atom C17      Shell    52 D   1     bf  146 -   151         11.102303566048         -1.976895268765          6.268085730370
      0.8000000000D+00  0.1000000000D+01
 Atom C18      Shell    53 S   6     bf  152 -   152          7.193005194124          4.651106019018          0.031900410157
      0.3047524880D+04  0.1834737132D-02
      0.4573695180D+03  0.1403732281D-01
      0.1039486850D+03  0.6884262226D-01
      0.2921015530D+02  0.2321844432D+00
      0.9286662960D+01  0.4679413484D+00
      0.3163926960D+01  0.3623119853D+00
 Atom C18      Shell    54 SP   3    bf  153 -   156          7.193005194124          4.651106019018          0.031900410157
      0.7868272350D+01 -0.1193324198D+00  0.6899906659D-01
      0.1881288540D+01 -0.1608541517D+00  0.3164239610D+00
      0.5442492580D+00  0.1143456438D+01  0.7443082909D+00
 Atom C18      Shell    55 SP   1    bf  157 -   160          7.193005194124          4.651106019018          0.031900410157
      0.1687144782D+00  0.1000000000D+01  0.1000000000D+01
 Atom C18      Shell    56 D   1     bf  161 -   166          7.193005194124          4.651106019018          0.031900410157
      0.8000000000D+00  0.1000000000D+01
 Atom H19      Shell    57 S   3     bf  167 -   167          8.777990991670          5.167891125332         -1.189088078220
      0.1873113696D+02  0.3349460434D-01
      0.2825394365D+01  0.2347269535D+00
      0.6401216923D+00  0.8137573261D+00
 Atom H19      Shell    58 S   1     bf  168 -   168          8.777990991670          5.167891125332         -1.189088078220
      0.1612777588D+00  0.1000000000D+01
 Atom H20      Shell    59 S   3     bf  169 -   169          7.126858618966          6.047659173620          1.563985365517
      0.1873113696D+02  0.3349460434D-01
      0.2825394365D+01  0.2347269535D+00
      0.6401216923D+00  0.8137573261D+00
 Atom H20      Shell    60 S   1     bf  170 -   170          7.126858618966          6.047659173620          1.563985365517
      0.1612777588D+00  0.1000000000D+01
 Atom C21      Shell    61 S   6     bf  171 -   171          6.645027398987         -2.491114240374          4.237303957165
      0.3047524880D+04  0.1834737132D-02
      0.4573695180D+03  0.1403732281D-01
      0.1039486850D+03  0.6884262226D-01
      0.2921015530D+02  0.2321844432D+00
      0.9286662960D+01  0.4679413484D+00
      0.3163926960D+01  0.3623119853D+00
 Atom C21      Shell    62 SP   3    bf  172 -   175          6.645027398987         -2.491114240374          4.237303957165
      0.7868272350D+01 -0.1193324198D+00  0.6899906659D-01
      0.1881288540D+01 -0.1608541517D+00  0.3164239610D+00
      0.5442492580D+00  0.1143456438D+01  0.7443082909D+00
 Atom C21      Shell    63 SP   1    bf  176 -   179          6.645027398987         -2.491114240374          4.237303957165
      0.1687144782D+00  0.1000000000D+01  0.1000000000D+01
 Atom C21      Shell    64 D   1     bf  180 -   185          6.645027398987         -2.491114240374          4.237303957165
      0.8000000000D+00  0.1000000000D+01
 Atom H22      Shell    65 S   3     bf  186 -   186          5.811189843557         -1.849146210600          6.017776178390
      0.1873113696D+02  0.3349460434D-01
      0.2825394365D+01  0.2347269535D+00
      0.6401216923D+00  0.8137573261D+00
 Atom H22      Shell    66 S   1     bf  187 -   187          5.811189843557         -1.849146210600          6.017776178390
      0.1612777588D+00  0.1000000000D+01
 Atom H23      Shell    67 S   3     bf  188 -   188          6.751696958983         -4.555009382249          4.373870477467
      0.1873113696D+02  0.3349460434D-01
      0.2825394365D+01  0.2347269535D+00
      0.6401216923D+00  0.8137573261D+00
 Atom H23      Shell    68 S   1     bf  189 -   189          6.751696958983         -4.555009382249          4.373870477467
      0.1612777588D+00  0.1000000000D+01
 Atom C24      Shell    69 S   6     bf  190 -   190          4.627975147542          4.576267421744         -1.423495244641
      0.3047524880D+04  0.1834737132D-02
      0.4573695180D+03  0.1403732281D-01
      0.1039486850D+03  0.6884262226D-01
      0.2921015530D+02  0.2321844432D+00
      0.9286662960D+01  0.4679413484D+00
      0.3163926960D+01  0.3623119853D+00
 Atom C24      Shell    70 SP   3    bf  191 -   194          4.627975147542          4.576267421744         -1.423495244641
      0.7868272350D+01 -0.1193324198D+00  0.6899906659D-01
      0.1881288540D+01 -0.1608541517D+00  0.3164239610D+00
      0.5442492580D+00  0.1143456438D+01  0.7443082909D+00
 Atom C24      Shell    71 SP   1    bf  195 -   198          4.627975147542          4.576267421744         -1.423495244641
      0.1687144782D+00  0.1000000000D+01  0.1000000000D+01
 Atom C24      Shell    72 D   1     bf  199 -   204          4.627975147542          4.576267421744         -1.423495244641
      0.8000000000D+00  0.1000000000D+01
 Atom H25      Shell    73 S   3     bf  205 -   205          3.381401770435          6.088646369682         -0.767645570153
      0.1873113696D+02  0.3349460434D-01
      0.2825394365D+01  0.2347269535D+00
      0.6401216923D+00  0.8137573261D+00
 Atom H25      Shell    74 S   1     bf  206 -   206          3.381401770435          6.088646369682         -0.767645570153
      0.1612777588D+00  0.1000000000D+01
 Atom H26      Shell    75 S   3     bf  207 -   207          4.895109743865          4.878484727032         -3.452768714035
      0.1873113696D+02  0.3349460434D-01
      0.2825394365D+01  0.2347269535D+00
      0.6401216923D+00  0.8137573261D+00
 Atom H26      Shell    76 S   1     bf  208 -   208          4.895109743865          4.878484727032         -3.452768714035
      0.1612777588D+00  0.1000000000D+01
 Atom C27      Shell    77 S   6     bf  209 -   209         12.048600481091          2.330225678626          2.561888868215
      0.3047524880D+04  0.1834737132D-02
      0.4573695180D+03  0.1403732281D-01
      0.1039486850D+03  0.6884262226D-01
      0.2921015530D+02  0.2321844432D+00
      0.9286662960D+01  0.4679413484D+00
      0.3163926960D+01  0.3623119853D+00
 Atom C27      Shell    78 SP   3    bf  210 -   213         12.048600481091          2.330225678626          2.561888868215
      0.7868272350D+01 -0.1193324198D+00  0.6899906659D-01
      0.1881288540D+01 -0.1608541517D+00  0.3164239610D+00
      0.5442492580D+00  0.1143456438D+01  0.7443082909D+00
 Atom C27      Shell    79 SP   1    bf  214 -   217         12.048600481091          2.330225678626          2.561888868215
      0.1687144782D+00  0.1000000000D+01  0.1000000000D+01
 Atom C27      Shell    80 D   1     bf  218 -   223         12.048600481091          2.330225678626          2.561888868215
      0.8000000000D+00  0.1000000000D+01
 Atom H28      Shell    81 S   3     bf  224 -   224         12.086736704028          4.401301439655          2.576428307698
      0.1873113696D+02  0.3349460434D-01
      0.2825394365D+01  0.2347269535D+00
      0.6401216923D+00  0.8137573261D+00
 Atom H28      Shell    82 S   1     bf  225 -   225         12.086736704028          4.401301439655          2.576428307698
      0.1612777588D+00  0.1000000000D+01
 Atom C29      Shell    83 S   6     bf  226 -   226          0.548122359186          1.639833964717         -1.157482616517
      0.3047524880D+04  0.1834737132D-02
      0.4573695180D+03  0.1403732281D-01
      0.1039486850D+03  0.6884262226D-01
      0.2921015530D+02  0.2321844432D+00
      0.9286662960D+01  0.4679413484D+00
      0.3163926960D+01  0.3623119853D+00
 Atom C29      Shell    84 SP   3    bf  227 -   230          0.548122359186          1.639833964717         -1.157482616517
      0.7868272350D+01 -0.1193324198D+00  0.6899906659D-01
      0.1881288540D+01 -0.1608541517D+00  0.3164239610D+00
      0.5442492580D+00  0.1143456438D+01  0.7443082909D+00
 Atom C29      Shell    85 SP   1    bf  231 -   234          0.548122359186          1.639833964717         -1.157482616517
      0.1687144782D+00  0.1000000000D+01  0.1000000000D+01
 Atom C29      Shell    86 D   1     bf  235 -   240          0.548122359186          1.639833964717         -1.157482616517
      0.8000000000D+00  0.1000000000D+01
 Atom H30      Shell    87 S   3     bf  241 -   241          0.000000000000          0.000000000000          0.000000000000
      0.1873113696D+02  0.3349460434D-01
      0.2825394365D+01  0.2347269535D+00
      0.6401216923D+00  0.8137573261D+00
 Atom H30      Shell    88 S   1     bf  242 -   242          0.000000000000          0.000000000000          0.000000000000
      0.1612777588D+00  0.1000000000D+01
 Atom C31      Shell    89 S   6     bf  243 -   243          3.562176260430          2.415595077131          3.936082821008
      0.3047524880D+04  0.1834737132D-02
      0.4573695180D+03  0.1403732281D-01
      0.1039486850D+03  0.6884262226D-01
      0.2921015530D+02  0.2321844432D+00
      0.9286662960D+01  0.4679413484D+00
      0.3163926960D+01  0.3623119853D+00
 Atom C31      Shell    90 SP   3    bf  244 -   247          3.562176260430          2.415595077131          3.936082821008
      0.7868272350D+01 -0.1193324198D+00  0.6899906659D-01
      0.1881288540D+01 -0.1608541517D+00  0.3164239610D+00
      0.5442492580D+00  0.1143456438D+01  0.7443082909D+00
 Atom C31      Shell    91 SP   1    bf  248 -   251          3.562176260430          2.415595077131          3.936082821008
      0.1687144782D+00  0.1000000000D+01  0.1000000000D+01
 Atom C31      Shell    92 D   1     bf  252 -   257          3.562176260430          2.415595077131          3.936082821008
      0.8000000000D+00  0.1000000000D+01
 Atom H32      Shell    93 S   3     bf  258 -   258          4.609318731808          2.041861464289          5.676878220066
      0.1873113696D+02  0.3349460434D-01
      0.2825394365D+01  0.2347269535D+00
      0.6401216923D+00  0.8137573261D+00
 Atom H32      Shell    94 S   1     bf  259 -   259          4.609318731808          2.041861464289          5.676878220066
      0.1612777588D+00  0.1000000000D+01
 Atom H33      Shell    95 S   3     bf  260 -   260          3.496379624757          4.467700274355          3.700584167670
      0.1873113696D+02  0.3349460434D-01
      0.2825394365D+01  0.2347269535D+00
      0.6401216923D+00  0.8137573261D+00
 Atom H33      Shell    96 S   1     bf  261 -   261          3.496379624757          4.467700274355          3.700584167670
      0.1612777588D+00  0.1000000000D+01
 Atom H34      Shell    97 S   3     bf  262 -   262          1.623789358369          1.755806155136          4.240990718364
      0.1873113696D+02  0.3349460434D-01
      0.2825394365D+01  0.2347269535D+00
      0.6401216923D+00  0.8137573261D+00
 Atom H34      Shell    98 S   1     bf  263 -   263          1.623789358369          1.755806155136          4.240990718364
      0.1612777588D+00  0.1000000000D+01
 Atom C35      Shell    99 S   6     bf  264 -   264         13.624385580041         -0.569304526177          6.005992942267
      0.3047524880D+04  0.1834737132D-02
      0.4573695180D+03  0.1403732281D-01
      0.1039486850D+03  0.6884262226D-01
      0.2921015530D+02  0.2321844432D+00
      0.9286662960D+01  0.4679413484D+00
      0.3163926960D+01  0.3623119853D+00
 Atom C35      Shell   100 SP   3    bf  265 -   268         13.624385580041         -0.569304526177          6.005992942267
      0.7868272350D+01 -0.1193324198D+00  0.6899906659D-01
      0.1881288540D+01 -0.1608541517D+00  0.3164239610D+00
      0.5442492580D+00  0.1143456438D+01  0.7443082909D+00
 Atom C35      Shell   101 SP   1    bf  269 -   272         13.624385580041         -0.569304526177          6.005992942267
      0.1687144782D+00  0.1000000000D+01  0.1000000000D+01
 Atom C35      Shell   102 D   1     bf  273 -   278         13.624385580041         -0.569304526177          6.005992942267
      0.8000000000D+00  0.1000000000D+01
 Atom C36      Shell   103 S   6     bf  279 -   279         11.658876270274         -4.871735173306          6.326618409966
      0.3047524880D+04  0.1834737132D-02
      0.4573695180D+03  0.1403732281D-01
      0.1039486850D+03  0.6884262226D-01
      0.2921015530D+02  0.2321844432D+00
      0.9286662960D+01  0.4679413484D+00
      0.3163926960D+01  0.3623119853D+00
 Atom C36      Shell   104 SP   3    bf  280 -   283         11.658876270274         -4.871735173306          6.326618409966
      0.7868272350D+01 -0.1193324198D+00  0.6899906659D-01
      0.1881288540D+01 -0.1608541517D+00  0.3164239610D+00
      0.5442492580D+00  0.1143456438D+01  0.7443082909D+00
 Atom C36      Shell   105 SP   1    bf  284 -   287         11.658876270274         -4.871735173306          6.326618409966
      0.1687144782D+00  0.1000000000D+01  0.1000000000D+01
 Atom C36      Shell   106 D   1     bf  288 -   293         11.658876270274         -4.871735173306          6.326618409966
      0.8000000000D+00  0.1000000000D+01
 Atom H37      Shell   107 S   3     bf  294 -   294         12.209844897168         -5.466261061597          4.414595209466
      0.1873113696D+02  0.3349460434D-01
      0.2825394365D+01  0.2347269535D+00
      0.6401216923D+00  0.8137573261D+00
 Atom H37      Shell   108 S   1     bf  295 -   295         12.209844897168         -5.466261061597          4.414595209466
      0.1612777588D+00  0.1000000000D+01
 Atom H38      Shell   109 S   3     bf  296 -   296          9.916826811160         -5.894342234260          6.776972442852
      0.1873113696D+02  0.3349460434D-01
      0.2825394365D+01  0.2347269535D+00
      0.6401216923D+00  0.8137573261D+00
 Atom H38      Shell   110 S   1     bf  297 -   297          9.916826811160         -5.894342234260          6.776972442852
      0.1612777588D+00  0.1000000000D+01
 Atom C39      Shell   111 S   6     bf  298 -   298         13.994249109352          1.336583565049          4.370625628724
      0.3047524880D+04  0.1834737132D-02
      0.4573695180D+03  0.1403732281D-01
      0.1039486850D+03  0.6884262226D-01
      0.2921015530D+02  0.2321844432D+00
      0.9286662960D+01  0.4679413484D+00
      0.3163926960D+01  0.3623119853D+00
 Atom C39      Shell   112 SP   3    bf  299 -   302         13.994249109352          1.336583565049          4.370625628724
      0.7868272350D+01 -0.1193324198D+00  0.6899906659D-01
      0.1881288540D+01 -0.1608541517D+00  0.3164239610D+00
      0.5442492580D+00  0.1143456438D+01  0.7443082909D+00
 Atom C39      Shell   113 SP   1    bf  303 -   306         13.994249109352          1.336583565049          4.370625628724
      0.1687144782D+00  0.1000000000D+01  0.1000000000D+01
 Atom C39      Shell   114 D   1     bf  307 -   312         13.994249109352          1.336583565049          4.370625628724
      0.8000000000D+00  0.1000000000D+01
 Atom H40      Shell   115 S   3     bf  313 -   313         15.851166346242          2.219484590293          4.260078275115
[...]
 **** Fit      -0.004909
 **** Fit      -0.001874
 **** Fit       0.000089
 **** Fit      -0.006684
 **** Fit      -0.009032
 **** Fit      -0.012171
 **** Fit      -0.016328
 **** Fit      -0.021750
 **** Fit      -0.028650
 **** Fit      -0.037047
 **** Fit      -0.046413
 **** Fit      -0.055252
 **** Fit      -0.061126
 **** Fit      -0.061691
 **** Fit      -0.056270
 **** Fit      -0.046397
 **** Fit      -0.034770
 **** Fit      -0.023781
 **** Fit      -0.014781
 **** Fit      -0.008127
 **** Fit      -0.003568
 **** Fit      -0.000625
 **** Fit       0.001182
 **** Fit      -0.006339
 **** Fit      -0.008639
 **** Fit      -0.011746
 **** Fit      -0.015904
 **** Fit      -0.021395
 **** Fit      -0.028485
 **** Fit      -0.037253
 **** Fit      -0.047194
 **** Fit      -0.056709
 **** Fit      -0.063085
 **** Fit      -0.046949
 **** Fit      -0.034419
 **** Fit      -0.022760
 **** Fit      -0.013405
 **** Fit      -0.006667
 **** Fit      -0.002197
 **** Fit       0.000578
 **** Fit       0.002196
 **** Fit      -0.005891
 **** Fit      -0.008069
 **** Fit      -0.011027
 **** Fit      -0.015007
 **** Fit      -0.020292
 **** Fit      -0.027160
 **** Fit      -0.035711
 **** Fit      -0.045477
 **** Fit      -0.054896
 **** Fit      -0.061271
 **** Fit      -0.055991
 **** Fit      -0.045220
 **** Fit      -0.032677
 **** Fit      -0.021059
 **** Fit      -0.011823
 **** Fit      -0.005264
 **** Fit      -0.000998
 **** Fit       0.001576
 **** Fit       0.003017
 **** Fit       0.003744
 **** Fit      -0.005356
 **** Fit      -0.007343
 **** Fit      -0.010043
 **** Fit      -0.013676
 **** Fit      -0.018496
 **** Fit      -0.024745
 **** Fit      -0.032501
 **** Fit      -0.041324
 **** Fit      -0.049818
 **** Fit      -0.055594
 **** Fit      -0.056240
 **** Fit      -0.050931
 **** Fit      -0.041122
 **** Fit      -0.029573
 **** Fit      -0.018794
 **** Fit      -0.010187
 **** Fit      -0.004065
 **** Fit      -0.000096
 **** Fit       0.002276
 **** Fit       0.003574
 **** Fit      -0.004746
 **** Fit      -0.006483
 **** Fit      -0.008835
 **** Fit      -0.011987
 **** Fit      -0.016144
 **** Fit      -0.021483
 **** Fit      -0.028024
 **** Fit      -0.035357
 **** Fit      -0.042320
 **** Fit      -0.047016
 **** Fit      -0.047545
 **** Fit      -0.043210
 **** Fit      -0.035081
 **** Fit      -0.025341
 **** Fit      -0.016078
 **** Fit      -0.008541
 **** Fit      -0.003087
 **** Fit       0.000504
 **** Fit       0.002671
 **** Fit       0.003860
 **** Fit      -0.005517
 **** Fit      -0.007459
 **** Fit      -0.010046
 **** Fit      -0.013427
 **** Fit      -0.017716
 **** Fit      -0.022878
 **** Fit      -0.028538
 **** Fit      -0.033793
 **** Fit      -0.037263
 **** Fit      -0.037612
 **** Fit      -0.034330
 **** Fit      -0.028126
 **** Fit      -0.020533
 **** Fit      -0.013117
 **** Fit      -0.006903
 **** Fit      -0.002267
 **** Fit       0.000875
 **** Fit       0.002826
 **** Fit       0.003923
 **** Fit      -0.005981
 **** Fit      -0.007971
 **** Fit      -0.010555
 **** Fit      -0.013798
 **** Fit      -0.017641
 **** Fit      -0.021771
 **** Fit      -0.025519
 **** Fit      -0.027939
 **** Fit      -0.028152
 **** Fit      -0.025818
 **** Fit      -0.021370
 **** Fit      -0.015800
 **** Fit      -0.010189
 **** Fit      -0.005318
 **** Fit      -0.001545
 **** Fit       0.001113
 **** Fit       0.002829
 **** Fit      -0.003418
 **** Fit      -0.004478
 **** Fit      -0.005886
 **** Fit      -0.007717
 **** Fit      -0.010018
 **** Fit      -0.012738
 **** Fit      -0.015644
 **** Fit      -0.018260
 **** Fit      -0.019945
 **** Fit      -0.020123
 **** Fit      -0.018566
 **** Fit      -0.015522
 **** Fit      -0.011606
 **** Fit      -0.007529
 **** Fit      -0.003853
 **** Fit      -0.000888
 **** Fit       0.001290
 **** Fit      -0.002381
 **** Fit      -0.003028
 **** Fit      -0.003910
 **** Fit      -0.005084
 **** Fit      -0.006598
 **** Fit      -0.008435
 **** Fit      -0.010445
 **** Fit      -0.012296
 **** Fit      -0.013537
 **** Fit      -0.013768
 **** Fit      -0.012816
 **** Fit      -0.010818
 **** Fit      -0.008148
 **** Fit      -0.005265
 **** Fit      -0.002565
 **** Fit      -0.000298
 **** Fit      -0.001419
 **** Fit      -0.001713
 **** Fit      -0.002158
 **** Fit      -0.002805
 **** Fit      -0.003713
 **** Fit      -0.004902
 **** Fit      -0.006291
 **** Fit      -0.007648
 **** Fit      -0.008639
 **** Fit      -0.008957
 **** Fit      -0.008458
 **** Fit      -0.007206
 **** Fit      -0.000582
 **** Fit      -0.000598
 **** Fit      -0.000718
 **** Fit      -0.000990
 **** Fit      -0.001477
 **** Fit      -0.002224
 **** Fit      -0.003195
 **** Fit      -0.004227
 **** Fit      -0.005060
 **** Fit      -0.005448
 **** Fit      -0.005261
 **** Fit      -0.004520
 **** Fit       0.000099
 **** Fit       0.000275
 **** Fit       0.000364
 **** Fit       0.000322
 **** Fit       0.000091
 **** Fit      -0.000380
 **** Fit      -0.001074
 **** Fit      -0.001872
 **** Fit      -0.002574
 **** Fit      -0.002984
 **** Fit      -0.002986
 **** Fit      -0.002578
 **** Fit       0.000606
 **** Fit       0.000898
 **** Fit       0.001099
 **** Fit       0.001173
 **** Fit       0.001072
 **** Fit       0.000760
 **** Fit       0.000252
 **** Fit      -0.000365
 **** Fit      -0.000941
 **** Fit      -0.001324
 **** Fit      -0.001420
 **** Fit      -0.001213
 **** Fit       0.001289
 **** Fit       0.001535
 **** Fit       0.001649
 **** Fit       0.001604
 **** Fit       0.001382
 **** Fit       0.001000
 **** Fit       0.000527
 **** Fit       0.000073
 **** Fit      -0.000253
 **** Fit      -0.000379
 **** Fit       0.001731
 **** Fit       0.001852
 **** Fit       0.001828
 **** Fit       0.001658
 **** Fit       0.001368
 **** Fit       0.001010
 **** Fit       0.000663
 **** Fit       0.000404
 **** Fit       0.001863
 **** Fit       0.001850
 **** Fit       0.001721
 **** Fit       0.001501
 **** Fit       0.001235
 **** Fit       0.000978
 **** Fit      -0.024718
 **** Fit      -0.024705
 **** Fit      -0.023596
 **** Fit      -0.021521
 **** Fit      -0.025358
 **** Fit      -0.027775
 **** Fit      -0.029165
 **** Fit      -0.029185
 **** Fit      -0.027734
 **** Fit      -0.025013
 **** Fit      -0.021450
 **** Fit      -0.017549
 **** Fit      -0.025167
 **** Fit      -0.028961
 **** Fit      -0.032093
 **** Fit      -0.033941
 **** Fit      -0.034001
 **** Fit      -0.032123
 **** Fit      -0.028608
 **** Fit      -0.024079
 **** Fit      -0.019235
 **** Fit      -0.014640
 **** Fit      -0.010637
 **** Fit      -0.023075
 **** Fit      -0.027753
 **** Fit      -0.032396
 **** Fit      -0.036323
 **** Fit      -0.038690
 **** Fit      -0.038791
 **** Fit      -0.036415
 **** Fit      -0.031993
 **** Fit      -0.026397
 **** Fit      -0.020556
 **** Fit      -0.015170
 **** Fit      -0.010618
 **** Fit      -0.007007
 **** Fit      -0.019626
 **** Fit      -0.024442
 **** Fit      -0.029808
 **** Fit      -0.035259
 **** Fit      -0.039969
 **** Fit      -0.042857
 **** Fit      -0.042990
 **** Fit      -0.040094
 **** Fit      -0.034753
 **** Fit      -0.028109
 **** Fit      -0.021331
 **** Fit      -0.015242
 **** Fit      -0.010241
 **** Fit      -0.006392
 **** Fit      -0.003571
 **** Fit      -0.012148
 **** Fit      -0.015638
 **** Fit      -0.019960
 **** Fit      -0.025135
 **** Fit      -0.031007
 **** Fit      -0.037085
 **** Fit      -0.042426
 **** Fit      -0.045741
 **** Fit      -0.045895
 **** Fit      -0.042553
 **** Fit      -0.036441
 **** Fit      -0.028944
 **** Fit      -0.021434
 **** Fit      -0.014833
 **** Fit      -0.009540
 **** Fit      -0.005573
 **** Fit      -0.002748
 **** Fit      -0.011819
 **** Fit      -0.015317
 **** Fit      -0.019693
 **** Fit      -0.024992
 **** Fit      -0.031077
 **** Fit      -0.037454
 **** Fit      -0.043119
 **** Fit      -0.046666
 **** Fit      -0.046831
 **** Fit      -0.043235
 **** Fit      -0.036686
 **** Fit      -0.028718
 **** Fit      -0.020827
 **** Fit      -0.013992
 **** Fit      -0.008606
 **** Fit      -0.004650
 **** Fit      -0.001898
 **** Fit      -0.011202
 **** Fit      -0.014567
 **** Fit      -0.018795
 **** Fit      -0.023941
 **** Fit      -0.029879
 **** Fit      -0.036129
 **** Fit      -0.041704
 **** Fit      -0.045206
 **** Fit      -0.045367
 **** Fit      -0.041794
 **** Fit      -0.035280
 **** Fit      -0.027361
 **** Fit      -0.019543
 **** Fit      -0.012809
 **** Fit      -0.007548
 **** Fit      -0.003728
 **** Fit      -0.001109
 **** Fit      -0.010321
 **** Fit      -0.013419
 **** Fit      -0.017310
 **** Fit      -0.022038
 **** Fit      -0.027478
 **** Fit      -0.033181
 **** Fit      -0.038245
 **** Fit      -0.041413
 **** Fit      -0.041542
 **** Fit      -0.038265
 **** Fit      -0.032273
 **** Fit      -0.024946
 **** Fit      -0.017673
 **** Fit      -0.011381
 **** Fit      -0.006455
 **** Fit      -0.002882
 **** Fit      -0.000443
 **** Fit      -0.011945
 **** Fit      -0.015350
 **** Fit      -0.019458
 **** Fit      -0.024141
 **** Fit      -0.028994
 **** Fit      -0.033251
 **** Fit      -0.035876
 **** Fit      -0.035946
 **** Fit      -0.033154
 **** Fit      -0.028039
 **** Fit      -0.021721
 **** Fit      -0.015365
 **** Fit      -0.009794
 **** Fit      -0.005379
 **** Fit      -0.002145
 **** Fit       0.000078
 **** Fit      -0.016455
 **** Fit      -0.020260
 **** Fit      -0.024142
 **** Fit      -0.027487
 **** Fit      -0.029507
 **** Fit      -0.029516
 **** Fit      -0.027282
 **** Fit      -0.023192
 **** Fit      -0.018074
 **** Fit      -0.012830
 **** Fit      -0.008138
 **** Fit      -0.004345
 **** Fit      -0.001512
 **** Fit      -0.008419
 **** Fit      -0.010653
 **** Fit      -0.013297
 **** Fit      -0.016236
 **** Fit      -0.019188
 **** Fit      -0.021690
 **** Fit      -0.023170
 **** Fit      -0.023148
 **** Fit      -0.021458
 **** Fit      -0.018356
 **** Fit      -0.014414
 **** Fit      -0.010289
 **** Fit      -0.006506
 **** Fit      -0.003368
 **** Fit      -0.000964
 **** Fit      -0.006591
 **** Fit      -0.008255
 **** Fit      -0.010220
 **** Fit      -0.012391
 **** Fit      -0.014556
 **** Fit      -0.016376
 **** Fit      -0.017448
 **** Fit      -0.017438
 **** Fit      -0.016226
 **** Fit      -0.013972
 **** Fit      -0.011054
 **** Fit      -0.007927
 **** Fit      -0.004982
 **** Fit      -0.003926
 **** Fit      -0.004858
 **** Fit      -0.006020
 **** Fit      -0.007404
 **** Fit      -0.008947
 **** Fit      -0.010499
 **** Fit      -0.011816
 **** Fit      -0.012612
 **** Fit      -0.012649
 **** Fit      -0.011833
 **** Fit      -0.002729
 **** Fit      -0.003308
 **** Fit      -0.004056
 **** Fit      -0.004978
 **** Fit      -0.006039
 **** Fit      -0.007139
 **** Fit      -0.008104
 **** Fit      -0.008724
 **** Fit      -0.008822
 **** Fit      -0.008316
 **** Fit      -0.001701
 **** Fit      -0.002001
 **** Fit      -0.002435
 **** Fit      -0.003015
 **** Fit      -0.003726
 **** Fit      -0.004504
 **** Fit      -0.005224
 **** Fit      -0.005730
 **** Fit      -0.005879
 **** Fit      -0.005601
 **** Fit      -0.000870
 **** Fit      -0.000971
 **** Fit      -0.001185
 **** Fit      -0.001530
 **** Fit      -0.002000
 **** Fit      -0.002553
 **** Fit      -0.003099
 **** Fit      -0.003517
 **** Fit      -0.003696
 **** Fit      -0.003570
 **** Fit      -0.000214
 **** Fit      -0.000288
 **** Fit      -0.000482
 **** Fit      -0.000793
 **** Fit      -0.001190
 **** Fit      -0.001606
 **** Fit      -0.001948
 **** Fit      -0.002130
 **** Fit       0.000305
 **** Fit       0.000203
 **** Fit      -0.000005
 **** Fit      -0.000292
 **** Fit      -0.000607
 **** Fit      -0.000880
 **** Fit      -0.001044
 **** Fit       0.000610
 **** Fit       0.000471
 **** Fit       0.000263
 **** Fit       0.000029
 **** Fit      -0.024309
 **** Fit      -0.024234
 **** Fit      -0.023132
 **** Fit      -0.024328
 **** Fit      -0.026421
 **** Fit      -0.027570
 **** Fit      -0.027498
 **** Fit      -0.026134
 **** Fit      -0.023655
 **** Fit      -0.020426
 **** Fit      -0.023543
 **** Fit      -0.026709
 **** Fit      -0.029239
 **** Fit      -0.030653
 **** Fit      -0.030582
 **** Fit      -0.028931
 **** Fit      -0.025938
 **** Fit      -0.022086
 **** Fit      -0.017925
 **** Fit      -0.024984
 **** Fit      -0.028604
 **** Fit      -0.031543
 **** Fit      -0.033209
 **** Fit      -0.033137
 **** Fit      -0.031206
 **** Fit      -0.027719
 **** Fit      -0.023281
 **** Fit      -0.018562
 **** Fit      -0.014097
 **** Fit      -0.021695
 **** Fit      -0.025772
 **** Fit      -0.029728
 **** Fit      -0.032980
 **** Fit      -0.034841
 **** Fit      -0.034765
 **** Fit      -0.032606
 **** Fit      -0.028725
 **** Fit      -0.023830
 **** Fit      -0.018690
 **** Fit      -0.013902
 **** Fit      -0.009808
 **** Fit      -0.021545
 **** Fit      -0.025737
 **** Fit      -0.029839
 **** Fit      -0.033237
 **** Fit      -0.035193
 **** Fit      -0.035109
 **** Fit      -0.032826
 **** Fit      -0.028734
 **** Fit      -0.023603
 **** Fit      -0.018259
 **** Fit      -0.013332
 **** Fit      -0.009168
 **** Fit      -0.005871
 **** Fit      -0.020710
 **** Fit      -0.024800
 **** Fit      -0.028815
 **** Fit      -0.032147
 **** Fit      -0.034065
 **** Fit      -0.033971
 **** Fit      -0.031700
 **** Fit      -0.027639
 **** Fit      -0.022556
 **** Fit      -0.017274
 **** Fit      -0.012424
 **** Fit      -0.008349
 **** Fit      -0.005146
 **** Fit      -0.023010
 **** Fit      -0.026710
 **** Fit      -0.029769
 **** Fit      -0.031516
 **** Fit      -0.031406
 **** Fit      -0.029286
 **** Fit      -0.025501
 **** Fit      -0.020751
 **** Fit      -0.015801
 **** Fit      -0.011243
 **** Fit      -0.007409
 **** Fit      -0.004395
 **** Fit      -0.020539
 **** Fit      -0.023755
 **** Fit      -0.026389
 **** Fit      -0.027871
 **** Fit      -0.027744
 **** Fit      -0.025877
 **** Fit      -0.022554
 **** Fit      -0.018363
 **** Fit      -0.013959
 **** Fit      -0.009869
 **** Fit      -0.006400
 **** Fit      -0.020289
 **** Fit      -0.022432
 **** Fit      -0.023614
 **** Fit      -0.023478
 **** Fit      -0.021919
 **** Fit      -0.019155
 **** Fit      -0.015642
 **** Fit      -0.011908
 **** Fit      -0.008393
 **** Fit      -0.018332
 **** Fit      -0.019234
 **** Fit      -0.019105
 **** Fit      -0.017866
 **** Fit      -0.015670
 **** Fit      -0.009913
 **** Fit      -0.011594
 **** Fit      -0.013180
 **** Fit      -0.014436
 **** Fit      -0.007617
 **** Fit      -0.008858
 **** Fit      -0.010030
 **** Fit      -0.010963
 **** Fit      -0.011470
 **** Fit      -0.004759
 **** Fit      -0.005593
 **** Fit      -0.006481
 **** Fit      -0.007332
 **** Fit      -0.008022
 **** Fit      -0.008413
 **** Fit      -0.003336
 **** Fit      -0.003899
 **** Fit      -0.004517
 **** Fit      -0.005128
 **** Fit      -0.005640
 **** Fit      -0.005951
 **** Fit      -0.002552
 **** Fit      -0.002973
 **** Fit      -0.003408
 **** Fit      -0.003790
 **** Fit      -0.004040
 **** Fit      -0.001815
 **** Fit      -0.002124
 **** Fit      -0.024645
 **** Fit      -0.024506
 **** Fit      -0.023325
 **** Fit      -0.025261
 **** Fit      -0.026244
 **** Fit      -0.026091
 **** Fit      -0.024752
 **** Fit      -0.022392
 **** Fit      -0.019346
 **** Fit      -0.024070
 **** Fit      -0.026103
 **** Fit      -0.027175
 **** Fit      -0.027010
 **** Fit      -0.025547
 **** Fit      -0.022977
 **** Fit      -0.019681
 **** Fit      -0.024044
 **** Fit      -0.026142
 **** Fit      -0.027251
 **** Fit      -0.027074
 **** Fit      -0.025546
 **** Fit      -0.022870
 **** Fit      -0.019452
 **** Fit      -0.023245
 **** Fit      -0.025297
 **** Fit      -0.026378
 **** Fit      -0.026192
 **** Fit      -0.024672
 **** Fit      -0.022019
 **** Fit      -0.018638
 **** Fit      -0.023613
 **** Fit      -0.024603
 **** Fit      -0.024411
 **** Fit      -0.022972
 **** Fit      -0.020473
 **** Fit      -0.017285
 **** Fit      -0.021254
 **** Fit      -0.022109
 **** Fit      -0.021916
 **** Fit      -0.020619
 **** Fit      -0.018376
 -----------------------------------------------------------------
 Leave Link  602 at Wed May 17 12:20:01 2017, MaxMem=   33554432 cpu:      97.4
 (Enter /scratch/michal/g09/l9999.exe)

 Test job not archived.
 1\1\GINC-RZEPICHA\SP\RHF\6-31G(d)\C27H46O2\MICHAL\17-May-2017\0\\#P HF
 /6-31G* SCF(Conver=6) NoSymm Test Pop=chelpg IOp(6/33=2) GFInput GFPri
 nt\\MEP - Input generated by R.E.D.-III.x MOLECULE\\0,1\O,0,6.75744896
 ,0.8999415,0.\H,0,7.1099617,0.,0.\O,0,9.63963779,-2.65865082,4.9145420
 8\H,0,9.38079734,-2.46367472,5.8262186\C,0,2.51131167,0.57122056,0.860
 55769\C,0,3.96190597,1.03427626,0.57443128\H,0,4.30867684,0.41678403,-
 0.2658775\C,0,4.9490241,0.76966581,1.71650771\H,0,4.65426797,1.3622375
 8,2.59454614\C,0,4.94604386,-0.73731596,2.09036871\H,0,5.39954963,-1.2
 5811084,1.230637\C,0,1.8334756,1.0143676,-0.47385318\H,0,2.25810334,0.
 33453145,-1.22665264\C,0,2.55676046,-0.94920664,1.09173209\H,0,2.89059
 751,-1.4368644,0.16454719\H,0,1.55939524,-1.35096893,1.31607377\C,0,5.
 87508601,-1.04612792,3.31692811\C,0,3.80637441,2.4612593,0.01688097\H,
 0,4.64511277,2.7347302,-0.62923831\H,0,3.77137115,3.2002834,0.82762541
 \C,0,3.51639705,-1.31824088,2.24228468\H,0,3.07514922,-0.97852603,3.18
 447\H,0,3.57284415,-2.41040715,2.31455257\C,0,2.44901897,2.42165642,-0
 .75328124\H,0,1.78936075,3.22197289,-0.40622054\H,0,2.59038051,2.58158
 293,-1.82712651\C,0,6.37584477,1.23310232,1.3556932\H,0,6.39602559,2.3
 2906841,1.36338714\C,0,0.29005386,0.86776276,-0.61251342\H,0,0.,0.,0.\
 C,0,1.88502249,1.27827786,2.08288532\H,0,2.43914642,1.08050655,3.00407
 457\H,0,1.85020441,2.36420516,1.9582648\H,0,0.85927232,0.9291326,2.244
 23563\C,0,7.20971433,-0.30126298,3.17823458\C,0,6.1696116,-2.57801122,
 3.34790227\H,0,6.46117164,-2.89262077,2.33610317\H,0,5.24775873,-3.119
 15157,3.58621936\C,0,7.40543768,0.70728956,2.31283547\H,0,8.38807596,1
 .17450066,2.25433633\C,0,5.21580667,-0.61700244,4.65622829\H,0,4.35684
 485,-1.24999813,4.89820287\H,0,5.91606941,-0.69272444,5.49177559\H,0,4
 .87538129,0.42197719,4.61504442\C,0,8.33955856,-0.74474791,4.08945188\
 H,0,9.26292252,-0.21701365,3.83136998\H,0,8.1043526,-0.47678036,5.1318
 9094\C,0,7.27540339,-3.00790661,4.32402777\H,0,6.96843034,-2.81410808,
 5.36245653\H,0,7.44701356,-4.08732716,4.24420094\C,0,-0.54611637,2.073
 60764,-0.1204315\H,0,-0.09540259,2.51079859,0.7762312\H,0,-0.52249953,
 2.86343751,-0.88485898\C,0,8.57893839,-2.26145178,4.04191173\H,0,8.939
 35346,-2.53342626,3.04213012\C,0,-0.07128246,0.52828819,-2.07334135\H,
 0,0.25857645,1.32596,-2.7505999\H,0,-1.15030814,0.40380475,-2.21027057
 \H,0,0.41108874,-0.40148556,-2.39480415\C,0,-2.01061892,1.73205984,0.2
 0258107\H,0,-2.49257227,1.29019628,-0.67768539\H,0,-2.02700051,0.95897
 723,0.98285274\C,0,-2.81028821,2.96003623,0.6665819\H,0,-2.76701707,3.
 72492372,-0.12227898\H,0,-2.30600873,3.3985175,1.54004056\C,0,-4.29455
 15,2.72386281,1.03179183\H,0,-4.69008615,3.70509535,1.33351421\C,0,-4.
 46635412,1.77990564,2.23353272\H,0,-4.15057922,0.75804233,1.99360712\H
 ,0,-5.51610777,1.73233445,2.54502377\H,0,-3.87774681,2.11861244,3.0943
 594\C,0,-5.1322694,2.24955323,-0.16729976\H,0,-4.84138879,1.24370796,-
 0.49151882\H,0,-6.19687745,2.21390458,0.09077449\H,0,-5.01900271,2.923
 29332,-1.02479879\\Version=EM64L-G09RevC.01\HF=-1198.9245959\RMSD=5.01
 6e-07\Dipole=-0.6098662,-0.2262128,0.7992449\Quadrupole=-16.493153,3.5
 882647,12.9048883,1.1851204,4.9560123,2.0291559\PG=C01 [X(C27H46O2)]\\
 @


 UNLESS WE CHANGE DIRECTIONS, WE WILL WIND UP WHERE WE ARE HEADED.
     -- CONFUCIUS
 Job cpu time:  0 days  0 hours 44 minutes 19.3 seconds.
 File lengths (MBytes):  RWF=    151 Int=      0 D2E=      0 Chk=     11 Scr=      1
 Normal termination of Gaussian 09 at Wed May 17 12:20:02 2017.
