 Entering Gaussian System, Link 0=/scratch/michal/g09//g09
 Input=JOB2-gau_m1-25-4.com
 Output=JOB2-gau_m1-25-4.log
 Initial command:
 /scratch/michal/g09/l1.exe /scratch/michal/gauss_scratch/Gau-45734.inp -scrdir=/scratch/michal/gauss_scratch/
 Entering Link 1 = /scratch/michal/g09/l1.exe PID=     45736.
  
 Copyright (c) 1988,1990,1992,1993,1995,1998,2003,2009,2011,
            Gaussian, Inc.  All Rights Reserved.
  
 This is part of the Gaussian(R) 09 program.  It is based on
 the Gaussian(R) 03 system (copyright 2003, Gaussian, Inc.),
 the Gaussian(R) 98 system (copyright 1998, Gaussian, Inc.),
 the Gaussian(R) 94 system (copyright 1995, Gaussian, Inc.),
 the Gaussian 92(TM) system (copyright 1992, Gaussian, Inc.),
 the Gaussian 90(TM) system (copyright 1990, Gaussian, Inc.),
 the Gaussian 88(TM) system (copyright 1988, Gaussian, Inc.),
 the Gaussian 86(TM) system (copyright 1986, Carnegie Mellon
 University), and the Gaussian 82(TM) system (copyright 1983,
 Carnegie Mellon University). Gaussian is a federally registered
 trademark of Gaussian, Inc.
  
 This software contains proprietary and confidential information,
 including trade secrets, belonging to Gaussian, Inc.
  
 This software is provided under written license and may be
 used, copied, transmitted, or stored only in accord with that
 written license.
  
 The following legend is applicable only to US Government
 contracts under FAR:
  
                    RESTRICTED RIGHTS LEGEND
  
 Use, reproduction and disclosure by the US Government is
 subject to restrictions as set forth in subparagraphs (a)
 and (c) of the Commercial Computer Software - Restricted
 Rights clause in FAR 52.227-19.
  
 Gaussian, Inc.
 340 Quinnipiac St., Bldg. 40, Wallingford CT 06492
  
  
 ---------------------------------------------------------------
 Warning -- This program may not be used in any manner that
 competes with the business of Gaussian, Inc. or will provide
 assistance to any competitor of Gaussian, Inc.  The licensee
 of this program is prohibited from giving any competitor of
 Gaussian, Inc. access to this program.  By using this program,
 the user acknowledges that Gaussian, Inc. is engaged in the
 business of creating and licensing software in the field of
 computational chemistry and represents and warrants to the
 licensee that it is not a competitor of Gaussian, Inc. and that
 it will not use this program in any manner prohibited above.
 ---------------------------------------------------------------
  

 Cite this work as:
 Gaussian 09, Revision C.01,
 M. J. Frisch, G. W. Trucks, H. B. Schlegel, G. E. Scuseria, 
 M. A. Robb, J. R. Cheeseman, G. Scalmani, V. Barone, B. Mennucci, 
 G. A. Petersson, H. Nakatsuji, M. Caricato, X. Li, H. P. Hratchian, 
 A. F. Izmaylov, J. Bloino, G. Zheng, J. L. Sonnenberg, M. Hada, 
 M. Ehara, K. Toyota, R. Fukuda, J. Hasegawa, M. Ishida, T. Nakajima, 
 Y. Honda, O. Kitao, H. Nakai, T. Vreven, J. A. Montgomery, Jr., 
 J. E. Peralta, F. Ogliaro, M. Bearpark, J. J. Heyd, E. Brothers, 
 K. N. Kudin, V. N. Staroverov, T. Keith, R. Kobayashi, J. Normand, 
 K. Raghavachari, A. Rendell, J. C. Burant, S. S. Iyengar, J. Tomasi, 
 M. Cossi, N. Rega, J. M. Millam, M. Klene, J. E. Knox, J. B. Cross, 
 V. Bakken, C. Adamo, J. Jaramillo, R. Gomperts, R. E. Stratmann, 
 O. Yazyev, A. J. Austin, R. Cammi, C. Pomelli, J. W. Ochterski, 
 R. L. Martin, K. Morokuma, V. G. Zakrzewski, G. A. Voth, 
 P. Salvador, J. J. Dannenberg, S. Dapprich, A. D. Daniels, 
 O. Farkas, J. B. Foresman, J. V. Ortiz, J. Cioslowski, 
 and D. J. Fox, Gaussian, Inc., Wallingford CT, 2010.
 
 ******************************************
 Gaussian 09:  EM64L-G09RevC.01 23-Sep-2011
                17-May-2017 
 ******************************************
 %Mem=256MB
 %NProc=48
 Will use up to   48 processors via shared memory.
 ----------------------------------------------------------------------
 #P HF/6-31G* SCF(Conver=6) NoSymm Test Pop=chelpg IOp(6/33=2) GFInput 
 GFPrint
 ----------------------------------------------------------------------
 1/38=1/1;
 2/12=2,15=1,17=6,18=5,40=1/2;
 3/5=1,6=6,7=1,11=9,16=1,24=110,25=1,30=1/1,2,3;
 4//1;
 5/5=2,6=6,38=5/2;
 6/7=2,8=2,9=2,10=2,15=8,20=3,28=1,33=2/1,2;
 99/5=1,9=1/99;
 Leave Link    1 at Wed May 17 13:55:43 2017, MaxMem=   33554432 cpu:       4.1
 (Enter /scratch/michal/g09/l101.exe)
 ----------------------------------------------
 MEP - Input generated by R.E.D.-III.x MOLECULE
 ----------------------------------------------
 Charge =  0 Multiplicity = 1
 Symbolic Z-Matrix:
 O                     0.        0.        0. 
 H                    -0.4734    0.45474  -0.70943 
 O                    -3.26859   5.86753   0. 
 H                    -2.96887   6.55307   0.61348 
 C                     4.1837    1.13636  -0.37195 
 C                     2.79649   0.58083   0.05609 
 H                     2.3515    0.16656  -0.85985 
 C                     1.80307   1.63211   0.56597 
 H                     2.19564   2.07993   1.49052 
 C                     1.59972   2.74572  -0.49212 
 H                     1.068     2.2696   -1.33279 
 C                     4.89371  -0.20174  -0.78137 
 H                     4.45005  -0.49767  -1.74531 
 C                     3.91323   2.14719  -1.50567 
 H                     3.48638   1.60669  -2.36276 
 H                     4.83449   2.61795  -1.86286 
 C                     0.65704   3.89101   0.01897 
 C                     3.12236  -0.62172   0.95182 
 H                     2.29909  -1.34071   0.98467 
 H                     3.31352  -0.30228   1.98436 
 C                     2.94251   3.26068  -1.06174 
 H                     3.44842   3.88153  -0.31512 
 H                     2.75141   3.91703  -1.91864 
 C                     4.40349  -1.21806   0.30695 
 H                     5.18479  -1.37515   1.06047 
 H                     4.20153  -2.19752  -0.13635 
 C                     0.45037   0.99545   0.94912 
 H                     0.58546   0.42254   1.87372 
 C                     6.43277  -0.23075  -0.97155 
 H                     6.89641   0.        0. 
 C                     4.94285   1.80861   0.79493 
 H                     4.37159   2.62121   1.25116 
 H                     5.18061   1.09631   1.59077 
 H                     5.88959   2.23571   0.44771 
 C                    -0.5609    3.29939   0.74085 
 C                     0.14975   4.7061   -1.21078 
 H                    -0.20198   3.99633  -1.97248 
 H                     0.99015   5.24784  -1.65782 
 C                    -0.62618   2.02184   1.15073 
 H                    -1.53344   1.66539   1.63773 
 C                     1.3924    4.84081   1.00352 
 H                     2.15806   5.43052   0.49056 
 H                     0.70263   5.54733   1.47179 
 H                     1.87472   4.2798    1.80964 
 C                    -1.72647   4.23674   0.99831 
 H                    -2.57058   3.68358   1.42164 
 H                    -1.43834   4.99281   1.74611 
 C                    -0.988     5.6938   -0.91062 
 H                    -0.63866   6.49029  -0.23709 
 H                    -1.31193   6.18493  -1.8352 
 C                     6.89453  -1.65553  -1.36788 
 H                     6.45497  -2.38239  -0.67483 
 H                     6.47991  -1.89143  -2.35878 
 C                    -2.17785   4.98242  -0.26684 
 H                    -2.59035   4.25693  -0.97884 
 C                     6.93983   0.80061  -1.99491 
 H                     6.45123   0.66078  -2.96762 
 H                     8.01887   0.70753  -2.14945 
 H                     6.75278   1.8274   -1.67313 
 C                     8.41733  -1.87398  -1.3692 
 H                     8.89015  -1.29001  -2.1672 
 H                     8.82849  -1.48284  -0.42759 
 C                     8.84027  -3.34953  -1.49407 
 H                     8.42488  -3.90521  -0.6409 
 H                     9.93406  -3.41181  -1.39291 
 C                     8.43461  -4.07886  -2.79263 
 H                     7.34015  -4.03181  -2.88565 
 C                     8.82613  -5.56308  -2.71179 
 H                     9.91425  -5.67623  -2.62158 
 H                     8.50901  -6.10817  -3.60821 
 H                     8.36815  -6.05037  -1.84332 
 C                     9.04284  -3.42872  -4.04544 
 H                     10.13937  -3.42885  -3.99078 
 H                     8.75592  -3.97781  -4.94951 
 H                     8.71589  -2.39165  -4.17314 
 
 NAtoms=     75 NQM=        0 NQMF=       0 NMMI=     75 NMMIF=      0
                NMic=       0 NMicF=      0.
                    Isotopes and Nuclear Properties:
 (Nuclear quadrupole moments (NQMom) in fm**2, nuclear magnetic moments (NMagM)
  in nuclear magnetons)

  Atom         1           2           3           4           5           6           7           8           9          10
 IAtWgt=          16           1          16           1          12          12           1          12           1          12
 AtmWgt=  15.9949146   1.0078250  15.9949146   1.0078250  12.0000000  12.0000000   1.0078250  12.0000000   1.0078250  12.0000000
 NucSpn=           0           1           0           1           0           0           1           0           1           0
 AtZEff=   0.0000000   0.0000000   0.0000000   0.0000000   0.0000000   0.0000000   0.0000000   0.0000000   0.0000000   0.0000000
 NQMom=    0.0000000   0.0000000   0.0000000   0.0000000   0.0000000   0.0000000   0.0000000   0.0000000   0.0000000   0.0000000
 NMagM=    0.0000000   2.7928460   0.0000000   2.7928460   0.0000000   0.0000000   2.7928460   0.0000000   2.7928460   0.0000000

  Atom        11          12          13          14          15          16          17          18          19          20
 IAtWgt=           1          12           1          12           1           1          12          12           1           1
 AtmWgt=   1.0078250  12.0000000   1.0078250  12.0000000   1.0078250   1.0078250  12.0000000  12.0000000   1.0078250   1.0078250
 NucSpn=           1           0           1           0           1           1           0           0           1           1
 AtZEff=   0.0000000   0.0000000   0.0000000   0.0000000   0.0000000   0.0000000   0.0000000   0.0000000   0.0000000   0.0000000
 NQMom=    0.0000000   0.0000000   0.0000000   0.0000000   0.0000000   0.0000000   0.0000000   0.0000000   0.0000000   0.0000000
 NMagM=    2.7928460   0.0000000   2.7928460   0.0000000   2.7928460   2.7928460   0.0000000   0.0000000   2.7928460   2.7928460

  Atom        21          22          23          24          25          26          27          28          29          30
 IAtWgt=          12           1           1          12           1           1          12           1          12           1
 AtmWgt=  12.0000000   1.0078250   1.0078250  12.0000000   1.0078250   1.0078250  12.0000000   1.0078250  12.0000000   1.0078250
 NucSpn=           0           1           1           0           1           1           0           1           0           1
 AtZEff=   0.0000000   0.0000000   0.0000000   0.0000000   0.0000000   0.0000000   0.0000000   0.0000000   0.0000000   0.0000000
 NQMom=    0.0000000   0.0000000   0.0000000   0.0000000   0.0000000   0.0000000   0.0000000   0.0000000   0.0000000   0.0000000
 NMagM=    0.0000000   2.7928460   2.7928460   0.0000000   2.7928460   2.7928460   0.0000000   2.7928460   0.0000000   2.7928460

  Atom        31          32          33          34          35          36          37          38          39          40
 IAtWgt=          12           1           1           1          12          12           1           1          12           1
 AtmWgt=  12.0000000   1.0078250   1.0078250   1.0078250  12.0000000  12.0000000   1.0078250   1.0078250  12.0000000   1.0078250
 NucSpn=           0           1           1           1           0           0           1           1           0           1
 AtZEff=   0.0000000   0.0000000   0.0000000   0.0000000   0.0000000   0.0000000   0.0000000   0.0000000   0.0000000   0.0000000
 NQMom=    0.0000000   0.0000000   0.0000000   0.0000000   0.0000000   0.0000000   0.0000000   0.0000000   0.0000000   0.0000000
 NMagM=    0.0000000   2.7928460   2.7928460   2.7928460   0.0000000   0.0000000   2.7928460   2.7928460   0.0000000   2.7928460

  Atom        41          42          43          44          45          46          47          48          49          50
 IAtWgt=          12           1           1           1          12           1           1          12           1           1
 AtmWgt=  12.0000000   1.0078250   1.0078250   1.0078250  12.0000000   1.0078250   1.0078250  12.0000000   1.0078250   1.0078250
 NucSpn=           0           1           1           1           0           1           1           0           1           1
 AtZEff=   0.0000000   0.0000000   0.0000000   0.0000000   0.0000000   0.0000000   0.0000000   0.0000000   0.0000000   0.0000000
 NQMom=    0.0000000   0.0000000   0.0000000   0.0000000   0.0000000   0.0000000   0.0000000   0.0000000   0.0000000   0.0000000
 NMagM=    0.0000000   2.7928460   2.7928460   2.7928460   0.0000000   2.7928460   2.7928460   0.0000000   2.7928460   2.7928460

  Atom        51          52          53          54          55          56          57          58          59          60
 IAtWgt=          12           1           1          12           1          12           1           1           1          12
 AtmWgt=  12.0000000   1.0078250   1.0078250  12.0000000   1.0078250  12.0000000   1.0078250   1.0078250   1.0078250  12.0000000
 NucSpn=           0           1           1           0           1           0           1           1           1           0
 AtZEff=   0.0000000   0.0000000   0.0000000   0.0000000   0.0000000   0.0000000   0.0000000   0.0000000   0.0000000   0.0000000
 NQMom=    0.0000000   0.0000000   0.0000000   0.0000000   0.0000000   0.0000000   0.0000000   0.0000000   0.0000000   0.0000000
 NMagM=    0.0000000   2.7928460   2.7928460   0.0000000   2.7928460   0.0000000   2.7928460   2.7928460   2.7928460   0.0000000

  Atom        61          62          63          64          65          66          67          68          69          70
 IAtWgt=           1           1          12           1           1          12           1          12           1           1
 AtmWgt=   1.0078250   1.0078250  12.0000000   1.0078250   1.0078250  12.0000000   1.0078250  12.0000000   1.0078250   1.0078250
 NucSpn=           1           1           0           1           1           0           1           0           1           1
 AtZEff=   0.0000000   0.0000000   0.0000000   0.0000000   0.0000000   0.0000000   0.0000000   0.0000000   0.0000000   0.0000000
 NQMom=    0.0000000   0.0000000   0.0000000   0.0000000   0.0000000   0.0000000   0.0000000   0.0000000   0.0000000   0.0000000
 NMagM=    2.7928460   2.7928460   0.0000000   2.7928460   2.7928460   0.0000000   2.7928460   0.0000000   2.7928460   2.7928460

  Atom        71          72          73          74          75
 IAtWgt=           1          12           1           1           1
 AtmWgt=   1.0078250  12.0000000   1.0078250   1.0078250   1.0078250
 NucSpn=           1           0           1           1           1
 AtZEff=   0.0000000   0.0000000   0.0000000   0.0000000   0.0000000
 NQMom=    0.0000000   0.0000000   0.0000000   0.0000000   0.0000000
 NMagM=    2.7928460   0.0000000   2.7928460   2.7928460   2.7928460
 Leave Link  101 at Wed May 17 13:55:43 2017, MaxMem=   33554432 cpu:      13.2
 (Enter /scratch/michal/g09/l202.exe)
 Symmetry turned off by external request.
 Stoichiometry    C27H46O2
 Framework group  C1[X(C27H46O2)]
 Deg. of freedom   219
 Full point group                 C1      NOp   1
                          Input orientation:                          
 ---------------------------------------------------------------------
 Center     Atomic      Atomic             Coordinates (Angstroms)
 Number     Number       Type             X           Y           Z
 ---------------------------------------------------------------------
      1          8           0        0.000000    0.000000    0.000000
      2          1           0       -0.473401    0.454745   -0.709433
      3          8           0       -3.268592    5.867528    0.000000
      4          1           0       -2.968867    6.553074    0.613480
      5          6           0        4.183703    1.136364   -0.371947
      6          6           0        2.796493    0.580834    0.056090
      7          1           0        2.351500    0.166564   -0.859853
      8          6           0        1.803074    1.632109    0.565970
      9          1           0        2.195642    2.079933    1.490520
     10          6           0        1.599722    2.745722   -0.492124
     11          1           0        1.067997    2.269603   -1.332794
     12          6           0        4.893711   -0.201740   -0.781375
     13          1           0        4.450052   -0.497669   -1.745311
     14          6           0        3.913233    2.147193   -1.505666
     15          1           0        3.486378    1.606694   -2.362762
     16          1           0        4.834486    2.617954   -1.862862
     17          6           0        0.657040    3.891006    0.018971
     18          6           0        3.122365   -0.621725    0.951824
     19          1           0        2.299094   -1.340709    0.984669
     20          1           0        3.313522   -0.302283    1.984360
     21          6           0        2.942511    3.260678   -1.061736
     22          1           0        3.448421    3.881533   -0.315116
     23          1           0        2.751413    3.917031   -1.918641
     24          6           0        4.403486   -1.218062    0.306952
     25          1           0        5.184790   -1.375146    1.060469
     26          1           0        4.201530   -2.197524   -0.136354
     27          6           0        0.450369    0.995453    0.949122
     28          1           0        0.585461    0.422535    1.873723
     29          6           0        6.432767   -0.230748   -0.971547
     30          1           0        6.896410    0.000000    0.000000
     31          6           0        4.942851    1.808606    0.794928
     32          1           0        4.371593    2.621206    1.251157
     33          1           0        5.180610    1.096306    1.590771
     34          1           0        5.889591    2.235710    0.447709
     35          6           0       -0.560896    3.299393    0.740854
     36          6           0        0.149751    4.706102   -1.210780
     37          1           0       -0.201979    3.996332   -1.972484
     38          1           0        0.990147    5.247840   -1.657825
     39          6           0       -0.626185    2.021843    1.150731
     40          1           0       -1.533437    1.665394    1.637725
     41          6           0        1.392400    4.840811    1.003518
     42          1           0        2.158059    5.430515    0.490559
     43          1           0        0.702628    5.547331    1.471790
     44          1           0        1.874723    4.279804    1.809644
     45          6           0       -1.726473    4.236741    0.998310
     46          1           0       -2.570585    3.683585    1.421643
     47          1           0       -1.438337    4.992805    1.746108
     48          6           0       -0.987997    5.693803   -0.910621
     49          1           0       -0.638664    6.490291   -0.237091
     50          1           0       -1.311928    6.184932   -1.835197
     51          6           0        6.894534   -1.655530   -1.367879
     52          1           0        6.454971   -2.382386   -0.674829
     53          1           0        6.479906   -1.891426   -2.358776
     54          6           0       -2.177852    4.982422   -0.266836
     55          1           0       -2.590349    4.256932   -0.978839
     56          6           0        6.939828    0.800609   -1.994909
     57          1           0        6.451228    0.660776   -2.967625
     58          1           0        8.018875    0.707525   -2.149449
     59          1           0        6.752783    1.827398   -1.673128
     60          6           0        8.417334   -1.873977   -1.369204
     61          1           0        8.890146   -1.290011   -2.167199
     62          1           0        8.828492   -1.482842   -0.427587
     63          6           0        8.840267   -3.349527   -1.494071
     64          1           0        8.424879   -3.905209   -0.640898
     65          1           0        9.934059   -3.411812   -1.392914
     66          6           0        8.434614   -4.078865   -2.792634
     67          1           0        7.340146   -4.031812   -2.885651
     68          6           0        8.826129   -5.563085   -2.711787
     69          1           0        9.914247   -5.676227   -2.621581
     70          1           0        8.509009   -6.108171   -3.608213
     71          1           0        8.368148   -6.050369   -1.843317
     72          6           0        9.042842   -3.428718   -4.045440
     73          1           0       10.139370   -3.428851   -3.990785
     74          1           0        8.755918   -3.977812   -4.949512
     75          1           0        8.715894   -2.391649   -4.173142
 ---------------------------------------------------------------------
 Rotational constants (GHZ):      0.4743303      0.0544145      0.0523622
 Leave Link  202 at Wed May 17 13:55:43 2017, MaxMem=   33554432 cpu:       0.1
 (Enter /scratch/michal/g09/l301.exe)
 Standard basis: 6-31G(d) (6D, 7F)
 Ernie: Thresh=  0.10000D-02 Tol=  0.10000D-05 Strict=F.
 AO basis set in the form of general basis input (Overlap normalization):
      1 0
 S   6 1.00       0.000000000000
      0.5484671660D+04  0.1831074430D-02
      0.8252349460D+03  0.1395017220D-01
      0.1880469580D+03  0.6844507810D-01
      0.5296450000D+02  0.2327143360D+00
      0.1689757040D+02  0.4701928980D+00
      0.5799635340D+01  0.3585208530D+00
 SP   3 1.00       0.000000000000
      0.1553961625D+02 -0.1107775495D+00  0.7087426823D-01
      0.3599933586D+01 -0.1480262627D+00  0.3397528391D+00
      0.1013761750D+01  0.1130767015D+01  0.7271585773D+00
 SP   1 1.00       0.000000000000
      0.2700058226D+00  0.1000000000D+01  0.1000000000D+01
 D   1 1.00       0.000000000000
      0.8000000000D+00  0.1000000000D+01
 ****
      2 0
 S   3 1.00       0.000000000000
      0.1873113696D+02  0.3349460434D-01
      0.2825394365D+01  0.2347269535D+00
      0.6401216923D+00  0.8137573261D+00
 S   1 1.00       0.000000000000
      0.1612777588D+00  0.1000000000D+01
 ****
      3 0
 S   6 1.00       0.000000000000
      0.5484671660D+04  0.1831074430D-02
      0.8252349460D+03  0.1395017220D-01
      0.1880469580D+03  0.6844507810D-01
      0.5296450000D+02  0.2327143360D+00
      0.1689757040D+02  0.4701928980D+00
      0.5799635340D+01  0.3585208530D+00
 SP   3 1.00       0.000000000000
      0.1553961625D+02 -0.1107775495D+00  0.7087426823D-01
      0.3599933586D+01 -0.1480262627D+00  0.3397528391D+00
      0.1013761750D+01  0.1130767015D+01  0.7271585773D+00
 SP   1 1.00       0.000000000000
      0.2700058226D+00  0.1000000000D+01  0.1000000000D+01
 D   1 1.00       0.000000000000
      0.8000000000D+00  0.1000000000D+01
 ****
      4 0
 S   3 1.00       0.000000000000
      0.1873113696D+02  0.3349460434D-01
      0.2825394365D+01  0.2347269535D+00
      0.6401216923D+00  0.8137573261D+00
 S   1 1.00       0.000000000000
      0.1612777588D+00  0.1000000000D+01
 ****
      5 0
 S   6 1.00       0.000000000000
      0.3047524880D+04  0.1834737132D-02
      0.4573695180D+03  0.1403732281D-01
      0.1039486850D+03  0.6884262226D-01
      0.2921015530D+02  0.2321844432D+00
      0.9286662960D+01  0.4679413484D+00
      0.3163926960D+01  0.3623119853D+00
 SP   3 1.00       0.000000000000
      0.7868272350D+01 -0.1193324198D+00  0.6899906659D-01
      0.1881288540D+01 -0.1608541517D+00  0.3164239610D+00
      0.5442492580D+00  0.1143456438D+01  0.7443082909D+00
 SP   1 1.00       0.000000000000
      0.1687144782D+00  0.1000000000D+01  0.1000000000D+01
 D   1 1.00       0.000000000000
      0.8000000000D+00  0.1000000000D+01
 ****
      6 0
 S   6 1.00       0.000000000000
      0.3047524880D+04  0.1834737132D-02
      0.4573695180D+03  0.1403732281D-01
      0.1039486850D+03  0.6884262226D-01
      0.2921015530D+02  0.2321844432D+00
      0.9286662960D+01  0.4679413484D+00
      0.3163926960D+01  0.3623119853D+00
 SP   3 1.00       0.000000000000
      0.7868272350D+01 -0.1193324198D+00  0.6899906659D-01
      0.1881288540D+01 -0.1608541517D+00  0.3164239610D+00
      0.5442492580D+00  0.1143456438D+01  0.7443082909D+00
 SP   1 1.00       0.000000000000
      0.1687144782D+00  0.1000000000D+01  0.1000000000D+01
 D   1 1.00       0.000000000000
      0.8000000000D+00  0.1000000000D+01
 ****
      7 0
 S   3 1.00       0.000000000000
      0.1873113696D+02  0.3349460434D-01
      0.2825394365D+01  0.2347269535D+00
      0.6401216923D+00  0.8137573261D+00
 S   1 1.00       0.000000000000
      0.1612777588D+00  0.1000000000D+01
 ****
      8 0
 S   6 1.00       0.000000000000
      0.3047524880D+04  0.1834737132D-02
      0.4573695180D+03  0.1403732281D-01
      0.1039486850D+03  0.6884262226D-01
      0.2921015530D+02  0.2321844432D+00
      0.9286662960D+01  0.4679413484D+00
      0.3163926960D+01  0.3623119853D+00
 SP   3 1.00       0.000000000000
      0.7868272350D+01 -0.1193324198D+00  0.6899906659D-01
      0.1881288540D+01 -0.1608541517D+00  0.3164239610D+00
      0.5442492580D+00  0.1143456438D+01  0.7443082909D+00
 SP   1 1.00       0.000000000000
      0.1687144782D+00  0.1000000000D+01  0.1000000000D+01
 D   1 1.00       0.000000000000
      0.8000000000D+00  0.1000000000D+01
 ****
      9 0
 S   3 1.00       0.000000000000
      0.1873113696D+02  0.3349460434D-01
      0.2825394365D+01  0.2347269535D+00
      0.6401216923D+00  0.8137573261D+00
 S   1 1.00       0.000000000000
      0.1612777588D+00  0.1000000000D+01
 ****
     10 0
 S   6 1.00       0.000000000000
      0.3047524880D+04  0.1834737132D-02
      0.4573695180D+03  0.1403732281D-01
      0.1039486850D+03  0.6884262226D-01
      0.2921015530D+02  0.2321844432D+00
      0.9286662960D+01  0.4679413484D+00
      0.3163926960D+01  0.3623119853D+00
 SP   3 1.00       0.000000000000
      0.7868272350D+01 -0.1193324198D+00  0.6899906659D-01
      0.1881288540D+01 -0.1608541517D+00  0.3164239610D+00
      0.5442492580D+00  0.1143456438D+01  0.7443082909D+00
 SP   1 1.00       0.000000000000
      0.1687144782D+00  0.1000000000D+01  0.1000000000D+01
 D   1 1.00       0.000000000000
      0.8000000000D+00  0.1000000000D+01
 ****
     11 0
 S   3 1.00       0.000000000000
      0.1873113696D+02  0.3349460434D-01
      0.2825394365D+01  0.2347269535D+00
      0.6401216923D+00  0.8137573261D+00
 S   1 1.00       0.000000000000
      0.1612777588D+00  0.1000000000D+01
 ****
     12 0
 S   6 1.00       0.000000000000
      0.3047524880D+04  0.1834737132D-02
      0.4573695180D+03  0.1403732281D-01
      0.1039486850D+03  0.6884262226D-01
      0.2921015530D+02  0.2321844432D+00
      0.9286662960D+01  0.4679413484D+00
      0.3163926960D+01  0.3623119853D+00
 SP   3 1.00       0.000000000000
      0.7868272350D+01 -0.1193324198D+00  0.6899906659D-01
      0.1881288540D+01 -0.1608541517D+00  0.3164239610D+00
      0.5442492580D+00  0.1143456438D+01  0.7443082909D+00
 SP   1 1.00       0.000000000000
      0.1687144782D+00  0.1000000000D+01  0.1000000000D+01
 D   1 1.00       0.000000000000
      0.8000000000D+00  0.1000000000D+01
 ****
     13 0
 S   3 1.00       0.000000000000
      0.1873113696D+02  0.3349460434D-01
      0.2825394365D+01  0.2347269535D+00
      0.6401216923D+00  0.8137573261D+00
 S   1 1.00       0.000000000000
      0.1612777588D+00  0.1000000000D+01
 ****
     14 0
 S   6 1.00       0.000000000000
      0.3047524880D+04  0.1834737132D-02
      0.4573695180D+03  0.1403732281D-01
      0.1039486850D+03  0.6884262226D-01
      0.2921015530D+02  0.2321844432D+00
      0.9286662960D+01  0.4679413484D+00
      0.3163926960D+01  0.3623119853D+00
 SP   3 1.00       0.000000000000
      0.7868272350D+01 -0.1193324198D+00  0.6899906659D-01
      0.1881288540D+01 -0.1608541517D+00  0.3164239610D+00
      0.5442492580D+00  0.1143456438D+01  0.7443082909D+00
 SP   1 1.00       0.000000000000
      0.1687144782D+00  0.1000000000D+01  0.1000000000D+01
 D   1 1.00       0.000000000000
      0.8000000000D+00  0.1000000000D+01
 ****
     15 0
 S   3 1.00       0.000000000000
      0.1873113696D+02  0.3349460434D-01
      0.2825394365D+01  0.2347269535D+00
      0.6401216923D+00  0.8137573261D+00
 S   1 1.00       0.000000000000
      0.1612777588D+00  0.1000000000D+01
 ****
     16 0
 S   3 1.00       0.000000000000
      0.1873113696D+02  0.3349460434D-01
      0.2825394365D+01  0.2347269535D+00
      0.6401216923D+00  0.8137573261D+00
 S   1 1.00       0.000000000000
      0.1612777588D+00  0.1000000000D+01
 ****
     17 0
 S   6 1.00       0.000000000000
      0.3047524880D+04  0.1834737132D-02
      0.4573695180D+03  0.1403732281D-01
      0.1039486850D+03  0.6884262226D-01
      0.2921015530D+02  0.2321844432D+00
      0.9286662960D+01  0.4679413484D+00
      0.3163926960D+01  0.3623119853D+00
 SP   3 1.00       0.000000000000
      0.7868272350D+01 -0.1193324198D+00  0.6899906659D-01
      0.1881288540D+01 -0.1608541517D+00  0.3164239610D+00
      0.5442492580D+00  0.1143456438D+01  0.7443082909D+00
 SP   1 1.00       0.000000000000
      0.1687144782D+00  0.1000000000D+01  0.1000000000D+01
 D   1 1.00       0.000000000000
      0.8000000000D+00  0.1000000000D+01
 ****
     18 0
 S   6 1.00       0.000000000000
      0.3047524880D+04  0.1834737132D-02
      0.4573695180D+03  0.1403732281D-01
      0.1039486850D+03  0.6884262226D-01
      0.2921015530D+02  0.2321844432D+00
      0.9286662960D+01  0.4679413484D+00
      0.3163926960D+01  0.3623119853D+00
 SP   3 1.00       0.000000000000
      0.7868272350D+01 -0.1193324198D+00  0.6899906659D-01
      0.1881288540D+01 -0.1608541517D+00  0.3164239610D+00
      0.5442492580D+00  0.1143456438D+01  0.7443082909D+00
 SP   1 1.00       0.000000000000
      0.1687144782D+00  0.1000000000D+01  0.1000000000D+01
 D   1 1.00       0.000000000000
      0.8000000000D+00  0.1000000000D+01
 ****
     19 0
 S   3 1.00       0.000000000000
      0.1873113696D+02  0.3349460434D-01
      0.2825394365D+01  0.2347269535D+00
      0.6401216923D+00  0.8137573261D+00
 S   1 1.00       0.000000000000
      0.1612777588D+00  0.1000000000D+01
 ****
     20 0
 S   3 1.00       0.000000000000
      0.1873113696D+02  0.3349460434D-01
      0.2825394365D+01  0.2347269535D+00
      0.6401216923D+00  0.8137573261D+00
 S   1 1.00       0.000000000000
      0.1612777588D+00  0.1000000000D+01
 ****
     21 0
 S   6 1.00       0.000000000000
      0.3047524880D+04  0.1834737132D-02
      0.4573695180D+03  0.1403732281D-01
      0.1039486850D+03  0.6884262226D-01
      0.2921015530D+02  0.2321844432D+00
      0.9286662960D+01  0.4679413484D+00
      0.3163926960D+01  0.3623119853D+00
 SP   3 1.00       0.000000000000
      0.7868272350D+01 -0.1193324198D+00  0.6899906659D-01
      0.1881288540D+01 -0.1608541517D+00  0.3164239610D+00
      0.5442492580D+00  0.1143456438D+01  0.7443082909D+00
 SP   1 1.00       0.000000000000
      0.1687144782D+00  0.1000000000D+01  0.1000000000D+01
 D   1 1.00       0.000000000000
      0.8000000000D+00  0.1000000000D+01
 ****
     22 0
 S   3 1.00       0.000000000000
      0.1873113696D+02  0.3349460434D-01
      0.2825394365D+01  0.2347269535D+00
      0.6401216923D+00  0.8137573261D+00
 S   1 1.00       0.000000000000
      0.1612777588D+00  0.1000000000D+01
 ****
     23 0
 S   3 1.00       0.000000000000
      0.1873113696D+02  0.3349460434D-01
      0.2825394365D+01  0.2347269535D+00
      0.6401216923D+00  0.8137573261D+00
 S   1 1.00       0.000000000000
      0.1612777588D+00  0.1000000000D+01
 ****
     24 0
 S   6 1.00       0.000000000000
      0.3047524880D+04  0.1834737132D-02
      0.4573695180D+03  0.1403732281D-01
      0.1039486850D+03  0.6884262226D-01
      0.2921015530D+02  0.2321844432D+00
      0.9286662960D+01  0.4679413484D+00
      0.3163926960D+01  0.3623119853D+00
 SP   3 1.00       0.000000000000
      0.7868272350D+01 -0.1193324198D+00  0.6899906659D-01
      0.1881288540D+01 -0.1608541517D+00  0.3164239610D+00
      0.5442492580D+00  0.1143456438D+01  0.7443082909D+00
 SP   1 1.00       0.000000000000
      0.1687144782D+00  0.1000000000D+01  0.1000000000D+01
 D   1 1.00       0.000000000000
      0.8000000000D+00  0.1000000000D+01
 ****
     25 0
 S   3 1.00       0.000000000000
      0.1873113696D+02  0.3349460434D-01
      0.2825394365D+01  0.2347269535D+00
      0.6401216923D+00  0.8137573261D+00
 S   1 1.00       0.000000000000
      0.1612777588D+00  0.1000000000D+01
 ****
     26 0
 S   3 1.00       0.000000000000
      0.1873113696D+02  0.3349460434D-01
      0.2825394365D+01  0.2347269535D+00
      0.6401216923D+00  0.8137573261D+00
 S   1 1.00       0.000000000000
      0.1612777588D+00  0.1000000000D+01
 ****
     27 0
 S   6 1.00       0.000000000000
      0.3047524880D+04  0.1834737132D-02
      0.4573695180D+03  0.1403732281D-01
      0.1039486850D+03  0.6884262226D-01
      0.2921015530D+02  0.2321844432D+00
      0.9286662960D+01  0.4679413484D+00
      0.3163926960D+01  0.3623119853D+00
 SP   3 1.00       0.000000000000
      0.7868272350D+01 -0.1193324198D+00  0.6899906659D-01
      0.1881288540D+01 -0.1608541517D+00  0.3164239610D+00
      0.5442492580D+00  0.1143456438D+01  0.7443082909D+00
 SP   1 1.00       0.000000000000
      0.1687144782D+00  0.1000000000D+01  0.1000000000D+01
 D   1 1.00       0.000000000000
      0.8000000000D+00  0.1000000000D+01
 ****
     28 0
 S   3 1.00       0.000000000000
      0.1873113696D+02  0.3349460434D-01
      0.2825394365D+01  0.2347269535D+00
      0.6401216923D+00  0.8137573261D+00
 S   1 1.00       0.000000000000
      0.1612777588D+00  0.1000000000D+01
 ****
     29 0
 S   6 1.00       0.000000000000
      0.3047524880D+04  0.1834737132D-02
      0.4573695180D+03  0.1403732281D-01
      0.1039486850D+03  0.6884262226D-01
      0.2921015530D+02  0.2321844432D+00
      0.9286662960D+01  0.4679413484D+00
      0.3163926960D+01  0.3623119853D+00
 SP   3 1.00       0.000000000000
      0.7868272350D+01 -0.1193324198D+00  0.6899906659D-01
      0.1881288540D+01 -0.1608541517D+00  0.3164239610D+00
      0.5442492580D+00  0.1143456438D+01  0.7443082909D+00
 SP   1 1.00       0.000000000000
      0.1687144782D+00  0.1000000000D+01  0.1000000000D+01
 D   1 1.00       0.000000000000
      0.8000000000D+00  0.1000000000D+01
 ****
     30 0
 S   3 1.00       0.000000000000
      0.1873113696D+02  0.3349460434D-01
      0.2825394365D+01  0.2347269535D+00
      0.6401216923D+00  0.8137573261D+00
 S   1 1.00       0.000000000000
      0.1612777588D+00  0.1000000000D+01
 ****
     31 0
 S   6 1.00       0.000000000000
      0.3047524880D+04  0.1834737132D-02
      0.4573695180D+03  0.1403732281D-01
      0.1039486850D+03  0.6884262226D-01
      0.2921015530D+02  0.2321844432D+00
      0.9286662960D+01  0.4679413484D+00
      0.3163926960D+01  0.3623119853D+00
 SP   3 1.00       0.000000000000
      0.7868272350D+01 -0.1193324198D+00  0.6899906659D-01
      0.1881288540D+01 -0.1608541517D+00  0.3164239610D+00
      0.5442492580D+00  0.1143456438D+01  0.7443082909D+00
 SP   1 1.00       0.000000000000
      0.1687144782D+00  0.1000000000D+01  0.1000000000D+01
 D   1 1.00       0.000000000000
      0.8000000000D+00  0.1000000000D+01
 ****
     32 0
 S   3 1.00       0.000000000000
      0.1873113696D+02  0.3349460434D-01
      0.2825394365D+01  0.2347269535D+00
      0.6401216923D+00  0.8137573261D+00
 S   1 1.00       0.000000000000
      0.1612777588D+00  0.1000000000D+01
 ****
     33 0
 S   3 1.00       0.000000000000
      0.1873113696D+02  0.3349460434D-01
      0.2825394365D+01  0.2347269535D+00
      0.6401216923D+00  0.8137573261D+00
 S   1 1.00       0.000000000000
      0.1612777588D+00  0.1000000000D+01
 ****
     34 0
 S   3 1.00       0.000000000000
      0.1873113696D+02  0.3349460434D-01
      0.2825394365D+01  0.2347269535D+00
      0.6401216923D+00  0.8137573261D+00
 S   1 1.00       0.000000000000
      0.1612777588D+00  0.1000000000D+01
 ****
     35 0
 S   6 1.00       0.000000000000
      0.3047524880D+04  0.1834737132D-02
      0.4573695180D+03  0.1403732281D-01
      0.1039486850D+03  0.6884262226D-01
      0.2921015530D+02  0.2321844432D+00
      0.9286662960D+01  0.4679413484D+00
      0.3163926960D+01  0.3623119853D+00
 SP   3 1.00       0.000000000000
      0.7868272350D+01 -0.1193324198D+00  0.6899906659D-01
      0.1881288540D+01 -0.1608541517D+00  0.3164239610D+00
      0.5442492580D+00  0.1143456438D+01  0.7443082909D+00
 SP   1 1.00       0.000000000000
      0.1687144782D+00  0.1000000000D+01  0.1000000000D+01
 D   1 1.00       0.000000000000
      0.8000000000D+00  0.1000000000D+01
 ****
     36 0
 S   6 1.00       0.000000000000
      0.3047524880D+04  0.1834737132D-02
      0.4573695180D+03  0.1403732281D-01
      0.1039486850D+03  0.6884262226D-01
      0.2921015530D+02  0.2321844432D+00
      0.9286662960D+01  0.4679413484D+00
      0.3163926960D+01  0.3623119853D+00
 SP   3 1.00       0.000000000000
      0.7868272350D+01 -0.1193324198D+00  0.6899906659D-01
      0.1881288540D+01 -0.1608541517D+00  0.3164239610D+00
      0.5442492580D+00  0.1143456438D+01  0.7443082909D+00
 SP   1 1.00       0.000000000000
      0.1687144782D+00  0.1000000000D+01  0.1000000000D+01
 D   1 1.00       0.000000000000
      0.8000000000D+00  0.1000000000D+01
 ****
     37 0
 S   3 1.00       0.000000000000
      0.1873113696D+02  0.3349460434D-01
      0.2825394365D+01  0.2347269535D+00
      0.6401216923D+00  0.8137573261D+00
 S   1 1.00       0.000000000000
      0.1612777588D+00  0.1000000000D+01
 ****
     38 0
 S   3 1.00       0.000000000000
      0.1873113696D+02  0.3349460434D-01
      0.2825394365D+01  0.2347269535D+00
      0.6401216923D+00  0.8137573261D+00
 S   1 1.00       0.000000000000
      0.1612777588D+00  0.1000000000D+01
 ****
     39 0
 S   6 1.00       0.000000000000
      0.3047524880D+04  0.1834737132D-02
      0.4573695180D+03  0.1403732281D-01
      0.1039486850D+03  0.6884262226D-01
      0.2921015530D+02  0.2321844432D+00
      0.9286662960D+01  0.4679413484D+00
      0.3163926960D+01  0.3623119853D+00
 SP   3 1.00       0.000000000000
      0.7868272350D+01 -0.1193324198D+00  0.6899906659D-01
      0.1881288540D+01 -0.1608541517D+00  0.3164239610D+00
      0.5442492580D+00  0.1143456438D+01  0.7443082909D+00
 SP   1 1.00       0.000000000000
      0.1687144782D+00  0.1000000000D+01  0.1000000000D+01
 D   1 1.00       0.000000000000
      0.8000000000D+00  0.1000000000D+01
 ****
     40 0
 S   3 1.00       0.000000000000
      0.1873113696D+02  0.3349460434D-01
      0.2825394365D+01  0.2347269535D+00
      0.6401216923D+00  0.8137573261D+00
 S   1 1.00       0.000000000000
      0.1612777588D+00  0.1000000000D+01
 ****
     41 0
 S   6 1.00       0.000000000000
      0.3047524880D+04  0.1834737132D-02
      0.4573695180D+03  0.1403732281D-01
      0.1039486850D+03  0.6884262226D-01
      0.2921015530D+02  0.2321844432D+00
      0.9286662960D+01  0.4679413484D+00
      0.3163926960D+01  0.3623119853D+00
 SP   3 1.00       0.000000000000
      0.7868272350D+01 -0.1193324198D+00  0.6899906659D-01
      0.1881288540D+01 -0.1608541517D+00  0.3164239610D+00
      0.5442492580D+00  0.1143456438D+01  0.7443082909D+00
 SP   1 1.00       0.000000000000
      0.1687144782D+00  0.1000000000D+01  0.1000000000D+01
 D   1 1.00       0.000000000000
      0.8000000000D+00  0.1000000000D+01
 ****
     42 0
 S   3 1.00       0.000000000000
      0.1873113696D+02  0.3349460434D-01
      0.2825394365D+01  0.2347269535D+00
      0.6401216923D+00  0.8137573261D+00
 S   1 1.00       0.000000000000
      0.1612777588D+00  0.1000000000D+01
 ****
     43 0
 S   3 1.00       0.000000000000
      0.1873113696D+02  0.3349460434D-01
      0.2825394365D+01  0.2347269535D+00
      0.6401216923D+00  0.8137573261D+00
 S   1 1.00       0.000000000000
      0.1612777588D+00  0.1000000000D+01
 ****
     44 0
 S   3 1.00       0.000000000000
      0.1873113696D+02  0.3349460434D-01
      0.2825394365D+01  0.2347269535D+00
      0.6401216923D+00  0.8137573261D+00
 S   1 1.00       0.000000000000
      0.1612777588D+00  0.1000000000D+01
 ****
     45 0
 S   6 1.00       0.000000000000
      0.3047524880D+04  0.1834737132D-02
      0.4573695180D+03  0.1403732281D-01
      0.1039486850D+03  0.6884262226D-01
      0.2921015530D+02  0.2321844432D+00
      0.9286662960D+01  0.4679413484D+00
      0.3163926960D+01  0.3623119853D+00
 SP   3 1.00       0.000000000000
      0.7868272350D+01 -0.1193324198D+00  0.6899906659D-01
      0.1881288540D+01 -0.1608541517D+00  0.3164239610D+00
      0.5442492580D+00  0.1143456438D+01  0.7443082909D+00
 SP   1 1.00       0.000000000000
      0.1687144782D+00  0.1000000000D+01  0.1000000000D+01
 D   1 1.00       0.000000000000
      0.8000000000D+00  0.1000000000D+01
 ****
     46 0
 S   3 1.00       0.000000000000
      0.1873113696D+02  0.3349460434D-01
      0.2825394365D+01  0.2347269535D+00
      0.6401216923D+00  0.8137573261D+00
 S   1 1.00       0.000000000000
      0.1612777588D+00  0.1000000000D+01
 ****
     47 0
 S   3 1.00       0.000000000000
      0.1873113696D+02  0.3349460434D-01
      0.2825394365D+01  0.2347269535D+00
      0.6401216923D+00  0.8137573261D+00
 S   1 1.00       0.000000000000
      0.1612777588D+00  0.1000000000D+01
 ****
     48 0
 S   6 1.00       0.000000000000
      0.3047524880D+04  0.1834737132D-02
      0.4573695180D+03  0.1403732281D-01
      0.1039486850D+03  0.6884262226D-01
      0.2921015530D+02  0.2321844432D+00
      0.9286662960D+01  0.4679413484D+00
      0.3163926960D+01  0.3623119853D+00
 SP   3 1.00       0.000000000000
      0.7868272350D+01 -0.1193324198D+00  0.6899906659D-01
      0.1881288540D+01 -0.1608541517D+00  0.3164239610D+00
      0.5442492580D+00  0.1143456438D+01  0.7443082909D+00
 SP   1 1.00       0.000000000000
      0.1687144782D+00  0.1000000000D+01  0.1000000000D+01
 D   1 1.00       0.000000000000
      0.8000000000D+00  0.1000000000D+01
 ****
     49 0
 S   3 1.00       0.000000000000
      0.1873113696D+02  0.3349460434D-01
      0.2825394365D+01  0.2347269535D+00
      0.6401216923D+00  0.8137573261D+00
 S   1 1.00       0.000000000000
      0.1612777588D+00  0.1000000000D+01
 ****
     50 0
 S   3 1.00       0.000000000000
      0.1873113696D+02  0.3349460434D-01
      0.2825394365D+01  0.2347269535D+00
      0.6401216923D+00  0.8137573261D+00
 S   1 1.00       0.000000000000
      0.1612777588D+00  0.1000000000D+01
 ****
     51 0
 S   6 1.00       0.000000000000
      0.3047524880D+04  0.1834737132D-02
      0.4573695180D+03  0.1403732281D-01
      0.1039486850D+03  0.6884262226D-01
      0.2921015530D+02  0.2321844432D+00
      0.9286662960D+01  0.4679413484D+00
      0.3163926960D+01  0.3623119853D+00
 SP   3 1.00       0.000000000000
      0.7868272350D+01 -0.1193324198D+00  0.6899906659D-01
      0.1881288540D+01 -0.1608541517D+00  0.3164239610D+00
      0.5442492580D+00  0.1143456438D+01  0.7443082909D+00
 SP   1 1.00       0.000000000000
      0.1687144782D+00  0.1000000000D+01  0.1000000000D+01
 D   1 1.00       0.000000000000
      0.8000000000D+00  0.1000000000D+01
 ****
     52 0
 S   3 1.00       0.000000000000
      0.1873113696D+02  0.3349460434D-01
      0.2825394365D+01  0.2347269535D+00
      0.6401216923D+00  0.8137573261D+00
 S   1 1.00       0.000000000000
      0.1612777588D+00  0.1000000000D+01
 ****
     53 0
 S   3 1.00       0.000000000000
      0.1873113696D+02  0.3349460434D-01
      0.2825394365D+01  0.2347269535D+00
      0.6401216923D+00  0.8137573261D+00
 S   1 1.00       0.000000000000
      0.1612777588D+00  0.1000000000D+01
 ****
     54 0
 S   6 1.00       0.000000000000
      0.3047524880D+04  0.1834737132D-02
      0.4573695180D+03  0.1403732281D-01
      0.1039486850D+03  0.6884262226D-01
      0.2921015530D+02  0.2321844432D+00
      0.9286662960D+01  0.4679413484D+00
      0.3163926960D+01  0.3623119853D+00
 SP   3 1.00       0.000000000000
      0.7868272350D+01 -0.1193324198D+00  0.6899906659D-01
      0.1881288540D+01 -0.1608541517D+00  0.3164239610D+00
      0.5442492580D+00  0.1143456438D+01  0.7443082909D+00
 SP   1 1.00       0.000000000000
      0.1687144782D+00  0.1000000000D+01  0.1000000000D+01
 D   1 1.00       0.000000000000
      0.8000000000D+00  0.1000000000D+01
 ****
     55 0
 S   3 1.00       0.000000000000
      0.1873113696D+02  0.3349460434D-01
      0.2825394365D+01  0.2347269535D+00
      0.6401216923D+00  0.8137573261D+00
 S   1 1.00       0.000000000000
      0.1612777588D+00  0.1000000000D+01
 ****
     56 0
 S   6 1.00       0.000000000000
      0.3047524880D+04  0.1834737132D-02
      0.4573695180D+03  0.1403732281D-01
      0.1039486850D+03  0.6884262226D-01
      0.2921015530D+02  0.2321844432D+00
      0.9286662960D+01  0.4679413484D+00
      0.3163926960D+01  0.3623119853D+00
 SP   3 1.00       0.000000000000
      0.7868272350D+01 -0.1193324198D+00  0.6899906659D-01
      0.1881288540D+01 -0.1608541517D+00  0.3164239610D+00
      0.5442492580D+00  0.1143456438D+01  0.7443082909D+00
 SP   1 1.00       0.000000000000
      0.1687144782D+00  0.1000000000D+01  0.1000000000D+01
 D   1 1.00       0.000000000000
      0.8000000000D+00  0.1000000000D+01
 ****
     57 0
 S   3 1.00       0.000000000000
      0.1873113696D+02  0.3349460434D-01
      0.2825394365D+01  0.2347269535D+00
      0.6401216923D+00  0.8137573261D+00
 S   1 1.00       0.000000000000
      0.1612777588D+00  0.1000000000D+01
 ****
     58 0
 S   3 1.00       0.000000000000
      0.1873113696D+02  0.3349460434D-01
      0.2825394365D+01  0.2347269535D+00
      0.6401216923D+00  0.8137573261D+00
 S   1 1.00       0.000000000000
      0.1612777588D+00  0.1000000000D+01
 ****
     59 0
 S   3 1.00       0.000000000000
      0.1873113696D+02  0.3349460434D-01
      0.2825394365D+01  0.2347269535D+00
      0.6401216923D+00  0.8137573261D+00
 S   1 1.00       0.000000000000
      0.1612777588D+00  0.1000000000D+01
 ****
     60 0
 S   6 1.00       0.000000000000
      0.3047524880D+04  0.1834737132D-02
      0.4573695180D+03  0.1403732281D-01
      0.1039486850D+03  0.6884262226D-01
      0.2921015530D+02  0.2321844432D+00
      0.9286662960D+01  0.4679413484D+00
      0.3163926960D+01  0.3623119853D+00
 SP   3 1.00       0.000000000000
      0.7868272350D+01 -0.1193324198D+00  0.6899906659D-01
      0.1881288540D+01 -0.1608541517D+00  0.3164239610D+00
      0.5442492580D+00  0.1143456438D+01  0.7443082909D+00
 SP   1 1.00       0.000000000000
      0.1687144782D+00  0.1000000000D+01  0.1000000000D+01
 D   1 1.00       0.000000000000
      0.8000000000D+00  0.1000000000D+01
 ****
     61 0
 S   3 1.00       0.000000000000
      0.1873113696D+02  0.3349460434D-01
      0.2825394365D+01  0.2347269535D+00
      0.6401216923D+00  0.8137573261D+00
 S   1 1.00       0.000000000000
      0.1612777588D+00  0.1000000000D+01
 ****
     62 0
 S   3 1.00       0.000000000000
      0.1873113696D+02  0.3349460434D-01
      0.2825394365D+01  0.2347269535D+00
      0.6401216923D+00  0.8137573261D+00
 S   1 1.00       0.000000000000
      0.1612777588D+00  0.1000000000D+01
 ****
     63 0
 S   6 1.00       0.000000000000
      0.3047524880D+04  0.1834737132D-02
      0.4573695180D+03  0.1403732281D-01
      0.1039486850D+03  0.6884262226D-01
      0.2921015530D+02  0.2321844432D+00
      0.9286662960D+01  0.4679413484D+00
      0.3163926960D+01  0.3623119853D+00
 SP   3 1.00       0.000000000000
      0.7868272350D+01 -0.1193324198D+00  0.6899906659D-01
      0.1881288540D+01 -0.1608541517D+00  0.3164239610D+00
      0.5442492580D+00  0.1143456438D+01  0.7443082909D+00
 SP   1 1.00       0.000000000000
      0.1687144782D+00  0.1000000000D+01  0.1000000000D+01
 D   1 1.00       0.000000000000
      0.8000000000D+00  0.1000000000D+01
 ****
     64 0
 S   3 1.00       0.000000000000
      0.1873113696D+02  0.3349460434D-01
      0.2825394365D+01  0.2347269535D+00
      0.6401216923D+00  0.8137573261D+00
 S   1 1.00       0.000000000000
      0.1612777588D+00  0.1000000000D+01
 ****
     65 0
 S   3 1.00       0.000000000000
      0.1873113696D+02  0.3349460434D-01
      0.2825394365D+01  0.2347269535D+00
      0.6401216923D+00  0.8137573261D+00
 S   1 1.00       0.000000000000
      0.1612777588D+00  0.1000000000D+01
 ****
     66 0
 S   6 1.00       0.000000000000
      0.3047524880D+04  0.1834737132D-02
      0.4573695180D+03  0.1403732281D-01
      0.1039486850D+03  0.6884262226D-01
      0.2921015530D+02  0.2321844432D+00
      0.9286662960D+01  0.4679413484D+00
      0.3163926960D+01  0.3623119853D+00
 SP   3 1.00       0.000000000000
      0.7868272350D+01 -0.1193324198D+00  0.6899906659D-01
      0.1881288540D+01 -0.1608541517D+00  0.3164239610D+00
      0.5442492580D+00  0.1143456438D+01  0.7443082909D+00
 SP   1 1.00       0.000000000000
      0.1687144782D+00  0.1000000000D+01  0.1000000000D+01
 D   1 1.00       0.000000000000
      0.8000000000D+00  0.1000000000D+01
 ****
     67 0
 S   3 1.00       0.000000000000
      0.1873113696D+02  0.3349460434D-01
      0.2825394365D+01  0.2347269535D+00
      0.6401216923D+00  0.8137573261D+00
 S   1 1.00       0.000000000000
      0.1612777588D+00  0.1000000000D+01
 ****
     68 0
 S   6 1.00       0.000000000000
      0.3047524880D+04  0.1834737132D-02
      0.4573695180D+03  0.1403732281D-01
      0.1039486850D+03  0.6884262226D-01
      0.2921015530D+02  0.2321844432D+00
      0.9286662960D+01  0.4679413484D+00
      0.3163926960D+01  0.3623119853D+00
 SP   3 1.00       0.000000000000
      0.7868272350D+01 -0.1193324198D+00  0.6899906659D-01
      0.1881288540D+01 -0.1608541517D+00  0.3164239610D+00
      0.5442492580D+00  0.1143456438D+01  0.7443082909D+00
 SP   1 1.00       0.000000000000
      0.1687144782D+00  0.1000000000D+01  0.1000000000D+01
 D   1 1.00       0.000000000000
      0.8000000000D+00  0.1000000000D+01
 ****
     69 0
 S   3 1.00       0.000000000000
      0.1873113696D+02  0.3349460434D-01
      0.2825394365D+01  0.2347269535D+00
      0.6401216923D+00  0.8137573261D+00
 S   1 1.00       0.000000000000
      0.1612777588D+00  0.1000000000D+01
 ****
     70 0
 S   3 1.00       0.000000000000
      0.1873113696D+02  0.3349460434D-01
      0.2825394365D+01  0.2347269535D+00
      0.6401216923D+00  0.8137573261D+00
 S   1 1.00       0.000000000000
      0.1612777588D+00  0.1000000000D+01
 ****
     71 0
 S   3 1.00       0.000000000000
      0.1873113696D+02  0.3349460434D-01
      0.2825394365D+01  0.2347269535D+00
      0.6401216923D+00  0.8137573261D+00
 S   1 1.00       0.000000000000
      0.1612777588D+00  0.1000000000D+01
 ****
     72 0
 S   6 1.00       0.000000000000
      0.3047524880D+04  0.1834737132D-02
      0.4573695180D+03  0.1403732281D-01
      0.1039486850D+03  0.6884262226D-01
      0.2921015530D+02  0.2321844432D+00
      0.9286662960D+01  0.4679413484D+00
      0.3163926960D+01  0.3623119853D+00
 SP   3 1.00       0.000000000000
      0.7868272350D+01 -0.1193324198D+00  0.6899906659D-01
      0.1881288540D+01 -0.1608541517D+00  0.3164239610D+00
      0.5442492580D+00  0.1143456438D+01  0.7443082909D+00
 SP   1 1.00       0.000000000000
      0.1687144782D+00  0.1000000000D+01  0.1000000000D+01
 D   1 1.00       0.000000000000
      0.8000000000D+00  0.1000000000D+01
 ****
     73 0
 S   3 1.00       0.000000000000
      0.1873113696D+02  0.3349460434D-01
      0.2825394365D+01  0.2347269535D+00
      0.6401216923D+00  0.8137573261D+00
 S   1 1.00       0.000000000000
      0.1612777588D+00  0.1000000000D+01
 ****
     74 0
 S   3 1.00       0.000000000000
      0.1873113696D+02  0.3349460434D-01
      0.2825394365D+01  0.2347269535D+00
      0.6401216923D+00  0.8137573261D+00
 S   1 1.00       0.000000000000
      0.1612777588D+00  0.1000000000D+01
 ****
     75 0
 S   3 1.00       0.000000000000
      0.1873113696D+02  0.3349460434D-01
      0.2825394365D+01  0.2347269535D+00
      0.6401216923D+00  0.8137573261D+00
 S   1 1.00       0.000000000000
      0.1612777588D+00  0.1000000000D+01
 ****

 AO basis set (Overlap normalization):
 Atom O1       Shell     1 S   6     bf    1 -     1          0.000000000000          0.000000000000          0.000000000000
      0.5484671660D+04  0.1831074430D-02
      0.8252349460D+03  0.1395017220D-01
      0.1880469580D+03  0.6844507810D-01
      0.5296450000D+02  0.2327143360D+00
      0.1689757040D+02  0.4701928980D+00
      0.5799635340D+01  0.3585208530D+00
 Atom O1       Shell     2 SP   3    bf    2 -     5          0.000000000000          0.000000000000          0.000000000000
      0.1553961625D+02 -0.1107775495D+00  0.7087426823D-01
      0.3599933586D+01 -0.1480262627D+00  0.3397528391D+00
      0.1013761750D+01  0.1130767015D+01  0.7271585773D+00
 Atom O1       Shell     3 SP   1    bf    6 -     9          0.000000000000          0.000000000000          0.000000000000
      0.2700058226D+00  0.1000000000D+01  0.1000000000D+01
 Atom O1       Shell     4 D   1     bf   10 -    15          0.000000000000          0.000000000000          0.000000000000
      0.8000000000D+00  0.1000000000D+01
 Atom H2       Shell     5 S   3     bf   16 -    16         -0.894597957575          0.859343245737         -1.340634627652
      0.1873113696D+02  0.3349460434D-01
      0.2825394365D+01  0.2347269535D+00
      0.6401216923D+00  0.8137573261D+00
 Atom H2       Shell     6 S   1     bf   17 -    17         -0.894597957575          0.859343245737         -1.340634627652
      0.1612777588D+00  0.1000000000D+01
 Atom O3       Shell     7 S   6     bf   18 -    18         -6.176743417785         11.088020354531          0.000000000000
      0.5484671660D+04  0.1831074430D-02
      0.8252349460D+03  0.1395017220D-01
      0.1880469580D+03  0.6844507810D-01
      0.5296450000D+02  0.2327143360D+00
      0.1689757040D+02  0.4701928980D+00
      0.5799635340D+01  0.3585208530D+00
 Atom O3       Shell     8 SP   3    bf   19 -    22         -6.176743417785         11.088020354531          0.000000000000
      0.1553961625D+02 -0.1107775495D+00  0.7087426823D-01
      0.3599933586D+01 -0.1480262627D+00  0.3397528391D+00
      0.1013761750D+01  0.1130767015D+01  0.7271585773D+00
 Atom O3       Shell     9 SP   1    bf   23 -    26         -6.176743417785         11.088020354531          0.000000000000
      0.2700058226D+00  0.1000000000D+01  0.1000000000D+01
 Atom O3       Shell    10 D   1     bf   27 -    32         -6.176743417785         11.088020354531          0.000000000000
      0.8000000000D+00  0.1000000000D+01
 Atom H4       Shell    11 S   3     bf   33 -    33         -5.610345347092         12.383515642068          1.159309868304
      0.1873113696D+02  0.3349460434D-01
      0.2825394365D+01  0.2347269535D+00
      0.6401216923D+00  0.8137573261D+00
 Atom H4       Shell    12 S   1     bf   34 -    34         -5.610345347092         12.383515642068          1.159309868304
      0.1612777588D+00  0.1000000000D+01
 Atom C5       Shell    13 S   6     bf   35 -    35          7.906053420455          2.147416747270         -0.702878249407
      0.3047524880D+04  0.1834737132D-02
      0.4573695180D+03  0.1403732281D-01
      0.1039486850D+03  0.6884262226D-01
      0.2921015530D+02  0.2321844432D+00
      0.9286662960D+01  0.4679413484D+00
      0.3163926960D+01  0.3623119853D+00
 Atom C5       Shell    14 SP   3    bf   36 -    39          7.906053420455          2.147416747270         -0.702878249407
      0.7868272350D+01 -0.1193324198D+00  0.6899906659D-01
      0.1881288540D+01 -0.1608541517D+00  0.3164239610D+00
      0.5442492580D+00  0.1143456438D+01  0.7443082909D+00
 Atom C5       Shell    15 SP   1    bf   40 -    43          7.906053420455          2.147416747270         -0.702878249407
      0.1687144782D+00  0.1000000000D+01  0.1000000000D+01
 Atom C5       Shell    16 D   1     bf   44 -    49          7.906053420455          2.147416747270         -0.702878249407
      0.8000000000D+00  0.1000000000D+01
 Atom C6       Shell    17 S   6     bf   50 -    50          5.284605656867          1.097616924107          0.105995494684
      0.3047524880D+04  0.1834737132D-02
      0.4573695180D+03  0.1403732281D-01
      0.1039486850D+03  0.6884262226D-01
      0.2921015530D+02  0.2321844432D+00
      0.9286662960D+01  0.4679413484D+00
      0.3163926960D+01  0.3623119853D+00
 Atom C6       Shell    18 SP   3    bf   51 -    54          5.284605656867          1.097616924107          0.105995494684
      0.7868272350D+01 -0.1193324198D+00  0.6899906659D-01
      0.1881288540D+01 -0.1608541517D+00  0.3164239610D+00
      0.5442492580D+00  0.1143456438D+01  0.7443082909D+00
 Atom C6       Shell    19 SP   1    bf   55 -    58          5.284605656867          1.097616924107          0.105995494684
      0.1687144782D+00  0.1000000000D+01  0.1000000000D+01
 Atom C6       Shell    20 D   1     bf   59 -    64          5.284605656867          1.097616924107          0.105995494684
      0.8000000000D+00  0.1000000000D+01
 Atom H7       Shell    21 S   3     bf   65 -    65          4.443691247145          0.314759606605         -1.624886363287
      0.1873113696D+02  0.3349460434D-01
      0.2825394365D+01  0.2347269535D+00
      0.6401216923D+00  0.8137573261D+00
 Atom H7       Shell    22 S   1     bf   66 -    66          4.443691247145          0.314759606605         -1.624886363287
      0.1612777588D+00  0.1000000000D+01
 Atom C8       Shell    23 S   6     bf   67 -    67          3.407316680936          3.084239595936          1.069527789203
      0.3047524880D+04  0.1834737132D-02
      0.4573695180D+03  0.1403732281D-01
      0.1039486850D+03  0.6884262226D-01
      0.2921015530D+02  0.2321844432D+00
      0.9286662960D+01  0.4679413484D+00
      0.3163926960D+01  0.3623119853D+00
 Atom C8       Shell    24 SP   3    bf   68 -    71          3.407316680936          3.084239595936          1.069527789203
      0.7868272350D+01 -0.1193324198D+00  0.6899906659D-01
      0.1881288540D+01 -0.1608541517D+00  0.3164239610D+00
      0.5442492580D+00  0.1143456438D+01  0.7443082909D+00
 Atom C8       Shell    25 SP   1    bf   72 -    75          3.407316680936          3.084239595936          1.069527789203
      0.1687144782D+00  0.1000000000D+01  0.1000000000D+01
 Atom C8       Shell    26 D   1     bf   76 -    81          3.407316680936          3.084239595936          1.069527789203
      0.8000000000D+00  0.1000000000D+01
 Atom H9       Shell    27 S   3     bf   82 -    82          4.149162273731          3.930502837683          2.816674009774
      0.1873113696D+02  0.3349460434D-01
      0.2825394365D+01  0.2347269535D+00
      0.6401216923D+00  0.8137573261D+00
 Atom H9       Shell    28 S   1     bf   83 -    83          4.149162273731          3.930502837683          2.816674009774
      0.1612777588D+00  0.1000000000D+01
 Atom C10      Shell    29 S   6     bf   84 -    84          3.023035542786          5.188662560347         -0.929979866879
      0.3047524880D+04  0.1834737132D-02
      0.4573695180D+03  0.1403732281D-01
      0.1039486850D+03  0.6884262226D-01
      0.2921015530D+02  0.2321844432D+00
      0.9286662960D+01  0.4679413484D+00
      0.3163926960D+01  0.3623119853D+00
 Atom C10      Shell    30 SP   3    bf   85 -    88          3.023035542786          5.188662560347         -0.929979866879
      0.7868272350D+01 -0.1193324198D+00  0.6899906659D-01
      0.1881288540D+01 -0.1608541517D+00  0.3164239610D+00
      0.5442492580D+00  0.1143456438D+01  0.7443082909D+00
 Atom C10      Shell    31 SP   1    bf   89 -    92          3.023035542786          5.188662560347         -0.929979866879
      0.1687144782D+00  0.1000000000D+01  0.1000000000D+01
 Atom C10      Shell    32 D   1     bf   93 -    98          3.023035542786          5.188662560347         -0.929979866879
      0.8000000000D+00  0.1000000000D+01
 Atom H11      Shell    33 S   3     bf   99 -    99          2.018221217134          4.288927760225         -2.518616105087
      0.1873113696D+02  0.3349460434D-01
      0.2825394365D+01  0.2347269535D+00
      0.6401216923D+00  0.8137573261D+00
 Atom H11      Shell    34 S   1     bf  100 -   100          2.018221217134          4.288927760225         -2.518616105087
      0.1612777588D+00  0.1000000000D+01
 Atom C12      Shell    35 S   6     bf  101 -   101          9.247773242236         -0.381232575261         -1.476584379138
      0.3047524880D+04  0.1834737132D-02
      0.4573695180D+03  0.1403732281D-01
      0.1039486850D+03  0.6884262226D-01
      0.2921015530D+02  0.2321844432D+00
      0.9286662960D+01  0.4679413484D+00
      0.3163926960D+01  0.3623119853D+00
 Atom C12      Shell    36 SP   3    bf  102 -   105          9.247773242236         -0.381232575261         -1.476584379138
      0.7868272350D+01 -0.1193324198D+00  0.6899906659D-01
      0.1881288540D+01 -0.1608541517D+00  0.3164239610D+00
      0.5442492580D+00  0.1143456438D+01  0.7443082909D+00
 Atom C12      Shell    37 SP   1    bf  106 -   109          9.247773242236         -0.381232575261         -1.476584379138
      0.1687144782D+00  0.1000000000D+01  0.1000000000D+01
 Atom C12      Shell    38 D   1     bf  110 -   115          9.247773242236         -0.381232575261         -1.476584379138
      0.8000000000D+00  0.1000000000D+01
 Atom H13      Shell    39 S   3     bf  116 -   116          8.409378952388         -0.940458908512         -3.298160600398
      0.1873113696D+02  0.3349460434D-01
      0.2825394365D+01  0.2347269535D+00
      0.6401216923D+00  0.8137573261D+00
 Atom H13      Shell    40 S   1     bf  117 -   117          8.409378952388         -0.940458908512         -3.298160600398
      0.1612777588D+00  0.1000000000D+01
 Atom C14      Shell    41 S   6     bf  118 -   118          7.394939533445          4.057606289812         -2.845295763988
      0.3047524880D+04  0.1834737132D-02
      0.4573695180D+03  0.1403732281D-01
      0.1039486850D+03  0.6884262226D-01
      0.2921015530D+02  0.2321844432D+00
      0.9286662960D+01  0.4679413484D+00
      0.3163926960D+01  0.3623119853D+00
 Atom C14      Shell    42 SP   3    bf  119 -   122          7.394939533445          4.057606289812         -2.845295763988
      0.7868272350D+01 -0.1193324198D+00  0.6899906659D-01
      0.1881288540D+01 -0.1608541517D+00  0.3164239610D+00
      0.5442492580D+00  0.1143456438D+01  0.7443082909D+00
 Atom C14      Shell    43 SP   1    bf  123 -   126          7.394939533445          4.057606289812         -2.845295763988
      0.1687144782D+00  0.1000000000D+01  0.1000000000D+01
 Atom C14      Shell    44 D   1     bf  127 -   132          7.394939533445          4.057606289812         -2.845295763988
      0.8000000000D+00  0.1000000000D+01
 Atom H15      Shell    45 S   3     bf  133 -   133          6.588299086594          3.036211488172         -4.464973267265
      0.1873113696D+02  0.3349460434D-01
      0.2825394365D+01  0.2347269535D+00
      0.6401216923D+00  0.8137573261D+00
 Atom H15      Shell    46 S   1     bf  134 -   134          6.588299086594          3.036211488172         -4.464973267265
      0.1612777588D+00  0.1000000000D+01
 Atom H16      Shell    47 S   3     bf  135 -   135          9.135855137982          4.947216145184         -3.520299267921
      0.1873113696D+02  0.3349460434D-01
      0.2825394365D+01  0.2347269535D+00
      0.6401216923D+00  0.8137573261D+00
 Atom H16      Shell    48 S   1     bf  136 -   136          9.135855137982          4.947216145184         -3.520299267921
      0.1612777588D+00  0.1000000000D+01
 Atom C17      Shell    49 S   6     bf  137 -   137          1.241626225269          7.352936590689          0.035850126748
      0.3047524880D+04  0.1834737132D-02
      0.4573695180D+03  0.1403732281D-01
      0.1039486850D+03  0.6884262226D-01
      0.2921015530D+02  0.2321844432D+00
      0.9286662960D+01  0.4679413484D+00
      0.3163926960D+01  0.3623119853D+00
 Atom C17      Shell    50 SP   3    bf  138 -   141          1.241626225269          7.352936590689          0.035850126748
      0.7868272350D+01 -0.1193324198D+00  0.6899906659D-01
      0.1881288540D+01 -0.1608541517D+00  0.3164239610D+00
      0.5442492580D+00  0.1143456438D+01  0.7443082909D+00
 Atom C17      Shell    51 SP   1    bf  142 -   145          1.241626225269          7.352936590689          0.035850126748
      0.1687144782D+00  0.1000000000D+01  0.1000000000D+01
 Atom C17      Shell    52 D   1     bf  146 -   151          1.241626225269          7.352936590689          0.035850126748
      0.8000000000D+00  0.1000000000D+01
 Atom C18      Shell    53 S   6     bf  152 -   152          5.900414547935         -1.174889167386          1.798686743400
      0.3047524880D+04  0.1834737132D-02
      0.4573695180D+03  0.1403732281D-01
      0.1039486850D+03  0.6884262226D-01
      0.2921015530D+02  0.2321844432D+00
      0.9286662960D+01  0.4679413484D+00
      0.3163926960D+01  0.3623119853D+00
 Atom C18      Shell    54 SP   3    bf  153 -   156          5.900414547935         -1.174889167386          1.798686743400
      0.7868272350D+01 -0.1193324198D+00  0.6899906659D-01
      0.1881288540D+01 -0.1608541517D+00  0.3164239610D+00
      0.5442492580D+00  0.1143456438D+01  0.7443082909D+00
 Atom C18      Shell    55 SP   1    bf  157 -   160          5.900414547935         -1.174889167386          1.798686743400
      0.1687144782D+00  0.1000000000D+01  0.1000000000D+01
 Atom C18      Shell    56 D   1     bf  161 -   166          5.900414547935         -1.174889167386          1.798686743400
      0.8000000000D+00  0.1000000000D+01
 Atom H19      Shell    57 S   3     bf  167 -   167          4.344658353911         -2.533571907929          1.860754004549
      0.1873113696D+02  0.3349460434D-01
      0.2825394365D+01  0.2347269535D+00
      0.6401216923D+00  0.8137573261D+00
 Atom H19      Shell    58 S   1     bf  168 -   168          4.344658353911         -2.533571907929          1.860754004549
      0.1612777588D+00  0.1000000000D+01
 Atom H20      Shell    59 S   3     bf  169 -   169          6.261649852285         -0.571232859415          3.749897383690
      0.1873113696D+02  0.3349460434D-01
      0.2825394365D+01  0.2347269535D+00
      0.6401216923D+00  0.8137573261D+00
 Atom H20      Shell    60 S   1     bf  170 -   170          6.261649852285         -0.571232859415          3.749897383690
      0.1612777588D+00  0.1000000000D+01
 Atom C21      Shell    61 S   6     bf  171 -   171          5.560539744031          6.161788522012         -2.006389925275
      0.3047524880D+04  0.1834737132D-02
      0.4573695180D+03  0.1403732281D-01
      0.1039486850D+03  0.6884262226D-01
      0.2921015530D+02  0.2321844432D+00
      0.9286662960D+01  0.4679413484D+00
      0.3163926960D+01  0.3623119853D+00
 Atom C21      Shell    62 SP   3    bf  172 -   175          5.560539744031          6.161788522012         -2.006389925275
      0.7868272350D+01 -0.1193324198D+00  0.6899906659D-01
      0.1881288540D+01 -0.1608541517D+00  0.3164239610D+00
      0.5442492580D+00  0.1143456438D+01  0.7443082909D+00
 Atom C21      Shell    63 SP   1    bf  176 -   179          5.560539744031          6.161788522012         -2.006389925275
      0.1687144782D+00  0.1000000000D+01  0.1000000000D+01
 Atom C21      Shell    64 D   1     bf  180 -   185          5.560539744031          6.161788522012         -2.006389925275
      0.8000000000D+00  0.1000000000D+01
 Atom H22      Shell    65 S   3     bf  186 -   186          6.516571073022          7.335033570970         -0.595482165303
      0.1873113696D+02  0.3349460434D-01
      0.2825394365D+01  0.2347269535D+00
      0.6401216923D+00  0.8137573261D+00
 Atom H22      Shell    66 S   1     bf  187 -   187          6.516571073022          7.335033570970         -0.595482165303
      0.1612777588D+00  0.1000000000D+01
 Atom H23      Shell    67 S   3     bf  188 -   188          5.199416746105          7.402115296003         -3.625706849908
      0.1873113696D+02  0.3349460434D-01
      0.2825394365D+01  0.2347269535D+00
      0.6401216923D+00  0.8137573261D+00
 Atom H23      Shell    68 S   1     bf  189 -   189          5.199416746105          7.402115296003         -3.625706849908
      0.1612777588D+00  0.1000000000D+01
 Atom C24      Shell    69 S   6     bf  190 -   190          8.321383288092         -2.301803725156          0.580055915140
      0.3047524880D+04  0.1834737132D-02
      0.4573695180D+03  0.1403732281D-01
      0.1039486850D+03  0.6884262226D-01
      0.2921015530D+02  0.2321844432D+00
      0.9286662960D+01  0.4679413484D+00
      0.3163926960D+01  0.3623119853D+00
 Atom C24      Shell    70 SP   3    bf  191 -   194          8.321383288092         -2.301803725156          0.580055915140
      0.7868272350D+01 -0.1193324198D+00  0.6899906659D-01
      0.1881288540D+01 -0.1608541517D+00  0.3164239610D+00
      0.5442492580D+00  0.1143456438D+01  0.7443082909D+00
 Atom C24      Shell    71 SP   1    bf  195 -   198          8.321383288092         -2.301803725156          0.580055915140
      0.1687144782D+00  0.1000000000D+01  0.1000000000D+01
 Atom C24      Shell    72 D   1     bf  199 -   204          8.321383288092         -2.301803725156          0.580055915140
      0.8000000000D+00  0.1000000000D+01
 Atom H25      Shell    73 S   3     bf  205 -   205          9.797832702990         -2.598648822507          2.003995869032
      0.1873113696D+02  0.3349460434D-01
      0.2825394365D+01  0.2347269535D+00
      0.6401216923D+00  0.8137573261D+00
 Atom H25      Shell    74 S   1     bf  206 -   206          9.797832702990         -2.598648822507          2.003995869032
      0.1612777588D+00  0.1000000000D+01
 Atom H26      Shell    75 S   3     bf  207 -   207          7.939740642261         -4.152718322574         -0.257671811610
      0.1873113696D+02  0.3349460434D-01
      0.2825394365D+01  0.2347269535D+00
      0.6401216923D+00  0.8137573261D+00
 Atom H26      Shell    76 S   1     bf  208 -   208          7.939740642261         -4.152718322574         -0.257671811610
      0.1612777588D+00  0.1000000000D+01
 Atom C27      Shell    77 S   6     bf  209 -   209          0.851073690796          1.881133302495          1.793580060882
      0.3047524880D+04  0.1834737132D-02
      0.4573695180D+03  0.1403732281D-01
      0.1039486850D+03  0.6884262226D-01
      0.2921015530D+02  0.2321844432D+00
      0.9286662960D+01  0.4679413484D+00
      0.3163926960D+01  0.3623119853D+00
 Atom C27      Shell    78 SP   3    bf  210 -   213          0.851073690796          1.881133302495          1.793580060882
      0.7868272350D+01 -0.1193324198D+00  0.6899906659D-01
      0.1881288540D+01 -0.1608541517D+00  0.3164239610D+00
      0.5442492580D+00  0.1143456438D+01  0.7443082909D+00
 Atom C27      Shell    79 SP   1    bf  214 -   217          0.851073690796          1.881133302495          1.793580060882
      0.1687144782D+00  0.1000000000D+01  0.1000000000D+01
 Atom C27      Shell    80 D   1     bf  218 -   223          0.851073690796          1.881133302495          1.793580060882
      0.8000000000D+00  0.1000000000D+01
 Atom H28      Shell    81 S   3     bf  224 -   224          1.106360025520          0.798475507148          3.540822789766
      0.1873113696D+02  0.3349460434D-01
      0.2825394365D+01  0.2347269535D+00
      0.6401216923D+00  0.8137573261D+00
 Atom H28      Shell    82 S   1     bf  225 -   225          1.106360025520          0.798475507148          3.540822789766
      0.1612777588D+00  0.1000000000D+01
 Atom C29      Shell    83 S   6     bf  226 -   226         12.156167906664         -0.436050412328         -1.835957112720
      0.3047524880D+04  0.1834737132D-02
      0.4573695180D+03  0.1403732281D-01
      0.1039486850D+03  0.6884262226D-01
      0.2921015530D+02  0.2321844432D+00
      0.9286662960D+01  0.4679413484D+00
      0.3163926960D+01  0.3623119853D+00
 Atom C29      Shell    84 SP   3    bf  227 -   230         12.156167906664         -0.436050412328         -1.835957112720
      0.7868272350D+01 -0.1193324198D+00  0.6899906659D-01
      0.1881288540D+01 -0.1608541517D+00  0.3164239610D+00
      0.5442492580D+00  0.1143456438D+01  0.7443082909D+00
 Atom C29      Shell    85 SP   1    bf  231 -   234         12.156167906664         -0.436050412328         -1.835957112720
      0.1687144782D+00  0.1000000000D+01  0.1000000000D+01
 Atom C29      Shell    86 D   1     bf  235 -   240         12.156167906664         -0.436050412328         -1.835957112720
      0.8000000000D+00  0.1000000000D+01
 Atom H30      Shell    87 S   3     bf  241 -   241         13.032325859943          0.000000000000          0.000000000000
      0.1873113696D+02  0.3349460434D-01
      0.2825394365D+01  0.2347269535D+00
      0.6401216923D+00  0.8137573261D+00
 Atom H30      Shell    88 S   1     bf  242 -   242         13.032325859943          0.000000000000          0.000000000000
      0.1612777588D+00  0.1000000000D+01
 Atom C31      Shell    89 S   6     bf  243 -   243          9.340634422201          3.417770230164          1.502196007493
      0.3047524880D+04  0.1834737132D-02
      0.4573695180D+03  0.1403732281D-01
      0.1039486850D+03  0.6884262226D-01
      0.2921015530D+02  0.2321844432D+00
      0.9286662960D+01  0.4679413484D+00
      0.3163926960D+01  0.3623119853D+00
 Atom C31      Shell    90 SP   3    bf  244 -   247          9.340634422201          3.417770230164          1.502196007493
      0.7868272350D+01 -0.1193324198D+00  0.6899906659D-01
      0.1881288540D+01 -0.1608541517D+00  0.3164239610D+00
      0.5442492580D+00  0.1143456438D+01  0.7443082909D+00
 Atom C31      Shell    91 SP   1    bf  248 -   251          9.340634422201          3.417770230164          1.502196007493
      0.1687144782D+00  0.1000000000D+01  0.1000000000D+01
 Atom C31      Shell    92 D   1     bf  252 -   257          9.340634422201          3.417770230164          1.502196007493
      0.8000000000D+00  0.1000000000D+01
 Atom H32      Shell    93 S   3     bf  258 -   258          8.261113817899          4.953362347151          2.364343890270
      0.1873113696D+02  0.3349460434D-01
      0.2825394365D+01  0.2347269535D+00
      0.6401216923D+00  0.8137573261D+00
 Atom H32      Shell    94 S   1     bf  259 -   259          8.261113817899          4.953362347151          2.364343890270
      0.1612777588D+00  0.1000000000D+01
 Atom H33      Shell    95 S   3     bf  260 -   260          9.789933855624          2.071717323052          3.006121473445
      0.1873113696D+02  0.3349460434D-01
      0.2825394365D+01  0.2347269535D+00
      0.6401216923D+00  0.8137573261D+00
 Atom H33      Shell    96 S   1     bf  261 -   261          9.789933855624          2.071717323052          3.006121473445
      0.1612777588D+00  0.1000000000D+01
 Atom H34      Shell    97 S   3     bf  262 -   262         11.129714912879          4.224879631451          0.846047151564
      0.1873113696D+02  0.3349460434D-01
      0.2825394365D+01  0.2347269535D+00
      0.6401216923D+00  0.8137573261D+00
 Atom H34      Shell    98 S   1     bf  263 -   263         11.129714912879          4.224879631451          0.846047151564
      0.1612777588D+00  0.1000000000D+01
 Atom C35      Shell    99 S   6     bf  264 -   264         -1.059940622716          6.234949817267          1.400011580193
      0.3047524880D+04  0.1834737132D-02
      0.4573695180D+03  0.1403732281D-01
      0.1039486850D+03  0.6884262226D-01
      0.2921015530D+02  0.2321844432D+00
      0.9286662960D+01  0.4679413484D+00
      0.3163926960D+01  0.3623119853D+00
 Atom C35      Shell   100 SP   3    bf  265 -   268         -1.059940622716          6.234949817267          1.400011580193
      0.7868272350D+01 -0.1193324198D+00  0.6899906659D-01
      0.1881288540D+01 -0.1608541517D+00  0.3164239610D+00
      0.5442492580D+00  0.1143456438D+01  0.7443082909D+00
 Atom C35      Shell   101 SP   1    bf  269 -   272         -1.059940622716          6.234949817267          1.400011580193
      0.1687144782D+00  0.1000000000D+01  0.1000000000D+01
 Atom C35      Shell   102 D   1     bf  273 -   278         -1.059940622716          6.234949817267          1.400011580193
      0.8000000000D+00  0.1000000000D+01
 Atom C36      Shell   103 S   6     bf  279 -   279          0.282987886797          8.893243120843         -2.288041737901
      0.3047524880D+04  0.1834737132D-02
      0.4573695180D+03  0.1403732281D-01
      0.1039486850D+03  0.6884262226D-01
      0.2921015530D+02  0.2321844432D+00
      0.9286662960D+01  0.4679413484D+00
      0.3163926960D+01  0.3623119853D+00
 Atom C36      Shell   104 SP   3    bf  280 -   283          0.282987886797          8.893243120843         -2.288041737901
      0.7868272350D+01 -0.1193324198D+00  0.6899906659D-01
      0.1881288540D+01 -0.1608541517D+00  0.3164239610D+00
      0.5442492580D+00  0.1143456438D+01  0.7443082909D+00
 Atom C36      Shell   105 SP   1    bf  284 -   287          0.282987886797          8.893243120843         -2.288041737901
      0.1687144782D+00  0.1000000000D+01  0.1000000000D+01
 Atom C36      Shell   106 D   1     bf  288 -   293          0.282987886797          8.893243120843         -2.288041737901
      0.8000000000D+00  0.1000000000D+01
 Atom H37      Shell   107 S   3     bf  294 -   294         -0.381684522163          7.551972090121         -3.727454542602
      0.1873113696D+02  0.3349460434D-01
      0.2825394365D+01  0.2347269535D+00
      0.6401216923D+00  0.8137573261D+00
 Atom H37      Shell   108 S   1     bf  295 -   295         -0.381684522163          7.551972090121         -3.727454542602
      0.1612777588D+00  0.1000000000D+01
 Atom H38      Shell   109 S   3     bf  296 -   296          1.871105792024          9.916979784490         -3.132834716025
      0.1873113696D+02  0.3349460434D-01
      0.2825394365D+01  0.2347269535D+00
      0.6401216923D+00  0.8137573261D+00
 Atom H38      Shell   110 S   1     bf  297 -   297          1.871105792024          9.916979784490         -3.132834716025
      0.1612777588D+00  0.1000000000D+01
 Atom C39      Shell   111 S   6     bf  298 -   298         -1.183317553809          3.820730366274          2.174567179615
      0.3047524880D+04  0.1834737132D-02
      0.4573695180D+03  0.1403732281D-01
      0.1039486850D+03  0.6884262226D-01
      0.2921015530D+02  0.2321844432D+00
      0.9286662960D+01  0.4679413484D+00
      0.3163926960D+01  0.3623119853D+00
 Atom C39      Shell   112 SP   3    bf  299 -   302         -1.183317553809          3.820730366274          2.174567179615
      0.7868272350D+01 -0.1193324198D+00  0.6899906659D-01
      0.1881288540D+01 -0.1608541517D+00  0.3164239610D+00
      0.5442492580D+00  0.1143456438D+01  0.7443082909D+00
 Atom C39      Shell   113 SP   1    bf  303 -   306         -1.183317553809          3.820730366274          2.174567179615
      0.1687144782D+00  0.1000000000D+01  0.1000000000D+01
 Atom C39      Shell   114 D   1     bf  307 -   312         -1.183317553809          3.820730366274          2.174567179615
      0.8000000000D+00  0.1000000000D+01
 Atom H40      Shell   115 S   3     bf  313 -   313         -2.897776690130          3.147138109817          3.094852241206
[...]
 **** Fit       0.000120
 **** Fit       0.001123
 **** Fit       0.002292
 **** Fit       0.003287
 **** Fit       0.003749
 **** Fit       0.003589
 **** Fit       0.003056
 **** Fit       0.002495
 **** Fit       0.002127
 **** Fit       0.002009
 **** Fit       0.002084
 **** Fit       0.002216
 **** Fit       0.002228
 **** Fit       0.001992
 **** Fit       0.001520
 **** Fit       0.000947
 **** Fit       0.000421
 **** Fit       0.000026
 **** Fit      -0.000223
 **** Fit      -0.000351
 **** Fit      -0.001101
 **** Fit      -0.000958
 **** Fit      -0.000628
 **** Fit      -0.000050
 **** Fit       0.000778
 **** Fit       0.001733
 **** Fit       0.002544
 **** Fit       0.002937
 **** Fit       0.002839
 **** Fit       0.002439
 **** Fit       0.002004
 **** Fit       0.001712
 **** Fit       0.001617
 **** Fit       0.001677
 **** Fit       0.001786
 **** Fit       0.001801
 **** Fit       0.001617
 **** Fit       0.001243
 **** Fit       0.000783
 **** Fit       0.000355
 **** Fit       0.000033
 **** Fit      -0.000171
 **** Fit      -0.001065
 **** Fit      -0.000962
 **** Fit      -0.000716
 **** Fit      -0.000290
 **** Fit       0.000310
 **** Fit       0.000993
 **** Fit       0.001581
 **** Fit       0.001898
 **** Fit       0.001892
 **** Fit       0.001675
 **** Fit       0.001412
 **** Fit       0.001226
 **** Fit       0.001158
 **** Fit       0.001189
 **** Fit       0.001249
 **** Fit       0.001246
 **** Fit       0.001111
 **** Fit       0.000849
 **** Fit       0.000528
 **** Fit       0.000228
 **** Fit       0.000002
 **** Fit      -0.000139
 **** Fit      -0.000946
 **** Fit      -0.000782
 **** Fit      -0.000499
 **** Fit      -0.000104
 **** Fit       0.000343
 **** Fit       0.000742
 **** Fit       0.000991
 **** Fit       0.001056
 **** Fit       0.000988
 **** Fit       0.000872
 **** Fit       0.000776
 **** Fit       0.000731
 **** Fit       0.000731
 **** Fit       0.000743
 **** Fit       0.000719
 **** Fit       0.000623
 **** Fit       0.000459
 **** Fit       0.000265
 **** Fit       0.000087
 **** Fit      -0.000042
 **** Fit      -0.000116
 **** Fit      -0.000895
 **** Fit      -0.000794
 **** Fit      -0.000617
 **** Fit      -0.000369
 **** Fit      -0.000085
 **** Fit       0.000182
 **** Fit       0.000377
 **** Fit       0.000478
 **** Fit       0.000499
 **** Fit       0.000472
 **** Fit       0.000432
 **** Fit       0.000398
 **** Fit       0.000373
 **** Fit       0.000348
 **** Fit       0.000307
 **** Fit       0.000238
 **** Fit       0.000145
 **** Fit       0.000048
 **** Fit      -0.000031
 **** Fit      -0.000079
 **** Fit      -0.000746
 **** Fit      -0.000634
 **** Fit      -0.000476
 **** Fit      -0.000291
 **** Fit      -0.000105
 **** Fit       0.000052
 **** Fit       0.000160
 **** Fit       0.000218
 **** Fit       0.000233
 **** Fit       0.000217
 **** Fit       0.000181
 **** Fit       0.000134
 **** Fit       0.000082
 **** Fit       0.000029
 **** Fit      -0.000024
 **** Fit      -0.000071
 **** Fit      -0.000102
 **** Fit      -0.000111
 **** Fit      -0.000462
 **** Fit      -0.000330
 **** Fit      -0.000191
 **** Fit      -0.000063
 **** Fit       0.000039
 **** Fit       0.000105
 **** Fit      -0.000064
 **** Fit      -0.000127
 **** Fit      -0.000173
 **** Fit      -0.000192
 **** Fit      -0.000614
 **** Fit      -0.000516
 **** Fit      -0.000453
 **** Fit      -0.000441
 **** Fit      -0.000479
 **** Fit      -0.000552
 **** Fit      -0.000530
 **** Fit      -0.000359
 **** Fit      -0.000209
 **** Fit      -0.000118
 **** Fit      -0.000107
 **** Fit      -0.000175
 **** Fit      -0.000299
 **** Fit      -0.000443
 **** Fit      -0.000519
 **** Fit      -0.000292
 **** Fit      -0.000050
 **** Fit       0.000160
 **** Fit       0.000284
 **** Fit       0.000291
 **** Fit       0.000184
 **** Fit       0.000001
 **** Fit      -0.000210
 **** Fit      -0.000407
 **** Fit      -0.000567
 **** Fit      -0.000327
 **** Fit      -0.000031
 **** Fit       0.000282
 **** Fit       0.000551
 **** Fit       0.000707
 **** Fit       0.000708
 **** Fit       0.000560
 **** Fit       0.000315
 **** Fit       0.000037
 **** Fit      -0.000222
 **** Fit      -0.000419
 **** Fit      -0.000126
 **** Fit       0.000226
 **** Fit       0.000594
 **** Fit       0.000906
 **** Fit       0.001083
 **** Fit       0.001077
 **** Fit       0.000898
 **** Fit       0.000604
 **** Fit       0.000271
 **** Fit      -0.000039
 **** Fit      -0.000254
 **** Fit       0.000078
 **** Fit       0.000462
 **** Fit       0.000853
 **** Fit       0.001179
 **** Fit       0.001360
 **** Fit       0.001347
 **** Fit       0.001151
 **** Fit       0.000834
 **** Fit       0.000474
 **** Fit       0.000133
 **** Fit      -0.000359
 **** Fit      -0.000061
 **** Fit       0.000293
 **** Fit       0.000679
 **** Fit       0.001056
 **** Fit       0.001361
 **** Fit       0.001524
 **** Fit       0.001504
 **** Fit       0.001312
 **** Fit       0.001002
 **** Fit       0.000644
 **** Fit       0.000295
 **** Fit      -0.000658
 **** Fit      -0.000439
 **** Fit      -0.000153
 **** Fit       0.000183
 **** Fit       0.000546
 **** Fit       0.000909
 **** Fit       0.001238
 **** Fit       0.001488
 **** Fit       0.001612
 **** Fit       0.001584
 **** Fit       0.001411
 **** Fit       0.001132
 **** Fit       0.000801
 **** Fit       0.000463
 **** Fit       0.000149
 **** Fit      -0.000732
 **** Fit      -0.000524
 **** Fit      -0.000233
 **** Fit       0.000121
 **** Fit       0.000502
 **** Fit       0.000868
 **** Fit       0.001187
 **** Fit       0.001441
 **** Fit       0.001611
 **** Fit       0.001681
 **** Fit       0.001640
 **** Fit       0.001493
 **** Fit       0.001260
 **** Fit       0.000970
 **** Fit       0.000652
 **** Fit       0.000334
 **** Fit       0.000044
 **** Fit      -0.000198
 **** Fit      -0.000636
 **** Fit      -0.000355
 **** Fit       0.000025
 **** Fit       0.000465
 **** Fit       0.000901
 **** Fit       0.001268
 **** Fit       0.001530
 **** Fit       0.001687
 **** Fit       0.001761
 **** Fit       0.001765
 **** Fit       0.001708
 **** Fit       0.001588
 **** Fit       0.001406
 **** Fit       0.001162
 **** Fit       0.000868
 **** Fit       0.000544
 **** Fit       0.000227
 **** Fit      -0.000050
 **** Fit      -0.000757
 **** Fit      -0.000528
 **** Fit      -0.000168
 **** Fit       0.000309
 **** Fit       0.000845
 **** Fit       0.001343
 **** Fit       0.001709
 **** Fit       0.001903
 **** Fit       0.001953
 **** Fit       0.001920
 **** Fit       0.001855
 **** Fit       0.001779
 **** Fit       0.001687
 **** Fit       0.001556
 **** Fit       0.001361
 **** Fit       0.001090
 **** Fit       0.000761
 **** Fit       0.000416
 **** Fit       0.000102
 **** Fit      -0.000146
 **** Fit      -0.000706
 **** Fit      -0.000430
 **** Fit      -0.000003
 **** Fit       0.000558
 **** Fit       0.001177
 **** Fit       0.001727
 **** Fit       0.002086
 **** Fit       0.002212
 **** Fit       0.002161
 **** Fit       0.002031
 **** Fit       0.001905
 **** Fit       0.001813
 **** Fit       0.001747
 **** Fit       0.001665
 **** Fit       0.001516
 **** Fit       0.001270
 **** Fit       0.000940
 **** Fit       0.000575
 **** Fit       0.000236
 **** Fit      -0.000037
 **** Fit      -0.000667
 **** Fit      -0.000367
 **** Fit       0.000093
 **** Fit       0.000695
 **** Fit       0.001352
 **** Fit       0.001919
 **** Fit       0.002262
 **** Fit       0.002337
 **** Fit       0.002217
 **** Fit       0.002026
 **** Fit       0.001862
 **** Fit       0.001764
 **** Fit       0.001719
 **** Fit       0.001674
 **** Fit       0.001564
 **** Fit       0.001347
 **** Fit       0.001031
 **** Fit       0.000668
 **** Fit       0.000325
 **** Fit       0.000046
 **** Fit      -0.000150
 **** Fit      -0.000649
 **** Fit      -0.000356
 **** Fit       0.000091
 **** Fit       0.000671
 **** Fit       0.001299
 **** Fit       0.001835
 **** Fit       0.002148
 **** Fit       0.002200
 **** Fit       0.002064
 **** Fit       0.001864
 **** Fit       0.001697
 **** Fit       0.001605
 **** Fit       0.001573
 **** Fit       0.001550
 **** Fit       0.001469
 **** Fit       0.001284
 **** Fit       0.001001
 **** Fit       0.000670
 **** Fit       0.000352
 **** Fit       0.000092
 **** Fit      -0.000091
 **** Fit      -0.000649
 **** Fit      -0.000390
 **** Fit       0.000000
 **** Fit       0.000501
 **** Fit       0.001041
 **** Fit       0.001501
 **** Fit       0.001776
 **** Fit       0.001831
 **** Fit       0.001727
 **** Fit       0.001565
 **** Fit       0.001426
 **** Fit       0.001349
 **** Fit       0.001323
 **** Fit       0.001306
 **** Fit       0.001242
 **** Fit       0.001092
 **** Fit       0.000860
 **** Fit       0.000585
 **** Fit       0.000319
 **** Fit       0.000101
 **** Fit      -0.000654
 **** Fit      -0.000447
 **** Fit      -0.000137
 **** Fit       0.000256
 **** Fit       0.000679
 **** Fit       0.001044
 **** Fit       0.001275
 **** Fit       0.001347
 **** Fit       0.001298
 **** Fit       0.001195
 **** Fit       0.001101
 **** Fit       0.001043
 **** Fit       0.001017
 **** Fit       0.000997
 **** Fit       0.000941
 **** Fit       0.000825
 **** Fit       0.000649
 **** Fit       0.000444
 **** Fit       0.000245
 **** Fit       0.000083
 **** Fit      -0.000497
 **** Fit      -0.000269
 **** Fit       0.000019
 **** Fit       0.000329
 **** Fit       0.000604
 **** Fit       0.000794
 **** Fit       0.000880
 **** Fit       0.000881
 **** Fit       0.000836
 **** Fit       0.000782
 **** Fit       0.000741
 **** Fit       0.000714
 **** Fit       0.000686
 **** Fit       0.000635
 **** Fit       0.000547
 **** Fit       0.000425
 **** Fit       0.000287
 **** Fit       0.000157
 **** Fit      -0.000356
 **** Fit      -0.000154
 **** Fit       0.000066
 **** Fit       0.000269
 **** Fit       0.000424
 **** Fit       0.000516
 **** Fit       0.000549
 **** Fit       0.000543
 **** Fit       0.000518
 **** Fit       0.000488
 **** Fit       0.000457
 **** Fit       0.000421
 **** Fit       0.000373
 **** Fit       0.000308
 **** Fit       0.000230
 **** Fit       0.000148
 **** Fit      -0.000243
 **** Fit      -0.000086
 **** Fit       0.000066
 **** Fit       0.000192
 **** Fit       0.000281
 **** Fit       0.000329
 **** Fit       0.000227
 **** Fit       0.000180
 **** Fit       0.000131
 **** Fit      -0.000221
 **** Fit      -0.000162
 **** Fit      -0.000153
 **** Fit      -0.000095
 **** Fit       0.000036
 **** Fit       0.000113
 **** Fit       0.000120
 **** Fit       0.000058
 **** Fit      -0.000054
 **** Fit      -0.000054
 **** Fit       0.000143
 **** Fit       0.000305
 **** Fit       0.000397
 **** Fit       0.000401
 **** Fit       0.000319
 **** Fit       0.000174
 **** Fit       0.000147
 **** Fit       0.000374
 **** Fit       0.000558
 **** Fit       0.000661
 **** Fit       0.000661
 **** Fit       0.000562
 **** Fit       0.000390
 **** Fit       0.000184
 **** Fit       0.000341
 **** Fit       0.000583
 **** Fit       0.000775
 **** Fit       0.000879
 **** Fit       0.000874
 **** Fit       0.000765
 **** Fit       0.000578
 **** Fit       0.000352
 **** Fit       0.000528
 **** Fit       0.000767
 **** Fit       0.000950
 **** Fit       0.001045
 **** Fit       0.001034
 **** Fit       0.000922
 **** Fit       0.000733
 **** Fit       0.000503
 **** Fit       0.000468
 **** Fit       0.000720
 **** Fit       0.000938
 **** Fit       0.001096
 **** Fit       0.001171
 **** Fit       0.001153
 **** Fit       0.001044
 **** Fit       0.000864
 **** Fit      -0.000121
 **** Fit       0.000145
 **** Fit       0.000426
 **** Fit       0.000694
 **** Fit       0.000928
 **** Fit       0.001110
 **** Fit       0.001230
 **** Fit       0.001277
 **** Fit       0.001248
 **** Fit       0.001146
 **** Fit      -0.000223
 **** Fit       0.000055
 **** Fit       0.000367
 **** Fit       0.000675
 **** Fit       0.000944
 **** Fit       0.001150
 **** Fit       0.001287
 **** Fit       0.001359
 **** Fit       0.001238
 **** Fit       0.001096
 **** Fit       0.000911
 **** Fit       0.000693
 **** Fit       0.000458
 **** Fit      -0.000359
 **** Fit      -0.000095
 **** Fit       0.000233
 **** Fit       0.000588
 **** Fit       0.000922
 **** Fit       0.001188
 **** Fit       0.001363
 **** Fit       0.001450
 **** Fit       0.001472
 **** Fit       0.001449
 **** Fit       0.001396
 **** Fit       0.001312
 **** Fit       0.001193
 **** Fit       0.001031
 **** Fit       0.000827
 **** Fit       0.000593
 **** Fit       0.000352
 **** Fit      -0.000287
 **** Fit       0.000012
 **** Fit       0.000378
 **** Fit       0.000767
 **** Fit       0.001118
 **** Fit       0.001377
 **** Fit       0.001520
 **** Fit       0.001562
 **** Fit       0.001538
 **** Fit       0.001486
 **** Fit       0.001422
 **** Fit       0.001349
 **** Fit       0.001251
 **** Fit       0.001113
 **** Fit       0.000925
 **** Fit       0.000697
 **** Fit       0.000452
 **** Fit       0.000221
 **** Fit      -0.000240
 **** Fit       0.000074
 **** Fit       0.000455
 **** Fit       0.000856
 **** Fit       0.001209
 **** Fit       0.001455
 **** Fit       0.001572
 **** Fit       0.001580
 **** Fit       0.001527
 **** Fit       0.001456
 **** Fit       0.001388
 **** Fit       0.001325
 **** Fit       0.001247
 **** Fit       0.001130
 **** Fit       0.000962
 **** Fit       0.000747
 **** Fit       0.000510
 **** Fit       0.000282
 **** Fit      -0.000228
 **** Fit       0.000077
 **** Fit       0.000445
 **** Fit       0.000829
 **** Fit       0.001162
 **** Fit       0.001389
 **** Fit       0.001489
 **** Fit       0.001484
 **** Fit       0.001422
 **** Fit       0.001347
 **** Fit       0.001282
 **** Fit       0.001228
 **** Fit       0.001166
 **** Fit       0.001069
 **** Fit       0.000923
 **** Fit       0.000731
 **** Fit       0.000515
 **** Fit       0.000305
 **** Fit      -0.000246
 **** Fit       0.000028
 **** Fit       0.000356
 **** Fit       0.000696
 **** Fit       0.000992
 **** Fit       0.001194
 **** Fit       0.001285
 **** Fit       0.001285
 **** Fit       0.001233
 **** Fit       0.001168
 **** Fit       0.001113
 **** Fit       0.001068
 **** Fit       0.001016
 **** Fit       0.000936
 **** Fit       0.000813
 **** Fit       0.000652
 **** Fit       0.000469
 **** Fit       0.000290
 **** Fit      -0.000052
 **** Fit       0.000220
 **** Fit       0.000502
 **** Fit       0.000750
 **** Fit       0.000925
 **** Fit       0.001013
 **** Fit       0.001027
 **** Fit       0.000996
 **** Fit       0.000950
 **** Fit       0.000868
 **** Fit       0.000823
 **** Fit       0.000757
 **** Fit       0.000659
 **** Fit       0.000531
 **** Fit       0.000388
 **** Fit      -0.000134
 **** Fit       0.000079
 **** Fit       0.000302
 **** Fit       0.000501
 **** Fit       0.000649
 **** Fit       0.000734
 **** Fit       0.000763
 **** Fit       0.000754
 **** Fit       0.000623
 **** Fit       0.000567
 **** Fit       0.000491
 **** Fit       0.000396
 **** Fit       0.000137
 **** Fit       0.000294
 **** Fit       0.000417
 **** Fit       0.000498
 **** Fit       0.000538
 **** Fit       0.000506
 **** Fit       0.000705
 **** Fit       0.000422
 **** Fit       0.000657
 **** Fit       0.000854
 **** Fit       0.000998
 **** Fit       0.001086
 **** Fit       0.000266
 **** Fit       0.000529
 **** Fit       0.000770
 **** Fit       0.000962
 **** Fit       0.001089
 **** Fit       0.001154
 **** Fit       0.000316
 **** Fit       0.000581
 **** Fit       0.000820
 **** Fit       0.001003
 **** Fit       0.001115
 **** Fit       0.001163
 **** Fit       0.001163
 **** Fit       0.000314
 **** Fit       0.000569
 **** Fit       0.000795
 **** Fit       0.000964
 **** Fit       0.001065
 **** Fit       0.001102
 **** Fit       0.001095
 **** Fit       0.000266
 **** Fit       0.000497
 **** Fit       0.000701
 **** Fit       0.000855
 **** Fit       0.000946
 **** Fit       0.000980
 **** Fit       0.000388
 **** Fit       0.000565
 **** Fit       0.000700
 **** Fit       0.000784
 -----------------------------------------------------------------
 Leave Link  602 at Wed May 17 13:57:02 2017, MaxMem=   33554432 cpu:      90.8
 (Enter /scratch/michal/g09/l9999.exe)

 Test job not archived.
 1\1\GINC-RZEPICHA\SP\RHF\6-31G(d)\C27H46O2\MICHAL\17-May-2017\0\\#P HF
 /6-31G* SCF(Conver=6) NoSymm Test Pop=chelpg IOp(6/33=2) GFInput GFPri
 nt\\MEP - Input generated by R.E.D.-III.x MOLECULE\\0,1\O,0,0.,0.,0.\H
 ,0,-0.47340085,0.45474486,-0.70943329\O,0,-3.26859184,5.86752766,0.\H,
 0,-2.96886689,6.55307424,0.61348036\C,0,4.18370328,1.136364,-0.3719471
 5\C,0,2.79649287,0.58083386,0.0560904\H,0,2.35150013,0.16656361,-0.859
 85283\C,0,1.80307433,1.6321093,0.56596973\H,0,2.19564211,2.07993252,1.
 49051969\C,0,1.59972151,2.74572197,-0.49212415\H,0,1.06799667,2.269602
 82,-1.33279424\C,0,4.89371083,-0.20173959,-0.7813748\H,0,4.45005168,-0
 .49766942,-1.74531142\C,0,3.91323346,2.14719277,-1.50566567\H,0,3.4863
 7772,1.60669392,-2.36276209\H,0,4.83448632,2.61795403,-1.86286214\C,0,
 0.6570403,3.89100646,0.01897107\C,0,3.1223649,-0.62172457,0.95182403\H
 ,0,2.29909418,-1.34070851,0.98466861\H,0,3.31352239,-0.30228341,1.9843
 6023\C,0,2.9425109,3.26067805,-1.06173582\H,0,3.44842089,3.88153259,-0
 .31511559\H,0,2.75141284,3.91703071,-1.91864143\C,0,4.40348638,-1.2180
 6207,0.30695237\H,0,5.18478976,-1.37514573,1.06046894\H,0,4.20152979,-
 2.19752389,-0.13635405\C,0,0.4503688,0.99545287,0.94912169\H,0,0.58546
 051,0.42253504,1.87372272\C,0,6.432767,-0.23074794,-0.97154666\H,0,6.8
 9640982,0.,0.\C,0,4.94285085,1.80860611,0.79492789\H,0,4.37159315,2.62
 120646,1.2511569\H,0,5.18060987,1.09630559,1.59077097\H,0,5.88959147,2
 .23571001,0.44770887\C,0,-0.56089642,3.29939334,0.74085422\C,0,0.14975
 074,4.70610157,-1.21077954\H,0,-0.20197875,3.99633151,-1.97248399\H,0,
 0.99014654,5.24783968,-1.65782473\C,0,-0.62618468,2.02184343,1.1507313
 9\H,0,-1.53343738,1.66539376,1.63772527\C,0,1.3924002,4.84081064,1.003
 51829\H,0,2.15805897,5.43051502,0.49055864\H,0,0.70262803,5.54733073,1
 .47178998\H,0,1.87472343,4.27980354,1.80964417\C,0,-1.7264726,4.236741
 36,0.99830979\H,0,-2.57058456,3.68358457,1.42164269\H,0,-1.43833738,4.
 99280502,1.74610792\C,0,-0.98799748,5.69380257,-0.91062129\H,0,-0.6386
 6355,6.49029097,-0.23709083\H,0,-1.31192793,6.1849316,-1.83519664\C,0,
 6.89453431,-1.65553041,-1.36787915\H,0,6.45497119,-2.38238616,-0.67482
 949\H,0,6.4799059,-1.89142605,-2.35877583\C,0,-2.17785167,4.98242212,-
 0.2668364\H,0,-2.59034933,4.25693166,-0.97883875\C,0,6.93982809,0.8006
 0947,-1.99490864\H,0,6.45122823,0.66077632,-2.96762462\H,0,8.01887458,
 0.70752536,-2.14944935\H,0,6.75278319,1.82739766,-1.67312762\C,0,8.417
 33356,-1.87397748,-1.36920444\H,0,8.89014623,-1.29001142,-2.16719866\H
 ,0,8.82849192,-1.48284187,-0.4275869\C,0,8.84026657,-3.34952709,-1.494
 07068\H,0,8.42487919,-3.90520863,-0.64089839\H,0,9.93405865,-3.4118117
 3,-1.3929143\C,0,8.43461415,-4.07886457,-2.7926342\H,0,7.3401458,-4.03
 18121,-2.88565087\C,0,8.82612938,-5.56308478,-2.71178695\H,0,9.9142469
 3,-5.67622654,-2.6215809\H,0,8.50900926,-6.1081714,-3.60821335\H,0,8.3
 6814788,-6.05036936,-1.84331745\C,0,9.04284194,-3.42871794,-4.04544039
 \H,0,10.13936959,-3.42885116,-3.99078455\H,0,8.75591797,-3.9778122,-4.
 94951193\H,0,8.71589431,-2.39164909,-4.1731417\\Version=EM64L-G09RevC.
 01\HF=-1198.9272223\RMSD=4.857e-07\Dipole=0.5617863,0.8281828,0.157240
 5\Quadrupole=-7.7746264,5.1939219,2.5807045,7.6419335,-0.4706158,3.243
 0415\PG=C01 [X(C27H46O2)]\\@


 WAR ES EIN GOTT DER DIESE ZEICHEN SCHRIEB?
          - LUDWIG BOLTZMANN, QUOTING GOETHE, ABOUT MAXWELL'S EQUATIONS.
 Job cpu time:  0 days  0 hours 39 minutes 48.8 seconds.
 File lengths (MBytes):  RWF=    151 Int=      0 D2E=      0 Chk=     11 Scr=      1
 Normal termination of Gaussian 09 at Wed May 17 13:57:02 2017.
