 Entering Gaussian System, Link 0=/scratch/michal/g09//g09
 Input=JOB2-gau_m1-20-4.com
 Output=JOB2-gau_m1-20-4.log
 Initial command:
 /scratch/michal/g09/l1.exe /scratch/michal/gauss_scratch/Gau-35319.inp -scrdir=/scratch/michal/gauss_scratch/
 Entering Link 1 = /scratch/michal/g09/l1.exe PID=     35321.
  
 Copyright (c) 1988,1990,1992,1993,1995,1998,2003,2009,2011,
            Gaussian, Inc.  All Rights Reserved.
  
 This is part of the Gaussian(R) 09 program.  It is based on
 the Gaussian(R) 03 system (copyright 2003, Gaussian, Inc.),
 the Gaussian(R) 98 system (copyright 1998, Gaussian, Inc.),
 the Gaussian(R) 94 system (copyright 1995, Gaussian, Inc.),
 the Gaussian 92(TM) system (copyright 1992, Gaussian, Inc.),
 the Gaussian 90(TM) system (copyright 1990, Gaussian, Inc.),
 the Gaussian 88(TM) system (copyright 1988, Gaussian, Inc.),
 the Gaussian 86(TM) system (copyright 1986, Carnegie Mellon
 University), and the Gaussian 82(TM) system (copyright 1983,
 Carnegie Mellon University). Gaussian is a federally registered
 trademark of Gaussian, Inc.
  
 This software contains proprietary and confidential information,
 including trade secrets, belonging to Gaussian, Inc.
  
 This software is provided under written license and may be
 used, copied, transmitted, or stored only in accord with that
 written license.
  
 The following legend is applicable only to US Government
 contracts under FAR:
  
                    RESTRICTED RIGHTS LEGEND
  
 Use, reproduction and disclosure by the US Government is
 subject to restrictions as set forth in subparagraphs (a)
 and (c) of the Commercial Computer Software - Restricted
 Rights clause in FAR 52.227-19.
  
 Gaussian, Inc.
 340 Quinnipiac St., Bldg. 40, Wallingford CT 06492
  
  
 ---------------------------------------------------------------
 Warning -- This program may not be used in any manner that
 competes with the business of Gaussian, Inc. or will provide
 assistance to any competitor of Gaussian, Inc.  The licensee
 of this program is prohibited from giving any competitor of
 Gaussian, Inc. access to this program.  By using this program,
 the user acknowledges that Gaussian, Inc. is engaged in the
 business of creating and licensing software in the field of
 computational chemistry and represents and warrants to the
 licensee that it is not a competitor of Gaussian, Inc. and that
 it will not use this program in any manner prohibited above.
 ---------------------------------------------------------------
  

 Cite this work as:
 Gaussian 09, Revision C.01,
 M. J. Frisch, G. W. Trucks, H. B. Schlegel, G. E. Scuseria, 
 M. A. Robb, J. R. Cheeseman, G. Scalmani, V. Barone, B. Mennucci, 
 G. A. Petersson, H. Nakatsuji, M. Caricato, X. Li, H. P. Hratchian, 
 A. F. Izmaylov, J. Bloino, G. Zheng, J. L. Sonnenberg, M. Hada, 
 M. Ehara, K. Toyota, R. Fukuda, J. Hasegawa, M. Ishida, T. Nakajima, 
 Y. Honda, O. Kitao, H. Nakai, T. Vreven, J. A. Montgomery, Jr., 
 J. E. Peralta, F. Ogliaro, M. Bearpark, J. J. Heyd, E. Brothers, 
 K. N. Kudin, V. N. Staroverov, T. Keith, R. Kobayashi, J. Normand, 
 K. Raghavachari, A. Rendell, J. C. Burant, S. S. Iyengar, J. Tomasi, 
 M. Cossi, N. Rega, J. M. Millam, M. Klene, J. E. Knox, J. B. Cross, 
 V. Bakken, C. Adamo, J. Jaramillo, R. Gomperts, R. E. Stratmann, 
 O. Yazyev, A. J. Austin, R. Cammi, C. Pomelli, J. W. Ochterski, 
 R. L. Martin, K. Morokuma, V. G. Zakrzewski, G. A. Voth, 
 P. Salvador, J. J. Dannenberg, S. Dapprich, A. D. Daniels, 
 O. Farkas, J. B. Foresman, J. V. Ortiz, J. Cioslowski, 
 and D. J. Fox, Gaussian, Inc., Wallingford CT, 2010.
 
 ******************************************
 Gaussian 09:  EM64L-G09RevC.01 23-Sep-2011
                17-May-2017 
 ******************************************
 %Mem=256MB
 %NProc=48
 Will use up to   48 processors via shared memory.
 ----------------------------------------------------------------------
 #P HF/6-31G* SCF(Conver=6) NoSymm Test Pop=chelpg IOp(6/33=2) GFInput 
 GFPrint
 ----------------------------------------------------------------------
 1/38=1/1;
 2/12=2,15=1,17=6,18=5,40=1/2;
 3/5=1,6=6,7=1,11=9,16=1,24=110,25=1,30=1/1,2,3;
 4//1;
 5/5=2,6=6,38=5/2;
 6/7=2,8=2,9=2,10=2,15=8,20=3,28=1,33=2/1,2;
 99/5=1,9=1/99;
 Leave Link    1 at Wed May 17 13:28:46 2017, MaxMem=   33554432 cpu:       5.3
 (Enter /scratch/michal/g09/l101.exe)
 ----------------------------------------------
 MEP - Input generated by R.E.D.-III.x MOLECULE
 ----------------------------------------------
 Charge =  0 Multiplicity = 1
 Symbolic Z-Matrix:
 O                     0.        0.        0. 
 H                    -0.46661   0.46055  -0.7102 
 O                    -3.21439   5.89601   0. 
 H                    -2.91028   6.5782    0.61506 
 C                     4.19392   1.09979  -0.35622 
 C                     2.80144   0.55441   0.06639 
 H                     2.35539   0.14751  -0.85226 
 C                     1.81643   1.6138    0.57517 
 H                     2.21037   2.05633   1.50163 
 C                     1.62679   2.73054  -0.48267 
 H                     1.09236   2.25992  -1.32471 
 C                     4.89132  -0.24432  -0.76422 
 H                     4.43232  -0.53852  -1.71954 
 C                     3.9382    2.11248  -1.4908 
 H                     3.51021   1.57645  -2.35013 
 H                     4.86665   2.5739   -1.84248 
 C                     0.69343   3.88399   0.02724 
 C                     3.11331  -0.65527   0.95947 
 H                     2.28858  -1.37321   0.97338 
 H                     3.28707  -0.34376   1.99751 
 C                     2.97529   3.23422  -1.05032 
 H                     3.48469   3.85221  -0.30374 
 H                     2.79058   3.8909   -1.90836 
 C                     4.40676  -1.24823   0.33405 
 H                     5.18277  -1.3798    1.09753 
 H                     4.22622  -2.23919  -0.09378 
 C                     0.4566    0.98923   0.95267 
 H                     0.58349   0.41308   1.87642 
 C                     6.42741  -0.27794  -0.96046 
 H                     6.88576   0.        0. 
 C                     4.95525   1.76697   0.81184 
 H                     4.39066   2.58651   1.26387 
 H                     5.18326   1.05481   1.61068 
 H                     5.90709   2.18432   0.46605 
 C                    -0.53193   3.3029    0.74529 
 C                     0.19671   4.70514  -1.20288 
 H                    -0.15924   3.9995   -1.96644 
 H                     1.04312   5.23998  -1.64685 
 C                    -0.61074   2.02542   1.15297 
 H                    -1.52278   1.67704   1.63684 
 C                     1.4353    4.82596   1.01433 
 H                     2.20835   5.40797   0.50372 
 H                     0.75143   5.5394    1.48076 
 H                     1.90957   4.25987   1.82163 
 C                    -1.68943   4.25072   1.00084 
 H                    -2.53957   3.70487   1.42158 
 H                    -1.3963    5.00344   1.75006 
 C                    -0.93297   5.70273  -0.90466 
 H                    -0.57831   6.49523  -0.22924 
 H                    -1.24994   6.19776  -1.82956 
 C                     6.94888  -1.7086   -1.26742 
 H                     8.04714  -1.65898  -1.30172 
 H                     6.70729  -2.36502  -0.42398 
 C                    -2.13087   5.00144  -0.26475 
 H                    -2.54797   4.28029  -0.97847 
 C                     6.94192   0.7202   -2.01497 
 H                     6.40451   0.6279   -2.96525 
 H                     8.00586   0.54873  -2.21744 
 H                     6.83911   1.75566  -1.68057 
 C                     6.45295  -2.35086  -2.57434 
 H                     5.36837  -2.50911  -2.52911 
 H                     6.61898  -1.65656  -3.40755 
 C                     7.15692  -3.67528  -2.92705 
 H                     8.23585  -3.48124  -3.01479 
 H                     6.82494  -3.99469  -3.92619 
 C                     6.9523   -4.85671  -1.95478 
 H                     7.27887  -4.54143  -0.9535 
 C                     7.83338  -6.0451   -2.37253 
 H                     7.55381  -6.40738  -3.37031 
 H                     7.72911  -6.8833   -1.67408 
 H                     8.89267  -5.7653   -2.40528 
 C                     5.48007  -5.28724  -1.85778 
 H                     5.10019  -5.59754  -2.83998 
 H                     5.36434  -6.13601  -1.17417 
 H                     4.83638  -4.48094  -1.49191 
 
 NAtoms=     75 NQM=        0 NQMF=       0 NMMI=     75 NMMIF=      0
                NMic=       0 NMicF=      0.
                    Isotopes and Nuclear Properties:
 (Nuclear quadrupole moments (NQMom) in fm**2, nuclear magnetic moments (NMagM)
  in nuclear magnetons)

  Atom         1           2           3           4           5           6           7           8           9          10
 IAtWgt=          16           1          16           1          12          12           1          12           1          12
 AtmWgt=  15.9949146   1.0078250  15.9949146   1.0078250  12.0000000  12.0000000   1.0078250  12.0000000   1.0078250  12.0000000
 NucSpn=           0           1           0           1           0           0           1           0           1           0
 AtZEff=   0.0000000   0.0000000   0.0000000   0.0000000   0.0000000   0.0000000   0.0000000   0.0000000   0.0000000   0.0000000
 NQMom=    0.0000000   0.0000000   0.0000000   0.0000000   0.0000000   0.0000000   0.0000000   0.0000000   0.0000000   0.0000000
 NMagM=    0.0000000   2.7928460   0.0000000   2.7928460   0.0000000   0.0000000   2.7928460   0.0000000   2.7928460   0.0000000

  Atom        11          12          13          14          15          16          17          18          19          20
 IAtWgt=           1          12           1          12           1           1          12          12           1           1
 AtmWgt=   1.0078250  12.0000000   1.0078250  12.0000000   1.0078250   1.0078250  12.0000000  12.0000000   1.0078250   1.0078250
 NucSpn=           1           0           1           0           1           1           0           0           1           1
 AtZEff=   0.0000000   0.0000000   0.0000000   0.0000000   0.0000000   0.0000000   0.0000000   0.0000000   0.0000000   0.0000000
 NQMom=    0.0000000   0.0000000   0.0000000   0.0000000   0.0000000   0.0000000   0.0000000   0.0000000   0.0000000   0.0000000
 NMagM=    2.7928460   0.0000000   2.7928460   0.0000000   2.7928460   2.7928460   0.0000000   0.0000000   2.7928460   2.7928460

  Atom        21          22          23          24          25          26          27          28          29          30
 IAtWgt=          12           1           1          12           1           1          12           1          12           1
 AtmWgt=  12.0000000   1.0078250   1.0078250  12.0000000   1.0078250   1.0078250  12.0000000   1.0078250  12.0000000   1.0078250
 NucSpn=           0           1           1           0           1           1           0           1           0           1
 AtZEff=   0.0000000   0.0000000   0.0000000   0.0000000   0.0000000   0.0000000   0.0000000   0.0000000   0.0000000   0.0000000
 NQMom=    0.0000000   0.0000000   0.0000000   0.0000000   0.0000000   0.0000000   0.0000000   0.0000000   0.0000000   0.0000000
 NMagM=    0.0000000   2.7928460   2.7928460   0.0000000   2.7928460   2.7928460   0.0000000   2.7928460   0.0000000   2.7928460

  Atom        31          32          33          34          35          36          37          38          39          40
 IAtWgt=          12           1           1           1          12          12           1           1          12           1
 AtmWgt=  12.0000000   1.0078250   1.0078250   1.0078250  12.0000000  12.0000000   1.0078250   1.0078250  12.0000000   1.0078250
 NucSpn=           0           1           1           1           0           0           1           1           0           1
 AtZEff=   0.0000000   0.0000000   0.0000000   0.0000000   0.0000000   0.0000000   0.0000000   0.0000000   0.0000000   0.0000000
 NQMom=    0.0000000   0.0000000   0.0000000   0.0000000   0.0000000   0.0000000   0.0000000   0.0000000   0.0000000   0.0000000
 NMagM=    0.0000000   2.7928460   2.7928460   2.7928460   0.0000000   0.0000000   2.7928460   2.7928460   0.0000000   2.7928460

  Atom        41          42          43          44          45          46          47          48          49          50
 IAtWgt=          12           1           1           1          12           1           1          12           1           1
 AtmWgt=  12.0000000   1.0078250   1.0078250   1.0078250  12.0000000   1.0078250   1.0078250  12.0000000   1.0078250   1.0078250
 NucSpn=           0           1           1           1           0           1           1           0           1           1
 AtZEff=   0.0000000   0.0000000   0.0000000   0.0000000   0.0000000   0.0000000   0.0000000   0.0000000   0.0000000   0.0000000
 NQMom=    0.0000000   0.0000000   0.0000000   0.0000000   0.0000000   0.0000000   0.0000000   0.0000000   0.0000000   0.0000000
 NMagM=    0.0000000   2.7928460   2.7928460   2.7928460   0.0000000   2.7928460   2.7928460   0.0000000   2.7928460   2.7928460

  Atom        51          52          53          54          55          56          57          58          59          60
 IAtWgt=          12           1           1          12           1          12           1           1           1          12
 AtmWgt=  12.0000000   1.0078250   1.0078250  12.0000000   1.0078250  12.0000000   1.0078250   1.0078250   1.0078250  12.0000000
 NucSpn=           0           1           1           0           1           0           1           1           1           0
 AtZEff=   0.0000000   0.0000000   0.0000000   0.0000000   0.0000000   0.0000000   0.0000000   0.0000000   0.0000000   0.0000000
 NQMom=    0.0000000   0.0000000   0.0000000   0.0000000   0.0000000   0.0000000   0.0000000   0.0000000   0.0000000   0.0000000
 NMagM=    0.0000000   2.7928460   2.7928460   0.0000000   2.7928460   0.0000000   2.7928460   2.7928460   2.7928460   0.0000000

  Atom        61          62          63          64          65          66          67          68          69          70
 IAtWgt=           1           1          12           1           1          12           1          12           1           1
 AtmWgt=   1.0078250   1.0078250  12.0000000   1.0078250   1.0078250  12.0000000   1.0078250  12.0000000   1.0078250   1.0078250
 NucSpn=           1           1           0           1           1           0           1           0           1           1
 AtZEff=   0.0000000   0.0000000   0.0000000   0.0000000   0.0000000   0.0000000   0.0000000   0.0000000   0.0000000   0.0000000
 NQMom=    0.0000000   0.0000000   0.0000000   0.0000000   0.0000000   0.0000000   0.0000000   0.0000000   0.0000000   0.0000000
 NMagM=    2.7928460   2.7928460   0.0000000   2.7928460   2.7928460   0.0000000   2.7928460   0.0000000   2.7928460   2.7928460

  Atom        71          72          73          74          75
 IAtWgt=           1          12           1           1           1
 AtmWgt=   1.0078250  12.0000000   1.0078250   1.0078250   1.0078250
 NucSpn=           1           0           1           1           1
 AtZEff=   0.0000000   0.0000000   0.0000000   0.0000000   0.0000000
 NQMom=    0.0000000   0.0000000   0.0000000   0.0000000   0.0000000
 NMagM=    2.7928460   0.0000000   2.7928460   2.7928460   2.7928460
 Leave Link  101 at Wed May 17 13:28:46 2017, MaxMem=   33554432 cpu:       7.0
 (Enter /scratch/michal/g09/l202.exe)
 Symmetry turned off by external request.
 Stoichiometry    C27H46O2
 Framework group  C1[X(C27H46O2)]
 Deg. of freedom   219
 Full point group                 C1      NOp   1
                          Input orientation:                          
 ---------------------------------------------------------------------
 Center     Atomic      Atomic             Coordinates (Angstroms)
 Number     Number       Type             X           Y           Z
 ---------------------------------------------------------------------
      1          8           0        0.000000    0.000000    0.000000
      2          1           0       -0.466610    0.460550   -0.710196
      3          8           0       -3.214389    5.896006    0.000000
      4          1           0       -2.910285    6.578204    0.615056
      5          6           0        4.193921    1.099793   -0.356218
      6          6           0        2.801436    0.554408    0.066389
      7          1           0        2.355387    0.147514   -0.852256
      8          6           0        1.816435    1.613796    0.575172
      9          1           0        2.210365    2.056332    1.501627
     10          6           0        1.626793    2.730542   -0.482666
     11          1           0        1.092362    2.259920   -1.324709
     12          6           0        4.891318   -0.244322   -0.764216
     13          1           0        4.432317   -0.538524   -1.719545
     14          6           0        3.938202    2.112479   -1.490797
     15          1           0        3.510213    1.576455   -2.350133
     16          1           0        4.866651    2.573903   -1.842478
     17          6           0        0.693425    3.883987    0.027240
     18          6           0        3.113313   -0.655268    0.959469
     19          1           0        2.288582   -1.373215    0.973379
     20          1           0        3.287069   -0.343756    1.997509
     21          6           0        2.975287    3.234223   -1.050322
     22          1           0        3.484690    3.852214   -0.303742
     23          1           0        2.790581    3.890904   -1.908364
     24          6           0        4.406757   -1.248234    0.334054
     25          1           0        5.182773   -1.379804    1.097534
     26          1           0        4.226223   -2.239194   -0.093775
     27          6           0        0.456597    0.989229    0.952669
     28          1           0        0.583491    0.413076    1.876422
     29          6           0        6.427408   -0.277943   -0.960455
     30          1           0        6.885756    0.000000    0.000000
     31          6           0        4.955246    1.766973    0.811844
     32          1           0        4.390657    2.586513    1.263868
     33          1           0        5.183262    1.054812    1.610685
     34          1           0        5.907086    2.184318    0.466051
     35          6           0       -0.531930    3.302902    0.745286
     36          6           0        0.196714    4.705143   -1.202877
     37          1           0       -0.159239    3.999502   -1.966445
     38          1           0        1.043121    5.239977   -1.646855
     39          6           0       -0.610739    2.025420    1.152965
     40          1           0       -1.522776    1.677040    1.636836
     41          6           0        1.435301    4.825961    1.014329
     42          1           0        2.208353    5.407967    0.503720
     43          1           0        0.751431    5.539397    1.480757
     44          1           0        1.909572    4.259868    1.821625
     45          6           0       -1.689430    4.250720    1.000844
     46          1           0       -2.539574    3.704872    1.421583
     47          1           0       -1.396300    5.003436    1.750063
     48          6           0       -0.932972    5.702725   -0.904660
     49          1           0       -0.578306    6.495233   -0.229236
     50          1           0       -1.249941    6.197758   -1.829560
     51          6           0        6.948878   -1.708604   -1.267425
     52          1           0        8.047140   -1.658982   -1.301724
     53          1           0        6.707290   -2.365018   -0.423980
     54          6           0       -2.130869    5.001437   -0.264754
     55          1           0       -2.547969    4.280288   -0.978474
     56          6           0        6.941922    0.720202   -2.014965
     57          1           0        6.404508    0.627897   -2.965251
     58          1           0        8.005863    0.548726   -2.217442
     59          1           0        6.839110    1.755658   -1.680567
     60          6           0        6.452948   -2.350865   -2.574344
     61          1           0        5.368371   -2.509110   -2.529109
     62          1           0        6.618981   -1.656559   -3.407551
     63          6           0        7.156923   -3.675278   -2.927048
     64          1           0        8.235854   -3.481242   -3.014790
     65          1           0        6.824942   -3.994690   -3.926194
     66          6           0        6.952302   -4.856707   -1.954778
     67          1           0        7.278871   -4.541428   -0.953495
     68          6           0        7.833379   -6.045099   -2.372526
     69          1           0        7.553808   -6.407385   -3.370308
     70          1           0        7.729114   -6.883298   -1.674079
     71          1           0        8.892671   -5.765296   -2.405277
     72          6           0        5.480073   -5.287236   -1.857776
     73          1           0        5.100192   -5.597545   -2.839979
     74          1           0        5.364340   -6.136007   -1.174173
     75          1           0        4.836384   -4.480938   -1.491913
 ---------------------------------------------------------------------
 Rotational constants (GHZ):      0.4178527      0.0605664      0.0571255
 Leave Link  202 at Wed May 17 13:28:46 2017, MaxMem=   33554432 cpu:       0.2
 (Enter /scratch/michal/g09/l301.exe)
 Standard basis: 6-31G(d) (6D, 7F)
 Ernie: Thresh=  0.10000D-02 Tol=  0.10000D-05 Strict=F.
 AO basis set in the form of general basis input (Overlap normalization):
      1 0
 S   6 1.00       0.000000000000
      0.5484671660D+04  0.1831074430D-02
      0.8252349460D+03  0.1395017220D-01
      0.1880469580D+03  0.6844507810D-01
      0.5296450000D+02  0.2327143360D+00
      0.1689757040D+02  0.4701928980D+00
      0.5799635340D+01  0.3585208530D+00
 SP   3 1.00       0.000000000000
      0.1553961625D+02 -0.1107775495D+00  0.7087426823D-01
      0.3599933586D+01 -0.1480262627D+00  0.3397528391D+00
      0.1013761750D+01  0.1130767015D+01  0.7271585773D+00
 SP   1 1.00       0.000000000000
      0.2700058226D+00  0.1000000000D+01  0.1000000000D+01
 D   1 1.00       0.000000000000
      0.8000000000D+00  0.1000000000D+01
 ****
      2 0
 S   3 1.00       0.000000000000
      0.1873113696D+02  0.3349460434D-01
      0.2825394365D+01  0.2347269535D+00
      0.6401216923D+00  0.8137573261D+00
 S   1 1.00       0.000000000000
      0.1612777588D+00  0.1000000000D+01
 ****
      3 0
 S   6 1.00       0.000000000000
      0.5484671660D+04  0.1831074430D-02
      0.8252349460D+03  0.1395017220D-01
      0.1880469580D+03  0.6844507810D-01
      0.5296450000D+02  0.2327143360D+00
      0.1689757040D+02  0.4701928980D+00
      0.5799635340D+01  0.3585208530D+00
 SP   3 1.00       0.000000000000
      0.1553961625D+02 -0.1107775495D+00  0.7087426823D-01
      0.3599933586D+01 -0.1480262627D+00  0.3397528391D+00
      0.1013761750D+01  0.1130767015D+01  0.7271585773D+00
 SP   1 1.00       0.000000000000
      0.2700058226D+00  0.1000000000D+01  0.1000000000D+01
 D   1 1.00       0.000000000000
      0.8000000000D+00  0.1000000000D+01
 ****
      4 0
 S   3 1.00       0.000000000000
      0.1873113696D+02  0.3349460434D-01
      0.2825394365D+01  0.2347269535D+00
      0.6401216923D+00  0.8137573261D+00
 S   1 1.00       0.000000000000
      0.1612777588D+00  0.1000000000D+01
 ****
      5 0
 S   6 1.00       0.000000000000
      0.3047524880D+04  0.1834737132D-02
      0.4573695180D+03  0.1403732281D-01
      0.1039486850D+03  0.6884262226D-01
      0.2921015530D+02  0.2321844432D+00
      0.9286662960D+01  0.4679413484D+00
      0.3163926960D+01  0.3623119853D+00
 SP   3 1.00       0.000000000000
      0.7868272350D+01 -0.1193324198D+00  0.6899906659D-01
      0.1881288540D+01 -0.1608541517D+00  0.3164239610D+00
      0.5442492580D+00  0.1143456438D+01  0.7443082909D+00
 SP   1 1.00       0.000000000000
      0.1687144782D+00  0.1000000000D+01  0.1000000000D+01
 D   1 1.00       0.000000000000
      0.8000000000D+00  0.1000000000D+01
 ****
      6 0
 S   6 1.00       0.000000000000
      0.3047524880D+04  0.1834737132D-02
      0.4573695180D+03  0.1403732281D-01
      0.1039486850D+03  0.6884262226D-01
      0.2921015530D+02  0.2321844432D+00
      0.9286662960D+01  0.4679413484D+00
      0.3163926960D+01  0.3623119853D+00
 SP   3 1.00       0.000000000000
      0.7868272350D+01 -0.1193324198D+00  0.6899906659D-01
      0.1881288540D+01 -0.1608541517D+00  0.3164239610D+00
      0.5442492580D+00  0.1143456438D+01  0.7443082909D+00
 SP   1 1.00       0.000000000000
      0.1687144782D+00  0.1000000000D+01  0.1000000000D+01
 D   1 1.00       0.000000000000
      0.8000000000D+00  0.1000000000D+01
 ****
      7 0
 S   3 1.00       0.000000000000
      0.1873113696D+02  0.3349460434D-01
      0.2825394365D+01  0.2347269535D+00
      0.6401216923D+00  0.8137573261D+00
 S   1 1.00       0.000000000000
      0.1612777588D+00  0.1000000000D+01
 ****
      8 0
 S   6 1.00       0.000000000000
      0.3047524880D+04  0.1834737132D-02
      0.4573695180D+03  0.1403732281D-01
      0.1039486850D+03  0.6884262226D-01
      0.2921015530D+02  0.2321844432D+00
      0.9286662960D+01  0.4679413484D+00
      0.3163926960D+01  0.3623119853D+00
 SP   3 1.00       0.000000000000
      0.7868272350D+01 -0.1193324198D+00  0.6899906659D-01
      0.1881288540D+01 -0.1608541517D+00  0.3164239610D+00
      0.5442492580D+00  0.1143456438D+01  0.7443082909D+00
 SP   1 1.00       0.000000000000
      0.1687144782D+00  0.1000000000D+01  0.1000000000D+01
 D   1 1.00       0.000000000000
      0.8000000000D+00  0.1000000000D+01
 ****
      9 0
 S   3 1.00       0.000000000000
      0.1873113696D+02  0.3349460434D-01
      0.2825394365D+01  0.2347269535D+00
      0.6401216923D+00  0.8137573261D+00
 S   1 1.00       0.000000000000
      0.1612777588D+00  0.1000000000D+01
 ****
     10 0
 S   6 1.00       0.000000000000
      0.3047524880D+04  0.1834737132D-02
      0.4573695180D+03  0.1403732281D-01
      0.1039486850D+03  0.6884262226D-01
      0.2921015530D+02  0.2321844432D+00
      0.9286662960D+01  0.4679413484D+00
      0.3163926960D+01  0.3623119853D+00
 SP   3 1.00       0.000000000000
      0.7868272350D+01 -0.1193324198D+00  0.6899906659D-01
      0.1881288540D+01 -0.1608541517D+00  0.3164239610D+00
      0.5442492580D+00  0.1143456438D+01  0.7443082909D+00
 SP   1 1.00       0.000000000000
      0.1687144782D+00  0.1000000000D+01  0.1000000000D+01
 D   1 1.00       0.000000000000
      0.8000000000D+00  0.1000000000D+01
 ****
     11 0
 S   3 1.00       0.000000000000
      0.1873113696D+02  0.3349460434D-01
      0.2825394365D+01  0.2347269535D+00
      0.6401216923D+00  0.8137573261D+00
 S   1 1.00       0.000000000000
      0.1612777588D+00  0.1000000000D+01
 ****
     12 0
 S   6 1.00       0.000000000000
      0.3047524880D+04  0.1834737132D-02
      0.4573695180D+03  0.1403732281D-01
      0.1039486850D+03  0.6884262226D-01
      0.2921015530D+02  0.2321844432D+00
      0.9286662960D+01  0.4679413484D+00
      0.3163926960D+01  0.3623119853D+00
 SP   3 1.00       0.000000000000
      0.7868272350D+01 -0.1193324198D+00  0.6899906659D-01
      0.1881288540D+01 -0.1608541517D+00  0.3164239610D+00
      0.5442492580D+00  0.1143456438D+01  0.7443082909D+00
 SP   1 1.00       0.000000000000
      0.1687144782D+00  0.1000000000D+01  0.1000000000D+01
 D   1 1.00       0.000000000000
      0.8000000000D+00  0.1000000000D+01
 ****
     13 0
 S   3 1.00       0.000000000000
      0.1873113696D+02  0.3349460434D-01
      0.2825394365D+01  0.2347269535D+00
      0.6401216923D+00  0.8137573261D+00
 S   1 1.00       0.000000000000
      0.1612777588D+00  0.1000000000D+01
 ****
     14 0
 S   6 1.00       0.000000000000
      0.3047524880D+04  0.1834737132D-02
      0.4573695180D+03  0.1403732281D-01
      0.1039486850D+03  0.6884262226D-01
      0.2921015530D+02  0.2321844432D+00
      0.9286662960D+01  0.4679413484D+00
      0.3163926960D+01  0.3623119853D+00
 SP   3 1.00       0.000000000000
      0.7868272350D+01 -0.1193324198D+00  0.6899906659D-01
      0.1881288540D+01 -0.1608541517D+00  0.3164239610D+00
      0.5442492580D+00  0.1143456438D+01  0.7443082909D+00
 SP   1 1.00       0.000000000000
      0.1687144782D+00  0.1000000000D+01  0.1000000000D+01
 D   1 1.00       0.000000000000
      0.8000000000D+00  0.1000000000D+01
 ****
     15 0
 S   3 1.00       0.000000000000
      0.1873113696D+02  0.3349460434D-01
      0.2825394365D+01  0.2347269535D+00
      0.6401216923D+00  0.8137573261D+00
 S   1 1.00       0.000000000000
      0.1612777588D+00  0.1000000000D+01
 ****
     16 0
 S   3 1.00       0.000000000000
      0.1873113696D+02  0.3349460434D-01
      0.2825394365D+01  0.2347269535D+00
      0.6401216923D+00  0.8137573261D+00
 S   1 1.00       0.000000000000
      0.1612777588D+00  0.1000000000D+01
 ****
     17 0
 S   6 1.00       0.000000000000
      0.3047524880D+04  0.1834737132D-02
      0.4573695180D+03  0.1403732281D-01
      0.1039486850D+03  0.6884262226D-01
      0.2921015530D+02  0.2321844432D+00
      0.9286662960D+01  0.4679413484D+00
      0.3163926960D+01  0.3623119853D+00
 SP   3 1.00       0.000000000000
      0.7868272350D+01 -0.1193324198D+00  0.6899906659D-01
      0.1881288540D+01 -0.1608541517D+00  0.3164239610D+00
      0.5442492580D+00  0.1143456438D+01  0.7443082909D+00
 SP   1 1.00       0.000000000000
      0.1687144782D+00  0.1000000000D+01  0.1000000000D+01
 D   1 1.00       0.000000000000
      0.8000000000D+00  0.1000000000D+01
 ****
     18 0
 S   6 1.00       0.000000000000
      0.3047524880D+04  0.1834737132D-02
      0.4573695180D+03  0.1403732281D-01
      0.1039486850D+03  0.6884262226D-01
      0.2921015530D+02  0.2321844432D+00
      0.9286662960D+01  0.4679413484D+00
      0.3163926960D+01  0.3623119853D+00
 SP   3 1.00       0.000000000000
      0.7868272350D+01 -0.1193324198D+00  0.6899906659D-01
      0.1881288540D+01 -0.1608541517D+00  0.3164239610D+00
      0.5442492580D+00  0.1143456438D+01  0.7443082909D+00
 SP   1 1.00       0.000000000000
      0.1687144782D+00  0.1000000000D+01  0.1000000000D+01
 D   1 1.00       0.000000000000
      0.8000000000D+00  0.1000000000D+01
 ****
     19 0
 S   3 1.00       0.000000000000
      0.1873113696D+02  0.3349460434D-01
      0.2825394365D+01  0.2347269535D+00
      0.6401216923D+00  0.8137573261D+00
 S   1 1.00       0.000000000000
      0.1612777588D+00  0.1000000000D+01
 ****
     20 0
 S   3 1.00       0.000000000000
      0.1873113696D+02  0.3349460434D-01
      0.2825394365D+01  0.2347269535D+00
      0.6401216923D+00  0.8137573261D+00
 S   1 1.00       0.000000000000
      0.1612777588D+00  0.1000000000D+01
 ****
     21 0
 S   6 1.00       0.000000000000
      0.3047524880D+04  0.1834737132D-02
      0.4573695180D+03  0.1403732281D-01
      0.1039486850D+03  0.6884262226D-01
      0.2921015530D+02  0.2321844432D+00
      0.9286662960D+01  0.4679413484D+00
      0.3163926960D+01  0.3623119853D+00
 SP   3 1.00       0.000000000000
      0.7868272350D+01 -0.1193324198D+00  0.6899906659D-01
      0.1881288540D+01 -0.1608541517D+00  0.3164239610D+00
      0.5442492580D+00  0.1143456438D+01  0.7443082909D+00
 SP   1 1.00       0.000000000000
      0.1687144782D+00  0.1000000000D+01  0.1000000000D+01
 D   1 1.00       0.000000000000
      0.8000000000D+00  0.1000000000D+01
 ****
     22 0
 S   3 1.00       0.000000000000
      0.1873113696D+02  0.3349460434D-01
      0.2825394365D+01  0.2347269535D+00
      0.6401216923D+00  0.8137573261D+00
 S   1 1.00       0.000000000000
      0.1612777588D+00  0.1000000000D+01
 ****
     23 0
 S   3 1.00       0.000000000000
      0.1873113696D+02  0.3349460434D-01
      0.2825394365D+01  0.2347269535D+00
      0.6401216923D+00  0.8137573261D+00
 S   1 1.00       0.000000000000
      0.1612777588D+00  0.1000000000D+01
 ****
     24 0
 S   6 1.00       0.000000000000
      0.3047524880D+04  0.1834737132D-02
      0.4573695180D+03  0.1403732281D-01
      0.1039486850D+03  0.6884262226D-01
      0.2921015530D+02  0.2321844432D+00
      0.9286662960D+01  0.4679413484D+00
      0.3163926960D+01  0.3623119853D+00
 SP   3 1.00       0.000000000000
      0.7868272350D+01 -0.1193324198D+00  0.6899906659D-01
      0.1881288540D+01 -0.1608541517D+00  0.3164239610D+00
      0.5442492580D+00  0.1143456438D+01  0.7443082909D+00
 SP   1 1.00       0.000000000000
      0.1687144782D+00  0.1000000000D+01  0.1000000000D+01
 D   1 1.00       0.000000000000
      0.8000000000D+00  0.1000000000D+01
 ****
     25 0
 S   3 1.00       0.000000000000
      0.1873113696D+02  0.3349460434D-01
      0.2825394365D+01  0.2347269535D+00
      0.6401216923D+00  0.8137573261D+00
 S   1 1.00       0.000000000000
      0.1612777588D+00  0.1000000000D+01
 ****
     26 0
 S   3 1.00       0.000000000000
      0.1873113696D+02  0.3349460434D-01
      0.2825394365D+01  0.2347269535D+00
      0.6401216923D+00  0.8137573261D+00
 S   1 1.00       0.000000000000
      0.1612777588D+00  0.1000000000D+01
 ****
     27 0
 S   6 1.00       0.000000000000
      0.3047524880D+04  0.1834737132D-02
      0.4573695180D+03  0.1403732281D-01
      0.1039486850D+03  0.6884262226D-01
      0.2921015530D+02  0.2321844432D+00
      0.9286662960D+01  0.4679413484D+00
      0.3163926960D+01  0.3623119853D+00
 SP   3 1.00       0.000000000000
      0.7868272350D+01 -0.1193324198D+00  0.6899906659D-01
      0.1881288540D+01 -0.1608541517D+00  0.3164239610D+00
      0.5442492580D+00  0.1143456438D+01  0.7443082909D+00
 SP   1 1.00       0.000000000000
      0.1687144782D+00  0.1000000000D+01  0.1000000000D+01
 D   1 1.00       0.000000000000
      0.8000000000D+00  0.1000000000D+01
 ****
     28 0
 S   3 1.00       0.000000000000
      0.1873113696D+02  0.3349460434D-01
      0.2825394365D+01  0.2347269535D+00
      0.6401216923D+00  0.8137573261D+00
 S   1 1.00       0.000000000000
      0.1612777588D+00  0.1000000000D+01
 ****
     29 0
 S   6 1.00       0.000000000000
      0.3047524880D+04  0.1834737132D-02
      0.4573695180D+03  0.1403732281D-01
      0.1039486850D+03  0.6884262226D-01
      0.2921015530D+02  0.2321844432D+00
      0.9286662960D+01  0.4679413484D+00
      0.3163926960D+01  0.3623119853D+00
 SP   3 1.00       0.000000000000
      0.7868272350D+01 -0.1193324198D+00  0.6899906659D-01
      0.1881288540D+01 -0.1608541517D+00  0.3164239610D+00
      0.5442492580D+00  0.1143456438D+01  0.7443082909D+00
 SP   1 1.00       0.000000000000
      0.1687144782D+00  0.1000000000D+01  0.1000000000D+01
 D   1 1.00       0.000000000000
      0.8000000000D+00  0.1000000000D+01
 ****
     30 0
 S   3 1.00       0.000000000000
      0.1873113696D+02  0.3349460434D-01
      0.2825394365D+01  0.2347269535D+00
      0.6401216923D+00  0.8137573261D+00
 S   1 1.00       0.000000000000
      0.1612777588D+00  0.1000000000D+01
 ****
     31 0
 S   6 1.00       0.000000000000
      0.3047524880D+04  0.1834737132D-02
      0.4573695180D+03  0.1403732281D-01
      0.1039486850D+03  0.6884262226D-01
      0.2921015530D+02  0.2321844432D+00
      0.9286662960D+01  0.4679413484D+00
      0.3163926960D+01  0.3623119853D+00
 SP   3 1.00       0.000000000000
      0.7868272350D+01 -0.1193324198D+00  0.6899906659D-01
      0.1881288540D+01 -0.1608541517D+00  0.3164239610D+00
      0.5442492580D+00  0.1143456438D+01  0.7443082909D+00
 SP   1 1.00       0.000000000000
      0.1687144782D+00  0.1000000000D+01  0.1000000000D+01
 D   1 1.00       0.000000000000
      0.8000000000D+00  0.1000000000D+01
 ****
     32 0
 S   3 1.00       0.000000000000
      0.1873113696D+02  0.3349460434D-01
      0.2825394365D+01  0.2347269535D+00
      0.6401216923D+00  0.8137573261D+00
 S   1 1.00       0.000000000000
      0.1612777588D+00  0.1000000000D+01
 ****
     33 0
 S   3 1.00       0.000000000000
      0.1873113696D+02  0.3349460434D-01
      0.2825394365D+01  0.2347269535D+00
      0.6401216923D+00  0.8137573261D+00
 S   1 1.00       0.000000000000
      0.1612777588D+00  0.1000000000D+01
 ****
     34 0
 S   3 1.00       0.000000000000
      0.1873113696D+02  0.3349460434D-01
      0.2825394365D+01  0.2347269535D+00
      0.6401216923D+00  0.8137573261D+00
 S   1 1.00       0.000000000000
      0.1612777588D+00  0.1000000000D+01
 ****
     35 0
 S   6 1.00       0.000000000000
      0.3047524880D+04  0.1834737132D-02
      0.4573695180D+03  0.1403732281D-01
      0.1039486850D+03  0.6884262226D-01
      0.2921015530D+02  0.2321844432D+00
      0.9286662960D+01  0.4679413484D+00
      0.3163926960D+01  0.3623119853D+00
 SP   3 1.00       0.000000000000
      0.7868272350D+01 -0.1193324198D+00  0.6899906659D-01
      0.1881288540D+01 -0.1608541517D+00  0.3164239610D+00
      0.5442492580D+00  0.1143456438D+01  0.7443082909D+00
 SP   1 1.00       0.000000000000
      0.1687144782D+00  0.1000000000D+01  0.1000000000D+01
 D   1 1.00       0.000000000000
      0.8000000000D+00  0.1000000000D+01
 ****
     36 0
 S   6 1.00       0.000000000000
      0.3047524880D+04  0.1834737132D-02
      0.4573695180D+03  0.1403732281D-01
      0.1039486850D+03  0.6884262226D-01
      0.2921015530D+02  0.2321844432D+00
      0.9286662960D+01  0.4679413484D+00
      0.3163926960D+01  0.3623119853D+00
 SP   3 1.00       0.000000000000
      0.7868272350D+01 -0.1193324198D+00  0.6899906659D-01
      0.1881288540D+01 -0.1608541517D+00  0.3164239610D+00
      0.5442492580D+00  0.1143456438D+01  0.7443082909D+00
 SP   1 1.00       0.000000000000
      0.1687144782D+00  0.1000000000D+01  0.1000000000D+01
 D   1 1.00       0.000000000000
      0.8000000000D+00  0.1000000000D+01
 ****
     37 0
 S   3 1.00       0.000000000000
      0.1873113696D+02  0.3349460434D-01
      0.2825394365D+01  0.2347269535D+00
      0.6401216923D+00  0.8137573261D+00
 S   1 1.00       0.000000000000
      0.1612777588D+00  0.1000000000D+01
 ****
     38 0
 S   3 1.00       0.000000000000
      0.1873113696D+02  0.3349460434D-01
      0.2825394365D+01  0.2347269535D+00
      0.6401216923D+00  0.8137573261D+00
 S   1 1.00       0.000000000000
      0.1612777588D+00  0.1000000000D+01
 ****
     39 0
 S   6 1.00       0.000000000000
      0.3047524880D+04  0.1834737132D-02
      0.4573695180D+03  0.1403732281D-01
      0.1039486850D+03  0.6884262226D-01
      0.2921015530D+02  0.2321844432D+00
      0.9286662960D+01  0.4679413484D+00
      0.3163926960D+01  0.3623119853D+00
 SP   3 1.00       0.000000000000
      0.7868272350D+01 -0.1193324198D+00  0.6899906659D-01
      0.1881288540D+01 -0.1608541517D+00  0.3164239610D+00
      0.5442492580D+00  0.1143456438D+01  0.7443082909D+00
 SP   1 1.00       0.000000000000
      0.1687144782D+00  0.1000000000D+01  0.1000000000D+01
 D   1 1.00       0.000000000000
      0.8000000000D+00  0.1000000000D+01
 ****
     40 0
 S   3 1.00       0.000000000000
      0.1873113696D+02  0.3349460434D-01
      0.2825394365D+01  0.2347269535D+00
      0.6401216923D+00  0.8137573261D+00
 S   1 1.00       0.000000000000
      0.1612777588D+00  0.1000000000D+01
 ****
     41 0
 S   6 1.00       0.000000000000
      0.3047524880D+04  0.1834737132D-02
      0.4573695180D+03  0.1403732281D-01
      0.1039486850D+03  0.6884262226D-01
      0.2921015530D+02  0.2321844432D+00
      0.9286662960D+01  0.4679413484D+00
      0.3163926960D+01  0.3623119853D+00
 SP   3 1.00       0.000000000000
      0.7868272350D+01 -0.1193324198D+00  0.6899906659D-01
      0.1881288540D+01 -0.1608541517D+00  0.3164239610D+00
      0.5442492580D+00  0.1143456438D+01  0.7443082909D+00
 SP   1 1.00       0.000000000000
      0.1687144782D+00  0.1000000000D+01  0.1000000000D+01
 D   1 1.00       0.000000000000
      0.8000000000D+00  0.1000000000D+01
 ****
     42 0
 S   3 1.00       0.000000000000
      0.1873113696D+02  0.3349460434D-01
      0.2825394365D+01  0.2347269535D+00
      0.6401216923D+00  0.8137573261D+00
 S   1 1.00       0.000000000000
      0.1612777588D+00  0.1000000000D+01
 ****
     43 0
 S   3 1.00       0.000000000000
      0.1873113696D+02  0.3349460434D-01
      0.2825394365D+01  0.2347269535D+00
      0.6401216923D+00  0.8137573261D+00
 S   1 1.00       0.000000000000
      0.1612777588D+00  0.1000000000D+01
 ****
     44 0
 S   3 1.00       0.000000000000
      0.1873113696D+02  0.3349460434D-01
      0.2825394365D+01  0.2347269535D+00
      0.6401216923D+00  0.8137573261D+00
 S   1 1.00       0.000000000000
      0.1612777588D+00  0.1000000000D+01
 ****
     45 0
 S   6 1.00       0.000000000000
      0.3047524880D+04  0.1834737132D-02
      0.4573695180D+03  0.1403732281D-01
      0.1039486850D+03  0.6884262226D-01
      0.2921015530D+02  0.2321844432D+00
      0.9286662960D+01  0.4679413484D+00
      0.3163926960D+01  0.3623119853D+00
 SP   3 1.00       0.000000000000
      0.7868272350D+01 -0.1193324198D+00  0.6899906659D-01
      0.1881288540D+01 -0.1608541517D+00  0.3164239610D+00
      0.5442492580D+00  0.1143456438D+01  0.7443082909D+00
 SP   1 1.00       0.000000000000
      0.1687144782D+00  0.1000000000D+01  0.1000000000D+01
 D   1 1.00       0.000000000000
      0.8000000000D+00  0.1000000000D+01
 ****
     46 0
 S   3 1.00       0.000000000000
      0.1873113696D+02  0.3349460434D-01
      0.2825394365D+01  0.2347269535D+00
      0.6401216923D+00  0.8137573261D+00
 S   1 1.00       0.000000000000
      0.1612777588D+00  0.1000000000D+01
 ****
     47 0
 S   3 1.00       0.000000000000
      0.1873113696D+02  0.3349460434D-01
      0.2825394365D+01  0.2347269535D+00
      0.6401216923D+00  0.8137573261D+00
 S   1 1.00       0.000000000000
      0.1612777588D+00  0.1000000000D+01
 ****
     48 0
 S   6 1.00       0.000000000000
      0.3047524880D+04  0.1834737132D-02
      0.4573695180D+03  0.1403732281D-01
      0.1039486850D+03  0.6884262226D-01
      0.2921015530D+02  0.2321844432D+00
      0.9286662960D+01  0.4679413484D+00
      0.3163926960D+01  0.3623119853D+00
 SP   3 1.00       0.000000000000
      0.7868272350D+01 -0.1193324198D+00  0.6899906659D-01
      0.1881288540D+01 -0.1608541517D+00  0.3164239610D+00
      0.5442492580D+00  0.1143456438D+01  0.7443082909D+00
 SP   1 1.00       0.000000000000
      0.1687144782D+00  0.1000000000D+01  0.1000000000D+01
 D   1 1.00       0.000000000000
      0.8000000000D+00  0.1000000000D+01
 ****
     49 0
 S   3 1.00       0.000000000000
      0.1873113696D+02  0.3349460434D-01
      0.2825394365D+01  0.2347269535D+00
      0.6401216923D+00  0.8137573261D+00
 S   1 1.00       0.000000000000
      0.1612777588D+00  0.1000000000D+01
 ****
     50 0
 S   3 1.00       0.000000000000
      0.1873113696D+02  0.3349460434D-01
      0.2825394365D+01  0.2347269535D+00
      0.6401216923D+00  0.8137573261D+00
 S   1 1.00       0.000000000000
      0.1612777588D+00  0.1000000000D+01
 ****
     51 0
 S   6 1.00       0.000000000000
      0.3047524880D+04  0.1834737132D-02
      0.4573695180D+03  0.1403732281D-01
      0.1039486850D+03  0.6884262226D-01
      0.2921015530D+02  0.2321844432D+00
      0.9286662960D+01  0.4679413484D+00
      0.3163926960D+01  0.3623119853D+00
 SP   3 1.00       0.000000000000
      0.7868272350D+01 -0.1193324198D+00  0.6899906659D-01
      0.1881288540D+01 -0.1608541517D+00  0.3164239610D+00
      0.5442492580D+00  0.1143456438D+01  0.7443082909D+00
 SP   1 1.00       0.000000000000
      0.1687144782D+00  0.1000000000D+01  0.1000000000D+01
 D   1 1.00       0.000000000000
      0.8000000000D+00  0.1000000000D+01
 ****
     52 0
 S   3 1.00       0.000000000000
      0.1873113696D+02  0.3349460434D-01
      0.2825394365D+01  0.2347269535D+00
      0.6401216923D+00  0.8137573261D+00
 S   1 1.00       0.000000000000
      0.1612777588D+00  0.1000000000D+01
 ****
     53 0
 S   3 1.00       0.000000000000
      0.1873113696D+02  0.3349460434D-01
      0.2825394365D+01  0.2347269535D+00
      0.6401216923D+00  0.8137573261D+00
 S   1 1.00       0.000000000000
      0.1612777588D+00  0.1000000000D+01
 ****
     54 0
 S   6 1.00       0.000000000000
      0.3047524880D+04  0.1834737132D-02
      0.4573695180D+03  0.1403732281D-01
      0.1039486850D+03  0.6884262226D-01
      0.2921015530D+02  0.2321844432D+00
      0.9286662960D+01  0.4679413484D+00
      0.3163926960D+01  0.3623119853D+00
 SP   3 1.00       0.000000000000
      0.7868272350D+01 -0.1193324198D+00  0.6899906659D-01
      0.1881288540D+01 -0.1608541517D+00  0.3164239610D+00
      0.5442492580D+00  0.1143456438D+01  0.7443082909D+00
 SP   1 1.00       0.000000000000
      0.1687144782D+00  0.1000000000D+01  0.1000000000D+01
 D   1 1.00       0.000000000000
      0.8000000000D+00  0.1000000000D+01
 ****
     55 0
 S   3 1.00       0.000000000000
      0.1873113696D+02  0.3349460434D-01
      0.2825394365D+01  0.2347269535D+00
      0.6401216923D+00  0.8137573261D+00
 S   1 1.00       0.000000000000
      0.1612777588D+00  0.1000000000D+01
 ****
     56 0
 S   6 1.00       0.000000000000
      0.3047524880D+04  0.1834737132D-02
      0.4573695180D+03  0.1403732281D-01
      0.1039486850D+03  0.6884262226D-01
      0.2921015530D+02  0.2321844432D+00
      0.9286662960D+01  0.4679413484D+00
      0.3163926960D+01  0.3623119853D+00
 SP   3 1.00       0.000000000000
      0.7868272350D+01 -0.1193324198D+00  0.6899906659D-01
      0.1881288540D+01 -0.1608541517D+00  0.3164239610D+00
      0.5442492580D+00  0.1143456438D+01  0.7443082909D+00
 SP   1 1.00       0.000000000000
      0.1687144782D+00  0.1000000000D+01  0.1000000000D+01
 D   1 1.00       0.000000000000
      0.8000000000D+00  0.1000000000D+01
 ****
     57 0
 S   3 1.00       0.000000000000
      0.1873113696D+02  0.3349460434D-01
      0.2825394365D+01  0.2347269535D+00
      0.6401216923D+00  0.8137573261D+00
 S   1 1.00       0.000000000000
      0.1612777588D+00  0.1000000000D+01
 ****
     58 0
 S   3 1.00       0.000000000000
      0.1873113696D+02  0.3349460434D-01
      0.2825394365D+01  0.2347269535D+00
      0.6401216923D+00  0.8137573261D+00
 S   1 1.00       0.000000000000
      0.1612777588D+00  0.1000000000D+01
 ****
     59 0
 S   3 1.00       0.000000000000
      0.1873113696D+02  0.3349460434D-01
      0.2825394365D+01  0.2347269535D+00
      0.6401216923D+00  0.8137573261D+00
 S   1 1.00       0.000000000000
      0.1612777588D+00  0.1000000000D+01
 ****
     60 0
 S   6 1.00       0.000000000000
      0.3047524880D+04  0.1834737132D-02
      0.4573695180D+03  0.1403732281D-01
      0.1039486850D+03  0.6884262226D-01
      0.2921015530D+02  0.2321844432D+00
      0.9286662960D+01  0.4679413484D+00
      0.3163926960D+01  0.3623119853D+00
 SP   3 1.00       0.000000000000
      0.7868272350D+01 -0.1193324198D+00  0.6899906659D-01
      0.1881288540D+01 -0.1608541517D+00  0.3164239610D+00
      0.5442492580D+00  0.1143456438D+01  0.7443082909D+00
 SP   1 1.00       0.000000000000
      0.1687144782D+00  0.1000000000D+01  0.1000000000D+01
 D   1 1.00       0.000000000000
      0.8000000000D+00  0.1000000000D+01
 ****
     61 0
 S   3 1.00       0.000000000000
      0.1873113696D+02  0.3349460434D-01
      0.2825394365D+01  0.2347269535D+00
      0.6401216923D+00  0.8137573261D+00
 S   1 1.00       0.000000000000
      0.1612777588D+00  0.1000000000D+01
 ****
     62 0
 S   3 1.00       0.000000000000
      0.1873113696D+02  0.3349460434D-01
      0.2825394365D+01  0.2347269535D+00
      0.6401216923D+00  0.8137573261D+00
 S   1 1.00       0.000000000000
      0.1612777588D+00  0.1000000000D+01
 ****
     63 0
 S   6 1.00       0.000000000000
      0.3047524880D+04  0.1834737132D-02
      0.4573695180D+03  0.1403732281D-01
      0.1039486850D+03  0.6884262226D-01
      0.2921015530D+02  0.2321844432D+00
      0.9286662960D+01  0.4679413484D+00
      0.3163926960D+01  0.3623119853D+00
 SP   3 1.00       0.000000000000
      0.7868272350D+01 -0.1193324198D+00  0.6899906659D-01
      0.1881288540D+01 -0.1608541517D+00  0.3164239610D+00
      0.5442492580D+00  0.1143456438D+01  0.7443082909D+00
 SP   1 1.00       0.000000000000
      0.1687144782D+00  0.1000000000D+01  0.1000000000D+01
 D   1 1.00       0.000000000000
      0.8000000000D+00  0.1000000000D+01
 ****
     64 0
 S   3 1.00       0.000000000000
      0.1873113696D+02  0.3349460434D-01
      0.2825394365D+01  0.2347269535D+00
      0.6401216923D+00  0.8137573261D+00
 S   1 1.00       0.000000000000
      0.1612777588D+00  0.1000000000D+01
 ****
     65 0
 S   3 1.00       0.000000000000
      0.1873113696D+02  0.3349460434D-01
      0.2825394365D+01  0.2347269535D+00
      0.6401216923D+00  0.8137573261D+00
 S   1 1.00       0.000000000000
      0.1612777588D+00  0.1000000000D+01
 ****
     66 0
 S   6 1.00       0.000000000000
      0.3047524880D+04  0.1834737132D-02
      0.4573695180D+03  0.1403732281D-01
      0.1039486850D+03  0.6884262226D-01
      0.2921015530D+02  0.2321844432D+00
      0.9286662960D+01  0.4679413484D+00
      0.3163926960D+01  0.3623119853D+00
 SP   3 1.00       0.000000000000
      0.7868272350D+01 -0.1193324198D+00  0.6899906659D-01
      0.1881288540D+01 -0.1608541517D+00  0.3164239610D+00
      0.5442492580D+00  0.1143456438D+01  0.7443082909D+00
 SP   1 1.00       0.000000000000
      0.1687144782D+00  0.1000000000D+01  0.1000000000D+01
 D   1 1.00       0.000000000000
      0.8000000000D+00  0.1000000000D+01
 ****
     67 0
 S   3 1.00       0.000000000000
      0.1873113696D+02  0.3349460434D-01
      0.2825394365D+01  0.2347269535D+00
      0.6401216923D+00  0.8137573261D+00
 S   1 1.00       0.000000000000
      0.1612777588D+00  0.1000000000D+01
 ****
     68 0
 S   6 1.00       0.000000000000
      0.3047524880D+04  0.1834737132D-02
      0.4573695180D+03  0.1403732281D-01
      0.1039486850D+03  0.6884262226D-01
      0.2921015530D+02  0.2321844432D+00
      0.9286662960D+01  0.4679413484D+00
      0.3163926960D+01  0.3623119853D+00
 SP   3 1.00       0.000000000000
      0.7868272350D+01 -0.1193324198D+00  0.6899906659D-01
      0.1881288540D+01 -0.1608541517D+00  0.3164239610D+00
      0.5442492580D+00  0.1143456438D+01  0.7443082909D+00
 SP   1 1.00       0.000000000000
      0.1687144782D+00  0.1000000000D+01  0.1000000000D+01
 D   1 1.00       0.000000000000
      0.8000000000D+00  0.1000000000D+01
 ****
     69 0
 S   3 1.00       0.000000000000
      0.1873113696D+02  0.3349460434D-01
      0.2825394365D+01  0.2347269535D+00
      0.6401216923D+00  0.8137573261D+00
 S   1 1.00       0.000000000000
      0.1612777588D+00  0.1000000000D+01
 ****
     70 0
 S   3 1.00       0.000000000000
      0.1873113696D+02  0.3349460434D-01
      0.2825394365D+01  0.2347269535D+00
      0.6401216923D+00  0.8137573261D+00
 S   1 1.00       0.000000000000
      0.1612777588D+00  0.1000000000D+01
 ****
     71 0
 S   3 1.00       0.000000000000
      0.1873113696D+02  0.3349460434D-01
      0.2825394365D+01  0.2347269535D+00
      0.6401216923D+00  0.8137573261D+00
 S   1 1.00       0.000000000000
      0.1612777588D+00  0.1000000000D+01
 ****
     72 0
 S   6 1.00       0.000000000000
      0.3047524880D+04  0.1834737132D-02
      0.4573695180D+03  0.1403732281D-01
      0.1039486850D+03  0.6884262226D-01
      0.2921015530D+02  0.2321844432D+00
      0.9286662960D+01  0.4679413484D+00
      0.3163926960D+01  0.3623119853D+00
 SP   3 1.00       0.000000000000
      0.7868272350D+01 -0.1193324198D+00  0.6899906659D-01
      0.1881288540D+01 -0.1608541517D+00  0.3164239610D+00
      0.5442492580D+00  0.1143456438D+01  0.7443082909D+00
 SP   1 1.00       0.000000000000
      0.1687144782D+00  0.1000000000D+01  0.1000000000D+01
 D   1 1.00       0.000000000000
      0.8000000000D+00  0.1000000000D+01
 ****
     73 0
 S   3 1.00       0.000000000000
      0.1873113696D+02  0.3349460434D-01
      0.2825394365D+01  0.2347269535D+00
      0.6401216923D+00  0.8137573261D+00
 S   1 1.00       0.000000000000
      0.1612777588D+00  0.1000000000D+01
 ****
     74 0
 S   3 1.00       0.000000000000
      0.1873113696D+02  0.3349460434D-01
      0.2825394365D+01  0.2347269535D+00
      0.6401216923D+00  0.8137573261D+00
 S   1 1.00       0.000000000000
      0.1612777588D+00  0.1000000000D+01
 ****
     75 0
 S   3 1.00       0.000000000000
      0.1873113696D+02  0.3349460434D-01
      0.2825394365D+01  0.2347269535D+00
      0.6401216923D+00  0.8137573261D+00
 S   1 1.00       0.000000000000
      0.1612777588D+00  0.1000000000D+01
 ****

 AO basis set (Overlap normalization):
 Atom O1       Shell     1 S   6     bf    1 -     1          0.000000000000          0.000000000000          0.000000000000
      0.5484671660D+04  0.1831074430D-02
      0.8252349460D+03  0.1395017220D-01
      0.1880469580D+03  0.6844507810D-01
      0.5296450000D+02  0.2327143360D+00
      0.1689757040D+02  0.4701928980D+00
      0.5799635340D+01  0.3585208530D+00
 Atom O1       Shell     2 SP   3    bf    2 -     5          0.000000000000          0.000000000000          0.000000000000
      0.1553961625D+02 -0.1107775495D+00  0.7087426823D-01
      0.3599933586D+01 -0.1480262627D+00  0.3397528391D+00
      0.1013761750D+01  0.1130767015D+01  0.7271585773D+00
 Atom O1       Shell     3 SP   1    bf    6 -     9          0.000000000000          0.000000000000          0.000000000000
      0.2700058226D+00  0.1000000000D+01  0.1000000000D+01
 Atom O1       Shell     4 D   1     bf   10 -    15          0.000000000000          0.000000000000          0.000000000000
      0.8000000000D+00  0.1000000000D+01
 Atom H2       Shell     5 S   3     bf   16 -    16         -0.881765110866          0.870314126391         -1.342075033602
      0.1873113696D+02  0.3349460434D-01
      0.2825394365D+01  0.2347269535D+00
      0.6401216923D+00  0.8137573261D+00
 Atom H2       Shell     6 S   1     bf   17 -    17         -0.881765110866          0.870314126391         -1.342075033602
      0.1612777588D+00  0.1000000000D+01
 Atom O3       Shell     7 S   6     bf   18 -    18         -6.074314252053         11.141836088727          0.000000000000
      0.5484671660D+04  0.1831074430D-02
      0.8252349460D+03  0.1395017220D-01
      0.1880469580D+03  0.6844507810D-01
      0.5296450000D+02  0.2327143360D+00
      0.1689757040D+02  0.4701928980D+00
      0.5799635340D+01  0.3585208530D+00
 Atom O3       Shell     8 SP   3    bf   19 -    22         -6.074314252053         11.141836088727          0.000000000000
      0.1553961625D+02 -0.1107775495D+00  0.7087426823D-01
      0.3599933586D+01 -0.1480262627D+00  0.3397528391D+00
      0.1013761750D+01  0.1130767015D+01  0.7271585773D+00
 Atom O3       Shell     9 SP   1    bf   23 -    26         -6.074314252053         11.141836088727          0.000000000000
      0.2700058226D+00  0.1000000000D+01  0.1000000000D+01
 Atom O3       Shell    10 D   1     bf   27 -    32         -6.074314252053         11.141836088727          0.000000000000
      0.8000000000D+00  0.1000000000D+01
 Atom H4       Shell    11 S   3     bf   33 -    33         -5.499641240700         12.431003836178          1.162288152279
      0.1873113696D+02  0.3349460434D-01
      0.2825394365D+01  0.2347269535D+00
      0.6401216923D+00  0.8137573261D+00
 Atom H4       Shell    12 S   1     bf   34 -    34         -5.499641240700         12.431003836178          1.162288152279
      0.1612777588D+00  0.1000000000D+01
 Atom C5       Shell    13 S   6     bf   35 -    35          7.925362301931          2.078307138228         -0.673153575433
      0.3047524880D+04  0.1834737132D-02
      0.4573695180D+03  0.1403732281D-01
      0.1039486850D+03  0.6884262226D-01
      0.2921015530D+02  0.2321844432D+00
      0.9286662960D+01  0.4679413484D+00
      0.3163926960D+01  0.3623119853D+00
 Atom C5       Shell    14 SP   3    bf   36 -    39          7.925362301931          2.078307138228         -0.673153575433
      0.7868272350D+01 -0.1193324198D+00  0.6899906659D-01
      0.1881288540D+01 -0.1608541517D+00  0.3164239610D+00
      0.5442492580D+00  0.1143456438D+01  0.7443082909D+00
 Atom C5       Shell    15 SP   1    bf   40 -    43          7.925362301931          2.078307138228         -0.673153575433
      0.1687144782D+00  0.1000000000D+01  0.1000000000D+01
 Atom C5       Shell    16 D   1     bf   44 -    49          7.925362301931          2.078307138228         -0.673153575433
      0.8000000000D+00  0.1000000000D+01
 Atom C6       Shell    17 S   6     bf   50 -    50          5.293947366827          1.047680079566          0.125456102270
      0.3047524880D+04  0.1834737132D-02
      0.4573695180D+03  0.1403732281D-01
      0.1039486850D+03  0.6884262226D-01
      0.2921015530D+02  0.2321844432D+00
      0.9286662960D+01  0.4679413484D+00
      0.3163926960D+01  0.3623119853D+00
 Atom C6       Shell    18 SP   3    bf   51 -    54          5.293947366827          1.047680079566          0.125456102270
      0.7868272350D+01 -0.1193324198D+00  0.6899906659D-01
      0.1881288540D+01 -0.1608541517D+00  0.3164239610D+00
      0.5442492580D+00  0.1143456438D+01  0.7443082909D+00
 Atom C6       Shell    19 SP   1    bf   55 -    58          5.293947366827          1.047680079566          0.125456102270
      0.1687144782D+00  0.1000000000D+01  0.1000000000D+01
 Atom C6       Shell    20 D   1     bf   59 -    64          5.293947366827          1.047680079566          0.125456102270
      0.8000000000D+00  0.1000000000D+01
 Atom H7       Shell    21 S   3     bf   65 -    65          4.451035894528          0.278760739513         -1.610529849293
      0.1873113696D+02  0.3349460434D-01
      0.2825394365D+01  0.2347269535D+00
      0.6401216923D+00  0.8137573261D+00
 Atom H7       Shell    22 S   1     bf   66 -    66          4.451035894528          0.278760739513         -1.610529849293
      0.1612777588D+00  0.1000000000D+01
 Atom C8       Shell    23 S   6     bf   67 -    67          3.432564555907          3.049632625524          1.086916614441
      0.3047524880D+04  0.1834737132D-02
      0.4573695180D+03  0.1403732281D-01
      0.1039486850D+03  0.6884262226D-01
      0.2921015530D+02  0.2321844432D+00
      0.9286662960D+01  0.4679413484D+00
      0.3163926960D+01  0.3623119853D+00
 Atom C8       Shell    24 SP   3    bf   68 -    71          3.432564555907          3.049632625524          1.086916614441
      0.7868272350D+01 -0.1193324198D+00  0.6899906659D-01
      0.1881288540D+01 -0.1608541517D+00  0.3164239610D+00
      0.5442492580D+00  0.1143456438D+01  0.7443082909D+00
 Atom C8       Shell    25 SP   1    bf   72 -    75          3.432564555907          3.049632625524          1.086916614441
      0.1687144782D+00  0.1000000000D+01  0.1000000000D+01
 Atom C8       Shell    26 D   1     bf   76 -    81          3.432564555907          3.049632625524          1.086916614441
      0.8000000000D+00  0.1000000000D+01
 Atom H9       Shell    27 S   3     bf   82 -    82          4.176985070634          3.885904563953          2.837664634123
      0.1873113696D+02  0.3349460434D-01
      0.2825394365D+01  0.2347269535D+00
      0.6401216923D+00  0.8137573261D+00
 Atom H9       Shell    28 S   1     bf   83 -    83          4.176985070634          3.885904563953          2.837664634123
      0.1612777588D+00  0.1000000000D+01
 Atom C10      Shell    29 S   6     bf   84 -    84          3.074193112615          5.159976177499         -0.912107460724
      0.3047524880D+04  0.1834737132D-02
      0.4573695180D+03  0.1403732281D-01
      0.1039486850D+03  0.6884262226D-01
      0.2921015530D+02  0.2321844432D+00
      0.9286662960D+01  0.4679413484D+00
      0.3163926960D+01  0.3623119853D+00
 Atom C10      Shell    30 SP   3    bf   85 -    88          3.074193112615          5.159976177499         -0.912107460724
      0.7868272350D+01 -0.1193324198D+00  0.6899906659D-01
      0.1881288540D+01 -0.1608541517D+00  0.3164239610D+00
      0.5442492580D+00  0.1143456438D+01  0.7443082909D+00
 Atom C10      Shell    31 SP   1    bf   89 -    92          3.074193112615          5.159976177499         -0.912107460724
      0.1687144782D+00  0.1000000000D+01  0.1000000000D+01
 Atom C10      Shell    32 D   1     bf   93 -    98          3.074193112615          5.159976177499         -0.912107460724
      0.8000000000D+00  0.1000000000D+01
 Atom H11      Shell    33 S   3     bf   99 -    99          2.064264356567          4.270629277519         -2.503337366947
      0.1873113696D+02  0.3349460434D-01
      0.2825394365D+01  0.2347269535D+00
      0.6401216923D+00  0.8137573261D+00
 Atom H11      Shell    34 S   1     bf  100 -   100          2.064264356567          4.270629277519         -2.503337366947
      0.1612777588D+00  0.1000000000D+01
 Atom C12      Shell    35 S   6     bf  101 -   101          9.243252299231         -0.461701441472         -1.444159532184
      0.3047524880D+04  0.1834737132D-02
      0.4573695180D+03  0.1403732281D-01
      0.1039486850D+03  0.6884262226D-01
      0.2921015530D+02  0.2321844432D+00
      0.9286662960D+01  0.4679413484D+00
      0.3163926960D+01  0.3623119853D+00
 Atom C12      Shell    36 SP   3    bf  102 -   105          9.243252299231         -0.461701441472         -1.444159532184
      0.7868272350D+01 -0.1193324198D+00  0.6899906659D-01
      0.1881288540D+01 -0.1608541517D+00  0.3164239610D+00
      0.5442492580D+00  0.1143456438D+01  0.7443082909D+00
 Atom C12      Shell    37 SP   1    bf  106 -   109          9.243252299231         -0.461701441472         -1.444159532184
      0.1687144782D+00  0.1000000000D+01  0.1000000000D+01
 Atom C12      Shell    38 D   1     bf  110 -   115          9.243252299231         -0.461701441472         -1.444159532184
      0.8000000000D+00  0.1000000000D+01
 Atom H13      Shell    39 S   3     bf  116 -   116          8.375864905085         -1.017663329520         -3.249468971995
      0.1873113696D+02  0.3349460434D-01
      0.2825394365D+01  0.2347269535D+00
      0.6401216923D+00  0.8137573261D+00
 Atom H13      Shell    40 S   1     bf  117 -   117          8.375864905085         -1.017663329520         -3.249468971995
      0.1612777588D+00  0.1000000000D+01
 Atom C14      Shell    41 S   6     bf  118 -   118          7.442123349366          3.992007470671         -2.817197709577
      0.3047524880D+04  0.1834737132D-02
      0.4573695180D+03  0.1403732281D-01
      0.1039486850D+03  0.6884262226D-01
      0.2921015530D+02  0.2321844432D+00
      0.9286662960D+01  0.4679413484D+00
      0.3163926960D+01  0.3623119853D+00
 Atom C14      Shell    42 SP   3    bf  119 -   122          7.442123349366          3.992007470671         -2.817197709577
      0.7868272350D+01 -0.1193324198D+00  0.6899906659D-01
      0.1881288540D+01 -0.1608541517D+00  0.3164239610D+00
      0.5442492580D+00  0.1143456438D+01  0.7443082909D+00
 Atom C14      Shell    43 SP   1    bf  123 -   126          7.442123349366          3.992007470671         -2.817197709577
      0.1687144782D+00  0.1000000000D+01  0.1000000000D+01
 Atom C14      Shell    44 D   1     bf  127 -   132          7.442123349366          3.992007470671         -2.817197709577
      0.8000000000D+00  0.1000000000D+01
 Atom H15      Shell    45 S   3     bf  133 -   133          6.633342031780          2.979067265955         -4.441108218288
      0.1873113696D+02  0.3349460434D-01
      0.2825394365D+01  0.2347269535D+00
      0.6401216923D+00  0.8137573261D+00
 Atom H15      Shell    46 S   1     bf  134 -   134          6.633342031780          2.979067265955         -4.441108218288
      0.1612777588D+00  0.1000000000D+01
 Atom H16      Shell    47 S   3     bf  135 -   135          9.196637083005          4.863972688579         -3.481778636894
      0.1873113696D+02  0.3349460434D-01
      0.2825394365D+01  0.2347269535D+00
      0.6401216923D+00  0.8137573261D+00
 Atom H16      Shell    48 S   1     bf  136 -   136          9.196637083005          4.863972688579         -3.481778636894
      0.1612777588D+00  0.1000000000D+01
 Atom C17      Shell    49 S   6     bf  137 -   137          1.310383891717          7.339671979353          0.051476820161
      0.3047524880D+04  0.1834737132D-02
      0.4573695180D+03  0.1403732281D-01
      0.1039486850D+03  0.6884262226D-01
      0.2921015530D+02  0.2321844432D+00
      0.9286662960D+01  0.4679413484D+00
      0.3163926960D+01  0.3623119853D+00
 Atom C17      Shell    50 SP   3    bf  138 -   141          1.310383891717          7.339671979353          0.051476820161
      0.7868272350D+01 -0.1193324198D+00  0.6899906659D-01
      0.1881288540D+01 -0.1608541517D+00  0.3164239610D+00
      0.5442492580D+00  0.1143456438D+01  0.7443082909D+00
 Atom C17      Shell    51 SP   1    bf  142 -   145          1.310383891717          7.339671979353          0.051476820161
      0.1687144782D+00  0.1000000000D+01  0.1000000000D+01
 Atom C17      Shell    52 D   1     bf  146 -   151          1.310383891717          7.339671979353          0.051476820161
      0.8000000000D+00  0.1000000000D+01
 Atom C18      Shell    53 S   6     bf  152 -   152          5.883308501316         -1.238276893568          1.813133227254
      0.3047524880D+04  0.1834737132D-02
      0.4573695180D+03  0.1403732281D-01
      0.1039486850D+03  0.6884262226D-01
      0.2921015530D+02  0.2321844432D+00
      0.9286662960D+01  0.4679413484D+00
      0.3163926960D+01  0.3623119853D+00
 Atom C18      Shell    54 SP   3    bf  153 -   156          5.883308501316         -1.238276893568          1.813133227254
      0.7868272350D+01 -0.1193324198D+00  0.6899906659D-01
      0.1881288540D+01 -0.1608541517D+00  0.3164239610D+00
      0.5442492580D+00  0.1143456438D+01  0.7443082909D+00
 Atom C18      Shell    55 SP   1    bf  157 -   160          5.883308501316         -1.238276893568          1.813133227254
      0.1687144782D+00  0.1000000000D+01  0.1000000000D+01
 Atom C18      Shell    56 D   1     bf  161 -   166          5.883308501316         -1.238276893568          1.813133227254
      0.8000000000D+00  0.1000000000D+01
 Atom H19      Shell    57 S   3     bf  167 -   167          4.324793326035         -2.594999477886          1.839419279968
      0.1873113696D+02  0.3349460434D-01
      0.2825394365D+01  0.2347269535D+00
      0.6401216923D+00  0.8137573261D+00
 Atom H19      Shell    58 S   1     bf  168 -   168          4.324793326035         -2.594999477886          1.839419279968
      0.1612777588D+00  0.1000000000D+01
 Atom H20      Shell    59 S   3     bf  169 -   169          6.211659301727         -0.649604753228          3.774745165844
      0.1873113696D+02  0.3349460434D-01
      0.2825394365D+01  0.2347269535D+00
      0.6401216923D+00  0.8137573261D+00
 Atom H20      Shell    60 S   1     bf  170 -   170          6.211659301727         -0.649604753228          3.774745165844
      0.1612777588D+00  0.1000000000D+01
 Atom C21      Shell    61 S   6     bf  171 -   171          5.622478333728          6.111795306940         -1.984820893550
      0.3047524880D+04  0.1834737132D-02
      0.4573695180D+03  0.1403732281D-01
      0.1039486850D+03  0.6884262226D-01
      0.2921015530D+02  0.2321844432D+00
      0.9286662960D+01  0.4679413484D+00
      0.3163926960D+01  0.3623119853D+00
 Atom C21      Shell    62 SP   3    bf  172 -   175          5.622478333728          6.111795306940         -1.984820893550
      0.7868272350D+01 -0.1193324198D+00  0.6899906659D-01
      0.1881288540D+01 -0.1608541517D+00  0.3164239610D+00
      0.5442492580D+00  0.1143456438D+01  0.7443082909D+00
 Atom C21      Shell    63 SP   1    bf  176 -   179          5.622478333728          6.111795306940         -1.984820893550
      0.1687144782D+00  0.1000000000D+01  0.1000000000D+01
 Atom C21      Shell    64 D   1     bf  180 -   185          5.622478333728          6.111795306940         -1.984820893550
      0.8000000000D+00  0.1000000000D+01
 Atom H22      Shell    65 S   3     bf  186 -   186          6.585109021012          7.279628917247         -0.573988344678
      0.1873113696D+02  0.3349460434D-01
      0.2825394365D+01  0.2347269535D+00
      0.6401216923D+00  0.8137573261D+00
 Atom H22      Shell    66 S   1     bf  187 -   187          6.585109021012          7.279628917247         -0.573988344678
      0.1612777588D+00  0.1000000000D+01
 Atom H23      Shell    67 S   3     bf  188 -   188          5.273433766045          7.352742345740         -3.606285454139
      0.1873113696D+02  0.3349460434D-01
      0.2825394365D+01  0.2347269535D+00
      0.6401216923D+00  0.8137573261D+00
 Atom H23      Shell    68 S   1     bf  189 -   189          5.273433766045          7.352742345740         -3.606285454139
      0.1612777588D+00  0.1000000000D+01
 Atom C24      Shell    69 S   6     bf  190 -   190          8.327563694101         -2.358819653866          0.631271008232
      0.3047524880D+04  0.1834737132D-02
      0.4573695180D+03  0.1403732281D-01
      0.1039486850D+03  0.6884262226D-01
      0.2921015530D+02  0.2321844432D+00
      0.9286662960D+01  0.4679413484D+00
      0.3163926960D+01  0.3623119853D+00
 Atom C24      Shell    70 SP   3    bf  191 -   194          8.327563694101         -2.358819653866          0.631271008232
      0.7868272350D+01 -0.1193324198D+00  0.6899906659D-01
      0.1881288540D+01 -0.1608541517D+00  0.3164239610D+00
      0.5442492580D+00  0.1143456438D+01  0.7443082909D+00
 Atom C24      Shell    71 SP   1    bf  195 -   198          8.327563694101         -2.358819653866          0.631271008232
      0.1687144782D+00  0.1000000000D+01  0.1000000000D+01
 Atom C24      Shell    72 D   1     bf  199 -   204          8.327563694101         -2.358819653866          0.631271008232
      0.8000000000D+00  0.1000000000D+01
 Atom H25      Shell    73 S   3     bf  205 -   205          9.794021975757         -2.607452300670          2.074038379174
      0.1873113696D+02  0.3349460434D-01
      0.2825394365D+01  0.2347269535D+00
      0.6401216923D+00  0.8137573261D+00
 Atom H25      Shell    74 S   1     bf  206 -   206          9.794021975757         -2.607452300670          2.074038379174
      0.1612777588D+00  0.1000000000D+01
 Atom H26      Shell    75 S   3     bf  207 -   207          7.986403725249         -4.231462605818         -0.177209975180
      0.1873113696D+02  0.3349460434D-01
      0.2825394365D+01  0.2347269535D+00
      0.6401216923D+00  0.8137573261D+00
 Atom H26      Shell    76 S   1     bf  208 -   208          7.986403725249         -4.231462605818         -0.177209975180
      0.1612777588D+00  0.1000000000D+01
 Atom C27      Shell    77 S   6     bf  209 -   209          0.862844020090          1.869372421832          1.800283599776
      0.3047524880D+04  0.1834737132D-02
      0.4573695180D+03  0.1403732281D-01
      0.1039486850D+03  0.6884262226D-01
      0.2921015530D+02  0.2321844432D+00
      0.9286662960D+01  0.4679413484D+00
      0.3163926960D+01  0.3623119853D+00
 Atom C27      Shell    78 SP   3    bf  210 -   213          0.862844020090          1.869372421832          1.800283599776
      0.7868272350D+01 -0.1193324198D+00  0.6899906659D-01
      0.1881288540D+01 -0.1608541517D+00  0.3164239610D+00
      0.5442492580D+00  0.1143456438D+01  0.7443082909D+00
 Atom C27      Shell    79 SP   1    bf  214 -   217          0.862844020090          1.869372421832          1.800283599776
      0.1687144782D+00  0.1000000000D+01  0.1000000000D+01
 Atom C27      Shell    80 D   1     bf  218 -   223          0.862844020090          1.869372421832          1.800283599776
      0.8000000000D+00  0.1000000000D+01
 Atom H28      Shell    81 S   3     bf  224 -   224          1.102637737469          0.780600738835          3.545924313331
      0.1873113696D+02  0.3349460434D-01
      0.2825394365D+01  0.2347269535D+00
      0.6401216923D+00  0.8137573261D+00
 Atom H28      Shell    82 S   1     bf  225 -   225          1.102637737469          0.780600738835          3.545924313331
      0.1612777588D+00  0.1000000000D+01
 Atom C29      Shell    83 S   6     bf  226 -   226         12.146040599757         -0.525236982032         -1.814997234214
      0.3047524880D+04  0.1834737132D-02
      0.4573695180D+03  0.1403732281D-01
      0.1039486850D+03  0.6884262226D-01
      0.2921015530D+02  0.2321844432D+00
      0.9286662960D+01  0.4679413484D+00
      0.3163926960D+01  0.3623119853D+00
 Atom C29      Shell    84 SP   3    bf  227 -   230         12.146040599757         -0.525236982032         -1.814997234214
      0.7868272350D+01 -0.1193324198D+00  0.6899906659D-01
      0.1881288540D+01 -0.1608541517D+00  0.3164239610D+00
      0.5442492580D+00  0.1143456438D+01  0.7443082909D+00
 Atom C29      Shell    85 SP   1    bf  231 -   234         12.146040599757         -0.525236982032         -1.814997234214
      0.1687144782D+00  0.1000000000D+01  0.1000000000D+01
 Atom C29      Shell    86 D   1     bf  235 -   240         12.146040599757         -0.525236982032         -1.814997234214
      0.8000000000D+00  0.1000000000D+01
 Atom H30      Shell    87 S   3     bf  241 -   241         13.012192472059          0.000000000000          0.000000000000
      0.1873113696D+02  0.3349460434D-01
      0.2825394365D+01  0.2347269535D+00
      0.6401216923D+00  0.8137573261D+00
 Atom H30      Shell    88 S   1     bf  242 -   242         13.012192472059          0.000000000000          0.000000000000
      0.1612777588D+00  0.1000000000D+01
 Atom C31      Shell    89 S   6     bf  243 -   243          9.364058541378          3.339094978614          1.534162463578
      0.3047524880D+04  0.1834737132D-02
      0.4573695180D+03  0.1403732281D-01
      0.1039486850D+03  0.6884262226D-01
      0.2921015530D+02  0.2321844432D+00
      0.9286662960D+01  0.4679413484D+00
      0.3163926960D+01  0.3623119853D+00
 Atom C31      Shell    90 SP   3    bf  244 -   247          9.364058541378          3.339094978614          1.534162463578
      0.7868272350D+01 -0.1193324198D+00  0.6899906659D-01
      0.1881288540D+01 -0.1608541517D+00  0.3164239610D+00
      0.5442492580D+00  0.1143456438D+01  0.7443082909D+00
 Atom C31      Shell    91 SP   1    bf  248 -   251          9.364058541378          3.339094978614          1.534162463578
      0.1687144782D+00  0.1000000000D+01  0.1000000000D+01
 Atom C31      Shell    92 D   1     bf  252 -   257          9.364058541378          3.339094978614          1.534162463578
      0.8000000000D+00  0.1000000000D+01
 Atom H32      Shell    93 S   3     bf  258 -   258          8.297139500204          4.887801889450          2.388363953481
      0.1873113696D+02  0.3349460434D-01
      0.2825394365D+01  0.2347269535D+00
      0.6401216923D+00  0.8137573261D+00
 Atom H32      Shell    94 S   1     bf  259 -   259          8.297139500204          4.887801889450          2.388363953481
      0.1612777588D+00  0.1000000000D+01
 Atom H33      Shell    95 S   3     bf  260 -   260          9.794946410884          1.993304894613          3.043752780456
      0.1873113696D+02  0.3349460434D-01
      0.2825394365D+01  0.2347269535D+00
      0.6401216923D+00  0.8137573261D+00
 Atom H33      Shell    96 S   1     bf  261 -   261          9.794946410884          1.993304894613          3.043752780456
      0.1612777588D+00  0.1000000000D+01
 Atom H34      Shell    97 S   3     bf  262 -   262         11.162774481047          4.127762070139          0.880709396464
      0.1873113696D+02  0.3349460434D-01
      0.2825394365D+01  0.2347269535D+00
      0.6401216923D+00  0.8137573261D+00
 Atom H34      Shell    98 S   1     bf  263 -   263         11.162774481047          4.127762070139          0.880709396464
      0.1612777588D+00  0.1000000000D+01
 Atom C35      Shell    99 S   6     bf  264 -   264         -1.005201719510          6.241579656842          1.408385731475
      0.3047524880D+04  0.1834737132D-02
      0.4573695180D+03  0.1403732281D-01
      0.1039486850D+03  0.6884262226D-01
      0.2921015530D+02  0.2321844432D+00
      0.9286662960D+01  0.4679413484D+00
      0.3163926960D+01  0.3623119853D+00
 Atom C35      Shell   100 SP   3    bf  265 -   268         -1.005201719510          6.241579656842          1.408385731475
      0.7868272350D+01 -0.1193324198D+00  0.6899906659D-01
      0.1881288540D+01 -0.1608541517D+00  0.3164239610D+00
      0.5442492580D+00  0.1143456438D+01  0.7443082909D+00
 Atom C35      Shell   101 SP   1    bf  269 -   272         -1.005201719510          6.241579656842          1.408385731475
      0.1687144782D+00  0.1000000000D+01  0.1000000000D+01
 Atom C35      Shell   102 D   1     bf  273 -   278         -1.005201719510          6.241579656842          1.408385731475
      0.8000000000D+00  0.1000000000D+01
 Atom C36      Shell   103 S   6     bf  279 -   279          0.371735926655          8.891431327016         -2.273107988164
      0.3047524880D+04  0.1834737132D-02
      0.4573695180D+03  0.1403732281D-01
      0.1039486850D+03  0.6884262226D-01
      0.2921015530D+02  0.2321844432D+00
      0.9286662960D+01  0.4679413484D+00
      0.3163926960D+01  0.3623119853D+00
 Atom C36      Shell   104 SP   3    bf  280 -   283          0.371735926655          8.891431327016         -2.273107988164
      0.7868272350D+01 -0.1193324198D+00  0.6899906659D-01
      0.1881288540D+01 -0.1608541517D+00  0.3164239610D+00
      0.5442492580D+00  0.1143456438D+01  0.7443082909D+00
 Atom C36      Shell   105 SP   1    bf  284 -   287          0.371735926655          8.891431327016         -2.273107988164
      0.1687144782D+00  0.1000000000D+01  0.1000000000D+01
 Atom C36      Shell   106 D   1     bf  288 -   293          0.371735926655          8.891431327016         -2.273107988164
      0.8000000000D+00  0.1000000000D+01
 Atom H37      Shell   107 S   3     bf  294 -   294         -0.300917211503          7.557963769182         -3.716041730595
      0.1873113696D+02  0.3349460434D-01
      0.2825394365D+01  0.2347269535D+00
      0.6401216923D+00  0.8137573261D+00
 Atom H37      Shell   108 S   1     bf  295 -   295         -0.300917211503          7.557963769182         -3.716041730595
      0.1612777588D+00  0.1000000000D+01
 Atom H38      Shell   109 S   3     bf  296 -   296          1.971213674866          9.902121510414         -3.112104684909
      0.1873113696D+02  0.3349460434D-01
      0.2825394365D+01  0.2347269535D+00
      0.6401216923D+00  0.8137573261D+00
 Atom H38      Shell   110 S   1     bf  297 -   297          1.971213674866          9.902121510414         -3.112104684909
      0.1612777588D+00  0.1000000000D+01
 Atom C39      Shell   111 S   6     bf  298 -   298         -1.154129977796          3.827488499357          2.178788128597
      0.3047524880D+04  0.1834737132D-02
      0.4573695180D+03  0.1403732281D-01
      0.1039486850D+03  0.6884262226D-01
      0.2921015530D+02  0.2321844432D+00
      0.9286662960D+01  0.4679413484D+00
      0.3163926960D+01  0.3623119853D+00
 Atom C39      Shell   112 SP   3    bf  299 -   302         -1.154129977796          3.827488499357          2.178788128597
      0.7868272350D+01 -0.1193324198D+00  0.6899906659D-01
      0.1881288540D+01 -0.1608541517D+00  0.3164239610D+00
      0.5442492580D+00  0.1143456438D+01  0.7443082909D+00
 Atom C39      Shell   113 SP   1    bf  303 -   306         -1.154129977796          3.827488499357          2.178788128597
      0.1687144782D+00  0.1000000000D+01  0.1000000000D+01
 Atom C39      Shell   114 D   1     bf  307 -   312         -1.154129977796          3.827488499357          2.178788128597
      0.8000000000D+00  0.1000000000D+01
 Atom H40      Shell   115 S   3     bf  313 -   313         -2.877629809601          3.169145576901          3.093172463647
[...]
 **** Fit       0.002003
 **** Fit       0.001941
 **** Fit       0.001763
 **** Fit       0.001494
 **** Fit       0.001187
 **** Fit       0.000898
 **** Fit       0.000665
 **** Fit       0.001724
 **** Fit       0.001903
 **** Fit       0.002018
 **** Fit       0.002045
 **** Fit       0.001968
 **** Fit       0.001787
 **** Fit       0.001529
 **** Fit       0.001239
 **** Fit       0.000968
 **** Fit       0.000749
 **** Fit       0.001594
 **** Fit       0.001818
 **** Fit       0.001985
 **** Fit       0.002072
 **** Fit       0.002064
 **** Fit       0.001957
 **** Fit       0.001764
 **** Fit       0.001514
 **** Fit       0.001248
 **** Fit       0.001004
 **** Fit       0.001426
 **** Fit       0.001695
 **** Fit       0.001923
 **** Fit       0.002076
 **** Fit       0.002128
 **** Fit       0.002074
 **** Fit       0.001928
 **** Fit       0.001716
 **** Fit       0.001472
 **** Fit       0.001228
 **** Fit       0.001203
 **** Fit       0.001493
 **** Fit       0.001778
 **** Fit       0.002011
 **** Fit       0.002150
 **** Fit       0.002168
 **** Fit       0.002070
 **** Fit       0.001885
 **** Fit       0.001653
 **** Fit       0.001411
 **** Fit       0.001216
 **** Fit       0.001515
 **** Fit       0.001807
 **** Fit       0.002041
 **** Fit       0.002166
 **** Fit       0.002156
 **** Fit       0.002024
 **** Fit       0.001811
 **** Fit       0.001567
 **** Fit       0.001334
 **** Fit       0.001178
 **** Fit       0.001468
 **** Fit       0.001752
 **** Fit       0.001974
 **** Fit       0.002083
 **** Fit       0.002054
 **** Fit       0.001905
 **** Fit       0.001685
 **** Fit       0.001448
 **** Fit       0.001236
 **** Fit       0.001087
 **** Fit       0.001348
 **** Fit       0.001601
 **** Fit       0.001796
 **** Fit       0.001885
 **** Fit       0.001848
 **** Fit       0.001705
 **** Fit       0.001504
 **** Fit       0.001297
 **** Fit       0.001121
 **** Fit       0.000957
 **** Fit       0.001171
 **** Fit       0.001377
 **** Fit       0.001533
 **** Fit       0.001601
 **** Fit       0.001567
 **** Fit       0.001448
 **** Fit       0.001288
 **** Fit       0.001131
 **** Fit       0.001004
 **** Fit       0.000814
 **** Fit       0.000974
 **** Fit       0.001126
 **** Fit       0.001240
 **** Fit       0.001289
 **** Fit       0.001265
 **** Fit       0.001183
 **** Fit       0.001076
 **** Fit       0.000976
 **** Fit       0.000795
 **** Fit       0.000899
 **** Fit       0.000977
 **** Fit       0.001013
 **** Fit       0.001003
 **** Fit       0.000960
 **** Fit       0.000905
 **** Fit       0.000783
 **** Fit       0.000813
 **** Fit       0.000819
 **** Fit       0.000810
 **** Fit      -0.002130
 **** Fit      -0.002152
 **** Fit      -0.002147
 **** Fit      -0.002118
 **** Fit      -0.002065
 **** Fit      -0.001982
 **** Fit      -0.001866
 **** Fit      -0.001983
 **** Fit      -0.002035
 **** Fit      -0.002047
 **** Fit      -0.002031
 **** Fit      -0.002005
 **** Fit      -0.001982
 **** Fit      -0.001959
 **** Fit      -0.001921
 **** Fit      -0.001849
 **** Fit      -0.001736
 **** Fit      -0.001844
 **** Fit      -0.001888
 **** Fit      -0.001871
 **** Fit      -0.001797
 **** Fit      -0.001697
 **** Fit      -0.001617
 **** Fit      -0.001593
 **** Fit      -0.001626
 **** Fit      -0.001675
 **** Fit      -0.001693
 **** Fit      -0.001653
 **** Fit      -0.001554
 **** Fit      -0.001729
 **** Fit      -0.001692
 **** Fit      -0.001558
 **** Fit      -0.001338
 **** Fit      -0.001088
 **** Fit      -0.000903
 **** Fit      -0.000868
 **** Fit      -0.000987
 **** Fit      -0.001184
 **** Fit      -0.001356
 **** Fit      -0.001441
 **** Fit      -0.001428
 **** Fit      -0.001343
 **** Fit      -0.001576
 **** Fit      -0.001548
 **** Fit      -0.001401
 **** Fit      -0.001107
 **** Fit      -0.000679
 **** Fit      -0.000210
 **** Fit       0.000133
 **** Fit       0.000195
 **** Fit      -0.000045
 **** Fit      -0.000450
 **** Fit      -0.000838
 **** Fit      -0.001098
 **** Fit      -0.001207
 **** Fit      -0.001201
 **** Fit      -0.001428
 **** Fit      -0.001318
 **** Fit      -0.001049
 **** Fit      -0.000579
 **** Fit       0.000077
 **** Fit       0.000792
 **** Fit       0.001317
 **** Fit       0.001413
 **** Fit       0.001044
 **** Fit       0.000412
 **** Fit      -0.000213
 **** Fit      -0.000666
 **** Fit      -0.000914
 **** Fit      -0.000999
 **** Fit      -0.001256
 **** Fit      -0.001070
 **** Fit      -0.000695
 **** Fit      -0.000083
 **** Fit       0.000749
 **** Fit       0.001648
 **** Fit       0.002309
 **** Fit       0.002436
 **** Fit       0.001978
 **** Fit       0.001182
 **** Fit       0.000379
 **** Fit      -0.000227
 **** Fit      -0.000593
 **** Fit      -0.000765
 **** Fit      -0.001080
 **** Fit      -0.000837
 **** Fit      -0.000397
 **** Fit       0.000281
 **** Fit       0.001173
 **** Fit       0.002117
 **** Fit       0.002806
 **** Fit       0.002944
 **** Fit       0.002479
 **** Fit       0.001654
 **** Fit       0.000802
 **** Fit       0.000133
 **** Fit      -0.000298
 **** Fit      -0.000530
 **** Fit      -0.000911
 **** Fit      -0.000636
 **** Fit      -0.000181
 **** Fit       0.000481
 **** Fit       0.001310
 **** Fit       0.002159
 **** Fit       0.002767
 **** Fit       0.002893
 **** Fit       0.002497
 **** Fit       0.001775
 **** Fit       0.001003
 **** Fit       0.000370
 **** Fit      -0.000065
 **** Fit      -0.000322
 **** Fit      -0.000754
 **** Fit      -0.000468
 **** Fit      -0.000031
 **** Fit       0.000559
 **** Fit       0.001257
 **** Fit       0.001937
 **** Fit       0.002408
 **** Fit       0.002506
 **** Fit       0.002208
 **** Fit       0.001649
 **** Fit       0.001028
 **** Fit       0.000491
 **** Fit       0.000098
 **** Fit      -0.000154
 **** Fit      -0.000318
 **** Fit       0.000086
 **** Fit       0.000593
 **** Fit       0.001151
 **** Fit       0.001660
 **** Fit       0.001995
 **** Fit       0.002058
 **** Fit       0.001842
 **** Fit       0.001433
 **** Fit       0.000962
 **** Fit       0.000534
 **** Fit       0.000201
 **** Fit      -0.000172
 **** Fit       0.000203
 **** Fit       0.000640
 **** Fit       0.001085
 **** Fit       0.001460
 **** Fit       0.001685
 **** Fit       0.001711
 **** Fit       0.001541
 **** Fit       0.001237
 **** Fit       0.000880
 **** Fit       0.000543
 **** Fit       0.000267
 **** Fit      -0.000026
 **** Fit       0.000329
 **** Fit       0.000719
 **** Fit       0.001086
 **** Fit       0.001368
 **** Fit       0.001513
 **** Fit       0.001501
 **** Fit       0.001350
 **** Fit       0.001104
 **** Fit       0.000821
 **** Fit       0.000548
 **** Fit      -0.000173
 **** Fit       0.000114
 **** Fit       0.000458
 **** Fit       0.000816
 **** Fit       0.001133
 **** Fit       0.001353
 **** Fit       0.001444
 **** Fit       0.001402
 **** Fit       0.001254
 **** Fit       0.001040
 **** Fit      -0.000046
 **** Fit       0.000238
 **** Fit       0.000567
 **** Fit       0.000900
 **** Fit       0.001182
 **** Fit       0.001365
 **** Fit       0.001424
 **** Fit       0.001367
 **** Fit       0.001225
 **** Fit       0.001031
 **** Fit       0.000333
 **** Fit       0.000642
 **** Fit       0.000948
 **** Fit       0.001203
 **** Fit       0.001364
 **** Fit       0.001413
 **** Fit       0.001361
 **** Fit       0.001235
 **** Fit       0.001065
 **** Fit       0.000398
 **** Fit       0.000680
 **** Fit       0.000957
 **** Fit       0.001188
 **** Fit       0.001339
 **** Fit       0.001396
 **** Fit       0.001366
 **** Fit       0.001271
 **** Fit       0.000692
 **** Fit       0.000940
 **** Fit       0.001152
 **** Fit       0.001301
 **** Fit       0.001376
 **** Fit       0.001382
 **** Fit       0.001328
 **** Fit       0.001229
 **** Fit       0.001093
 **** Fit       0.000929
 **** Fit       0.000750
 **** Fit       0.000916
 **** Fit       0.001114
 **** Fit       0.001267
 **** Fit       0.001367
 **** Fit       0.001410
 **** Fit       0.001401
 **** Fit       0.001342
 **** Fit       0.001233
 **** Fit       0.001081
 **** Fit       0.000899
 **** Fit       0.000710
 **** Fit       0.001452
 **** Fit       0.001481
 **** Fit       0.001455
 **** Fit       0.001370
 **** Fit       0.001228
 **** Fit       0.001044
 **** Fit       0.000844
 **** Fit       0.001501
 **** Fit       0.001557
 **** Fit       0.001554
 **** Fit       0.001485
 **** Fit       0.001350
 **** Fit       0.001167
 **** Fit       0.000961
 **** Fit       0.001554
 **** Fit       0.001621
 **** Fit       0.001627
 **** Fit       0.001564
 **** Fit       0.001434
 **** Fit       0.001253
 **** Fit       0.001049
 **** Fit       0.001673
 **** Fit       0.001675
 **** Fit       0.001608
 **** Fit       0.001477
 **** Fit       0.001301
 **** Fit       0.001105
 **** Fit       0.001703
 **** Fit       0.001623
 **** Fit       0.001488
 **** Fit       0.001316
 **** Fit       0.001638
 **** Fit       0.001734
 **** Fit       0.001755
 **** Fit       0.001703
 **** Fit       0.001482
 **** Fit       0.001634
 **** Fit       0.001720
 **** Fit       0.001727
 **** Fit       0.001659
 **** Fit       0.001537
 **** Fit       0.001433
 **** Fit       0.001575
 **** Fit       0.001650
 **** Fit       0.001647
 **** Fit       0.001573
 **** Fit       0.001450
 **** Fit       0.001333
 **** Fit       0.001458
 **** Fit       0.001521
 **** Fit       0.001513
 **** Fit       0.001443
 **** Fit       0.001332
 **** Fit       0.001193
 **** Fit       0.001297
 **** Fit       0.001348
 **** Fit       0.001341
 **** Fit       0.001284
 **** Fit       0.001196
 **** Fit       0.001120
 **** Fit       0.001161
 **** Fit       0.001159
 **** Fit       0.001120
 **** Fit      -0.001703
 **** Fit      -0.001676
 **** Fit      -0.001614
 **** Fit      -0.001589
 **** Fit      -0.001560
 **** Fit      -0.001535
 **** Fit      -0.001514
 **** Fit      -0.001487
 **** Fit      -0.001445
 **** Fit      -0.001498
 **** Fit      -0.001466
 **** Fit      -0.001402
 **** Fit      -0.001327
 **** Fit      -0.001267
 **** Fit      -0.001241
 **** Fit      -0.001250
 **** Fit      -0.001274
 **** Fit      -0.001288
 **** Fit      -0.001273
 **** Fit      -0.001323
 **** Fit      -0.001217
 **** Fit      -0.001069
 **** Fit      -0.000916
 **** Fit      -0.000805
 **** Fit      -0.000773
 **** Fit      -0.000824
 **** Fit      -0.000922
 **** Fit      -0.001021
 **** Fit      -0.001082
 **** Fit      -0.001092
 **** Fit      -0.001211
 **** Fit      -0.001088
 **** Fit      -0.000888
 **** Fit      -0.000632
 **** Fit      -0.000377
 **** Fit      -0.000197
 **** Fit      -0.000155
 **** Fit      -0.000257
 **** Fit      -0.000449
 **** Fit      -0.000655
 **** Fit      -0.000813
 **** Fit      -0.000900
 **** Fit      -0.001017
 **** Fit      -0.000817
 **** Fit      -0.000519
 **** Fit      -0.000152
 **** Fit       0.000211
 **** Fit       0.000464
 **** Fit       0.000520
 **** Fit       0.000367
 **** Fit       0.000079
 **** Fit      -0.000237
 **** Fit      -0.000497
 **** Fit      -0.000667
 **** Fit      -0.000815
 **** Fit      -0.000548
 **** Fit      -0.000170
 **** Fit       0.000285
 **** Fit       0.000730
 **** Fit       0.001040
 **** Fit       0.001108
 **** Fit       0.000920
 **** Fit       0.000561
 **** Fit       0.000161
 **** Fit      -0.000181
 **** Fit      -0.000420
 **** Fit      -0.000557
 **** Fit      -0.000623
 **** Fit      -0.000313
 **** Fit       0.000109
 **** Fit       0.000603
 **** Fit       0.001080
 **** Fit       0.001408
 **** Fit       0.001483
 **** Fit       0.001286
 **** Fit       0.000905
 **** Fit       0.000471
 **** Fit       0.000088
 **** Fit      -0.000193
 **** Fit      -0.000370
 **** Fit      -0.000456
 **** Fit      -0.000129
 **** Fit       0.000295
 **** Fit       0.000777
 **** Fit       0.001230
 **** Fit       0.001539
 **** Fit       0.001610
 **** Fit       0.001431
 **** Fit       0.001076
 **** Fit       0.000661
 **** Fit       0.000283
 **** Fit      -0.000008
 **** Fit      -0.000313
 **** Fit       0.000007
 **** Fit       0.000405
 **** Fit       0.000837
 **** Fit       0.001230
 **** Fit       0.001493
 **** Fit       0.001554
 **** Fit       0.001405
 **** Fit       0.001105
 **** Fit       0.000744
 **** Fit       0.000404
 **** Fit       0.000129
 **** Fit       0.000115
 **** Fit       0.000471
 **** Fit       0.000841
 **** Fit       0.001163
 **** Fit       0.001371
 **** Fit       0.001416
 **** Fit       0.001296
 **** Fit       0.001055
 **** Fit       0.000758
 **** Fit       0.000469
 **** Fit       0.000527
 **** Fit       0.000838
 **** Fit       0.001095
 **** Fit       0.001252
 **** Fit       0.001279
 **** Fit       0.001179
 **** Fit       0.000985
 **** Fit       0.000744
 **** Fit       0.000852
 **** Fit       0.001058
 **** Fit       0.001173
 **** Fit       0.001182
 **** Fit       0.001093
 **** Fit       0.000931
 **** Fit       0.000653
 **** Fit       0.000883
 **** Fit       0.001052
 **** Fit       0.001137
 **** Fit       0.000713
 **** Fit       0.000918
 **** Fit       0.001062
 **** Fit       0.001128
 **** Fit       0.001116
 **** Fit       0.000757
 **** Fit       0.000944
 **** Fit       0.001073
 **** Fit       0.001132
 **** Fit       0.000956
 **** Fit       0.001077
 **** Fit      -0.001132
 **** Fit      -0.001075
 **** Fit      -0.001029
 **** Fit      -0.001004
 **** Fit      -0.001001
 **** Fit      -0.001010
 **** Fit      -0.000987
 **** Fit      -0.000885
 **** Fit      -0.000785
 **** Fit      -0.000711
 **** Fit      -0.000683
 **** Fit      -0.000702
 **** Fit      -0.000752
 **** Fit      -0.000808
 **** Fit      -0.000743
 **** Fit      -0.000581
 **** Fit      -0.000428
 **** Fit      -0.000321
 **** Fit      -0.000288
 **** Fit      -0.000331
 **** Fit      -0.000428
 **** Fit      -0.000542
 **** Fit      -0.000639
 **** Fit      -0.000671
 **** Fit      -0.000476
 **** Fit      -0.000254
 **** Fit      -0.000048
 **** Fit       0.000093
 **** Fit       0.000133
 **** Fit       0.000066
 **** Fit      -0.000077
 **** Fit      -0.000248
 **** Fit      -0.000402
 **** Fit      -0.000463
 **** Fit      -0.000220
 **** Fit       0.000050
 **** Fit       0.000297
 **** Fit       0.000466
 **** Fit       0.000511
 **** Fit       0.000427
 **** Fit       0.000249
 **** Fit       0.000034
 **** Fit      -0.000167
 **** Fit      -0.000275
 **** Fit      -0.000004
 **** Fit       0.000292
 **** Fit       0.000560
 **** Fit       0.000740
 **** Fit       0.000789
 **** Fit       0.000698
 **** Fit       0.000505
 **** Fit       0.000268
 **** Fit       0.000040
 **** Fit      -0.000120
 **** Fit       0.000159
 **** Fit       0.000456
 **** Fit       0.000721
 **** Fit       0.000897
 **** Fit       0.000944
 **** Fit       0.000857
 **** Fit       0.000669
 **** Fit       0.000433
 **** Fit       0.000201
 **** Fit       0.000273
 **** Fit       0.000551
 **** Fit       0.000794
 **** Fit       0.000953
 **** Fit       0.000996
 **** Fit       0.000919
 **** Fit       0.000750
 **** Fit       0.000533
 **** Fit       0.000315
 **** Fit       0.000603
 **** Fit       0.000814
 **** Fit       0.000950
 **** Fit       0.000985
 **** Fit       0.000919
 **** Fit       0.000773
 **** Fit       0.000585
 **** Fit       0.000815
 **** Fit       0.000926
 **** Fit       0.000952
 **** Fit       0.000894
 **** Fit      -0.000436
 **** Fit      -0.000367
 **** Fit      -0.000339
 **** Fit      -0.000356
 **** Fit      -0.000301
 **** Fit      -0.000174
 **** Fit      -0.000087
 **** Fit      -0.000056
 **** Fit      -0.000085
 **** Fit      -0.000158
 **** Fit      -0.000079
 **** Fit       0.000071
 **** Fit       0.000172
 **** Fit       0.000206
 **** Fit       0.000168
 **** Fit       0.000076
 **** Fit       0.000109
 **** Fit       0.000272
 **** Fit       0.000382
 **** Fit       0.000417
 **** Fit       0.000374
 **** Fit       0.000271
 **** Fit       0.000418
 **** Fit       0.000527
 **** Fit       0.000562
 **** Fit       0.000520
 **** Fit       0.000416
 **** Fit       0.000615
 **** Fit       0.000647
 **** Fit       0.000608
 -----------------------------------------------------------------
 Leave Link  602 at Wed May 17 13:30:11 2017, MaxMem=   33554432 cpu:      92.5
 (Enter /scratch/michal/g09/l9999.exe)

 Test job not archived.
 1\1\GINC-RZEPICHA\SP\RHF\6-31G(d)\C27H46O2\MICHAL\17-May-2017\0\\#P HF
 /6-31G* SCF(Conver=6) NoSymm Test Pop=chelpg IOp(6/33=2) GFInput GFPri
 nt\\MEP - Input generated by R.E.D.-III.x MOLECULE\\0,1\O,0,0.,0.,0.\H
 ,0,-0.46661,0.4605504,-0.71019552\O,0,-3.21438866,5.89600572,0.\H,0,-2
 .9102848,6.57820391,0.6150564\C,0,4.1939211,1.09979277,-0.35621753\C,0
 ,2.80143629,0.55440842,0.06638851\H,0,2.35538675,0.14751383,-0.8522556
 9\C,0,1.81643493,1.61379608,0.5751715\H,0,2.2103653,2.05633213,1.50162
 745\C,0,1.62679293,2.73054179,-0.48266648\H,0,1.09236165,2.25991968,-1
 .32470908\C,0,4.89131845,-0.24432188,-0.76421631\H,0,4.43231681,-0.538
 52424,-1.71954492\C,0,3.93820206,2.11247937,-1.49079682\H,0,3.51021342
 ,1.5764545,-2.35013325\H,0,4.86665074,2.57390349,-1.8424779\C,0,0.6934
 2529,3.88398713,0.02724036\C,0,3.11331277,-0.65526791,0.95946878\H,0,2
 .28858206,-1.37321458,0.97337876\H,0,3.28706853,-0.34375603,1.99750911
 \C,0,2.97528739,3.23422278,-1.05032198\H,0,3.48468961,3.85221371,-0.30
 374155\H,0,2.79058096,3.89090367,-1.90836407\C,0,4.40675691,-1.2482336
 ,0.33405423\H,0,5.18277321,-1.37980433,1.09753384\H,0,4.22622283,-2.23
 919357,-0.09377548\C,0,0.45659739,0.98922928,0.95266905\H,0,0.58349076
 ,0.41307612,1.87642233\C,0,6.42740786,-0.27794344,-0.96045517\H,0,6.88
 575569,0.,0.\C,0,4.95524636,1.76697296,0.81184381\H,0,4.39065712,2.586
 51336,1.26386777\H,0,5.1832624,1.05481152,1.6106846\H,0,5.90708584,2.1
 8431761,0.46605134\C,0,-0.53192984,3.3029017,0.74528563\C,0,0.19671418
 ,4.70514281,-1.20287694\H,0,-0.15923853,3.99950217,-1.96644459\H,0,1.0
 4312135,5.23997702,-1.64685487\C,0,-0.61073928,2.02541968,1.15296502\H
 ,0,-1.52277611,1.67703961,1.63683637\C,0,1.43530083,4.82596143,1.01432
 859\H,0,2.20835257,5.40796657,0.50371965\H,0,0.75143054,5.53939722,1.4
 8075741\H,0,1.90957207,4.25986844,1.82162518\C,0,-1.68942958,4.2507203
 8,1.00084353\H,0,-2.53957444,3.70487247,1.42158302\H,0,-1.39630037,5.0
 0343634,1.75006252\C,0,-0.93297221,5.70272519,-0.90466012\H,0,-0.57830
 559,6.49523304,-0.22923598\H,0,-1.24994062,6.19775812,-1.82956015\C,0,
 6.94887823,-1.70860367,-1.26742464\H,0,8.04713969,-1.65898244,-1.30172
 374\H,0,6.70729007,-2.36501791,-0.42397979\C,0,-2.13086858,5.00143742,
 -0.26475449\H,0,-2.5479692,4.28028813,-0.9784736\C,0,6.9419215,0.72020
 239,-2.01496518\H,0,6.40450824,0.62789701,-2.96525137\H,0,8.00586277,0
 .54872587,-2.21744218\H,0,6.83910989,1.75565842,-1.68056673\C,0,6.4529
 4756,-2.35086467,-2.57434393\H,0,5.36837093,-2.50910962,-2.52910924\H,
 0,6.61898148,-1.6565594,-3.40755117\C,0,7.15692331,-3.67527845,-2.9270
 4826\H,0,8.23585429,-3.48124184,-3.01478986\H,0,6.82494184,-3.99469002
 ,-3.92619368\C,0,6.95230184,-4.85670742,-1.95477762\H,0,7.27887139,-4.
 54142819,-0.95349503\C,0,7.8333786,-6.04509874,-2.37252582\H,0,7.55380
 798,-6.40738473,-3.37030763\H,0,7.72911403,-6.88329823,-1.67407898\H,0
 ,8.8926714,-5.76529594,-2.40527665\C,0,5.48007252,-5.28723582,-1.85777
 578\H,0,5.10019208,-5.59754487,-2.83997929\H,0,5.36433975,-6.136007,-1
 .17417324\H,0,4.83638403,-4.48093804,-1.49191339\\Version=EM64L-G09Rev
 C.01\HF=-1198.9264694\RMSD=4.914e-07\Dipole=0.6016341,0.8504536,0.1712
 432\Quadrupole=-6.9340131,4.5337978,2.4002153,7.7284324,-0.4971711,2.9
 303292\PG=C01 [X(C27H46O2)]\\@


 CHEMISTRY BEGAN BY SAYING IT WOULD CHANGE THE BASER
 METALS INTO GOLD.  BY NOT DOING THAT IT HAS DONE MUCH
 GREATER THINGS.  --  RALPH WALDO EMERSON
 Job cpu time:  0 days  0 hours 43 minutes  8.4 seconds.
 File lengths (MBytes):  RWF=    151 Int=      0 D2E=      0 Chk=     11 Scr=      1
 Normal termination of Gaussian 09 at Wed May 17 13:30:11 2017.
