 Entering Gaussian System, Link 0=/scratch/michal/g09//g09
 Input=JOB2-gau_m1-6-4.com
 Output=JOB2-gau_m1-6-4.log
 Initial command:
 /scratch/michal/g09/l1.exe /scratch/michal/gauss_scratch/Gau-6079.inp -scrdir=/scratch/michal/gauss_scratch/
 Entering Link 1 = /scratch/michal/g09/l1.exe PID=      6081.
  
 Copyright (c) 1988,1990,1992,1993,1995,1998,2003,2009,2011,
            Gaussian, Inc.  All Rights Reserved.
  
 This is part of the Gaussian(R) 09 program.  It is based on
 the Gaussian(R) 03 system (copyright 2003, Gaussian, Inc.),
 the Gaussian(R) 98 system (copyright 1998, Gaussian, Inc.),
 the Gaussian(R) 94 system (copyright 1995, Gaussian, Inc.),
 the Gaussian 92(TM) system (copyright 1992, Gaussian, Inc.),
 the Gaussian 90(TM) system (copyright 1990, Gaussian, Inc.),
 the Gaussian 88(TM) system (copyright 1988, Gaussian, Inc.),
 the Gaussian 86(TM) system (copyright 1986, Carnegie Mellon
 University), and the Gaussian 82(TM) system (copyright 1983,
 Carnegie Mellon University). Gaussian is a federally registered
 trademark of Gaussian, Inc.
  
 This software contains proprietary and confidential information,
 including trade secrets, belonging to Gaussian, Inc.
  
 This software is provided under written license and may be
 used, copied, transmitted, or stored only in accord with that
 written license.
  
 The following legend is applicable only to US Government
 contracts under FAR:
  
                    RESTRICTED RIGHTS LEGEND
  
 Use, reproduction and disclosure by the US Government is
 subject to restrictions as set forth in subparagraphs (a)
 and (c) of the Commercial Computer Software - Restricted
 Rights clause in FAR 52.227-19.
  
 Gaussian, Inc.
 340 Quinnipiac St., Bldg. 40, Wallingford CT 06492
  
  
 ---------------------------------------------------------------
 Warning -- This program may not be used in any manner that
 competes with the business of Gaussian, Inc. or will provide
 assistance to any competitor of Gaussian, Inc.  The licensee
 of this program is prohibited from giving any competitor of
 Gaussian, Inc. access to this program.  By using this program,
 the user acknowledges that Gaussian, Inc. is engaged in the
 business of creating and licensing software in the field of
 computational chemistry and represents and warrants to the
 licensee that it is not a competitor of Gaussian, Inc. and that
 it will not use this program in any manner prohibited above.
 ---------------------------------------------------------------
  

 Cite this work as:
 Gaussian 09, Revision C.01,
 M. J. Frisch, G. W. Trucks, H. B. Schlegel, G. E. Scuseria, 
 M. A. Robb, J. R. Cheeseman, G. Scalmani, V. Barone, B. Mennucci, 
 G. A. Petersson, H. Nakatsuji, M. Caricato, X. Li, H. P. Hratchian, 
 A. F. Izmaylov, J. Bloino, G. Zheng, J. L. Sonnenberg, M. Hada, 
 M. Ehara, K. Toyota, R. Fukuda, J. Hasegawa, M. Ishida, T. Nakajima, 
 Y. Honda, O. Kitao, H. Nakai, T. Vreven, J. A. Montgomery, Jr., 
 J. E. Peralta, F. Ogliaro, M. Bearpark, J. J. Heyd, E. Brothers, 
 K. N. Kudin, V. N. Staroverov, T. Keith, R. Kobayashi, J. Normand, 
 K. Raghavachari, A. Rendell, J. C. Burant, S. S. Iyengar, J. Tomasi, 
 M. Cossi, N. Rega, J. M. Millam, M. Klene, J. E. Knox, J. B. Cross, 
 V. Bakken, C. Adamo, J. Jaramillo, R. Gomperts, R. E. Stratmann, 
 O. Yazyev, A. J. Austin, R. Cammi, C. Pomelli, J. W. Ochterski, 
 R. L. Martin, K. Morokuma, V. G. Zakrzewski, G. A. Voth, 
 P. Salvador, J. J. Dannenberg, S. Dapprich, A. D. Daniels, 
 O. Farkas, J. B. Foresman, J. V. Ortiz, J. Cioslowski, 
 and D. J. Fox, Gaussian, Inc., Wallingford CT, 2010.
 
 ******************************************
 Gaussian 09:  EM64L-G09RevC.01 23-Sep-2011
                17-May-2017 
 ******************************************
 %Mem=256MB
 %NProc=48
 Will use up to   48 processors via shared memory.
 ----------------------------------------------------------------------
 #P HF/6-31G* SCF(Conver=6) NoSymm Test Pop=chelpg IOp(6/33=2) GFInput 
 GFPrint
 ----------------------------------------------------------------------
 1/38=1/1;
 2/12=2,15=1,17=6,18=5,40=1/2;
 3/5=1,6=6,7=1,11=9,16=1,24=110,25=1,30=1/1,2,3;
 4//1;
 5/5=2,6=6,38=5/2;
 6/7=2,8=2,9=2,10=2,15=8,20=3,28=1,33=2/1,2;
 99/5=1,9=1/99;
 Leave Link    1 at Wed May 17 12:09:56 2017, MaxMem=   33554432 cpu:       8.5
 (Enter /scratch/michal/g09/l101.exe)
 ----------------------------------------------
 MEP - Input generated by R.E.D.-III.x MOLECULE
 ----------------------------------------------
 Charge =  0 Multiplicity = 1
 Symbolic Z-Matrix:
 O                     0.        0.        0. 
 H                    -0.46357   0.46152  -0.71154 
 O                    -3.20307   5.90464   0. 
 H                    -2.89668   6.58566   0.61523 
 C                     4.19642   1.09367  -0.34722 
 C                     2.80281   0.55003   0.07376 
 H                     2.35838   0.14178  -0.84501 
 C                     1.81766   1.611     0.57888 
 H                     2.2099    2.05408   1.50581 
 C                     1.63123   2.72701  -0.48026 
 H                     1.09712   2.25667  -1.32266 
 C                     4.89282  -0.25272  -0.75012 
 H                     4.42799  -0.55256  -1.70128 
 C                     3.94405   2.10524  -1.48358 
 H                     3.51746   1.56865  -2.34333 
 H                     4.87373   2.56554  -1.8333 
 C                     0.69918   3.88228   0.02802 
 C                     3.11154  -0.65807   0.97044 
 H                     2.28859  -1.37816   0.97778 
 H                     3.2752   -0.34542   2.00978 
 C                     2.98103   3.22834  -1.04648 
 H                     3.48962   3.84728  -0.30013 
 H                     2.79837   3.88379  -1.90591 
 C                     4.41211  -1.24821   0.35694 
 H                     5.18602  -1.36266   1.12522 
 H                     4.24351  -2.24622  -0.05904 
 C                     0.45623   0.98827   0.95377 
 H                     0.58062   0.41169   1.87759 
 C                     6.42717  -0.28726  -0.95657 
 H                     6.88877   0.        0. 
 C                     4.95579   1.76261   0.82124 
 H                     4.3918    2.5854    1.26807 
 H                     5.17905   1.05299   1.6236 
 H                     5.90986   2.17628   0.47723 
 C                    -0.5278    3.3036    0.74503 
 C                     0.20446   4.70348  -1.2028 
 H                    -0.15371   3.99786  -1.96535 
 H                     1.05222   5.23535  -1.64781 
 C                    -0.60962   2.02626   1.15258 
 H                    -1.52292   1.67959   1.63527 
 C                     1.4419    4.82354   1.01521 
 H                     2.21447   5.40597   0.50437 
 H                     0.75831   5.53644   1.4828 
 H                     1.91698   4.25682   1.82163 
 C                    -1.68337   4.25401   1.00014 
 H                    -2.53504   3.71008   1.42027 
 H                    -1.38868   5.00557   1.74991 
 C                    -0.92241   5.70444  -0.90498 
 H                    -0.5655    6.49609  -0.22972 
 H                    -1.23782   6.2002   -1.83002 
 C                     6.95055  -1.72878  -1.22042 
 H                     8.04166  -1.67062  -1.34327 
 H                     6.79049  -2.31079  -0.30501 
 C                    -2.12245   5.0067   -0.2652 
 H                    -2.54193   4.28729  -0.97928 
 C                     6.93382   0.71927  -2.008 
 H                     6.36399   0.66679  -2.94095 
 H                     7.98518   0.52769  -2.25054 
 H                     6.86844   1.74815  -1.64325 
 C                     6.3692   -2.5521   -2.39164 
 H                     6.65809  -3.59574  -2.21278 
 H                     5.27358  -2.53865  -2.34693 
 C                     6.8395   -2.15127  -3.80131 
 H                     7.93267  -2.03229  -3.78803 
 H                     6.43142  -1.16819  -4.06287 
 C                     6.47459  -3.13356  -4.94097 
 H                     6.85125  -2.67222  -5.86598 
 C                     4.95574  -3.30671  -5.10845 
 H                     4.51049  -3.81918  -4.24792 
 H                     4.72659  -3.90359  -5.99869 
 H                     4.45309  -2.33835  -5.21753 
 C                     7.17426  -4.49632  -4.80475 
 H                     6.81102  -5.05669  -3.93566 
 H                     6.99199  -5.1164   -5.68995 
 H                     8.259    -4.3784   -4.69746 
 
 NAtoms=     75 NQM=        0 NQMF=       0 NMMI=     75 NMMIF=      0
                NMic=       0 NMicF=      0.
                    Isotopes and Nuclear Properties:
 (Nuclear quadrupole moments (NQMom) in fm**2, nuclear magnetic moments (NMagM)
  in nuclear magnetons)

  Atom         1           2           3           4           5           6           7           8           9          10
 IAtWgt=          16           1          16           1          12          12           1          12           1          12
 AtmWgt=  15.9949146   1.0078250  15.9949146   1.0078250  12.0000000  12.0000000   1.0078250  12.0000000   1.0078250  12.0000000
 NucSpn=           0           1           0           1           0           0           1           0           1           0
 AtZEff=   0.0000000   0.0000000   0.0000000   0.0000000   0.0000000   0.0000000   0.0000000   0.0000000   0.0000000   0.0000000
 NQMom=    0.0000000   0.0000000   0.0000000   0.0000000   0.0000000   0.0000000   0.0000000   0.0000000   0.0000000   0.0000000
 NMagM=    0.0000000   2.7928460   0.0000000   2.7928460   0.0000000   0.0000000   2.7928460   0.0000000   2.7928460   0.0000000

  Atom        11          12          13          14          15          16          17          18          19          20
 IAtWgt=           1          12           1          12           1           1          12          12           1           1
 AtmWgt=   1.0078250  12.0000000   1.0078250  12.0000000   1.0078250   1.0078250  12.0000000  12.0000000   1.0078250   1.0078250
 NucSpn=           1           0           1           0           1           1           0           0           1           1
 AtZEff=   0.0000000   0.0000000   0.0000000   0.0000000   0.0000000   0.0000000   0.0000000   0.0000000   0.0000000   0.0000000
 NQMom=    0.0000000   0.0000000   0.0000000   0.0000000   0.0000000   0.0000000   0.0000000   0.0000000   0.0000000   0.0000000
 NMagM=    2.7928460   0.0000000   2.7928460   0.0000000   2.7928460   2.7928460   0.0000000   0.0000000   2.7928460   2.7928460

  Atom        21          22          23          24          25          26          27          28          29          30
 IAtWgt=          12           1           1          12           1           1          12           1          12           1
 AtmWgt=  12.0000000   1.0078250   1.0078250  12.0000000   1.0078250   1.0078250  12.0000000   1.0078250  12.0000000   1.0078250
 NucSpn=           0           1           1           0           1           1           0           1           0           1
 AtZEff=   0.0000000   0.0000000   0.0000000   0.0000000   0.0000000   0.0000000   0.0000000   0.0000000   0.0000000   0.0000000
 NQMom=    0.0000000   0.0000000   0.0000000   0.0000000   0.0000000   0.0000000   0.0000000   0.0000000   0.0000000   0.0000000
 NMagM=    0.0000000   2.7928460   2.7928460   0.0000000   2.7928460   2.7928460   0.0000000   2.7928460   0.0000000   2.7928460

  Atom        31          32          33          34          35          36          37          38          39          40
 IAtWgt=          12           1           1           1          12          12           1           1          12           1
 AtmWgt=  12.0000000   1.0078250   1.0078250   1.0078250  12.0000000  12.0000000   1.0078250   1.0078250  12.0000000   1.0078250
 NucSpn=           0           1           1           1           0           0           1           1           0           1
 AtZEff=   0.0000000   0.0000000   0.0000000   0.0000000   0.0000000   0.0000000   0.0000000   0.0000000   0.0000000   0.0000000
 NQMom=    0.0000000   0.0000000   0.0000000   0.0000000   0.0000000   0.0000000   0.0000000   0.0000000   0.0000000   0.0000000
 NMagM=    0.0000000   2.7928460   2.7928460   2.7928460   0.0000000   0.0000000   2.7928460   2.7928460   0.0000000   2.7928460

  Atom        41          42          43          44          45          46          47          48          49          50
 IAtWgt=          12           1           1           1          12           1           1          12           1           1
 AtmWgt=  12.0000000   1.0078250   1.0078250   1.0078250  12.0000000   1.0078250   1.0078250  12.0000000   1.0078250   1.0078250
 NucSpn=           0           1           1           1           0           1           1           0           1           1
 AtZEff=   0.0000000   0.0000000   0.0000000   0.0000000   0.0000000   0.0000000   0.0000000   0.0000000   0.0000000   0.0000000
 NQMom=    0.0000000   0.0000000   0.0000000   0.0000000   0.0000000   0.0000000   0.0000000   0.0000000   0.0000000   0.0000000
 NMagM=    0.0000000   2.7928460   2.7928460   2.7928460   0.0000000   2.7928460   2.7928460   0.0000000   2.7928460   2.7928460

  Atom        51          52          53          54          55          56          57          58          59          60
 IAtWgt=          12           1           1          12           1          12           1           1           1          12
 AtmWgt=  12.0000000   1.0078250   1.0078250  12.0000000   1.0078250  12.0000000   1.0078250   1.0078250   1.0078250  12.0000000
 NucSpn=           0           1           1           0           1           0           1           1           1           0
 AtZEff=   0.0000000   0.0000000   0.0000000   0.0000000   0.0000000   0.0000000   0.0000000   0.0000000   0.0000000   0.0000000
 NQMom=    0.0000000   0.0000000   0.0000000   0.0000000   0.0000000   0.0000000   0.0000000   0.0000000   0.0000000   0.0000000
 NMagM=    0.0000000   2.7928460   2.7928460   0.0000000   2.7928460   0.0000000   2.7928460   2.7928460   2.7928460   0.0000000

  Atom        61          62          63          64          65          66          67          68          69          70
 IAtWgt=           1           1          12           1           1          12           1          12           1           1
 AtmWgt=   1.0078250   1.0078250  12.0000000   1.0078250   1.0078250  12.0000000   1.0078250  12.0000000   1.0078250   1.0078250
 NucSpn=           1           1           0           1           1           0           1           0           1           1
 AtZEff=   0.0000000   0.0000000   0.0000000   0.0000000   0.0000000   0.0000000   0.0000000   0.0000000   0.0000000   0.0000000
 NQMom=    0.0000000   0.0000000   0.0000000   0.0000000   0.0000000   0.0000000   0.0000000   0.0000000   0.0000000   0.0000000
 NMagM=    2.7928460   2.7928460   0.0000000   2.7928460   2.7928460   0.0000000   2.7928460   0.0000000   2.7928460   2.7928460

  Atom        71          72          73          74          75
 IAtWgt=           1          12           1           1           1
 AtmWgt=   1.0078250  12.0000000   1.0078250   1.0078250   1.0078250
 NucSpn=           1           0           1           1           1
 AtZEff=   0.0000000   0.0000000   0.0000000   0.0000000   0.0000000
 NQMom=    0.0000000   0.0000000   0.0000000   0.0000000   0.0000000
 NMagM=    2.7928460   0.0000000   2.7928460   2.7928460   2.7928460
 Leave Link  101 at Wed May 17 12:09:56 2017, MaxMem=   33554432 cpu:      12.4
 (Enter /scratch/michal/g09/l202.exe)
 Symmetry turned off by external request.
 Stoichiometry    C27H46O2
 Framework group  C1[X(C27H46O2)]
 Deg. of freedom   219
 Full point group                 C1      NOp   1
                          Input orientation:                          
 ---------------------------------------------------------------------
 Center     Atomic      Atomic             Coordinates (Angstroms)
 Number     Number       Type             X           Y           Z
 ---------------------------------------------------------------------
      1          8           0        0.000000    0.000000    0.000000
      2          1           0       -0.463569    0.461517   -0.711545
      3          8           0       -3.203074    5.904642    0.000000
      4          1           0       -2.896676    6.585661    0.615228
      5          6           0        4.196418    1.093668   -0.347220
      6          6           0        2.802814    0.550031    0.073763
      7          1           0        2.358380    0.141778   -0.845012
      8          6           0        1.817655    1.610999    0.578882
      9          1           0        2.209904    2.054083    1.505806
     10          6           0        1.631234    2.727012   -0.480258
     11          1           0        1.097122    2.256667   -1.322660
     12          6           0        4.892818   -0.252717   -0.750120
     13          1           0        4.427986   -0.552561   -1.701280
     14          6           0        3.944054    2.105239   -1.483577
     15          1           0        3.517460    1.568650   -2.343328
     16          1           0        4.873733    2.565537   -1.833296
     17          6           0        0.699179    3.882285    0.028017
     18          6           0        3.111544   -0.658067    0.970441
     19          1           0        2.288589   -1.378160    0.977778
     20          1           0        3.275197   -0.345419    2.009780
     21          6           0        2.981032    3.228337   -1.046479
     22          1           0        3.489618    3.847277   -0.300130
     23          1           0        2.798368    3.883787   -1.905912
     24          6           0        4.412105   -1.248208    0.356939
     25          1           0        5.186020   -1.362658    1.125215
     26          1           0        4.243513   -2.246216   -0.059036
     27          6           0        0.456232    0.988270    0.953769
     28          1           0        0.580619    0.411689    1.877588
     29          6           0        6.427174   -0.287259   -0.956566
     30          1           0        6.888767    0.000000    0.000000
     31          6           0        4.955793    1.762614    0.821241
     32          1           0        4.391804    2.585396    1.268070
     33          1           0        5.179053    1.052994    1.623600
     34          1           0        5.909856    2.176282    0.477226
     35          6           0       -0.527802    3.303596    0.745030
     36          6           0        0.204460    4.703485   -1.202802
     37          1           0       -0.153714    3.997861   -1.965349
     38          1           0        1.052217    5.235354   -1.647809
     39          6           0       -0.609617    2.026262    1.152576
     40          1           0       -1.522919    1.679594    1.635270
     41          6           0        1.441905    4.823537    1.015212
     42          1           0        2.214475    5.405969    0.504366
     43          1           0        0.758308    5.536438    1.482800
     44          1           0        1.916975    4.256816    1.821629
     45          6           0       -1.683367    4.254013    1.000143
     46          1           0       -2.535040    3.710076    1.420267
     47          1           0       -1.388680    5.005572    1.749908
     48          6           0       -0.922414    5.704439   -0.904977
     49          1           0       -0.565496    6.496092   -0.229722
     50          1           0       -1.237824    6.200204   -1.830024
     51          6           0        6.950547   -1.728780   -1.220424
     52          1           0        8.041657   -1.670616   -1.343273
     53          1           0        6.790490   -2.310788   -0.305014
     54          6           0       -2.122447    5.006701   -0.265202
     55          1           0       -2.541934    4.287290   -0.979276
     56          6           0        6.933818    0.719272   -2.008004
     57          1           0        6.363988    0.666785   -2.940953
     58          1           0        7.985182    0.527691   -2.250545
     59          1           0        6.868435    1.748152   -1.643247
     60          6           0        6.369203   -2.552101   -2.391638
     61          1           0        6.658094   -3.595744   -2.212779
     62          1           0        5.273578   -2.538654   -2.346928
     63          6           0        6.839495   -2.151274   -3.801306
     64          1           0        7.932673   -2.032289   -3.788027
     65          1           0        6.431424   -1.168186   -4.062871
     66          6           0        6.474592   -3.133561   -4.940970
     67          1           0        6.851246   -2.672224   -5.865985
     68          6           0        4.955739   -3.306705   -5.108454
     69          1           0        4.510489   -3.819181   -4.247916
     70          1           0        4.726590   -3.903587   -5.998685
     71          1           0        4.453091   -2.338353   -5.217528
     72          6           0        7.174263   -4.496319   -4.804745
     73          1           0        6.811021   -5.056687   -3.935656
     74          1           0        6.991994   -5.116399   -5.689953
     75          1           0        8.259002   -4.378396   -4.697462
 ---------------------------------------------------------------------
 Rotational constants (GHZ):      0.3478465      0.0634761      0.0627164
 Leave Link  202 at Wed May 17 12:09:56 2017, MaxMem=   33554432 cpu:       0.3
 (Enter /scratch/michal/g09/l301.exe)
 Standard basis: 6-31G(d) (6D, 7F)
 Ernie: Thresh=  0.10000D-02 Tol=  0.10000D-05 Strict=F.
 AO basis set in the form of general basis input (Overlap normalization):
      1 0
 S   6 1.00       0.000000000000
      0.5484671660D+04  0.1831074430D-02
      0.8252349460D+03  0.1395017220D-01
      0.1880469580D+03  0.6844507810D-01
      0.5296450000D+02  0.2327143360D+00
      0.1689757040D+02  0.4701928980D+00
      0.5799635340D+01  0.3585208530D+00
 SP   3 1.00       0.000000000000
      0.1553961625D+02 -0.1107775495D+00  0.7087426823D-01
      0.3599933586D+01 -0.1480262627D+00  0.3397528391D+00
      0.1013761750D+01  0.1130767015D+01  0.7271585773D+00
 SP   1 1.00       0.000000000000
      0.2700058226D+00  0.1000000000D+01  0.1000000000D+01
 D   1 1.00       0.000000000000
      0.8000000000D+00  0.1000000000D+01
 ****
      2 0
 S   3 1.00       0.000000000000
      0.1873113696D+02  0.3349460434D-01
      0.2825394365D+01  0.2347269535D+00
      0.6401216923D+00  0.8137573261D+00
 S   1 1.00       0.000000000000
      0.1612777588D+00  0.1000000000D+01
 ****
      3 0
 S   6 1.00       0.000000000000
      0.5484671660D+04  0.1831074430D-02
      0.8252349460D+03  0.1395017220D-01
      0.1880469580D+03  0.6844507810D-01
      0.5296450000D+02  0.2327143360D+00
      0.1689757040D+02  0.4701928980D+00
      0.5799635340D+01  0.3585208530D+00
 SP   3 1.00       0.000000000000
      0.1553961625D+02 -0.1107775495D+00  0.7087426823D-01
      0.3599933586D+01 -0.1480262627D+00  0.3397528391D+00
      0.1013761750D+01  0.1130767015D+01  0.7271585773D+00
 SP   1 1.00       0.000000000000
      0.2700058226D+00  0.1000000000D+01  0.1000000000D+01
 D   1 1.00       0.000000000000
      0.8000000000D+00  0.1000000000D+01
 ****
      4 0
 S   3 1.00       0.000000000000
      0.1873113696D+02  0.3349460434D-01
      0.2825394365D+01  0.2347269535D+00
      0.6401216923D+00  0.8137573261D+00
 S   1 1.00       0.000000000000
      0.1612777588D+00  0.1000000000D+01
 ****
      5 0
 S   6 1.00       0.000000000000
      0.3047524880D+04  0.1834737132D-02
      0.4573695180D+03  0.1403732281D-01
      0.1039486850D+03  0.6884262226D-01
      0.2921015530D+02  0.2321844432D+00
      0.9286662960D+01  0.4679413484D+00
      0.3163926960D+01  0.3623119853D+00
 SP   3 1.00       0.000000000000
      0.7868272350D+01 -0.1193324198D+00  0.6899906659D-01
      0.1881288540D+01 -0.1608541517D+00  0.3164239610D+00
      0.5442492580D+00  0.1143456438D+01  0.7443082909D+00
 SP   1 1.00       0.000000000000
      0.1687144782D+00  0.1000000000D+01  0.1000000000D+01
 D   1 1.00       0.000000000000
      0.8000000000D+00  0.1000000000D+01
 ****
      6 0
 S   6 1.00       0.000000000000
      0.3047524880D+04  0.1834737132D-02
      0.4573695180D+03  0.1403732281D-01
      0.1039486850D+03  0.6884262226D-01
      0.2921015530D+02  0.2321844432D+00
      0.9286662960D+01  0.4679413484D+00
      0.3163926960D+01  0.3623119853D+00
 SP   3 1.00       0.000000000000
      0.7868272350D+01 -0.1193324198D+00  0.6899906659D-01
      0.1881288540D+01 -0.1608541517D+00  0.3164239610D+00
      0.5442492580D+00  0.1143456438D+01  0.7443082909D+00
 SP   1 1.00       0.000000000000
      0.1687144782D+00  0.1000000000D+01  0.1000000000D+01
 D   1 1.00       0.000000000000
      0.8000000000D+00  0.1000000000D+01
 ****
      7 0
 S   3 1.00       0.000000000000
      0.1873113696D+02  0.3349460434D-01
      0.2825394365D+01  0.2347269535D+00
      0.6401216923D+00  0.8137573261D+00
 S   1 1.00       0.000000000000
      0.1612777588D+00  0.1000000000D+01
 ****
      8 0
 S   6 1.00       0.000000000000
      0.3047524880D+04  0.1834737132D-02
      0.4573695180D+03  0.1403732281D-01
      0.1039486850D+03  0.6884262226D-01
      0.2921015530D+02  0.2321844432D+00
      0.9286662960D+01  0.4679413484D+00
      0.3163926960D+01  0.3623119853D+00
 SP   3 1.00       0.000000000000
      0.7868272350D+01 -0.1193324198D+00  0.6899906659D-01
      0.1881288540D+01 -0.1608541517D+00  0.3164239610D+00
      0.5442492580D+00  0.1143456438D+01  0.7443082909D+00
 SP   1 1.00       0.000000000000
      0.1687144782D+00  0.1000000000D+01  0.1000000000D+01
 D   1 1.00       0.000000000000
      0.8000000000D+00  0.1000000000D+01
 ****
      9 0
 S   3 1.00       0.000000000000
      0.1873113696D+02  0.3349460434D-01
      0.2825394365D+01  0.2347269535D+00
      0.6401216923D+00  0.8137573261D+00
 S   1 1.00       0.000000000000
      0.1612777588D+00  0.1000000000D+01
 ****
     10 0
 S   6 1.00       0.000000000000
      0.3047524880D+04  0.1834737132D-02
      0.4573695180D+03  0.1403732281D-01
      0.1039486850D+03  0.6884262226D-01
      0.2921015530D+02  0.2321844432D+00
      0.9286662960D+01  0.4679413484D+00
      0.3163926960D+01  0.3623119853D+00
 SP   3 1.00       0.000000000000
      0.7868272350D+01 -0.1193324198D+00  0.6899906659D-01
      0.1881288540D+01 -0.1608541517D+00  0.3164239610D+00
      0.5442492580D+00  0.1143456438D+01  0.7443082909D+00
 SP   1 1.00       0.000000000000
      0.1687144782D+00  0.1000000000D+01  0.1000000000D+01
 D   1 1.00       0.000000000000
      0.8000000000D+00  0.1000000000D+01
 ****
     11 0
 S   3 1.00       0.000000000000
      0.1873113696D+02  0.3349460434D-01
      0.2825394365D+01  0.2347269535D+00
      0.6401216923D+00  0.8137573261D+00
 S   1 1.00       0.000000000000
      0.1612777588D+00  0.1000000000D+01
 ****
     12 0
 S   6 1.00       0.000000000000
      0.3047524880D+04  0.1834737132D-02
      0.4573695180D+03  0.1403732281D-01
      0.1039486850D+03  0.6884262226D-01
      0.2921015530D+02  0.2321844432D+00
      0.9286662960D+01  0.4679413484D+00
      0.3163926960D+01  0.3623119853D+00
 SP   3 1.00       0.000000000000
      0.7868272350D+01 -0.1193324198D+00  0.6899906659D-01
      0.1881288540D+01 -0.1608541517D+00  0.3164239610D+00
      0.5442492580D+00  0.1143456438D+01  0.7443082909D+00
 SP   1 1.00       0.000000000000
      0.1687144782D+00  0.1000000000D+01  0.1000000000D+01
 D   1 1.00       0.000000000000
      0.8000000000D+00  0.1000000000D+01
 ****
     13 0
 S   3 1.00       0.000000000000
      0.1873113696D+02  0.3349460434D-01
      0.2825394365D+01  0.2347269535D+00
      0.6401216923D+00  0.8137573261D+00
 S   1 1.00       0.000000000000
      0.1612777588D+00  0.1000000000D+01
 ****
     14 0
 S   6 1.00       0.000000000000
      0.3047524880D+04  0.1834737132D-02
      0.4573695180D+03  0.1403732281D-01
      0.1039486850D+03  0.6884262226D-01
      0.2921015530D+02  0.2321844432D+00
      0.9286662960D+01  0.4679413484D+00
      0.3163926960D+01  0.3623119853D+00
 SP   3 1.00       0.000000000000
      0.7868272350D+01 -0.1193324198D+00  0.6899906659D-01
      0.1881288540D+01 -0.1608541517D+00  0.3164239610D+00
      0.5442492580D+00  0.1143456438D+01  0.7443082909D+00
 SP   1 1.00       0.000000000000
      0.1687144782D+00  0.1000000000D+01  0.1000000000D+01
 D   1 1.00       0.000000000000
      0.8000000000D+00  0.1000000000D+01
 ****
     15 0
 S   3 1.00       0.000000000000
      0.1873113696D+02  0.3349460434D-01
      0.2825394365D+01  0.2347269535D+00
      0.6401216923D+00  0.8137573261D+00
 S   1 1.00       0.000000000000
      0.1612777588D+00  0.1000000000D+01
 ****
     16 0
 S   3 1.00       0.000000000000
      0.1873113696D+02  0.3349460434D-01
      0.2825394365D+01  0.2347269535D+00
      0.6401216923D+00  0.8137573261D+00
 S   1 1.00       0.000000000000
      0.1612777588D+00  0.1000000000D+01
 ****
     17 0
 S   6 1.00       0.000000000000
      0.3047524880D+04  0.1834737132D-02
      0.4573695180D+03  0.1403732281D-01
      0.1039486850D+03  0.6884262226D-01
      0.2921015530D+02  0.2321844432D+00
      0.9286662960D+01  0.4679413484D+00
      0.3163926960D+01  0.3623119853D+00
 SP   3 1.00       0.000000000000
      0.7868272350D+01 -0.1193324198D+00  0.6899906659D-01
      0.1881288540D+01 -0.1608541517D+00  0.3164239610D+00
      0.5442492580D+00  0.1143456438D+01  0.7443082909D+00
 SP   1 1.00       0.000000000000
      0.1687144782D+00  0.1000000000D+01  0.1000000000D+01
 D   1 1.00       0.000000000000
      0.8000000000D+00  0.1000000000D+01
 ****
     18 0
 S   6 1.00       0.000000000000
      0.3047524880D+04  0.1834737132D-02
      0.4573695180D+03  0.1403732281D-01
      0.1039486850D+03  0.6884262226D-01
      0.2921015530D+02  0.2321844432D+00
      0.9286662960D+01  0.4679413484D+00
      0.3163926960D+01  0.3623119853D+00
 SP   3 1.00       0.000000000000
      0.7868272350D+01 -0.1193324198D+00  0.6899906659D-01
      0.1881288540D+01 -0.1608541517D+00  0.3164239610D+00
      0.5442492580D+00  0.1143456438D+01  0.7443082909D+00
 SP   1 1.00       0.000000000000
      0.1687144782D+00  0.1000000000D+01  0.1000000000D+01
 D   1 1.00       0.000000000000
      0.8000000000D+00  0.1000000000D+01
 ****
     19 0
 S   3 1.00       0.000000000000
      0.1873113696D+02  0.3349460434D-01
      0.2825394365D+01  0.2347269535D+00
      0.6401216923D+00  0.8137573261D+00
 S   1 1.00       0.000000000000
      0.1612777588D+00  0.1000000000D+01
 ****
     20 0
 S   3 1.00       0.000000000000
      0.1873113696D+02  0.3349460434D-01
      0.2825394365D+01  0.2347269535D+00
      0.6401216923D+00  0.8137573261D+00
 S   1 1.00       0.000000000000
      0.1612777588D+00  0.1000000000D+01
 ****
     21 0
 S   6 1.00       0.000000000000
      0.3047524880D+04  0.1834737132D-02
      0.4573695180D+03  0.1403732281D-01
      0.1039486850D+03  0.6884262226D-01
      0.2921015530D+02  0.2321844432D+00
      0.9286662960D+01  0.4679413484D+00
      0.3163926960D+01  0.3623119853D+00
 SP   3 1.00       0.000000000000
      0.7868272350D+01 -0.1193324198D+00  0.6899906659D-01
      0.1881288540D+01 -0.1608541517D+00  0.3164239610D+00
      0.5442492580D+00  0.1143456438D+01  0.7443082909D+00
 SP   1 1.00       0.000000000000
      0.1687144782D+00  0.1000000000D+01  0.1000000000D+01
 D   1 1.00       0.000000000000
      0.8000000000D+00  0.1000000000D+01
 ****
     22 0
 S   3 1.00       0.000000000000
      0.1873113696D+02  0.3349460434D-01
      0.2825394365D+01  0.2347269535D+00
      0.6401216923D+00  0.8137573261D+00
 S   1 1.00       0.000000000000
      0.1612777588D+00  0.1000000000D+01
 ****
     23 0
 S   3 1.00       0.000000000000
      0.1873113696D+02  0.3349460434D-01
      0.2825394365D+01  0.2347269535D+00
      0.6401216923D+00  0.8137573261D+00
 S   1 1.00       0.000000000000
      0.1612777588D+00  0.1000000000D+01
 ****
     24 0
 S   6 1.00       0.000000000000
      0.3047524880D+04  0.1834737132D-02
      0.4573695180D+03  0.1403732281D-01
      0.1039486850D+03  0.6884262226D-01
      0.2921015530D+02  0.2321844432D+00
      0.9286662960D+01  0.4679413484D+00
      0.3163926960D+01  0.3623119853D+00
 SP   3 1.00       0.000000000000
      0.7868272350D+01 -0.1193324198D+00  0.6899906659D-01
      0.1881288540D+01 -0.1608541517D+00  0.3164239610D+00
      0.5442492580D+00  0.1143456438D+01  0.7443082909D+00
 SP   1 1.00       0.000000000000
      0.1687144782D+00  0.1000000000D+01  0.1000000000D+01
 D   1 1.00       0.000000000000
      0.8000000000D+00  0.1000000000D+01
 ****
     25 0
 S   3 1.00       0.000000000000
      0.1873113696D+02  0.3349460434D-01
      0.2825394365D+01  0.2347269535D+00
      0.6401216923D+00  0.8137573261D+00
 S   1 1.00       0.000000000000
      0.1612777588D+00  0.1000000000D+01
 ****
     26 0
 S   3 1.00       0.000000000000
      0.1873113696D+02  0.3349460434D-01
      0.2825394365D+01  0.2347269535D+00
      0.6401216923D+00  0.8137573261D+00
 S   1 1.00       0.000000000000
      0.1612777588D+00  0.1000000000D+01
 ****
     27 0
 S   6 1.00       0.000000000000
      0.3047524880D+04  0.1834737132D-02
      0.4573695180D+03  0.1403732281D-01
      0.1039486850D+03  0.6884262226D-01
      0.2921015530D+02  0.2321844432D+00
      0.9286662960D+01  0.4679413484D+00
      0.3163926960D+01  0.3623119853D+00
 SP   3 1.00       0.000000000000
      0.7868272350D+01 -0.1193324198D+00  0.6899906659D-01
      0.1881288540D+01 -0.1608541517D+00  0.3164239610D+00
      0.5442492580D+00  0.1143456438D+01  0.7443082909D+00
 SP   1 1.00       0.000000000000
      0.1687144782D+00  0.1000000000D+01  0.1000000000D+01
 D   1 1.00       0.000000000000
      0.8000000000D+00  0.1000000000D+01
 ****
     28 0
 S   3 1.00       0.000000000000
      0.1873113696D+02  0.3349460434D-01
      0.2825394365D+01  0.2347269535D+00
      0.6401216923D+00  0.8137573261D+00
 S   1 1.00       0.000000000000
      0.1612777588D+00  0.1000000000D+01
 ****
     29 0
 S   6 1.00       0.000000000000
      0.3047524880D+04  0.1834737132D-02
      0.4573695180D+03  0.1403732281D-01
      0.1039486850D+03  0.6884262226D-01
      0.2921015530D+02  0.2321844432D+00
      0.9286662960D+01  0.4679413484D+00
      0.3163926960D+01  0.3623119853D+00
 SP   3 1.00       0.000000000000
      0.7868272350D+01 -0.1193324198D+00  0.6899906659D-01
      0.1881288540D+01 -0.1608541517D+00  0.3164239610D+00
      0.5442492580D+00  0.1143456438D+01  0.7443082909D+00
 SP   1 1.00       0.000000000000
      0.1687144782D+00  0.1000000000D+01  0.1000000000D+01
 D   1 1.00       0.000000000000
      0.8000000000D+00  0.1000000000D+01
 ****
     30 0
 S   3 1.00       0.000000000000
      0.1873113696D+02  0.3349460434D-01
      0.2825394365D+01  0.2347269535D+00
      0.6401216923D+00  0.8137573261D+00
 S   1 1.00       0.000000000000
      0.1612777588D+00  0.1000000000D+01
 ****
     31 0
 S   6 1.00       0.000000000000
      0.3047524880D+04  0.1834737132D-02
      0.4573695180D+03  0.1403732281D-01
      0.1039486850D+03  0.6884262226D-01
      0.2921015530D+02  0.2321844432D+00
      0.9286662960D+01  0.4679413484D+00
      0.3163926960D+01  0.3623119853D+00
 SP   3 1.00       0.000000000000
      0.7868272350D+01 -0.1193324198D+00  0.6899906659D-01
      0.1881288540D+01 -0.1608541517D+00  0.3164239610D+00
      0.5442492580D+00  0.1143456438D+01  0.7443082909D+00
 SP   1 1.00       0.000000000000
      0.1687144782D+00  0.1000000000D+01  0.1000000000D+01
 D   1 1.00       0.000000000000
      0.8000000000D+00  0.1000000000D+01
 ****
     32 0
 S   3 1.00       0.000000000000
      0.1873113696D+02  0.3349460434D-01
      0.2825394365D+01  0.2347269535D+00
      0.6401216923D+00  0.8137573261D+00
 S   1 1.00       0.000000000000
      0.1612777588D+00  0.1000000000D+01
 ****
     33 0
 S   3 1.00       0.000000000000
      0.1873113696D+02  0.3349460434D-01
      0.2825394365D+01  0.2347269535D+00
      0.6401216923D+00  0.8137573261D+00
 S   1 1.00       0.000000000000
      0.1612777588D+00  0.1000000000D+01
 ****
     34 0
 S   3 1.00       0.000000000000
      0.1873113696D+02  0.3349460434D-01
      0.2825394365D+01  0.2347269535D+00
      0.6401216923D+00  0.8137573261D+00
 S   1 1.00       0.000000000000
      0.1612777588D+00  0.1000000000D+01
 ****
     35 0
 S   6 1.00       0.000000000000
      0.3047524880D+04  0.1834737132D-02
      0.4573695180D+03  0.1403732281D-01
      0.1039486850D+03  0.6884262226D-01
      0.2921015530D+02  0.2321844432D+00
      0.9286662960D+01  0.4679413484D+00
      0.3163926960D+01  0.3623119853D+00
 SP   3 1.00       0.000000000000
      0.7868272350D+01 -0.1193324198D+00  0.6899906659D-01
      0.1881288540D+01 -0.1608541517D+00  0.3164239610D+00
      0.5442492580D+00  0.1143456438D+01  0.7443082909D+00
 SP   1 1.00       0.000000000000
      0.1687144782D+00  0.1000000000D+01  0.1000000000D+01
 D   1 1.00       0.000000000000
      0.8000000000D+00  0.1000000000D+01
 ****
     36 0
 S   6 1.00       0.000000000000
      0.3047524880D+04  0.1834737132D-02
      0.4573695180D+03  0.1403732281D-01
      0.1039486850D+03  0.6884262226D-01
      0.2921015530D+02  0.2321844432D+00
      0.9286662960D+01  0.4679413484D+00
      0.3163926960D+01  0.3623119853D+00
 SP   3 1.00       0.000000000000
      0.7868272350D+01 -0.1193324198D+00  0.6899906659D-01
      0.1881288540D+01 -0.1608541517D+00  0.3164239610D+00
      0.5442492580D+00  0.1143456438D+01  0.7443082909D+00
 SP   1 1.00       0.000000000000
      0.1687144782D+00  0.1000000000D+01  0.1000000000D+01
 D   1 1.00       0.000000000000
      0.8000000000D+00  0.1000000000D+01
 ****
     37 0
 S   3 1.00       0.000000000000
      0.1873113696D+02  0.3349460434D-01
      0.2825394365D+01  0.2347269535D+00
      0.6401216923D+00  0.8137573261D+00
 S   1 1.00       0.000000000000
      0.1612777588D+00  0.1000000000D+01
 ****
     38 0
 S   3 1.00       0.000000000000
      0.1873113696D+02  0.3349460434D-01
      0.2825394365D+01  0.2347269535D+00
      0.6401216923D+00  0.8137573261D+00
 S   1 1.00       0.000000000000
      0.1612777588D+00  0.1000000000D+01
 ****
     39 0
 S   6 1.00       0.000000000000
      0.3047524880D+04  0.1834737132D-02
      0.4573695180D+03  0.1403732281D-01
      0.1039486850D+03  0.6884262226D-01
      0.2921015530D+02  0.2321844432D+00
      0.9286662960D+01  0.4679413484D+00
      0.3163926960D+01  0.3623119853D+00
 SP   3 1.00       0.000000000000
      0.7868272350D+01 -0.1193324198D+00  0.6899906659D-01
      0.1881288540D+01 -0.1608541517D+00  0.3164239610D+00
      0.5442492580D+00  0.1143456438D+01  0.7443082909D+00
 SP   1 1.00       0.000000000000
      0.1687144782D+00  0.1000000000D+01  0.1000000000D+01
 D   1 1.00       0.000000000000
      0.8000000000D+00  0.1000000000D+01
 ****
     40 0
 S   3 1.00       0.000000000000
      0.1873113696D+02  0.3349460434D-01
      0.2825394365D+01  0.2347269535D+00
      0.6401216923D+00  0.8137573261D+00
 S   1 1.00       0.000000000000
      0.1612777588D+00  0.1000000000D+01
 ****
     41 0
 S   6 1.00       0.000000000000
      0.3047524880D+04  0.1834737132D-02
      0.4573695180D+03  0.1403732281D-01
      0.1039486850D+03  0.6884262226D-01
      0.2921015530D+02  0.2321844432D+00
      0.9286662960D+01  0.4679413484D+00
      0.3163926960D+01  0.3623119853D+00
 SP   3 1.00       0.000000000000
      0.7868272350D+01 -0.1193324198D+00  0.6899906659D-01
      0.1881288540D+01 -0.1608541517D+00  0.3164239610D+00
      0.5442492580D+00  0.1143456438D+01  0.7443082909D+00
 SP   1 1.00       0.000000000000
      0.1687144782D+00  0.1000000000D+01  0.1000000000D+01
 D   1 1.00       0.000000000000
      0.8000000000D+00  0.1000000000D+01
 ****
     42 0
 S   3 1.00       0.000000000000
      0.1873113696D+02  0.3349460434D-01
      0.2825394365D+01  0.2347269535D+00
      0.6401216923D+00  0.8137573261D+00
 S   1 1.00       0.000000000000
      0.1612777588D+00  0.1000000000D+01
 ****
     43 0
 S   3 1.00       0.000000000000
      0.1873113696D+02  0.3349460434D-01
      0.2825394365D+01  0.2347269535D+00
      0.6401216923D+00  0.8137573261D+00
 S   1 1.00       0.000000000000
      0.1612777588D+00  0.1000000000D+01
 ****
     44 0
 S   3 1.00       0.000000000000
      0.1873113696D+02  0.3349460434D-01
      0.2825394365D+01  0.2347269535D+00
      0.6401216923D+00  0.8137573261D+00
 S   1 1.00       0.000000000000
      0.1612777588D+00  0.1000000000D+01
 ****
     45 0
 S   6 1.00       0.000000000000
      0.3047524880D+04  0.1834737132D-02
      0.4573695180D+03  0.1403732281D-01
      0.1039486850D+03  0.6884262226D-01
      0.2921015530D+02  0.2321844432D+00
      0.9286662960D+01  0.4679413484D+00
      0.3163926960D+01  0.3623119853D+00
 SP   3 1.00       0.000000000000
      0.7868272350D+01 -0.1193324198D+00  0.6899906659D-01
      0.1881288540D+01 -0.1608541517D+00  0.3164239610D+00
      0.5442492580D+00  0.1143456438D+01  0.7443082909D+00
 SP   1 1.00       0.000000000000
      0.1687144782D+00  0.1000000000D+01  0.1000000000D+01
 D   1 1.00       0.000000000000
      0.8000000000D+00  0.1000000000D+01
 ****
     46 0
 S   3 1.00       0.000000000000
      0.1873113696D+02  0.3349460434D-01
      0.2825394365D+01  0.2347269535D+00
      0.6401216923D+00  0.8137573261D+00
 S   1 1.00       0.000000000000
      0.1612777588D+00  0.1000000000D+01
 ****
     47 0
 S   3 1.00       0.000000000000
      0.1873113696D+02  0.3349460434D-01
      0.2825394365D+01  0.2347269535D+00
      0.6401216923D+00  0.8137573261D+00
 S   1 1.00       0.000000000000
      0.1612777588D+00  0.1000000000D+01
 ****
     48 0
 S   6 1.00       0.000000000000
      0.3047524880D+04  0.1834737132D-02
      0.4573695180D+03  0.1403732281D-01
      0.1039486850D+03  0.6884262226D-01
      0.2921015530D+02  0.2321844432D+00
      0.9286662960D+01  0.4679413484D+00
      0.3163926960D+01  0.3623119853D+00
 SP   3 1.00       0.000000000000
      0.7868272350D+01 -0.1193324198D+00  0.6899906659D-01
      0.1881288540D+01 -0.1608541517D+00  0.3164239610D+00
      0.5442492580D+00  0.1143456438D+01  0.7443082909D+00
 SP   1 1.00       0.000000000000
      0.1687144782D+00  0.1000000000D+01  0.1000000000D+01
 D   1 1.00       0.000000000000
      0.8000000000D+00  0.1000000000D+01
 ****
     49 0
 S   3 1.00       0.000000000000
      0.1873113696D+02  0.3349460434D-01
      0.2825394365D+01  0.2347269535D+00
      0.6401216923D+00  0.8137573261D+00
 S   1 1.00       0.000000000000
      0.1612777588D+00  0.1000000000D+01
 ****
     50 0
 S   3 1.00       0.000000000000
      0.1873113696D+02  0.3349460434D-01
      0.2825394365D+01  0.2347269535D+00
      0.6401216923D+00  0.8137573261D+00
 S   1 1.00       0.000000000000
      0.1612777588D+00  0.1000000000D+01
 ****
     51 0
 S   6 1.00       0.000000000000
      0.3047524880D+04  0.1834737132D-02
      0.4573695180D+03  0.1403732281D-01
      0.1039486850D+03  0.6884262226D-01
      0.2921015530D+02  0.2321844432D+00
      0.9286662960D+01  0.4679413484D+00
      0.3163926960D+01  0.3623119853D+00
 SP   3 1.00       0.000000000000
      0.7868272350D+01 -0.1193324198D+00  0.6899906659D-01
      0.1881288540D+01 -0.1608541517D+00  0.3164239610D+00
      0.5442492580D+00  0.1143456438D+01  0.7443082909D+00
 SP   1 1.00       0.000000000000
      0.1687144782D+00  0.1000000000D+01  0.1000000000D+01
 D   1 1.00       0.000000000000
      0.8000000000D+00  0.1000000000D+01
 ****
     52 0
 S   3 1.00       0.000000000000
      0.1873113696D+02  0.3349460434D-01
      0.2825394365D+01  0.2347269535D+00
      0.6401216923D+00  0.8137573261D+00
 S   1 1.00       0.000000000000
      0.1612777588D+00  0.1000000000D+01
 ****
     53 0
 S   3 1.00       0.000000000000
      0.1873113696D+02  0.3349460434D-01
      0.2825394365D+01  0.2347269535D+00
      0.6401216923D+00  0.8137573261D+00
 S   1 1.00       0.000000000000
      0.1612777588D+00  0.1000000000D+01
 ****
     54 0
 S   6 1.00       0.000000000000
      0.3047524880D+04  0.1834737132D-02
      0.4573695180D+03  0.1403732281D-01
      0.1039486850D+03  0.6884262226D-01
      0.2921015530D+02  0.2321844432D+00
      0.9286662960D+01  0.4679413484D+00
      0.3163926960D+01  0.3623119853D+00
 SP   3 1.00       0.000000000000
      0.7868272350D+01 -0.1193324198D+00  0.6899906659D-01
      0.1881288540D+01 -0.1608541517D+00  0.3164239610D+00
      0.5442492580D+00  0.1143456438D+01  0.7443082909D+00
 SP   1 1.00       0.000000000000
      0.1687144782D+00  0.1000000000D+01  0.1000000000D+01
 D   1 1.00       0.000000000000
      0.8000000000D+00  0.1000000000D+01
 ****
     55 0
 S   3 1.00       0.000000000000
      0.1873113696D+02  0.3349460434D-01
      0.2825394365D+01  0.2347269535D+00
      0.6401216923D+00  0.8137573261D+00
 S   1 1.00       0.000000000000
      0.1612777588D+00  0.1000000000D+01
 ****
     56 0
 S   6 1.00       0.000000000000
      0.3047524880D+04  0.1834737132D-02
      0.4573695180D+03  0.1403732281D-01
      0.1039486850D+03  0.6884262226D-01
      0.2921015530D+02  0.2321844432D+00
      0.9286662960D+01  0.4679413484D+00
      0.3163926960D+01  0.3623119853D+00
 SP   3 1.00       0.000000000000
      0.7868272350D+01 -0.1193324198D+00  0.6899906659D-01
      0.1881288540D+01 -0.1608541517D+00  0.3164239610D+00
      0.5442492580D+00  0.1143456438D+01  0.7443082909D+00
 SP   1 1.00       0.000000000000
      0.1687144782D+00  0.1000000000D+01  0.1000000000D+01
 D   1 1.00       0.000000000000
      0.8000000000D+00  0.1000000000D+01
 ****
     57 0
 S   3 1.00       0.000000000000
      0.1873113696D+02  0.3349460434D-01
      0.2825394365D+01  0.2347269535D+00
      0.6401216923D+00  0.8137573261D+00
 S   1 1.00       0.000000000000
      0.1612777588D+00  0.1000000000D+01
 ****
     58 0
 S   3 1.00       0.000000000000
      0.1873113696D+02  0.3349460434D-01
      0.2825394365D+01  0.2347269535D+00
      0.6401216923D+00  0.8137573261D+00
 S   1 1.00       0.000000000000
      0.1612777588D+00  0.1000000000D+01
 ****
     59 0
 S   3 1.00       0.000000000000
      0.1873113696D+02  0.3349460434D-01
      0.2825394365D+01  0.2347269535D+00
      0.6401216923D+00  0.8137573261D+00
 S   1 1.00       0.000000000000
      0.1612777588D+00  0.1000000000D+01
 ****
     60 0
 S   6 1.00       0.000000000000
      0.3047524880D+04  0.1834737132D-02
      0.4573695180D+03  0.1403732281D-01
      0.1039486850D+03  0.6884262226D-01
      0.2921015530D+02  0.2321844432D+00
      0.9286662960D+01  0.4679413484D+00
      0.3163926960D+01  0.3623119853D+00
 SP   3 1.00       0.000000000000
      0.7868272350D+01 -0.1193324198D+00  0.6899906659D-01
      0.1881288540D+01 -0.1608541517D+00  0.3164239610D+00
      0.5442492580D+00  0.1143456438D+01  0.7443082909D+00
 SP   1 1.00       0.000000000000
      0.1687144782D+00  0.1000000000D+01  0.1000000000D+01
 D   1 1.00       0.000000000000
      0.8000000000D+00  0.1000000000D+01
 ****
     61 0
 S   3 1.00       0.000000000000
      0.1873113696D+02  0.3349460434D-01
      0.2825394365D+01  0.2347269535D+00
      0.6401216923D+00  0.8137573261D+00
 S   1 1.00       0.000000000000
      0.1612777588D+00  0.1000000000D+01
 ****
     62 0
 S   3 1.00       0.000000000000
      0.1873113696D+02  0.3349460434D-01
      0.2825394365D+01  0.2347269535D+00
      0.6401216923D+00  0.8137573261D+00
 S   1 1.00       0.000000000000
      0.1612777588D+00  0.1000000000D+01
 ****
     63 0
 S   6 1.00       0.000000000000
      0.3047524880D+04  0.1834737132D-02
      0.4573695180D+03  0.1403732281D-01
      0.1039486850D+03  0.6884262226D-01
      0.2921015530D+02  0.2321844432D+00
      0.9286662960D+01  0.4679413484D+00
      0.3163926960D+01  0.3623119853D+00
 SP   3 1.00       0.000000000000
      0.7868272350D+01 -0.1193324198D+00  0.6899906659D-01
      0.1881288540D+01 -0.1608541517D+00  0.3164239610D+00
      0.5442492580D+00  0.1143456438D+01  0.7443082909D+00
 SP   1 1.00       0.000000000000
      0.1687144782D+00  0.1000000000D+01  0.1000000000D+01
 D   1 1.00       0.000000000000
      0.8000000000D+00  0.1000000000D+01
 ****
     64 0
 S   3 1.00       0.000000000000
      0.1873113696D+02  0.3349460434D-01
      0.2825394365D+01  0.2347269535D+00
      0.6401216923D+00  0.8137573261D+00
 S   1 1.00       0.000000000000
      0.1612777588D+00  0.1000000000D+01
 ****
     65 0
 S   3 1.00       0.000000000000
      0.1873113696D+02  0.3349460434D-01
      0.2825394365D+01  0.2347269535D+00
      0.6401216923D+00  0.8137573261D+00
 S   1 1.00       0.000000000000
      0.1612777588D+00  0.1000000000D+01
 ****
     66 0
 S   6 1.00       0.000000000000
      0.3047524880D+04  0.1834737132D-02
      0.4573695180D+03  0.1403732281D-01
      0.1039486850D+03  0.6884262226D-01
      0.2921015530D+02  0.2321844432D+00
      0.9286662960D+01  0.4679413484D+00
      0.3163926960D+01  0.3623119853D+00
 SP   3 1.00       0.000000000000
      0.7868272350D+01 -0.1193324198D+00  0.6899906659D-01
      0.1881288540D+01 -0.1608541517D+00  0.3164239610D+00
      0.5442492580D+00  0.1143456438D+01  0.7443082909D+00
 SP   1 1.00       0.000000000000
      0.1687144782D+00  0.1000000000D+01  0.1000000000D+01
 D   1 1.00       0.000000000000
      0.8000000000D+00  0.1000000000D+01
 ****
     67 0
 S   3 1.00       0.000000000000
      0.1873113696D+02  0.3349460434D-01
      0.2825394365D+01  0.2347269535D+00
      0.6401216923D+00  0.8137573261D+00
 S   1 1.00       0.000000000000
      0.1612777588D+00  0.1000000000D+01
 ****
     68 0
 S   6 1.00       0.000000000000
      0.3047524880D+04  0.1834737132D-02
      0.4573695180D+03  0.1403732281D-01
      0.1039486850D+03  0.6884262226D-01
      0.2921015530D+02  0.2321844432D+00
      0.9286662960D+01  0.4679413484D+00
      0.3163926960D+01  0.3623119853D+00
 SP   3 1.00       0.000000000000
      0.7868272350D+01 -0.1193324198D+00  0.6899906659D-01
      0.1881288540D+01 -0.1608541517D+00  0.3164239610D+00
      0.5442492580D+00  0.1143456438D+01  0.7443082909D+00
 SP   1 1.00       0.000000000000
      0.1687144782D+00  0.1000000000D+01  0.1000000000D+01
 D   1 1.00       0.000000000000
      0.8000000000D+00  0.1000000000D+01
 ****
     69 0
 S   3 1.00       0.000000000000
      0.1873113696D+02  0.3349460434D-01
      0.2825394365D+01  0.2347269535D+00
      0.6401216923D+00  0.8137573261D+00
 S   1 1.00       0.000000000000
      0.1612777588D+00  0.1000000000D+01
 ****
     70 0
 S   3 1.00       0.000000000000
      0.1873113696D+02  0.3349460434D-01
      0.2825394365D+01  0.2347269535D+00
      0.6401216923D+00  0.8137573261D+00
 S   1 1.00       0.000000000000
      0.1612777588D+00  0.1000000000D+01
 ****
     71 0
 S   3 1.00       0.000000000000
      0.1873113696D+02  0.3349460434D-01
      0.2825394365D+01  0.2347269535D+00
      0.6401216923D+00  0.8137573261D+00
 S   1 1.00       0.000000000000
      0.1612777588D+00  0.1000000000D+01
 ****
     72 0
 S   6 1.00       0.000000000000
      0.3047524880D+04  0.1834737132D-02
      0.4573695180D+03  0.1403732281D-01
      0.1039486850D+03  0.6884262226D-01
      0.2921015530D+02  0.2321844432D+00
      0.9286662960D+01  0.4679413484D+00
      0.3163926960D+01  0.3623119853D+00
 SP   3 1.00       0.000000000000
      0.7868272350D+01 -0.1193324198D+00  0.6899906659D-01
      0.1881288540D+01 -0.1608541517D+00  0.3164239610D+00
      0.5442492580D+00  0.1143456438D+01  0.7443082909D+00
 SP   1 1.00       0.000000000000
      0.1687144782D+00  0.1000000000D+01  0.1000000000D+01
 D   1 1.00       0.000000000000
      0.8000000000D+00  0.1000000000D+01
 ****
     73 0
 S   3 1.00       0.000000000000
      0.1873113696D+02  0.3349460434D-01
      0.2825394365D+01  0.2347269535D+00
      0.6401216923D+00  0.8137573261D+00
 S   1 1.00       0.000000000000
      0.1612777588D+00  0.1000000000D+01
 ****
     74 0
 S   3 1.00       0.000000000000
      0.1873113696D+02  0.3349460434D-01
      0.2825394365D+01  0.2347269535D+00
      0.6401216923D+00  0.8137573261D+00
 S   1 1.00       0.000000000000
      0.1612777588D+00  0.1000000000D+01
 ****
     75 0
 S   3 1.00       0.000000000000
      0.1873113696D+02  0.3349460434D-01
      0.2825394365D+01  0.2347269535D+00
      0.6401216923D+00  0.8137573261D+00
 S   1 1.00       0.000000000000
      0.1612777588D+00  0.1000000000D+01
 ****

 AO basis set (Overlap normalization):
 Atom O1       Shell     1 S   6     bf    1 -     1          0.000000000000          0.000000000000          0.000000000000
      0.5484671660D+04  0.1831074430D-02
      0.8252349460D+03  0.1395017220D-01
      0.1880469580D+03  0.6844507810D-01
      0.5296450000D+02  0.2327143360D+00
      0.1689757040D+02  0.4701928980D+00
      0.5799635340D+01  0.3585208530D+00
 Atom O1       Shell     2 SP   3    bf    2 -     5          0.000000000000          0.000000000000          0.000000000000
      0.1553961625D+02 -0.1107775495D+00  0.7087426823D-01
      0.3599933586D+01 -0.1480262627D+00  0.3397528391D+00
      0.1013761750D+01  0.1130767015D+01  0.7271585773D+00
 Atom O1       Shell     3 SP   1    bf    6 -     9          0.000000000000          0.000000000000          0.000000000000
      0.2700058226D+00  0.1000000000D+01  0.1000000000D+01
 Atom O1       Shell     4 D   1     bf   10 -    15          0.000000000000          0.000000000000          0.000000000000
      0.8000000000D+00  0.1000000000D+01
 Atom H2       Shell     5 S   3     bf   16 -    16         -0.876018226929          0.872140225445         -1.344624670998
      0.1873113696D+02  0.3349460434D-01
      0.2825394365D+01  0.2347269535D+00
      0.6401216923D+00  0.8137573261D+00
 Atom H2       Shell     6 S   1     bf   17 -    17         -0.876018226929          0.872140225445         -1.344624670998
      0.1612777588D+00  0.1000000000D+01
 Atom O3       Shell     7 S   6     bf   18 -    18         -6.052932378805         11.158156406118          0.000000000000
      0.5484671660D+04  0.1831074430D-02
      0.8252349460D+03  0.1395017220D-01
      0.1880469580D+03  0.6844507810D-01
      0.5296450000D+02  0.2327143360D+00
      0.1689757040D+02  0.4701928980D+00
      0.5799635340D+01  0.3585208530D+00
 Atom O3       Shell     8 SP   3    bf   19 -    22         -6.052932378805         11.158156406118          0.000000000000
      0.1553961625D+02 -0.1107775495D+00  0.7087426823D-01
      0.3599933586D+01 -0.1480262627D+00  0.3397528391D+00
      0.1013761750D+01  0.1130767015D+01  0.7271585773D+00
 Atom O3       Shell     9 SP   1    bf   23 -    26         -6.052932378805         11.158156406118          0.000000000000
      0.2700058226D+00  0.1000000000D+01  0.1000000000D+01
 Atom O3       Shell    10 D   1     bf   27 -    32         -6.052932378805         11.158156406118          0.000000000000
      0.8000000000D+00  0.1000000000D+01
 Atom H4       Shell    11 S   3     bf   33 -    33         -5.473925204977         12.445094957033          1.162612504872
      0.1873113696D+02  0.3349460434D-01
      0.2825394365D+01  0.2347269535D+00
      0.6401216923D+00  0.8137573261D+00
 Atom H4       Shell    12 S   1     bf   34 -    34         -5.473925204977         12.445094957033          1.162612504872
      0.1612777588D+00  0.1000000000D+01
 Atom C5       Shell    13 S   6     bf   35 -    35          7.930081628386          2.066733548321         -0.656150084251
      0.3047524880D+04  0.1834737132D-02
      0.4573695180D+03  0.1403732281D-01
      0.1039486850D+03  0.6884262226D-01
      0.2921015530D+02  0.2321844432D+00
      0.9286662960D+01  0.4679413484D+00
      0.3163926960D+01  0.3623119853D+00
 Atom C5       Shell    14 SP   3    bf   36 -    39          7.930081628386          2.066733548321         -0.656150084251
      0.7868272350D+01 -0.1193324198D+00  0.6899906659D-01
      0.1881288540D+01 -0.1608541517D+00  0.3164239610D+00
      0.5442492580D+00  0.1143456438D+01  0.7443082909D+00
 Atom C5       Shell    15 SP   1    bf   40 -    43          7.930081628386          2.066733548321         -0.656150084251
      0.1687144782D+00  0.1000000000D+01  0.1000000000D+01
 Atom C5       Shell    16 D   1     bf   44 -    49          7.930081628386          2.066733548321         -0.656150084251
      0.8000000000D+00  0.1000000000D+01
 Atom C6       Shell    17 S   6     bf   50 -    50          5.296551390541          1.039407595549          0.139392473452
      0.3047524880D+04  0.1834737132D-02
      0.4573695180D+03  0.1403732281D-01
      0.1039486850D+03  0.6884262226D-01
      0.2921015530D+02  0.2321844432D+00
      0.9286662960D+01  0.4679413484D+00
      0.3163926960D+01  0.3623119853D+00
 Atom C6       Shell    18 SP   3    bf   51 -    54          5.296551390541          1.039407595549          0.139392473452
      0.7868272350D+01 -0.1193324198D+00  0.6899906659D-01
      0.1881288540D+01 -0.1608541517D+00  0.3164239610D+00
      0.5442492580D+00  0.1143456438D+01  0.7443082909D+00
 Atom C6       Shell    19 SP   1    bf   55 -    58          5.296551390541          1.039407595549          0.139392473452
      0.1687144782D+00  0.1000000000D+01  0.1000000000D+01
 Atom C6       Shell    20 D   1     bf   59 -    64          5.296551390541          1.039407595549          0.139392473452
      0.8000000000D+00  0.1000000000D+01
 Atom H7       Shell    21 S   3     bf   65 -    65          4.456691712562          0.267921308209         -1.596840710981
      0.1873113696D+02  0.3349460434D-01
      0.2825394365D+01  0.2347269535D+00
      0.6401216923D+00  0.8137573261D+00
 Atom H7       Shell    22 S   1     bf   66 -    66          4.456691712562          0.267921308209         -1.596840710981
      0.1612777588D+00  0.1000000000D+01
 Atom C8       Shell    23 S   6     bf   67 -    67          3.434870191865          3.044346948147          1.093928745613
      0.3047524880D+04  0.1834737132D-02
      0.4573695180D+03  0.1403732281D-01
      0.1039486850D+03  0.6884262226D-01
      0.2921015530D+02  0.2321844432D+00
      0.9286662960D+01  0.4679413484D+00
      0.3163926960D+01  0.3623119853D+00
 Atom C8       Shell    24 SP   3    bf   68 -    71          3.434870191865          3.044346948147          1.093928745613
      0.7868272350D+01 -0.1193324198D+00  0.6899906659D-01
      0.1881288540D+01 -0.1608541517D+00  0.3164239610D+00
      0.5442492580D+00  0.1143456438D+01  0.7443082909D+00
 Atom C8       Shell    25 SP   1    bf   72 -    75          3.434870191865          3.044346948147          1.093928745613
      0.1687144782D+00  0.1000000000D+01  0.1000000000D+01
 Atom C8       Shell    26 D   1     bf   76 -    81          3.434870191865          3.044346948147          1.093928745613
      0.8000000000D+00  0.1000000000D+01
 Atom H9       Shell    27 S   3     bf   82 -    82          4.176112848640          3.881654380908          2.845560703592
      0.1873113696D+02  0.3349460434D-01
      0.2825394365D+01  0.2347269535D+00
      0.6401216923D+00  0.8137573261D+00
 Atom H9       Shell    28 S   1     bf   83 -    83          4.176112848640          3.881654380908          2.845560703592
      0.1612777588D+00  0.1000000000D+01
 Atom C10      Shell    29 S   6     bf   84 -    84          3.082584724967          5.153306578086         -0.907556187614
      0.3047524880D+04  0.1834737132D-02
      0.4573695180D+03  0.1403732281D-01
      0.1039486850D+03  0.6884262226D-01
      0.2921015530D+02  0.2321844432D+00
      0.9286662960D+01  0.4679413484D+00
      0.3163926960D+01  0.3623119853D+00
 Atom C10      Shell    30 SP   3    bf   85 -    88          3.082584724967          5.153306578086         -0.907556187614
      0.7868272350D+01 -0.1193324198D+00  0.6899906659D-01
      0.1881288540D+01 -0.1608541517D+00  0.3164239610D+00
      0.5442492580D+00  0.1143456438D+01  0.7443082909D+00
 Atom C10      Shell    31 SP   1    bf   89 -    92          3.082584724967          5.153306578086         -0.907556187614
      0.1687144782D+00  0.1000000000D+01  0.1000000000D+01
 Atom C10      Shell    32 D   1     bf   93 -    98          3.082584724967          5.153306578086         -0.907556187614
      0.8000000000D+00  0.1000000000D+01
 Atom H11      Shell    33 S   3     bf   99 -    99          2.073259774213          4.264481922819         -2.499464562210
      0.1873113696D+02  0.3349460434D-01
      0.2825394365D+01  0.2347269535D+00
      0.6401216923D+00  0.8137573261D+00
 Atom H11      Shell    34 S   1     bf  100 -   100          2.073259774213          4.264481922819         -2.499464562210
      0.1612777588D+00  0.1000000000D+01
 Atom C12      Shell    35 S   6     bf  101 -   101          9.246086642766         -0.477565956919         -1.417521839232
      0.3047524880D+04  0.1834737132D-02
      0.4573695180D+03  0.1403732281D-01
      0.1039486850D+03  0.6884262226D-01
      0.2921015530D+02  0.2321844432D+00
      0.9286662960D+01  0.4679413484D+00
      0.3163926960D+01  0.3623119853D+00
 Atom C12      Shell    36 SP   3    bf  102 -   105          9.246086642766         -0.477565956919         -1.417521839232
      0.7868272350D+01 -0.1193324198D+00  0.6899906659D-01
      0.1881288540D+01 -0.1608541517D+00  0.3164239610D+00
      0.5442492580D+00  0.1143456438D+01  0.7443082909D+00
 Atom C12      Shell    37 SP   1    bf  106 -   109          9.246086642766         -0.477565956919         -1.417521839232
      0.1687144782D+00  0.1000000000D+01  0.1000000000D+01
 Atom C12      Shell    38 D   1     bf  110 -   115          9.246086642766         -0.477565956919         -1.417521839232
      0.8000000000D+00  0.1000000000D+01
 Atom H13      Shell    39 S   3     bf  116 -   116          8.367679990978         -1.044189755398         -3.214952595054
      0.1873113696D+02  0.3349460434D-01
      0.2825394365D+01  0.2347269535D+00
      0.6401216923D+00  0.8137573261D+00
 Atom H13      Shell    40 S   1     bf  117 -   117          8.367679990978         -1.044189755398         -3.214952595054
      0.1612777588D+00  0.1000000000D+01
 Atom C14      Shell    41 S   6     bf  118 -   118          7.453182121182          3.978325267654         -2.803553773514
      0.3047524880D+04  0.1834737132D-02
      0.4573695180D+03  0.1403732281D-01
      0.1039486850D+03  0.6884262226D-01
      0.2921015530D+02  0.2321844432D+00
      0.9286662960D+01  0.4679413484D+00
      0.3163926960D+01  0.3623119853D+00
 Atom C14      Shell    42 SP   3    bf  119 -   122          7.453182121182          3.978325267654         -2.803553773514
      0.7868272350D+01 -0.1193324198D+00  0.6899906659D-01
      0.1881288540D+01 -0.1608541517D+00  0.3164239610D+00
      0.5442492580D+00  0.1143456438D+01  0.7443082909D+00
 Atom C14      Shell    43 SP   1    bf  123 -   126          7.453182121182          3.978325267654         -2.803553773514
      0.1687144782D+00  0.1000000000D+01  0.1000000000D+01
 Atom C14      Shell    44 D   1     bf  127 -   132          7.453182121182          3.978325267654         -2.803553773514
      0.8000000000D+00  0.1000000000D+01
 Atom H15      Shell    45 S   3     bf  133 -   133          6.647036329044          2.964318539303         -4.428247573708
      0.1873113696D+02  0.3349460434D-01
      0.2825394365D+01  0.2347269535D+00
      0.6401216923D+00  0.8137573261D+00
 Atom H15      Shell    46 S   1     bf  134 -   134          6.647036329044          2.964318539303         -4.428247573708
      0.1612777588D+00  0.1000000000D+01
 Atom H16      Shell    47 S   3     bf  135 -   135          9.210020255759          4.848161652381         -3.464426831391
      0.1873113696D+02  0.3349460434D-01
      0.2825394365D+01  0.2347269535D+00
      0.6401216923D+00  0.8137573261D+00
 Atom H16      Shell    48 S   1     bf  136 -   136          9.210020255759          4.848161652381         -3.464426831391
      0.1612777588D+00  0.1000000000D+01
 Atom C17      Shell    49 S   6     bf  137 -   137          1.321256147563          7.336455098556          0.052944400373
      0.3047524880D+04  0.1834737132D-02
      0.4573695180D+03  0.1403732281D-01
      0.1039486850D+03  0.6884262226D-01
      0.2921015530D+02  0.2321844432D+00
      0.9286662960D+01  0.4679413484D+00
      0.3163926960D+01  0.3623119853D+00
 Atom C17      Shell    50 SP   3    bf  138 -   141          1.321256147563          7.336455098556          0.052944400373
      0.7868272350D+01 -0.1193324198D+00  0.6899906659D-01
      0.1881288540D+01 -0.1608541517D+00  0.3164239610D+00
      0.5442492580D+00  0.1143456438D+01  0.7443082909D+00
 Atom C17      Shell    51 SP   1    bf  142 -   145          1.321256147563          7.336455098556          0.052944400373
      0.1687144782D+00  0.1000000000D+01  0.1000000000D+01
 Atom C17      Shell    52 D   1     bf  146 -   151          1.321256147563          7.336455098556          0.052944400373
      0.8000000000D+00  0.1000000000D+01
 Atom C18      Shell    53 S   6     bf  152 -   152          5.879965254533         -1.243567030699          1.833868606295
      0.3047524880D+04  0.1834737132D-02
      0.4573695180D+03  0.1403732281D-01
      0.1039486850D+03  0.6884262226D-01
      0.2921015530D+02  0.2321844432D+00
      0.9286662960D+01  0.4679413484D+00
      0.3163926960D+01  0.3623119853D+00
 Atom C18      Shell    54 SP   3    bf  153 -   156          5.879965254533         -1.243567030699          1.833868606295
      0.7868272350D+01 -0.1193324198D+00  0.6899906659D-01
      0.1881288540D+01 -0.1608541517D+00  0.3164239610D+00
      0.5442492580D+00  0.1143456438D+01  0.7443082909D+00
 Atom C18      Shell    55 SP   1    bf  157 -   160          5.879965254533         -1.243567030699          1.833868606295
      0.1687144782D+00  0.1000000000D+01  0.1000000000D+01
 Atom C18      Shell    56 D   1     bf  161 -   166          5.879965254533         -1.243567030699          1.833868606295
      0.8000000000D+00  0.1000000000D+01
 Atom H19      Shell    57 S   3     bf  167 -   167          4.324806610810         -2.604345798777          1.847732827733
      0.1873113696D+02  0.3349460434D-01
      0.2825394365D+01  0.2347269535D+00
      0.6401216923D+00  0.8137573261D+00
 Atom H19      Shell    58 S   1     bf  168 -   168          4.324806610810         -2.604345798777          1.847732827733
      0.1612777588D+00  0.1000000000D+01
 Atom H20      Shell    59 S   3     bf  169 -   169          6.189224851023         -0.652748142575          3.797934335371
      0.1873113696D+02  0.3349460434D-01
      0.2825394365D+01  0.2347269535D+00
      0.6401216923D+00  0.8137573261D+00
 Atom H20      Shell    60 S   1     bf  170 -   170          6.189224851023         -0.652748142575          3.797934335371
      0.1612777588D+00  0.1000000000D+01
 Atom C21      Shell    61 S   6     bf  171 -   171          5.633334640286          6.100673040326         -1.977559620885
      0.3047524880D+04  0.1834737132D-02
      0.4573695180D+03  0.1403732281D-01
      0.1039486850D+03  0.6884262226D-01
      0.2921015530D+02  0.2321844432D+00
      0.9286662960D+01  0.4679413484D+00
      0.3163926960D+01  0.3623119853D+00
 Atom C21      Shell    62 SP   3    bf  172 -   175          5.633334640286          6.100673040326         -1.977559620885
      0.7868272350D+01 -0.1193324198D+00  0.6899906659D-01
      0.1881288540D+01 -0.1608541517D+00  0.3164239610D+00
      0.5442492580D+00  0.1143456438D+01  0.7443082909D+00
 Atom C21      Shell    63 SP   1    bf  176 -   179          5.633334640286          6.100673040326         -1.977559620885
      0.1687144782D+00  0.1000000000D+01  0.1000000000D+01
 Atom C21      Shell    64 D   1     bf  180 -   185          5.633334640286          6.100673040326         -1.977559620885
      0.8000000000D+00  0.1000000000D+01
 Atom H22      Shell    65 S   3     bf  186 -   186          6.594422252799          7.270299755069         -0.567163088523
      0.1873113696D+02  0.3349460434D-01
      0.2825394365D+01  0.2347269535D+00
      0.6401216923D+00  0.8137573261D+00
 Atom H22      Shell    66 S   1     bf  187 -   187          6.594422252799          7.270299755069         -0.567163088523
      0.1612777588D+00  0.1000000000D+01
 Atom H23      Shell    67 S   3     bf  188 -   188          5.288149195723          7.339294185304         -3.601652034634
      0.1873113696D+02  0.3349460434D-01
      0.2825394365D+01  0.2347269535D+00
      0.6401216923D+00  0.8137573261D+00
 Atom H23      Shell    68 S   1     bf  189 -   189          5.288149195723          7.339294185304         -3.601652034634
      0.1612777588D+00  0.1000000000D+01
 Atom C24      Shell    69 S   6     bf  190 -   190          8.337670195124         -2.358771938281          0.674517409680
      0.3047524880D+04  0.1834737132D-02
      0.4573695180D+03  0.1403732281D-01
      0.1039486850D+03  0.6884262226D-01
      0.2921015530D+02  0.2321844432D+00
      0.9286662960D+01  0.4679413484D+00
      0.3163926960D+01  0.3623119853D+00
 Atom C24      Shell    70 SP   3    bf  191 -   194          8.337670195124         -2.358771938281          0.674517409680
      0.7868272350D+01 -0.1193324198D+00  0.6899906659D-01
      0.1881288540D+01 -0.1608541517D+00  0.3164239610D+00
      0.5442492580D+00  0.1143456438D+01  0.7443082909D+00
 Atom C24      Shell    71 SP   1    bf  195 -   198          8.337670195124         -2.358771938281          0.674517409680
      0.1687144782D+00  0.1000000000D+01  0.1000000000D+01
 Atom C24      Shell    72 D   1     bf  199 -   204          8.337670195124         -2.358771938281          0.674517409680
      0.8000000000D+00  0.1000000000D+01
 Atom H25      Shell    73 S   3     bf  205 -   205          9.800158181072         -2.575049960354          2.126348681944
      0.1873113696D+02  0.3349460434D-01
      0.2825394365D+01  0.2347269535D+00
      0.6401216923D+00  0.8137573261D+00
 Atom H25      Shell    74 S   1     bf  206 -   206          9.800158181072         -2.575049960354          2.126348681944
      0.1612777588D+00  0.1000000000D+01
 Atom H26      Shell    75 S   3     bf  207 -   207          8.019076768833         -4.244732905231         -0.111562420002
      0.1873113696D+02  0.3349460434D-01
      0.2825394365D+01  0.2347269535D+00
      0.6401216923D+00  0.8137573261D+00
 Atom H26      Shell    76 S   1     bf  208 -   208          8.019076768833         -4.244732905231         -0.111562420002
      0.1612777588D+00  0.1000000000D+01
 Atom C27      Shell    77 S   6     bf  209 -   209          0.862153986593          1.867558700484          1.802362827646
      0.3047524880D+04  0.1834737132D-02
      0.4573695180D+03  0.1403732281D-01
      0.1039486850D+03  0.6884262226D-01
      0.2921015530D+02  0.2321844432D+00
      0.9286662960D+01  0.4679413484D+00
      0.3163926960D+01  0.3623119853D+00
 Atom C27      Shell    78 SP   3    bf  210 -   213          0.862153986593          1.867558700484          1.802362827646
      0.7868272350D+01 -0.1193324198D+00  0.6899906659D-01
      0.1881288540D+01 -0.1608541517D+00  0.3164239610D+00
      0.5442492580D+00  0.1143456438D+01  0.7443082909D+00
 Atom C27      Shell    79 SP   1    bf  214 -   217          0.862153986593          1.867558700484          1.802362827646
      0.1687144782D+00  0.1000000000D+01  0.1000000000D+01
 Atom C27      Shell    80 D   1     bf  218 -   223          0.862153986593          1.867558700484          1.802362827646
      0.8000000000D+00  0.1000000000D+01
 Atom H28      Shell    81 S   3     bf  224 -   224          1.097211729029          0.777980368990          3.548126335605
      0.1873113696D+02  0.3349460434D-01
      0.2825394365D+01  0.2347269535D+00
      0.6401216923D+00  0.8137573261D+00
 Atom H28      Shell    82 S   1     bf  225 -   225          1.097211729029          0.777980368990          3.548126335605
      0.1612777588D+00  0.1000000000D+01
 Atom C29      Shell    83 S   6     bf  226 -   226         12.145599235321         -0.542840555748         -1.807648032592
      0.3047524880D+04  0.1834737132D-02
      0.4573695180D+03  0.1403732281D-01
      0.1039486850D+03  0.6884262226D-01
      0.2921015530D+02  0.2321844432D+00
      0.9286662960D+01  0.4679413484D+00
      0.3163926960D+01  0.3623119853D+00
 Atom C29      Shell    84 SP   3    bf  227 -   230         12.145599235321         -0.542840555748         -1.807648032592
      0.7868272350D+01 -0.1193324198D+00  0.6899906659D-01
      0.1881288540D+01 -0.1608541517D+00  0.3164239610D+00
      0.5442492580D+00  0.1143456438D+01  0.7443082909D+00
 Atom C29      Shell    85 SP   1    bf  231 -   234         12.145599235321         -0.542840555748         -1.807648032592
      0.1687144782D+00  0.1000000000D+01  0.1000000000D+01
 Atom C29      Shell    86 D   1     bf  235 -   240         12.145599235321         -0.542840555748         -1.807648032592
      0.8000000000D+00  0.1000000000D+01
 Atom H30      Shell    87 S   3     bf  241 -   241         13.017882758699          0.000000000000          0.000000000000
      0.1873113696D+02  0.3349460434D-01
      0.2825394365D+01  0.2347269535D+00
      0.6401216923D+00  0.8137573261D+00
 Atom H30      Shell    88 S   1     bf  242 -   242         13.017882758699          0.000000000000          0.000000000000
      0.1612777588D+00  0.1000000000D+01
 Atom C31      Shell    89 S   6     bf  243 -   243          9.365092297162          3.330858323805          1.551921278296
      0.3047524880D+04  0.1834737132D-02
      0.4573695180D+03  0.1403732281D-01
      0.1039486850D+03  0.6884262226D-01
      0.2921015530D+02  0.2321844432D+00
      0.9286662960D+01  0.4679413484D+00
      0.3163926960D+01  0.3623119853D+00
 Atom C31      Shell    90 SP   3    bf  244 -   247          9.365092297162          3.330858323805          1.551921278296
      0.7868272350D+01 -0.1193324198D+00  0.6899906659D-01
      0.1881288540D+01 -0.1608541517D+00  0.3164239610D+00
      0.5442492580D+00  0.1143456438D+01  0.7443082909D+00
 Atom C31      Shell    91 SP   1    bf  248 -   251          9.365092297162          3.330858323805          1.551921278296
      0.1687144782D+00  0.1000000000D+01  0.1000000000D+01
 Atom C31      Shell    92 D   1     bf  252 -   257          9.365092297162          3.330858323805          1.551921278296
      0.8000000000D+00  0.1000000000D+01
 Atom H32      Shell    93 S   3     bf  258 -   258          8.299307431819          4.885691159846          2.396304393719
      0.1873113696D+02  0.3349460434D-01
      0.2825394365D+01  0.2347269535D+00
      0.6401216923D+00  0.8137573261D+00
 Atom H32      Shell    94 S   1     bf  259 -   259          8.299307431819          4.885691159846          2.396304393719
      0.1612777588D+00  0.1000000000D+01
 Atom H33      Shell    95 S   3     bf  260 -   260          9.786991211885          1.989870808695          3.068160275319
      0.1873113696D+02  0.3349460434D-01
      0.2825394365D+01  0.2347269535D+00
      0.6401216923D+00  0.8137573261D+00
 Atom H33      Shell    96 S   1     bf  261 -   261          9.786991211885          1.989870808695          3.068160275319
      0.1612777588D+00  0.1000000000D+01
 Atom H34      Shell    97 S   3     bf  262 -   262         11.168010137373          4.112577308079          0.901826311212
      0.1873113696D+02  0.3349460434D-01
      0.2825394365D+01  0.2347269535D+00
      0.6401216923D+00  0.8137573261D+00
 Atom H34      Shell    98 S   1     bf  263 -   263         11.168010137373          4.112577308079          0.901826311212
      0.1612777588D+00  0.1000000000D+01
 Atom C35      Shell    99 S   6     bf  264 -   264         -0.997400495396          6.242892336203          1.407903341085
      0.3047524880D+04  0.1834737132D-02
      0.4573695180D+03  0.1403732281D-01
      0.1039486850D+03  0.6884262226D-01
      0.2921015530D+02  0.2321844432D+00
      0.9286662960D+01  0.4679413484D+00
      0.3163926960D+01  0.3623119853D+00
 Atom C35      Shell   100 SP   3    bf  265 -   268         -0.997400495396          6.242892336203          1.407903341085
      0.7868272350D+01 -0.1193324198D+00  0.6899906659D-01
      0.1881288540D+01 -0.1608541517D+00  0.3164239610D+00
      0.5442492580D+00  0.1143456438D+01  0.7443082909D+00
 Atom C35      Shell   101 SP   1    bf  269 -   272         -0.997400495396          6.242892336203          1.407903341085
      0.1687144782D+00  0.1000000000D+01  0.1000000000D+01
 Atom C35      Shell   102 D   1     bf  273 -   278         -0.997400495396          6.242892336203          1.407903341085
      0.8000000000D+00  0.1000000000D+01
 Atom C36      Shell   103 S   6     bf  279 -   279          0.386373688589          8.888298123293         -2.272966939005
      0.3047524880D+04  0.1834737132D-02
      0.4573695180D+03  0.1403732281D-01
      0.1039486850D+03  0.6884262226D-01
      0.2921015530D+02  0.2321844432D+00
      0.9286662960D+01  0.4679413484D+00
      0.3163926960D+01  0.3623119853D+00
 Atom C36      Shell   104 SP   3    bf  280 -   283          0.386373688589          8.888298123293         -2.272966939005
      0.7868272350D+01 -0.1193324198D+00  0.6899906659D-01
      0.1881288540D+01 -0.1608541517D+00  0.3164239610D+00
      0.5442492580D+00  0.1143456438D+01  0.7443082909D+00
 Atom C36      Shell   105 SP   1    bf  284 -   287          0.386373688589          8.888298123293         -2.272966939005
      0.1687144782D+00  0.1000000000D+01  0.1000000000D+01
 Atom C36      Shell   106 D   1     bf  288 -   293          0.386373688589          8.888298123293         -2.272966939005
      0.8000000000D+00  0.1000000000D+01
 Atom H37      Shell   107 S   3     bf  294 -   294         -0.290476720283          7.554862426242         -3.713972197020
      0.1873113696D+02  0.3349460434D-01
      0.2825394365D+01  0.2347269535D+00
      0.6401216923D+00  0.8137573261D+00
 Atom H37      Shell   108 S   1     bf  295 -   295         -0.290476720283          7.554862426242         -3.713972197020
      0.1612777588D+00  0.1000000000D+01
 Atom H38      Shell   109 S   3     bf  296 -   296          1.988401584421          9.893385155324         -3.113907370256
      0.1873113696D+02  0.3349460434D-01
      0.2825394365D+01  0.2347269535D+00
      0.6401216923D+00  0.8137573261D+00
 Atom H38      Shell   110 S   1     bf  297 -   297          1.988401584421          9.893385155324         -3.113907370256
      0.1612777588D+00  0.1000000000D+01
 Atom C39      Shell   111 S   6     bf  298 -   298         -1.152009308232          3.829079459788          2.178052666083
      0.3047524880D+04  0.1834737132D-02
      0.4573695180D+03  0.1403732281D-01
      0.1039486850D+03  0.6884262226D-01
      0.2921015530D+02  0.2321844432D+00
      0.9286662960D+01  0.4679413484D+00
      0.3163926960D+01  0.3623119853D+00
 Atom C39      Shell   112 SP   3    bf  299 -   302         -1.152009308232          3.829079459788          2.178052666083
      0.7868272350D+01 -0.1193324198D+00  0.6899906659D-01
      0.1881288540D+01 -0.1608541517D+00  0.3164239610D+00
      0.5442492580D+00  0.1143456438D+01  0.7443082909D+00
 Atom C39      Shell   113 SP   1    bf  303 -   306         -1.152009308232          3.829079459788          2.178052666083
      0.1687144782D+00  0.1000000000D+01  0.1000000000D+01
 Atom C39      Shell   114 D   1     bf  307 -   312         -1.152009308232          3.829079459788          2.178052666083
      0.8000000000D+00  0.1000000000D+01
 Atom H40      Shell   115 S   3     bf  313 -   313         -2.877899586904          3.173972579952          3.090211999790
[...]
 **** Fit       0.000741
 **** Fit       0.001418
 **** Fit       0.002026
 **** Fit       0.002360
 **** Fit       0.002307
 **** Fit       0.001926
 **** Fit       0.001388
 **** Fit       0.000860
 **** Fit       0.000429
 **** Fit       0.000116
 **** Fit      -0.000303
 **** Fit      -0.000054
 **** Fit       0.000358
 **** Fit       0.000933
 **** Fit       0.001596
 **** Fit       0.002187
 **** Fit       0.002515
 **** Fit       0.002475
 **** Fit       0.002118
 **** Fit       0.001602
 **** Fit       0.001083
 **** Fit       0.000646
 **** Fit       0.000314
 **** Fit      -0.000163
 **** Fit       0.000079
 **** Fit       0.000460
 **** Fit       0.000975
 **** Fit       0.001557
 **** Fit       0.002073
 **** Fit       0.002372
 **** Fit       0.002366
 **** Fit       0.002091
 **** Fit       0.001667
 **** Fit       0.001219
 **** Fit       0.000822
 **** Fit       0.000503
 **** Fit      -0.000050
 **** Fit       0.000167
 **** Fit       0.000494
 **** Fit       0.000921
 **** Fit       0.001396
 **** Fit       0.001820
 **** Fit       0.002085
 **** Fit       0.002127
 **** Fit       0.001961
 **** Fit       0.001661
 **** Fit       0.001314
 **** Fit       0.000983
 **** Fit       0.000697
 **** Fit      -0.000224
 **** Fit       0.000221
 **** Fit       0.000488
 **** Fit       0.000830
 **** Fit       0.001207
 **** Fit       0.001555
 **** Fit       0.001801
 **** Fit       0.001897
 **** Fit       0.001839
 **** Fit       0.001662
 **** Fit       0.001419
 **** Fit       0.001158
 **** Fit       0.000911
 **** Fit       0.000694
 **** Fit       0.000505
 **** Fit       0.000333
 **** Fit       0.000160
 **** Fit      -0.000023
 **** Fit      -0.000213
 **** Fit      -0.000395
 **** Fit      -0.000548
 **** Fit       0.000466
 **** Fit       0.000737
 **** Fit       0.001043
 **** Fit       0.001343
 **** Fit       0.001588
 **** Fit       0.001741
 **** Fit       0.001780
 **** Fit       0.001711
 **** Fit       0.001557
 **** Fit       0.001357
 **** Fit       0.001148
 **** Fit       0.000958
 **** Fit       0.000790
 **** Fit       0.000631
 **** Fit       0.000461
 **** Fit       0.000260
 **** Fit       0.000031
 **** Fit      -0.000205
 **** Fit      -0.000415
 **** Fit      -0.000569
 **** Fit       0.000655
 **** Fit       0.000913
 **** Fit       0.001187
 **** Fit       0.001445
 **** Fit       0.001653
 **** Fit       0.001775
 **** Fit       0.001793
 **** Fit       0.001712
 **** Fit       0.001563
 **** Fit       0.001393
 **** Fit       0.001237
 **** Fit       0.001105
 **** Fit       0.000980
 **** Fit       0.000829
 **** Fit       0.000622
 **** Fit       0.000355
 **** Fit       0.000058
 **** Fit      -0.000219
 **** Fit      -0.000433
 **** Fit      -0.000562
 **** Fit       0.000804
 **** Fit       0.001062
 **** Fit       0.001334
 **** Fit       0.001584
 **** Fit       0.001771
 **** Fit       0.001858
 **** Fit       0.001837
 **** Fit       0.001738
 **** Fit       0.001611
 **** Fit       0.001500
 **** Fit       0.001418
 **** Fit       0.001344
 **** Fit       0.001229
 **** Fit       0.001028
 **** Fit       0.000730
 **** Fit       0.000373
 **** Fit       0.000025
 **** Fit      -0.000253
 **** Fit      -0.000431
 **** Fit       0.000698
 **** Fit       0.000939
 **** Fit       0.001211
 **** Fit       0.001484
 **** Fit       0.001711
 **** Fit       0.001849
 **** Fit       0.001882
 **** Fit       0.001837
 **** Fit       0.001766
 **** Fit       0.001712
 **** Fit       0.001690
 **** Fit       0.001671
 **** Fit       0.001597
 **** Fit       0.001410
 **** Fit       0.001092
 **** Fit       0.000688
 **** Fit       0.000282
 **** Fit      -0.000050
 **** Fit      -0.000272
 **** Fit      -0.000382
 **** Fit       0.000586
 **** Fit       0.000800
 **** Fit       0.001055
 **** Fit       0.001325
 **** Fit       0.001567
 **** Fit       0.001740
 **** Fit       0.001826
 **** Fit       0.001845
 **** Fit       0.001841
 **** Fit       0.001850
 **** Fit       0.001884
 **** Fit       0.001910
 **** Fit       0.001867
 **** Fit       0.001693
 **** Fit       0.001368
 **** Fit       0.000943
 **** Fit       0.000508
 **** Fit       0.000145
 **** Fit      -0.000104
 **** Fit      -0.000238
 **** Fit       0.000468
 **** Fit       0.000647
 **** Fit       0.000870
 **** Fit       0.001118
 **** Fit       0.001357
 **** Fit       0.001553
 **** Fit       0.001691
 **** Fit       0.001781
 **** Fit       0.001850
 **** Fit       0.001922
 **** Fit       0.001996
 **** Fit       0.002043
 **** Fit       0.002007
 **** Fit       0.001835
 **** Fit       0.001516
 **** Fit       0.001099
 **** Fit       0.000670
 **** Fit       0.000308
 **** Fit       0.000054
 **** Fit      -0.000089
 **** Fit       0.000495
 **** Fit       0.000681
 **** Fit       0.000898
 **** Fit       0.001126
 **** Fit       0.001342
 **** Fit       0.001530
 **** Fit       0.001690
 **** Fit       0.001831
 **** Fit       0.001957
 **** Fit       0.002054
 **** Fit       0.002095
 **** Fit       0.002040
 **** Fit       0.001856
 **** Fit       0.001546
 **** Fit       0.001156
 **** Fit       0.000762
 **** Fit       0.000428
 **** Fit       0.000190
 **** Fit       0.000511
 **** Fit       0.000701
 **** Fit       0.000919
 **** Fit       0.001152
 **** Fit       0.001387
 **** Fit       0.001615
 **** Fit       0.001823
 **** Fit       0.001993
 **** Fit       0.002099
 **** Fit       0.002115
 **** Fit       0.002020
 **** Fit       0.001810
 **** Fit       0.001503
 **** Fit       0.001146
 **** Fit       0.000798
 **** Fit       0.000506
 **** Fit       0.000299
 **** Fit       0.000757
 **** Fit       0.001007
 **** Fit       0.001286
 **** Fit       0.001574
 **** Fit       0.001841
 **** Fit       0.002048
 **** Fit       0.002155
 **** Fit       0.002135
 **** Fit       0.001990
 **** Fit       0.001742
 **** Fit       0.001430
 **** Fit       0.001100
 **** Fit       0.000796
 **** Fit       0.000551
 **** Fit       0.000903
 **** Fit       0.001215
 **** Fit       0.001550
 **** Fit       0.001866
 **** Fit       0.002102
 **** Fit       0.002204
 **** Fit       0.002148
 **** Fit       0.001950
 **** Fit       0.001663
 **** Fit       0.001341
 **** Fit       0.001033
 **** Fit       0.000770
 **** Fit       0.000818
 **** Fit       0.001145
 **** Fit       0.001507
 **** Fit       0.001850
 **** Fit       0.002101
 **** Fit       0.002194
 **** Fit       0.002106
 **** Fit       0.001868
 **** Fit       0.001553
 **** Fit       0.001229
 **** Fit       0.000945
 **** Fit       0.000728
 **** Fit       0.001046
 **** Fit       0.001402
 **** Fit       0.001741
 **** Fit       0.001984
 **** Fit       0.002063
 **** Fit       0.001955
 **** Fit       0.001703
 **** Fit       0.001387
 **** Fit       0.001083
 **** Fit       0.000837
 **** Fit       0.000620
 **** Fit       0.000902
 **** Fit       0.001218
 **** Fit       0.001518
 **** Fit       0.001728
 **** Fit       0.001786
 **** Fit       0.001676
 **** Fit       0.001441
 **** Fit       0.001161
 **** Fit       0.000906
 **** Fit       0.000714
 **** Fit       0.000499
 **** Fit       0.000723
 **** Fit       0.000974
 **** Fit       0.001208
 **** Fit       0.001367
 **** Fit       0.001404
 **** Fit       0.001308
 **** Fit       0.001120
 **** Fit       0.000904
 **** Fit       0.000720
 **** Fit       0.000594
 **** Fit       0.000539
 **** Fit       0.000716
 **** Fit       0.000877
 **** Fit       0.000983
 **** Fit       0.001002
 **** Fit       0.000931
 **** Fit       0.000803
 **** Fit       0.000666
 **** Fit       0.000560
 **** Fit       0.000503
 **** Fit       0.000385
 **** Fit       0.000494
 **** Fit       0.000593
 **** Fit       0.000655
 **** Fit       0.000665
 **** Fit       0.000624
 **** Fit       0.000556
 **** Fit       0.000492
 **** Fit       0.000457
 **** Fit       0.000344
 **** Fit       0.000398
 **** Fit       0.000433
 **** Fit       0.000443
 **** Fit       0.000431
 **** Fit       0.000413
 **** Fit       0.000407
 **** Fit       0.000343
 **** Fit       0.000357
 **** Fit      -0.000743
 **** Fit      -0.000672
 **** Fit      -0.000616
 **** Fit      -0.000588
 **** Fit      -0.000588
 **** Fit      -0.000708
 **** Fit      -0.000607
 **** Fit      -0.000483
 **** Fit      -0.000364
 **** Fit      -0.000282
 **** Fit      -0.000256
 **** Fit      -0.000283
 **** Fit      -0.000346
 **** Fit      -0.000419
 **** Fit      -0.000511
 **** Fit      -0.000342
 **** Fit      -0.000146
 **** Fit       0.000032
 **** Fit       0.000145
 **** Fit       0.000165
 **** Fit       0.000099
 **** Fit      -0.000022
 **** Fit      -0.000158
 **** Fit      -0.000458
 **** Fit      -0.000281
 **** Fit      -0.000039
 **** Fit       0.000234
 **** Fit       0.000474
 **** Fit       0.000619
 **** Fit       0.000631
 **** Fit       0.000520
 **** Fit       0.000336
 **** Fit       0.000131
 **** Fit      -0.000052
 **** Fit      -0.000279
 **** Fit      -0.000048
 **** Fit       0.000259
 **** Fit       0.000597
 **** Fit       0.000891
 **** Fit       0.001062
 **** Fit       0.001066
 **** Fit       0.000919
 **** Fit       0.000679
 **** Fit       0.000416
 **** Fit       0.000178
 **** Fit      -0.000109
 **** Fit       0.000158
 **** Fit       0.000504
 **** Fit       0.000880
 **** Fit       0.001205
 **** Fit       0.001392
 **** Fit       0.001394
 **** Fit       0.001228
 **** Fit       0.000960
 **** Fit       0.000663
 **** Fit       0.000392
 **** Fit       0.000034
 **** Fit       0.000313
 **** Fit       0.000666
 **** Fit       0.001044
 **** Fit       0.001370
 **** Fit       0.001560
 **** Fit       0.001570
 **** Fit       0.001413
 **** Fit       0.001151
 **** Fit       0.000855
 **** Fit       0.000577
 **** Fit       0.000142
 **** Fit       0.000409
 **** Fit       0.000740
 **** Fit       0.001091
 **** Fit       0.001394
 **** Fit       0.001579
 **** Fit       0.001604
 **** Fit       0.001481
 **** Fit       0.001258
 **** Fit       0.000993
 **** Fit       0.000734
 **** Fit       0.000457
 **** Fit       0.000749
 **** Fit       0.001056
 **** Fit       0.001326
 **** Fit       0.001502
 **** Fit       0.001552
 **** Fit       0.001478
 **** Fit       0.001313
 **** Fit       0.001100
 **** Fit       0.000470
 **** Fit       0.000719
 **** Fit       0.000982
 **** Fit       0.001221
 **** Fit       0.001393
 **** Fit       0.001472
 **** Fit       0.001452
 **** Fit       0.001351
 **** Fit       0.000900
 **** Fit       0.001116
 **** Fit       0.001291
 **** Fit       0.001401
 **** Fit       0.001434
 **** Fit       0.001394
 **** Fit       0.001296
 **** Fit       0.001162
 **** Fit       0.000597
 **** Fit       0.000452
 **** Fit       0.000292
 **** Fit       0.000118
 **** Fit      -0.000056
 **** Fit       0.001205
 **** Fit       0.001345
 **** Fit       0.001425
 **** Fit       0.001439
 **** Fit       0.001392
 **** Fit       0.001302
 **** Fit       0.001191
 **** Fit       0.000963
 **** Fit       0.000845
 **** Fit       0.000708
 **** Fit       0.000541
 **** Fit       0.000346
 **** Fit       0.000137
 **** Fit      -0.000058
 **** Fit       0.001126
 **** Fit       0.001290
 **** Fit       0.001409
 **** Fit       0.001468
 **** Fit       0.001467
 **** Fit       0.001419
 **** Fit       0.001346
 **** Fit       0.001186
 **** Fit       0.001094
 **** Fit       0.000973
 **** Fit       0.000807
 **** Fit       0.000594
 **** Fit       0.000355
 **** Fit       0.000122
 **** Fit      -0.000072
 **** Fit       0.001039
 **** Fit       0.001217
 **** Fit       0.001363
 **** Fit       0.001459
 **** Fit       0.001499
 **** Fit       0.001494
 **** Fit       0.001462
 **** Fit       0.001423
 **** Fit       0.001379
 **** Fit       0.001318
 **** Fit       0.001217
 **** Fit       0.001055
 **** Fit       0.000831
 **** Fit       0.000569
 **** Fit       0.000307
 **** Fit       0.000083
 **** Fit       0.000934
 **** Fit       0.001116
 **** Fit       0.001278
 **** Fit       0.001402
 **** Fit       0.001479
 **** Fit       0.001518
 **** Fit       0.001532
 **** Fit       0.001534
 **** Fit       0.001526
 **** Fit       0.001492
 **** Fit       0.001407
 **** Fit       0.001252
 **** Fit       0.001025
 **** Fit       0.000751
 **** Fit       0.000474
 **** Fit       0.000232
 **** Fit       0.000815
 **** Fit       0.000990
 **** Fit       0.001158
 **** Fit       0.001304
 **** Fit       0.001417
 **** Fit       0.001499
 **** Fit       0.001559
 **** Fit       0.001601
 **** Fit       0.001622
 **** Fit       0.001606
 **** Fit       0.001531
 **** Fit       0.001379
 **** Fit       0.001154
 **** Fit       0.000882
 **** Fit       0.000604
 **** Fit       0.000361
 **** Fit       0.000855
 **** Fit       0.001024
 **** Fit       0.001187
 **** Fit       0.001332
 **** Fit       0.001457
 **** Fit       0.001679
 **** Fit       0.001669
 **** Fit       0.001592
 **** Fit       0.001439
 **** Fit       0.001219
 **** Fit       0.000957
 **** Fit       0.000693
 **** Fit       0.000462
 **** Fit       0.001711
 **** Fit       0.001698
 **** Fit       0.001611
 **** Fit       0.001450
 **** Fit       0.001233
 **** Fit       0.000986
 **** Fit       0.000743
 **** Fit       0.001543
 **** Fit       0.001669
 **** Fit       0.001728
 **** Fit       0.001705
 **** Fit       0.001601
 **** Fit       0.001429
 **** Fit       0.001213
 **** Fit       0.000982
 **** Fit       0.001327
 **** Fit       0.001523
 **** Fit       0.001664
 **** Fit       0.001723
 **** Fit       0.001687
 **** Fit       0.001566
 **** Fit       0.001382
 **** Fit       0.001267
 **** Fit       0.001473
 **** Fit       0.001619
 **** Fit       0.001674
 **** Fit       0.001627
 **** Fit       0.001493
 **** Fit       0.001304
 **** Fit       0.001097
 **** Fit       0.000950
 **** Fit       0.001173
 **** Fit       0.001374
 **** Fit       0.001513
 **** Fit       0.001561
 **** Fit       0.001508
 **** Fit       0.001372
 **** Fit       0.001191
 **** Fit       0.001002
 **** Fit       0.000840
 **** Fit       0.001040
 **** Fit       0.001219
 **** Fit       0.001341
 **** Fit       0.001379
 **** Fit       0.001326
 **** Fit       0.001203
 **** Fit       0.001045
 **** Fit       0.000887
 **** Fit       0.000878
 **** Fit       0.001023
 **** Fit       0.001121
 **** Fit       0.001149
 **** Fit       0.001105
 **** Fit       0.001006
 **** Fit       0.000884
 **** Fit       0.000768
 **** Fit       0.000711
 **** Fit       0.000819
 **** Fit       0.000890
 **** Fit       0.000911
 **** Fit       0.000880
 **** Fit       0.000813
 **** Fit       0.000734
 **** Fit       0.000690
 **** Fit       0.000707
 **** Fit       0.000693
 **** Fit       0.000658
 **** Fit      -0.000241
 **** Fit      -0.000134
 **** Fit      -0.000022
 **** Fit       0.000050
 **** Fit       0.000069
 **** Fit       0.000037
 **** Fit      -0.000041
 **** Fit       0.000127
 **** Fit       0.000272
 **** Fit       0.000363
 **** Fit       0.000380
 **** Fit       0.000326
 **** Fit       0.000224
 **** Fit       0.000173
 **** Fit       0.000377
 **** Fit       0.000550
 **** Fit       0.000656
 **** Fit       0.000671
 **** Fit       0.000602
 **** Fit       0.000472
 **** Fit       0.000137
 **** Fit       0.000356
 **** Fit       0.000582
 **** Fit       0.000774
 **** Fit       0.000889
 **** Fit       0.000906
 **** Fit       0.000829
 **** Fit       0.000686
 **** Fit       0.000512
 **** Fit       0.000490
 **** Fit       0.000723
 **** Fit       0.000919
 **** Fit       0.001040
 **** Fit       0.001062
 **** Fit       0.000990
 **** Fit       0.000849
 **** Fit       0.000571
 **** Fit       0.000795
 **** Fit       0.000986
 **** Fit       0.001109
 **** Fit       0.001141
 **** Fit       0.001085
 **** Fit       0.000962
 **** Fit       0.000814
 **** Fit       0.000993
 **** Fit       0.001116
 **** Fit       0.001162
 **** Fit       0.001131
 **** Fit       0.001088
 **** Fit       0.000980
 **** Fit       0.000848
 **** Fit       0.000685
 **** Fit       0.001121
 **** Fit       0.000994
 **** Fit       0.000829
 **** Fit       0.000640
 **** Fit       0.001223
 **** Fit       0.001100
 **** Fit       0.000936
 **** Fit       0.001261
 -----------------------------------------------------------------
 Leave Link  602 at Wed May 17 12:11:23 2017, MaxMem=   33554432 cpu:      88.5
 (Enter /scratch/michal/g09/l9999.exe)

 Test job not archived.
 1\1\GINC-RZEPICHA\SP\RHF\6-31G(d)\C27H46O2\MICHAL\17-May-2017\0\\#P HF
 /6-31G* SCF(Conver=6) NoSymm Test Pop=chelpg IOp(6/33=2) GFInput GFPri
 nt\\MEP - Input generated by R.E.D.-III.x MOLECULE\\0,1\O,0,0.,0.,0.\H
 ,0,-0.46356888,0.46151673,-0.71154473\O,0,-3.20307386,5.90464206,0.\H,
 0,-2.89667646,6.58566061,0.61522804\C,0,4.19641846,1.09366829,-0.34721
 967\C,0,2.80281428,0.55003081,0.07376332\H,0,2.35837968,0.14177785,-0.
 84501171\C,0,1.81765502,1.61099902,0.57888216\H,0,2.20990374,2.0540830
 3,1.50580587\C,0,1.63123358,2.72701239,-0.48025805\H,0,1.09712182,2.25
 666664,-1.32265968\C,0,4.89281832,-0.25271702,-0.75012025\H,0,4.427985
 54,-0.55256142,-1.70127964\C,0,3.94405411,2.10523906,-1.48357676\H,0,3
 .51746013,1.56864981,-2.34332769\H,0,4.87373281,2.56553665,-1.83329572
 \C,0,0.69917864,3.88228483,0.02801697\C,0,3.1115436,-0.65806733,0.9704
 4147\H,0,2.28858909,-1.37816044,0.9777781\H,0,3.27519673,-0.34541944,2
 .00978029\C,0,2.9810323,3.22833713,-1.04647948\H,0,3.48961796,3.847276
 93,-0.30012978\H,0,2.79836803,3.88378721,-1.90591217\C,0,4.41210504,-1
 .24820835,0.35693924\H,0,5.18602035,-1.36265775,1.12521526\H,0,4.24351
 266,-2.24621591,-0.05903629\C,0,0.45623224,0.9882695,0.95376933\H,0,0.
 58061944,0.41168948,1.87758759\C,0,6.4271743,-0.28725885,-0.95656614\H
 ,0,6.88876686,0.,0.\C,0,4.9557934,1.76261431,0.82124137\H,0,4.39180434
 ,2.58539641,1.26806967\H,0,5.17905269,1.05299428,1.62360049\H,0,5.9098
 5643,2.17628218,0.47722593\C,0,-0.52780161,3.30359634,0.74503036\C,0,0
 .20446015,4.70348479,-1.2028023\H,0,-0.15371366,3.99786101,-1.96534944
 \H,0,1.0522168,5.23535394,-1.64780881\C,0,-0.60961707,2.02626158,1.152
 57583\H,0,-1.52291887,1.67959395,1.63526976\C,0,1.44190484,4.82353668,
 1.01521231\H,0,2.21447492,5.40596913,0.5043655\H,0,0.75830794,5.536438
 ,1.48279953\H,0,1.91697528,4.25681599,1.82162897\C,0,-1.68336694,4.254
 01342,1.00014322\H,0,-2.53504005,3.71007586,1.42026668\H,0,-1.3886801,
 5.00557187,1.74990778\C,0,-0.92241409,5.70443901,-0.90497699\H,0,-0.56
 54958,6.49609194,-0.22972239\H,0,-1.23782439,6.20020436,-1.83002379\C,
 0,6.95054664,-1.72878043,-1.22042376\H,0,8.04165737,-1.67061582,-1.343
 27252\H,0,6.7904903,-2.31078826,-0.30501398\C,0,-2.12244735,5.00670074
 ,-0.2652022\H,0,-2.54193394,4.28729,-0.97927581\C,0,6.93381819,0.71927
 157,-2.00800382\H,0,6.36398833,0.66678544,-2.94095273\H,0,7.98518227,0
 .52769132,-2.25054463\H,0,6.86843533,1.74815166,-1.64324723\C,0,6.3692
 0342,-2.55210112,-2.39163843\H,0,6.65809381,-3.59574437,-2.21277925\H,
 0,5.27357838,-2.53865386,-2.34692782\C,0,6.83949535,-2.15127358,-3.801
 30598\H,0,7.93267322,-2.03228853,-3.78802695\H,0,6.43142396,-1.1681864
 8,-4.0628707\C,0,6.47459158,-3.13356082,-4.94097014\H,0,6.85124559,-2.
 67222417,-5.86598467\C,0,4.95573929,-3.30670525,-5.10845416\H,0,4.5104
 8881,-3.81918093,-4.24791641\H,0,4.72658952,-3.90358723,-5.99868508\H,
 0,4.45309118,-2.33835262,-5.21752829\C,0,7.17426302,-4.49631902,-4.804
 74541\H,0,6.81102115,-5.05668666,-3.93565559\H,0,6.99199414,-5.1163985
 8,-5.68995262\H,0,8.2590024,-4.37839593,-4.69746153\\Version=EM64L-G09
 RevC.01\HF=-1198.921155\RMSD=4.949e-07\Dipole=0.6138262,0.8169128,0.15
 04366\Quadrupole=-6.9852484,4.7678366,2.2174118,7.1961118,-1.0284016,3
 .1618611\PG=C01 [X(C27H46O2)]\\@


 YOU CANNOT THROW TO THE GROUND THE LETTERS OF
 THE GREEK ALPHABET AND PICK UP THE ILIAD.
        - RUFUS CHOATE, 1799-1859
 Job cpu time:  0 days  0 hours 43 minutes 44.8 seconds.
 File lengths (MBytes):  RWF=    151 Int=      0 D2E=      0 Chk=     11 Scr=      1
 Normal termination of Gaussian 09 at Wed May 17 12:11:23 2017.
