 Entering Gaussian System, Link 0=/scratch/michal/g09//g09
 Input=JOB2-gau_m1-4-2.com
 Output=JOB2-gau_m1-4-2.log
 Initial command:
 /scratch/michal/g09/l1.exe /scratch/michal/gauss_scratch/Gau-819.inp -scrdir=/scratch/michal/gauss_scratch/
 Entering Link 1 = /scratch/michal/g09/l1.exe PID=       821.
  
 Copyright (c) 1988,1990,1992,1993,1995,1998,2003,2009,2011,
            Gaussian, Inc.  All Rights Reserved.
  
 This is part of the Gaussian(R) 09 program.  It is based on
 the Gaussian(R) 03 system (copyright 2003, Gaussian, Inc.),
 the Gaussian(R) 98 system (copyright 1998, Gaussian, Inc.),
 the Gaussian(R) 94 system (copyright 1995, Gaussian, Inc.),
 the Gaussian 92(TM) system (copyright 1992, Gaussian, Inc.),
 the Gaussian 90(TM) system (copyright 1990, Gaussian, Inc.),
 the Gaussian 88(TM) system (copyright 1988, Gaussian, Inc.),
 the Gaussian 86(TM) system (copyright 1986, Carnegie Mellon
 University), and the Gaussian 82(TM) system (copyright 1983,
 Carnegie Mellon University). Gaussian is a federally registered
 trademark of Gaussian, Inc.
  
 This software contains proprietary and confidential information,
 including trade secrets, belonging to Gaussian, Inc.
  
 This software is provided under written license and may be
 used, copied, transmitted, or stored only in accord with that
 written license.
  
 The following legend is applicable only to US Government
 contracts under FAR:
  
                    RESTRICTED RIGHTS LEGEND
  
 Use, reproduction and disclosure by the US Government is
 subject to restrictions as set forth in subparagraphs (a)
 and (c) of the Commercial Computer Software - Restricted
 Rights clause in FAR 52.227-19.
  
 Gaussian, Inc.
 340 Quinnipiac St., Bldg. 40, Wallingford CT 06492
  
  
 ---------------------------------------------------------------
 Warning -- This program may not be used in any manner that
 competes with the business of Gaussian, Inc. or will provide
 assistance to any competitor of Gaussian, Inc.  The licensee
 of this program is prohibited from giving any competitor of
 Gaussian, Inc. access to this program.  By using this program,
 the user acknowledges that Gaussian, Inc. is engaged in the
 business of creating and licensing software in the field of
 computational chemistry and represents and warrants to the
 licensee that it is not a competitor of Gaussian, Inc. and that
 it will not use this program in any manner prohibited above.
 ---------------------------------------------------------------
  

 Cite this work as:
 Gaussian 09, Revision C.01,
 M. J. Frisch, G. W. Trucks, H. B. Schlegel, G. E. Scuseria, 
 M. A. Robb, J. R. Cheeseman, G. Scalmani, V. Barone, B. Mennucci, 
 G. A. Petersson, H. Nakatsuji, M. Caricato, X. Li, H. P. Hratchian, 
 A. F. Izmaylov, J. Bloino, G. Zheng, J. L. Sonnenberg, M. Hada, 
 M. Ehara, K. Toyota, R. Fukuda, J. Hasegawa, M. Ishida, T. Nakajima, 
 Y. Honda, O. Kitao, H. Nakai, T. Vreven, J. A. Montgomery, Jr., 
 J. E. Peralta, F. Ogliaro, M. Bearpark, J. J. Heyd, E. Brothers, 
 K. N. Kudin, V. N. Staroverov, T. Keith, R. Kobayashi, J. Normand, 
 K. Raghavachari, A. Rendell, J. C. Burant, S. S. Iyengar, J. Tomasi, 
 M. Cossi, N. Rega, J. M. Millam, M. Klene, J. E. Knox, J. B. Cross, 
 V. Bakken, C. Adamo, J. Jaramillo, R. Gomperts, R. E. Stratmann, 
 O. Yazyev, A. J. Austin, R. Cammi, C. Pomelli, J. W. Ochterski, 
 R. L. Martin, K. Morokuma, V. G. Zakrzewski, G. A. Voth, 
 P. Salvador, J. J. Dannenberg, S. Dapprich, A. D. Daniels, 
 O. Farkas, J. B. Foresman, J. V. Ortiz, J. Cioslowski, 
 and D. J. Fox, Gaussian, Inc., Wallingford CT, 2010.
 
 ******************************************
 Gaussian 09:  EM64L-G09RevC.01 23-Sep-2011
                17-May-2017 
 ******************************************
 %Mem=256MB
 %NProc=48
 Will use up to   48 processors via shared memory.
 ----------------------------------------------------------------------
 #P HF/6-31G* SCF(Conver=6) NoSymm Test Pop=chelpg IOp(6/33=2) GFInput 
 GFPrint
 ----------------------------------------------------------------------
 1/38=1/1;
 2/12=2,15=1,17=6,18=5,40=1/2;
 3/5=1,6=6,7=1,11=9,16=1,24=110,25=1,30=1/1,2,3;
 4//1;
 5/5=2,6=6,38=5/2;
 6/7=2,8=2,9=2,10=2,15=8,20=3,28=1,33=2/1,2;
 99/5=1,9=1/99;
 Leave Link    1 at Wed May 17 11:56:02 2017, MaxMem=   33554432 cpu:       5.1
 (Enter /scratch/michal/g09/l101.exe)
 ----------------------------------------------
 MEP - Input generated by R.E.D.-III.x MOLECULE
 ----------------------------------------------
 Charge =  0 Multiplicity = 1
 Symbolic Z-Matrix:
 O                     6.83648   0.78346   0. 
 H                     7.40253   0.        0. 
 O                     10.44651  -1.98371   4.93981 
 H                     10.13087  -1.87511   5.84796 
 C                     2.78806  -0.62297   0.75243 
 C                     4.08832   0.1947    0.51649 
 H                     4.59479  -0.29528  -0.32732 
 C                     5.09038   0.17221   1.67729 
 H                     4.6375    0.65937   2.55295 
 C                     5.4647   -1.28634   2.04358 
 H                     6.04501  -1.67237   1.18896 
 C                     2.03955  -0.33298  -0.59509 
 H                     2.55342  -0.93147  -1.36418 
 C                     3.22868  -2.08159   0.99229 
 H                     3.70289  -2.45978   0.07517 
 H                     2.37616  -2.73769   1.19481 
 C                     6.42245  -1.36442   3.28388 
 C                     3.59862   1.55049  -0.01035 
 H                     4.36812   2.06417  -0.5933 
 H                     3.32182   2.21654   0.81692 
 C                     4.21867  -2.19471   2.16957 
 H                     3.68179  -1.96191   3.09499 
 H                     4.53356  -3.24079   2.25995 
 C                     2.35707   1.17883  -0.86703 
 H                     1.49495   1.80323  -0.60366 
 H                     2.55042   1.35391  -1.92931 
 C                     6.35697   0.99087   1.34968 
 H                     6.09645   2.05541   1.36609 
 C                     0.5266   -0.64851  -0.71582 
 H                     0.        0.        0. 
 C                     1.96262  -0.09405   1.94821 
 H                     2.5379   -0.07831   2.87758 
 H                     1.60209   0.92462   1.7763 
 H                     1.08456  -0.72412   2.12415 
 C                     7.52404  -0.30156   3.17769 
 C                     7.09871  -2.77023   3.30457 
 H                     7.47891  -2.98361   2.29582 
 H                     6.34216  -3.53304   3.51745 
 C                     7.46957   0.73414   2.32401 
 H                     8.30069   1.43788   2.2882 
 C                     5.65373  -1.13822   4.6144 
 H                     4.9812   -1.97327   4.83229 
 H                     6.33596  -1.04528   5.46303 
 H                     5.05951  -0.2202    4.57725 
 C                     8.71454  -0.4538    4.10667 
 H                     9.47654   0.29563   3.87124 
 H                     8.40169  -0.26903   5.14674 
 C                     8.26072  -2.91738   4.29871 
 H                     7.89687  -2.82369   5.33259 
 H                     8.70437  -3.91568   4.21188 
 C                    -0.00295  -0.29648  -2.14016 
 H                     0.73677   0.30846  -2.67433 
 H                    -0.10254  -1.22305  -2.72367 
 C                     9.3344   -1.85841   4.04992 
 H                     9.76923  -2.01496   3.05501 
 C                     0.17717  -2.10913  -0.37429 
 H                     0.77849  -2.80327  -0.97451 
 H                    -0.875    -2.31785  -0.58992 
 H                     0.3466   -2.34553   0.67933 
 C                    -1.33744   0.47338  -2.18077 
 H                    -1.21235   1.41206  -1.625 
 H                    -1.53648   0.76161  -3.22317 
 C                    -2.56018  -0.2888   -1.64777 
 H                    -2.43167  -0.50871  -0.57811 
 H                    -2.61408  -1.26221  -2.15645 
 C                    -3.9106    0.43299  -1.83864 
 H                    -4.00586   0.68117  -2.90719 
 C                    -3.99712   1.74458  -1.04118 
 H                    -3.87882   1.55378   0.03358 
 H                    -4.97032   2.22719  -1.18653 
 H                    -3.22629   2.46174  -1.34007 
 C                    -5.07658  -0.49769  -1.46896 
 H                    -5.0302   -0.78031  -0.40932 
 H                    -6.04383  -0.01146  -1.63993 
 H                    -5.05525  -1.42016  -2.06055 
 
 NAtoms=     75 NQM=        0 NQMF=       0 NMMI=     75 NMMIF=      0
                NMic=       0 NMicF=      0.
                    Isotopes and Nuclear Properties:
 (Nuclear quadrupole moments (NQMom) in fm**2, nuclear magnetic moments (NMagM)
  in nuclear magnetons)

  Atom         1           2           3           4           5           6           7           8           9          10
 IAtWgt=          16           1          16           1          12          12           1          12           1          12
 AtmWgt=  15.9949146   1.0078250  15.9949146   1.0078250  12.0000000  12.0000000   1.0078250  12.0000000   1.0078250  12.0000000
 NucSpn=           0           1           0           1           0           0           1           0           1           0
 AtZEff=   0.0000000   0.0000000   0.0000000   0.0000000   0.0000000   0.0000000   0.0000000   0.0000000   0.0000000   0.0000000
 NQMom=    0.0000000   0.0000000   0.0000000   0.0000000   0.0000000   0.0000000   0.0000000   0.0000000   0.0000000   0.0000000
 NMagM=    0.0000000   2.7928460   0.0000000   2.7928460   0.0000000   0.0000000   2.7928460   0.0000000   2.7928460   0.0000000

  Atom        11          12          13          14          15          16          17          18          19          20
 IAtWgt=           1          12           1          12           1           1          12          12           1           1
 AtmWgt=   1.0078250  12.0000000   1.0078250  12.0000000   1.0078250   1.0078250  12.0000000  12.0000000   1.0078250   1.0078250
 NucSpn=           1           0           1           0           1           1           0           0           1           1
 AtZEff=   0.0000000   0.0000000   0.0000000   0.0000000   0.0000000   0.0000000   0.0000000   0.0000000   0.0000000   0.0000000
 NQMom=    0.0000000   0.0000000   0.0000000   0.0000000   0.0000000   0.0000000   0.0000000   0.0000000   0.0000000   0.0000000
 NMagM=    2.7928460   0.0000000   2.7928460   0.0000000   2.7928460   2.7928460   0.0000000   0.0000000   2.7928460   2.7928460

  Atom        21          22          23          24          25          26          27          28          29          30
 IAtWgt=          12           1           1          12           1           1          12           1          12           1
 AtmWgt=  12.0000000   1.0078250   1.0078250  12.0000000   1.0078250   1.0078250  12.0000000   1.0078250  12.0000000   1.0078250
 NucSpn=           0           1           1           0           1           1           0           1           0           1
 AtZEff=   0.0000000   0.0000000   0.0000000   0.0000000   0.0000000   0.0000000   0.0000000   0.0000000   0.0000000   0.0000000
 NQMom=    0.0000000   0.0000000   0.0000000   0.0000000   0.0000000   0.0000000   0.0000000   0.0000000   0.0000000   0.0000000
 NMagM=    0.0000000   2.7928460   2.7928460   0.0000000   2.7928460   2.7928460   0.0000000   2.7928460   0.0000000   2.7928460

  Atom        31          32          33          34          35          36          37          38          39          40
 IAtWgt=          12           1           1           1          12          12           1           1          12           1
 AtmWgt=  12.0000000   1.0078250   1.0078250   1.0078250  12.0000000  12.0000000   1.0078250   1.0078250  12.0000000   1.0078250
 NucSpn=           0           1           1           1           0           0           1           1           0           1
 AtZEff=   0.0000000   0.0000000   0.0000000   0.0000000   0.0000000   0.0000000   0.0000000   0.0000000   0.0000000   0.0000000
 NQMom=    0.0000000   0.0000000   0.0000000   0.0000000   0.0000000   0.0000000   0.0000000   0.0000000   0.0000000   0.0000000
 NMagM=    0.0000000   2.7928460   2.7928460   2.7928460   0.0000000   0.0000000   2.7928460   2.7928460   0.0000000   2.7928460

  Atom        41          42          43          44          45          46          47          48          49          50
 IAtWgt=          12           1           1           1          12           1           1          12           1           1
 AtmWgt=  12.0000000   1.0078250   1.0078250   1.0078250  12.0000000   1.0078250   1.0078250  12.0000000   1.0078250   1.0078250
 NucSpn=           0           1           1           1           0           1           1           0           1           1
 AtZEff=   0.0000000   0.0000000   0.0000000   0.0000000   0.0000000   0.0000000   0.0000000   0.0000000   0.0000000   0.0000000
 NQMom=    0.0000000   0.0000000   0.0000000   0.0000000   0.0000000   0.0000000   0.0000000   0.0000000   0.0000000   0.0000000
 NMagM=    0.0000000   2.7928460   2.7928460   2.7928460   0.0000000   2.7928460   2.7928460   0.0000000   2.7928460   2.7928460

  Atom        51          52          53          54          55          56          57          58          59          60
 IAtWgt=          12           1           1          12           1          12           1           1           1          12
 AtmWgt=  12.0000000   1.0078250   1.0078250  12.0000000   1.0078250  12.0000000   1.0078250   1.0078250   1.0078250  12.0000000
 NucSpn=           0           1           1           0           1           0           1           1           1           0
 AtZEff=   0.0000000   0.0000000   0.0000000   0.0000000   0.0000000   0.0000000   0.0000000   0.0000000   0.0000000   0.0000000
 NQMom=    0.0000000   0.0000000   0.0000000   0.0000000   0.0000000   0.0000000   0.0000000   0.0000000   0.0000000   0.0000000
 NMagM=    0.0000000   2.7928460   2.7928460   0.0000000   2.7928460   0.0000000   2.7928460   2.7928460   2.7928460   0.0000000

  Atom        61          62          63          64          65          66          67          68          69          70
 IAtWgt=           1           1          12           1           1          12           1          12           1           1
 AtmWgt=   1.0078250   1.0078250  12.0000000   1.0078250   1.0078250  12.0000000   1.0078250  12.0000000   1.0078250   1.0078250
 NucSpn=           1           1           0           1           1           0           1           0           1           1
 AtZEff=   0.0000000   0.0000000   0.0000000   0.0000000   0.0000000   0.0000000   0.0000000   0.0000000   0.0000000   0.0000000
 NQMom=    0.0000000   0.0000000   0.0000000   0.0000000   0.0000000   0.0000000   0.0000000   0.0000000   0.0000000   0.0000000
 NMagM=    2.7928460   2.7928460   0.0000000   2.7928460   2.7928460   0.0000000   2.7928460   0.0000000   2.7928460   2.7928460

  Atom        71          72          73          74          75
 IAtWgt=           1          12           1           1           1
 AtmWgt=   1.0078250  12.0000000   1.0078250   1.0078250   1.0078250
 NucSpn=           1           0           1           1           1
 AtZEff=   0.0000000   0.0000000   0.0000000   0.0000000   0.0000000
 NQMom=    0.0000000   0.0000000   0.0000000   0.0000000   0.0000000
 NMagM=    2.7928460   0.0000000   2.7928460   2.7928460   2.7928460
 Leave Link  101 at Wed May 17 11:56:03 2017, MaxMem=   33554432 cpu:      13.9
 (Enter /scratch/michal/g09/l202.exe)
 Symmetry turned off by external request.
 Stoichiometry    C27H46O2
 Framework group  C1[X(C27H46O2)]
 Deg. of freedom   219
 Full point group                 C1      NOp   1
                          Input orientation:                          
 ---------------------------------------------------------------------
 Center     Atomic      Atomic             Coordinates (Angstroms)
 Number     Number       Type             X           Y           Z
 ---------------------------------------------------------------------
      1          8           0        6.836479    0.783465    0.000000
      2          1           0        7.402529    0.000000    0.000000
      3          8           0       10.446507   -1.983706    4.939810
      4          1           0       10.130870   -1.875114    5.847965
      5          6           0        2.788063   -0.622973    0.752430
      6          6           0        4.088324    0.194702    0.516490
      7          1           0        4.594788   -0.295282   -0.327322
      8          6           0        5.090376    0.172212    1.677291
      9          1           0        4.637501    0.659366    2.552951
     10          6           0        5.464703   -1.286340    2.043576
     11          1           0        6.045010   -1.672366    1.188962
     12          6           0        2.039545   -0.332978   -0.595089
     13          1           0        2.553424   -0.931474   -1.364181
     14          6           0        3.228677   -2.081588    0.992293
     15          1           0        3.702887   -2.459781    0.075168
     16          1           0        2.376159   -2.737686    1.194809
     17          6           0        6.422446   -1.364423    3.283882
     18          6           0        3.598619    1.550492   -0.010353
     19          1           0        4.368125    2.064168   -0.593297
     20          1           0        3.321818    2.216542    0.816922
     21          6           0        4.218674   -2.194712    2.169573
     22          1           0        3.681789   -1.961909    3.094993
     23          1           0        4.533560   -3.240785    2.259951
     24          6           0        2.357069    1.178830   -0.867028
     25          1           0        1.494947    1.803234   -0.603662
     26          1           0        2.550421    1.353912   -1.929312
     27          6           0        6.356971    0.990869    1.349679
     28          1           0        6.096449    2.055406    1.366086
     29          6           0        0.526599   -0.648507   -0.715818
     30          1           0        0.000000    0.000000    0.000000
     31          6           0        1.962625   -0.094051    1.948213
     32          1           0        2.537901   -0.078308    2.877577
     33          1           0        1.602090    0.924616    1.776304
     34          1           0        1.084564   -0.724117    2.124149
     35          6           0        7.524041   -0.301556    3.177693
     36          6           0        7.098710   -2.770228    3.304567
     37          1           0        7.478910   -2.983613    2.295815
     38          1           0        6.342156   -3.533039    3.517451
     39          6           0        7.469565    0.734138    2.324010
     40          1           0        8.300688    1.437882    2.288205
     41          6           0        5.653730   -1.138217    4.614404
     42          1           0        4.981203   -1.973267    4.832286
     43          1           0        6.335962   -1.045277    5.463027
     44          1           0        5.059509   -0.220200    4.577248
     45          6           0        8.714536   -0.453805    4.106671
     46          1           0        9.476536    0.295629    3.871237
     47          1           0        8.401691   -0.269029    5.146742
     48          6           0        8.260718   -2.917377    4.298712
     49          1           0        7.896868   -2.823687    5.332593
     50          1           0        8.704374   -3.915681    4.211884
     51          6           0       -0.002953   -0.296482   -2.140164
     52          1           0        0.736770    0.308460   -2.674330
     53          1           0       -0.102537   -1.223054   -2.723668
     54          6           0        9.334404   -1.858409    4.049921
     55          1           0        9.769233   -2.014964    3.055009
     56          6           0        0.177165   -2.109127   -0.374290
     57          1           0        0.778491   -2.803271   -0.974512
     58          1           0       -0.874999   -2.317850   -0.589925
     59          1           0        0.346598   -2.345531    0.679333
     60          6           0       -1.337439    0.473382   -2.180772
     61          1           0       -1.212351    1.412058   -1.624999
     62          1           0       -1.536484    0.761615   -3.223169
     63          6           0       -2.560175   -0.288801   -1.647769
     64          1           0       -2.431669   -0.508712   -0.578112
     65          1           0       -2.614080   -1.262208   -2.156454
     66          6           0       -3.910595    0.432987   -1.838639
     67          1           0       -4.005856    0.681166   -2.907192
     68          6           0       -3.997119    1.744578   -1.041175
     69          1           0       -3.878816    1.553783    0.033581
     70          1           0       -4.970320    2.227188   -1.186530
     71          1           0       -3.226291    2.461737   -1.340074
     72          6           0       -5.076575   -0.497692   -1.468964
     73          1           0       -5.030204   -0.780307   -0.409316
     74          1           0       -6.043833   -0.011461   -1.639930
     75          1           0       -5.055249   -1.420159   -2.060549
 ---------------------------------------------------------------------
 Rotational constants (GHZ):      0.4851067      0.0551242      0.0526059
 Leave Link  202 at Wed May 17 11:56:03 2017, MaxMem=   33554432 cpu:       0.1
 (Enter /scratch/michal/g09/l301.exe)
 Standard basis: 6-31G(d) (6D, 7F)
 Ernie: Thresh=  0.10000D-02 Tol=  0.10000D-05 Strict=F.
 AO basis set in the form of general basis input (Overlap normalization):
      1 0
 S   6 1.00       0.000000000000
      0.5484671660D+04  0.1831074430D-02
      0.8252349460D+03  0.1395017220D-01
      0.1880469580D+03  0.6844507810D-01
      0.5296450000D+02  0.2327143360D+00
      0.1689757040D+02  0.4701928980D+00
      0.5799635340D+01  0.3585208530D+00
 SP   3 1.00       0.000000000000
      0.1553961625D+02 -0.1107775495D+00  0.7087426823D-01
      0.3599933586D+01 -0.1480262627D+00  0.3397528391D+00
      0.1013761750D+01  0.1130767015D+01  0.7271585773D+00
 SP   1 1.00       0.000000000000
      0.2700058226D+00  0.1000000000D+01  0.1000000000D+01
 D   1 1.00       0.000000000000
      0.8000000000D+00  0.1000000000D+01
 ****
      2 0
 S   3 1.00       0.000000000000
      0.1873113696D+02  0.3349460434D-01
      0.2825394365D+01  0.2347269535D+00
      0.6401216923D+00  0.8137573261D+00
 S   1 1.00       0.000000000000
      0.1612777588D+00  0.1000000000D+01
 ****
      3 0
 S   6 1.00       0.000000000000
      0.5484671660D+04  0.1831074430D-02
      0.8252349460D+03  0.1395017220D-01
      0.1880469580D+03  0.6844507810D-01
      0.5296450000D+02  0.2327143360D+00
      0.1689757040D+02  0.4701928980D+00
      0.5799635340D+01  0.3585208530D+00
 SP   3 1.00       0.000000000000
      0.1553961625D+02 -0.1107775495D+00  0.7087426823D-01
      0.3599933586D+01 -0.1480262627D+00  0.3397528391D+00
      0.1013761750D+01  0.1130767015D+01  0.7271585773D+00
 SP   1 1.00       0.000000000000
      0.2700058226D+00  0.1000000000D+01  0.1000000000D+01
 D   1 1.00       0.000000000000
      0.8000000000D+00  0.1000000000D+01
 ****
      4 0
 S   3 1.00       0.000000000000
      0.1873113696D+02  0.3349460434D-01
      0.2825394365D+01  0.2347269535D+00
      0.6401216923D+00  0.8137573261D+00
 S   1 1.00       0.000000000000
      0.1612777588D+00  0.1000000000D+01
 ****
      5 0
 S   6 1.00       0.000000000000
      0.3047524880D+04  0.1834737132D-02
      0.4573695180D+03  0.1403732281D-01
      0.1039486850D+03  0.6884262226D-01
      0.2921015530D+02  0.2321844432D+00
      0.9286662960D+01  0.4679413484D+00
      0.3163926960D+01  0.3623119853D+00
 SP   3 1.00       0.000000000000
      0.7868272350D+01 -0.1193324198D+00  0.6899906659D-01
      0.1881288540D+01 -0.1608541517D+00  0.3164239610D+00
      0.5442492580D+00  0.1143456438D+01  0.7443082909D+00
 SP   1 1.00       0.000000000000
      0.1687144782D+00  0.1000000000D+01  0.1000000000D+01
 D   1 1.00       0.000000000000
      0.8000000000D+00  0.1000000000D+01
 ****
      6 0
 S   6 1.00       0.000000000000
      0.3047524880D+04  0.1834737132D-02
      0.4573695180D+03  0.1403732281D-01
      0.1039486850D+03  0.6884262226D-01
      0.2921015530D+02  0.2321844432D+00
      0.9286662960D+01  0.4679413484D+00
      0.3163926960D+01  0.3623119853D+00
 SP   3 1.00       0.000000000000
      0.7868272350D+01 -0.1193324198D+00  0.6899906659D-01
      0.1881288540D+01 -0.1608541517D+00  0.3164239610D+00
      0.5442492580D+00  0.1143456438D+01  0.7443082909D+00
 SP   1 1.00       0.000000000000
      0.1687144782D+00  0.1000000000D+01  0.1000000000D+01
 D   1 1.00       0.000000000000
      0.8000000000D+00  0.1000000000D+01
 ****
      7 0
 S   3 1.00       0.000000000000
      0.1873113696D+02  0.3349460434D-01
      0.2825394365D+01  0.2347269535D+00
      0.6401216923D+00  0.8137573261D+00
 S   1 1.00       0.000000000000
      0.1612777588D+00  0.1000000000D+01
 ****
      8 0
 S   6 1.00       0.000000000000
      0.3047524880D+04  0.1834737132D-02
      0.4573695180D+03  0.1403732281D-01
      0.1039486850D+03  0.6884262226D-01
      0.2921015530D+02  0.2321844432D+00
      0.9286662960D+01  0.4679413484D+00
      0.3163926960D+01  0.3623119853D+00
 SP   3 1.00       0.000000000000
      0.7868272350D+01 -0.1193324198D+00  0.6899906659D-01
      0.1881288540D+01 -0.1608541517D+00  0.3164239610D+00
      0.5442492580D+00  0.1143456438D+01  0.7443082909D+00
 SP   1 1.00       0.000000000000
      0.1687144782D+00  0.1000000000D+01  0.1000000000D+01
 D   1 1.00       0.000000000000
      0.8000000000D+00  0.1000000000D+01
 ****
      9 0
 S   3 1.00       0.000000000000
      0.1873113696D+02  0.3349460434D-01
      0.2825394365D+01  0.2347269535D+00
      0.6401216923D+00  0.8137573261D+00
 S   1 1.00       0.000000000000
      0.1612777588D+00  0.1000000000D+01
 ****
     10 0
 S   6 1.00       0.000000000000
      0.3047524880D+04  0.1834737132D-02
      0.4573695180D+03  0.1403732281D-01
      0.1039486850D+03  0.6884262226D-01
      0.2921015530D+02  0.2321844432D+00
      0.9286662960D+01  0.4679413484D+00
      0.3163926960D+01  0.3623119853D+00
 SP   3 1.00       0.000000000000
      0.7868272350D+01 -0.1193324198D+00  0.6899906659D-01
      0.1881288540D+01 -0.1608541517D+00  0.3164239610D+00
      0.5442492580D+00  0.1143456438D+01  0.7443082909D+00
 SP   1 1.00       0.000000000000
      0.1687144782D+00  0.1000000000D+01  0.1000000000D+01
 D   1 1.00       0.000000000000
      0.8000000000D+00  0.1000000000D+01
 ****
     11 0
 S   3 1.00       0.000000000000
      0.1873113696D+02  0.3349460434D-01
      0.2825394365D+01  0.2347269535D+00
      0.6401216923D+00  0.8137573261D+00
 S   1 1.00       0.000000000000
      0.1612777588D+00  0.1000000000D+01
 ****
     12 0
 S   6 1.00       0.000000000000
      0.3047524880D+04  0.1834737132D-02
      0.4573695180D+03  0.1403732281D-01
      0.1039486850D+03  0.6884262226D-01
      0.2921015530D+02  0.2321844432D+00
      0.9286662960D+01  0.4679413484D+00
      0.3163926960D+01  0.3623119853D+00
 SP   3 1.00       0.000000000000
      0.7868272350D+01 -0.1193324198D+00  0.6899906659D-01
      0.1881288540D+01 -0.1608541517D+00  0.3164239610D+00
      0.5442492580D+00  0.1143456438D+01  0.7443082909D+00
 SP   1 1.00       0.000000000000
      0.1687144782D+00  0.1000000000D+01  0.1000000000D+01
 D   1 1.00       0.000000000000
      0.8000000000D+00  0.1000000000D+01
 ****
     13 0
 S   3 1.00       0.000000000000
      0.1873113696D+02  0.3349460434D-01
      0.2825394365D+01  0.2347269535D+00
      0.6401216923D+00  0.8137573261D+00
 S   1 1.00       0.000000000000
      0.1612777588D+00  0.1000000000D+01
 ****
     14 0
 S   6 1.00       0.000000000000
      0.3047524880D+04  0.1834737132D-02
      0.4573695180D+03  0.1403732281D-01
      0.1039486850D+03  0.6884262226D-01
      0.2921015530D+02  0.2321844432D+00
      0.9286662960D+01  0.4679413484D+00
      0.3163926960D+01  0.3623119853D+00
 SP   3 1.00       0.000000000000
      0.7868272350D+01 -0.1193324198D+00  0.6899906659D-01
      0.1881288540D+01 -0.1608541517D+00  0.3164239610D+00
      0.5442492580D+00  0.1143456438D+01  0.7443082909D+00
 SP   1 1.00       0.000000000000
      0.1687144782D+00  0.1000000000D+01  0.1000000000D+01
 D   1 1.00       0.000000000000
      0.8000000000D+00  0.1000000000D+01
 ****
     15 0
 S   3 1.00       0.000000000000
      0.1873113696D+02  0.3349460434D-01
      0.2825394365D+01  0.2347269535D+00
      0.6401216923D+00  0.8137573261D+00
 S   1 1.00       0.000000000000
      0.1612777588D+00  0.1000000000D+01
 ****
     16 0
 S   3 1.00       0.000000000000
      0.1873113696D+02  0.3349460434D-01
      0.2825394365D+01  0.2347269535D+00
      0.6401216923D+00  0.8137573261D+00
 S   1 1.00       0.000000000000
      0.1612777588D+00  0.1000000000D+01
 ****
     17 0
 S   6 1.00       0.000000000000
      0.3047524880D+04  0.1834737132D-02
      0.4573695180D+03  0.1403732281D-01
      0.1039486850D+03  0.6884262226D-01
      0.2921015530D+02  0.2321844432D+00
      0.9286662960D+01  0.4679413484D+00
      0.3163926960D+01  0.3623119853D+00
 SP   3 1.00       0.000000000000
      0.7868272350D+01 -0.1193324198D+00  0.6899906659D-01
      0.1881288540D+01 -0.1608541517D+00  0.3164239610D+00
      0.5442492580D+00  0.1143456438D+01  0.7443082909D+00
 SP   1 1.00       0.000000000000
      0.1687144782D+00  0.1000000000D+01  0.1000000000D+01
 D   1 1.00       0.000000000000
      0.8000000000D+00  0.1000000000D+01
 ****
     18 0
 S   6 1.00       0.000000000000
      0.3047524880D+04  0.1834737132D-02
      0.4573695180D+03  0.1403732281D-01
      0.1039486850D+03  0.6884262226D-01
      0.2921015530D+02  0.2321844432D+00
      0.9286662960D+01  0.4679413484D+00
      0.3163926960D+01  0.3623119853D+00
 SP   3 1.00       0.000000000000
      0.7868272350D+01 -0.1193324198D+00  0.6899906659D-01
      0.1881288540D+01 -0.1608541517D+00  0.3164239610D+00
      0.5442492580D+00  0.1143456438D+01  0.7443082909D+00
 SP   1 1.00       0.000000000000
      0.1687144782D+00  0.1000000000D+01  0.1000000000D+01
 D   1 1.00       0.000000000000
      0.8000000000D+00  0.1000000000D+01
 ****
     19 0
 S   3 1.00       0.000000000000
      0.1873113696D+02  0.3349460434D-01
      0.2825394365D+01  0.2347269535D+00
      0.6401216923D+00  0.8137573261D+00
 S   1 1.00       0.000000000000
      0.1612777588D+00  0.1000000000D+01
 ****
     20 0
 S   3 1.00       0.000000000000
      0.1873113696D+02  0.3349460434D-01
      0.2825394365D+01  0.2347269535D+00
      0.6401216923D+00  0.8137573261D+00
 S   1 1.00       0.000000000000
      0.1612777588D+00  0.1000000000D+01
 ****
     21 0
 S   6 1.00       0.000000000000
      0.3047524880D+04  0.1834737132D-02
      0.4573695180D+03  0.1403732281D-01
      0.1039486850D+03  0.6884262226D-01
      0.2921015530D+02  0.2321844432D+00
      0.9286662960D+01  0.4679413484D+00
      0.3163926960D+01  0.3623119853D+00
 SP   3 1.00       0.000000000000
      0.7868272350D+01 -0.1193324198D+00  0.6899906659D-01
      0.1881288540D+01 -0.1608541517D+00  0.3164239610D+00
      0.5442492580D+00  0.1143456438D+01  0.7443082909D+00
 SP   1 1.00       0.000000000000
      0.1687144782D+00  0.1000000000D+01  0.1000000000D+01
 D   1 1.00       0.000000000000
      0.8000000000D+00  0.1000000000D+01
 ****
     22 0
 S   3 1.00       0.000000000000
      0.1873113696D+02  0.3349460434D-01
      0.2825394365D+01  0.2347269535D+00
      0.6401216923D+00  0.8137573261D+00
 S   1 1.00       0.000000000000
      0.1612777588D+00  0.1000000000D+01
 ****
     23 0
 S   3 1.00       0.000000000000
      0.1873113696D+02  0.3349460434D-01
      0.2825394365D+01  0.2347269535D+00
      0.6401216923D+00  0.8137573261D+00
 S   1 1.00       0.000000000000
      0.1612777588D+00  0.1000000000D+01
 ****
     24 0
 S   6 1.00       0.000000000000
      0.3047524880D+04  0.1834737132D-02
      0.4573695180D+03  0.1403732281D-01
      0.1039486850D+03  0.6884262226D-01
      0.2921015530D+02  0.2321844432D+00
      0.9286662960D+01  0.4679413484D+00
      0.3163926960D+01  0.3623119853D+00
 SP   3 1.00       0.000000000000
      0.7868272350D+01 -0.1193324198D+00  0.6899906659D-01
      0.1881288540D+01 -0.1608541517D+00  0.3164239610D+00
      0.5442492580D+00  0.1143456438D+01  0.7443082909D+00
 SP   1 1.00       0.000000000000
      0.1687144782D+00  0.1000000000D+01  0.1000000000D+01
 D   1 1.00       0.000000000000
      0.8000000000D+00  0.1000000000D+01
 ****
     25 0
 S   3 1.00       0.000000000000
      0.1873113696D+02  0.3349460434D-01
      0.2825394365D+01  0.2347269535D+00
      0.6401216923D+00  0.8137573261D+00
 S   1 1.00       0.000000000000
      0.1612777588D+00  0.1000000000D+01
 ****
     26 0
 S   3 1.00       0.000000000000
      0.1873113696D+02  0.3349460434D-01
      0.2825394365D+01  0.2347269535D+00
      0.6401216923D+00  0.8137573261D+00
 S   1 1.00       0.000000000000
      0.1612777588D+00  0.1000000000D+01
 ****
     27 0
 S   6 1.00       0.000000000000
      0.3047524880D+04  0.1834737132D-02
      0.4573695180D+03  0.1403732281D-01
      0.1039486850D+03  0.6884262226D-01
      0.2921015530D+02  0.2321844432D+00
      0.9286662960D+01  0.4679413484D+00
      0.3163926960D+01  0.3623119853D+00
 SP   3 1.00       0.000000000000
      0.7868272350D+01 -0.1193324198D+00  0.6899906659D-01
      0.1881288540D+01 -0.1608541517D+00  0.3164239610D+00
      0.5442492580D+00  0.1143456438D+01  0.7443082909D+00
 SP   1 1.00       0.000000000000
      0.1687144782D+00  0.1000000000D+01  0.1000000000D+01
 D   1 1.00       0.000000000000
      0.8000000000D+00  0.1000000000D+01
 ****
     28 0
 S   3 1.00       0.000000000000
      0.1873113696D+02  0.3349460434D-01
      0.2825394365D+01  0.2347269535D+00
      0.6401216923D+00  0.8137573261D+00
 S   1 1.00       0.000000000000
      0.1612777588D+00  0.1000000000D+01
 ****
     29 0
 S   6 1.00       0.000000000000
      0.3047524880D+04  0.1834737132D-02
      0.4573695180D+03  0.1403732281D-01
      0.1039486850D+03  0.6884262226D-01
      0.2921015530D+02  0.2321844432D+00
      0.9286662960D+01  0.4679413484D+00
      0.3163926960D+01  0.3623119853D+00
 SP   3 1.00       0.000000000000
      0.7868272350D+01 -0.1193324198D+00  0.6899906659D-01
      0.1881288540D+01 -0.1608541517D+00  0.3164239610D+00
      0.5442492580D+00  0.1143456438D+01  0.7443082909D+00
 SP   1 1.00       0.000000000000
      0.1687144782D+00  0.1000000000D+01  0.1000000000D+01
 D   1 1.00       0.000000000000
      0.8000000000D+00  0.1000000000D+01
 ****
     30 0
 S   3 1.00       0.000000000000
      0.1873113696D+02  0.3349460434D-01
      0.2825394365D+01  0.2347269535D+00
      0.6401216923D+00  0.8137573261D+00
 S   1 1.00       0.000000000000
      0.1612777588D+00  0.1000000000D+01
 ****
     31 0
 S   6 1.00       0.000000000000
      0.3047524880D+04  0.1834737132D-02
      0.4573695180D+03  0.1403732281D-01
      0.1039486850D+03  0.6884262226D-01
      0.2921015530D+02  0.2321844432D+00
      0.9286662960D+01  0.4679413484D+00
      0.3163926960D+01  0.3623119853D+00
 SP   3 1.00       0.000000000000
      0.7868272350D+01 -0.1193324198D+00  0.6899906659D-01
      0.1881288540D+01 -0.1608541517D+00  0.3164239610D+00
      0.5442492580D+00  0.1143456438D+01  0.7443082909D+00
 SP   1 1.00       0.000000000000
      0.1687144782D+00  0.1000000000D+01  0.1000000000D+01
 D   1 1.00       0.000000000000
      0.8000000000D+00  0.1000000000D+01
 ****
     32 0
 S   3 1.00       0.000000000000
      0.1873113696D+02  0.3349460434D-01
      0.2825394365D+01  0.2347269535D+00
      0.6401216923D+00  0.8137573261D+00
 S   1 1.00       0.000000000000
      0.1612777588D+00  0.1000000000D+01
 ****
     33 0
 S   3 1.00       0.000000000000
      0.1873113696D+02  0.3349460434D-01
      0.2825394365D+01  0.2347269535D+00
      0.6401216923D+00  0.8137573261D+00
 S   1 1.00       0.000000000000
      0.1612777588D+00  0.1000000000D+01
 ****
     34 0
 S   3 1.00       0.000000000000
      0.1873113696D+02  0.3349460434D-01
      0.2825394365D+01  0.2347269535D+00
      0.6401216923D+00  0.8137573261D+00
 S   1 1.00       0.000000000000
      0.1612777588D+00  0.1000000000D+01
 ****
     35 0
 S   6 1.00       0.000000000000
      0.3047524880D+04  0.1834737132D-02
      0.4573695180D+03  0.1403732281D-01
      0.1039486850D+03  0.6884262226D-01
      0.2921015530D+02  0.2321844432D+00
      0.9286662960D+01  0.4679413484D+00
      0.3163926960D+01  0.3623119853D+00
 SP   3 1.00       0.000000000000
      0.7868272350D+01 -0.1193324198D+00  0.6899906659D-01
      0.1881288540D+01 -0.1608541517D+00  0.3164239610D+00
      0.5442492580D+00  0.1143456438D+01  0.7443082909D+00
 SP   1 1.00       0.000000000000
      0.1687144782D+00  0.1000000000D+01  0.1000000000D+01
 D   1 1.00       0.000000000000
      0.8000000000D+00  0.1000000000D+01
 ****
     36 0
 S   6 1.00       0.000000000000
      0.3047524880D+04  0.1834737132D-02
      0.4573695180D+03  0.1403732281D-01
      0.1039486850D+03  0.6884262226D-01
      0.2921015530D+02  0.2321844432D+00
      0.9286662960D+01  0.4679413484D+00
      0.3163926960D+01  0.3623119853D+00
 SP   3 1.00       0.000000000000
      0.7868272350D+01 -0.1193324198D+00  0.6899906659D-01
      0.1881288540D+01 -0.1608541517D+00  0.3164239610D+00
      0.5442492580D+00  0.1143456438D+01  0.7443082909D+00
 SP   1 1.00       0.000000000000
      0.1687144782D+00  0.1000000000D+01  0.1000000000D+01
 D   1 1.00       0.000000000000
      0.8000000000D+00  0.1000000000D+01
 ****
     37 0
 S   3 1.00       0.000000000000
      0.1873113696D+02  0.3349460434D-01
      0.2825394365D+01  0.2347269535D+00
      0.6401216923D+00  0.8137573261D+00
 S   1 1.00       0.000000000000
      0.1612777588D+00  0.1000000000D+01
 ****
     38 0
 S   3 1.00       0.000000000000
      0.1873113696D+02  0.3349460434D-01
      0.2825394365D+01  0.2347269535D+00
      0.6401216923D+00  0.8137573261D+00
 S   1 1.00       0.000000000000
      0.1612777588D+00  0.1000000000D+01
 ****
     39 0
 S   6 1.00       0.000000000000
      0.3047524880D+04  0.1834737132D-02
      0.4573695180D+03  0.1403732281D-01
      0.1039486850D+03  0.6884262226D-01
      0.2921015530D+02  0.2321844432D+00
      0.9286662960D+01  0.4679413484D+00
      0.3163926960D+01  0.3623119853D+00
 SP   3 1.00       0.000000000000
      0.7868272350D+01 -0.1193324198D+00  0.6899906659D-01
      0.1881288540D+01 -0.1608541517D+00  0.3164239610D+00
      0.5442492580D+00  0.1143456438D+01  0.7443082909D+00
 SP   1 1.00       0.000000000000
      0.1687144782D+00  0.1000000000D+01  0.1000000000D+01
 D   1 1.00       0.000000000000
      0.8000000000D+00  0.1000000000D+01
 ****
     40 0
 S   3 1.00       0.000000000000
      0.1873113696D+02  0.3349460434D-01
      0.2825394365D+01  0.2347269535D+00
      0.6401216923D+00  0.8137573261D+00
 S   1 1.00       0.000000000000
      0.1612777588D+00  0.1000000000D+01
 ****
     41 0
 S   6 1.00       0.000000000000
      0.3047524880D+04  0.1834737132D-02
      0.4573695180D+03  0.1403732281D-01
      0.1039486850D+03  0.6884262226D-01
      0.2921015530D+02  0.2321844432D+00
      0.9286662960D+01  0.4679413484D+00
      0.3163926960D+01  0.3623119853D+00
 SP   3 1.00       0.000000000000
      0.7868272350D+01 -0.1193324198D+00  0.6899906659D-01
      0.1881288540D+01 -0.1608541517D+00  0.3164239610D+00
      0.5442492580D+00  0.1143456438D+01  0.7443082909D+00
 SP   1 1.00       0.000000000000
      0.1687144782D+00  0.1000000000D+01  0.1000000000D+01
 D   1 1.00       0.000000000000
      0.8000000000D+00  0.1000000000D+01
 ****
     42 0
 S   3 1.00       0.000000000000
      0.1873113696D+02  0.3349460434D-01
      0.2825394365D+01  0.2347269535D+00
      0.6401216923D+00  0.8137573261D+00
 S   1 1.00       0.000000000000
      0.1612777588D+00  0.1000000000D+01
 ****
     43 0
 S   3 1.00       0.000000000000
      0.1873113696D+02  0.3349460434D-01
      0.2825394365D+01  0.2347269535D+00
      0.6401216923D+00  0.8137573261D+00
 S   1 1.00       0.000000000000
      0.1612777588D+00  0.1000000000D+01
 ****
     44 0
 S   3 1.00       0.000000000000
      0.1873113696D+02  0.3349460434D-01
      0.2825394365D+01  0.2347269535D+00
      0.6401216923D+00  0.8137573261D+00
 S   1 1.00       0.000000000000
      0.1612777588D+00  0.1000000000D+01
 ****
     45 0
 S   6 1.00       0.000000000000
      0.3047524880D+04  0.1834737132D-02
      0.4573695180D+03  0.1403732281D-01
      0.1039486850D+03  0.6884262226D-01
      0.2921015530D+02  0.2321844432D+00
      0.9286662960D+01  0.4679413484D+00
      0.3163926960D+01  0.3623119853D+00
 SP   3 1.00       0.000000000000
      0.7868272350D+01 -0.1193324198D+00  0.6899906659D-01
      0.1881288540D+01 -0.1608541517D+00  0.3164239610D+00
      0.5442492580D+00  0.1143456438D+01  0.7443082909D+00
 SP   1 1.00       0.000000000000
      0.1687144782D+00  0.1000000000D+01  0.1000000000D+01
 D   1 1.00       0.000000000000
      0.8000000000D+00  0.1000000000D+01
 ****
     46 0
 S   3 1.00       0.000000000000
      0.1873113696D+02  0.3349460434D-01
      0.2825394365D+01  0.2347269535D+00
      0.6401216923D+00  0.8137573261D+00
 S   1 1.00       0.000000000000
      0.1612777588D+00  0.1000000000D+01
 ****
     47 0
 S   3 1.00       0.000000000000
      0.1873113696D+02  0.3349460434D-01
      0.2825394365D+01  0.2347269535D+00
      0.6401216923D+00  0.8137573261D+00
 S   1 1.00       0.000000000000
      0.1612777588D+00  0.1000000000D+01
 ****
     48 0
 S   6 1.00       0.000000000000
      0.3047524880D+04  0.1834737132D-02
      0.4573695180D+03  0.1403732281D-01
      0.1039486850D+03  0.6884262226D-01
      0.2921015530D+02  0.2321844432D+00
      0.9286662960D+01  0.4679413484D+00
      0.3163926960D+01  0.3623119853D+00
 SP   3 1.00       0.000000000000
      0.7868272350D+01 -0.1193324198D+00  0.6899906659D-01
      0.1881288540D+01 -0.1608541517D+00  0.3164239610D+00
      0.5442492580D+00  0.1143456438D+01  0.7443082909D+00
 SP   1 1.00       0.000000000000
      0.1687144782D+00  0.1000000000D+01  0.1000000000D+01
 D   1 1.00       0.000000000000
      0.8000000000D+00  0.1000000000D+01
 ****
     49 0
 S   3 1.00       0.000000000000
      0.1873113696D+02  0.3349460434D-01
      0.2825394365D+01  0.2347269535D+00
      0.6401216923D+00  0.8137573261D+00
 S   1 1.00       0.000000000000
      0.1612777588D+00  0.1000000000D+01
 ****
     50 0
 S   3 1.00       0.000000000000
      0.1873113696D+02  0.3349460434D-01
      0.2825394365D+01  0.2347269535D+00
      0.6401216923D+00  0.8137573261D+00
 S   1 1.00       0.000000000000
      0.1612777588D+00  0.1000000000D+01
 ****
     51 0
 S   6 1.00       0.000000000000
      0.3047524880D+04  0.1834737132D-02
      0.4573695180D+03  0.1403732281D-01
      0.1039486850D+03  0.6884262226D-01
      0.2921015530D+02  0.2321844432D+00
      0.9286662960D+01  0.4679413484D+00
      0.3163926960D+01  0.3623119853D+00
 SP   3 1.00       0.000000000000
      0.7868272350D+01 -0.1193324198D+00  0.6899906659D-01
      0.1881288540D+01 -0.1608541517D+00  0.3164239610D+00
      0.5442492580D+00  0.1143456438D+01  0.7443082909D+00
 SP   1 1.00       0.000000000000
      0.1687144782D+00  0.1000000000D+01  0.1000000000D+01
 D   1 1.00       0.000000000000
      0.8000000000D+00  0.1000000000D+01
 ****
     52 0
 S   3 1.00       0.000000000000
      0.1873113696D+02  0.3349460434D-01
      0.2825394365D+01  0.2347269535D+00
      0.6401216923D+00  0.8137573261D+00
 S   1 1.00       0.000000000000
      0.1612777588D+00  0.1000000000D+01
 ****
     53 0
 S   3 1.00       0.000000000000
      0.1873113696D+02  0.3349460434D-01
      0.2825394365D+01  0.2347269535D+00
      0.6401216923D+00  0.8137573261D+00
 S   1 1.00       0.000000000000
      0.1612777588D+00  0.1000000000D+01
 ****
     54 0
 S   6 1.00       0.000000000000
      0.3047524880D+04  0.1834737132D-02
      0.4573695180D+03  0.1403732281D-01
      0.1039486850D+03  0.6884262226D-01
      0.2921015530D+02  0.2321844432D+00
      0.9286662960D+01  0.4679413484D+00
      0.3163926960D+01  0.3623119853D+00
 SP   3 1.00       0.000000000000
      0.7868272350D+01 -0.1193324198D+00  0.6899906659D-01
      0.1881288540D+01 -0.1608541517D+00  0.3164239610D+00
      0.5442492580D+00  0.1143456438D+01  0.7443082909D+00
 SP   1 1.00       0.000000000000
      0.1687144782D+00  0.1000000000D+01  0.1000000000D+01
 D   1 1.00       0.000000000000
      0.8000000000D+00  0.1000000000D+01
 ****
     55 0
 S   3 1.00       0.000000000000
      0.1873113696D+02  0.3349460434D-01
      0.2825394365D+01  0.2347269535D+00
      0.6401216923D+00  0.8137573261D+00
 S   1 1.00       0.000000000000
      0.1612777588D+00  0.1000000000D+01
 ****
     56 0
 S   6 1.00       0.000000000000
      0.3047524880D+04  0.1834737132D-02
      0.4573695180D+03  0.1403732281D-01
      0.1039486850D+03  0.6884262226D-01
      0.2921015530D+02  0.2321844432D+00
      0.9286662960D+01  0.4679413484D+00
      0.3163926960D+01  0.3623119853D+00
 SP   3 1.00       0.000000000000
      0.7868272350D+01 -0.1193324198D+00  0.6899906659D-01
      0.1881288540D+01 -0.1608541517D+00  0.3164239610D+00
      0.5442492580D+00  0.1143456438D+01  0.7443082909D+00
 SP   1 1.00       0.000000000000
      0.1687144782D+00  0.1000000000D+01  0.1000000000D+01
 D   1 1.00       0.000000000000
      0.8000000000D+00  0.1000000000D+01
 ****
     57 0
 S   3 1.00       0.000000000000
      0.1873113696D+02  0.3349460434D-01
      0.2825394365D+01  0.2347269535D+00
      0.6401216923D+00  0.8137573261D+00
 S   1 1.00       0.000000000000
      0.1612777588D+00  0.1000000000D+01
 ****
     58 0
 S   3 1.00       0.000000000000
      0.1873113696D+02  0.3349460434D-01
      0.2825394365D+01  0.2347269535D+00
      0.6401216923D+00  0.8137573261D+00
 S   1 1.00       0.000000000000
      0.1612777588D+00  0.1000000000D+01
 ****
     59 0
 S   3 1.00       0.000000000000
      0.1873113696D+02  0.3349460434D-01
      0.2825394365D+01  0.2347269535D+00
      0.6401216923D+00  0.8137573261D+00
 S   1 1.00       0.000000000000
      0.1612777588D+00  0.1000000000D+01
 ****
     60 0
 S   6 1.00       0.000000000000
      0.3047524880D+04  0.1834737132D-02
      0.4573695180D+03  0.1403732281D-01
      0.1039486850D+03  0.6884262226D-01
      0.2921015530D+02  0.2321844432D+00
      0.9286662960D+01  0.4679413484D+00
      0.3163926960D+01  0.3623119853D+00
 SP   3 1.00       0.000000000000
      0.7868272350D+01 -0.1193324198D+00  0.6899906659D-01
      0.1881288540D+01 -0.1608541517D+00  0.3164239610D+00
      0.5442492580D+00  0.1143456438D+01  0.7443082909D+00
 SP   1 1.00       0.000000000000
      0.1687144782D+00  0.1000000000D+01  0.1000000000D+01
 D   1 1.00       0.000000000000
      0.8000000000D+00  0.1000000000D+01
 ****
     61 0
 S   3 1.00       0.000000000000
      0.1873113696D+02  0.3349460434D-01
      0.2825394365D+01  0.2347269535D+00
      0.6401216923D+00  0.8137573261D+00
 S   1 1.00       0.000000000000
      0.1612777588D+00  0.1000000000D+01
 ****
     62 0
 S   3 1.00       0.000000000000
      0.1873113696D+02  0.3349460434D-01
      0.2825394365D+01  0.2347269535D+00
      0.6401216923D+00  0.8137573261D+00
 S   1 1.00       0.000000000000
      0.1612777588D+00  0.1000000000D+01
 ****
     63 0
 S   6 1.00       0.000000000000
      0.3047524880D+04  0.1834737132D-02
      0.4573695180D+03  0.1403732281D-01
      0.1039486850D+03  0.6884262226D-01
      0.2921015530D+02  0.2321844432D+00
      0.9286662960D+01  0.4679413484D+00
      0.3163926960D+01  0.3623119853D+00
 SP   3 1.00       0.000000000000
      0.7868272350D+01 -0.1193324198D+00  0.6899906659D-01
      0.1881288540D+01 -0.1608541517D+00  0.3164239610D+00
      0.5442492580D+00  0.1143456438D+01  0.7443082909D+00
 SP   1 1.00       0.000000000000
      0.1687144782D+00  0.1000000000D+01  0.1000000000D+01
 D   1 1.00       0.000000000000
      0.8000000000D+00  0.1000000000D+01
 ****
     64 0
 S   3 1.00       0.000000000000
      0.1873113696D+02  0.3349460434D-01
      0.2825394365D+01  0.2347269535D+00
      0.6401216923D+00  0.8137573261D+00
 S   1 1.00       0.000000000000
      0.1612777588D+00  0.1000000000D+01
 ****
     65 0
 S   3 1.00       0.000000000000
      0.1873113696D+02  0.3349460434D-01
      0.2825394365D+01  0.2347269535D+00
      0.6401216923D+00  0.8137573261D+00
 S   1 1.00       0.000000000000
      0.1612777588D+00  0.1000000000D+01
 ****
     66 0
 S   6 1.00       0.000000000000
      0.3047524880D+04  0.1834737132D-02
      0.4573695180D+03  0.1403732281D-01
      0.1039486850D+03  0.6884262226D-01
      0.2921015530D+02  0.2321844432D+00
      0.9286662960D+01  0.4679413484D+00
      0.3163926960D+01  0.3623119853D+00
 SP   3 1.00       0.000000000000
      0.7868272350D+01 -0.1193324198D+00  0.6899906659D-01
      0.1881288540D+01 -0.1608541517D+00  0.3164239610D+00
      0.5442492580D+00  0.1143456438D+01  0.7443082909D+00
 SP   1 1.00       0.000000000000
      0.1687144782D+00  0.1000000000D+01  0.1000000000D+01
 D   1 1.00       0.000000000000
      0.8000000000D+00  0.1000000000D+01
 ****
     67 0
 S   3 1.00       0.000000000000
      0.1873113696D+02  0.3349460434D-01
      0.2825394365D+01  0.2347269535D+00
      0.6401216923D+00  0.8137573261D+00
 S   1 1.00       0.000000000000
      0.1612777588D+00  0.1000000000D+01
 ****
     68 0
 S   6 1.00       0.000000000000
      0.3047524880D+04  0.1834737132D-02
      0.4573695180D+03  0.1403732281D-01
      0.1039486850D+03  0.6884262226D-01
      0.2921015530D+02  0.2321844432D+00
      0.9286662960D+01  0.4679413484D+00
      0.3163926960D+01  0.3623119853D+00
 SP   3 1.00       0.000000000000
      0.7868272350D+01 -0.1193324198D+00  0.6899906659D-01
      0.1881288540D+01 -0.1608541517D+00  0.3164239610D+00
      0.5442492580D+00  0.1143456438D+01  0.7443082909D+00
 SP   1 1.00       0.000000000000
      0.1687144782D+00  0.1000000000D+01  0.1000000000D+01
 D   1 1.00       0.000000000000
      0.8000000000D+00  0.1000000000D+01
 ****
     69 0
 S   3 1.00       0.000000000000
      0.1873113696D+02  0.3349460434D-01
      0.2825394365D+01  0.2347269535D+00
      0.6401216923D+00  0.8137573261D+00
 S   1 1.00       0.000000000000
      0.1612777588D+00  0.1000000000D+01
 ****
     70 0
 S   3 1.00       0.000000000000
      0.1873113696D+02  0.3349460434D-01
      0.2825394365D+01  0.2347269535D+00
      0.6401216923D+00  0.8137573261D+00
 S   1 1.00       0.000000000000
      0.1612777588D+00  0.1000000000D+01
 ****
     71 0
 S   3 1.00       0.000000000000
      0.1873113696D+02  0.3349460434D-01
      0.2825394365D+01  0.2347269535D+00
      0.6401216923D+00  0.8137573261D+00
 S   1 1.00       0.000000000000
      0.1612777588D+00  0.1000000000D+01
 ****
     72 0
 S   6 1.00       0.000000000000
      0.3047524880D+04  0.1834737132D-02
      0.4573695180D+03  0.1403732281D-01
      0.1039486850D+03  0.6884262226D-01
      0.2921015530D+02  0.2321844432D+00
      0.9286662960D+01  0.4679413484D+00
      0.3163926960D+01  0.3623119853D+00
 SP   3 1.00       0.000000000000
      0.7868272350D+01 -0.1193324198D+00  0.6899906659D-01
      0.1881288540D+01 -0.1608541517D+00  0.3164239610D+00
      0.5442492580D+00  0.1143456438D+01  0.7443082909D+00
 SP   1 1.00       0.000000000000
      0.1687144782D+00  0.1000000000D+01  0.1000000000D+01
 D   1 1.00       0.000000000000
      0.8000000000D+00  0.1000000000D+01
 ****
     73 0
 S   3 1.00       0.000000000000
      0.1873113696D+02  0.3349460434D-01
      0.2825394365D+01  0.2347269535D+00
      0.6401216923D+00  0.8137573261D+00
 S   1 1.00       0.000000000000
      0.1612777588D+00  0.1000000000D+01
 ****
     74 0
 S   3 1.00       0.000000000000
      0.1873113696D+02  0.3349460434D-01
      0.2825394365D+01  0.2347269535D+00
      0.6401216923D+00  0.8137573261D+00
 S   1 1.00       0.000000000000
      0.1612777588D+00  0.1000000000D+01
 ****
     75 0
 S   3 1.00       0.000000000000
      0.1873113696D+02  0.3349460434D-01
      0.2825394365D+01  0.2347269535D+00
      0.6401216923D+00  0.8137573261D+00
 S   1 1.00       0.000000000000
      0.1612777588D+00  0.1000000000D+01
 ****

 AO basis set (Overlap normalization):
 Atom O1       Shell     1 S   6     bf    1 -     1         12.919073665731          1.480533434324          0.000000000000
      0.5484671660D+04  0.1831074430D-02
      0.8252349460D+03  0.1395017220D-01
      0.1880469580D+03  0.6844507810D-01
      0.5296450000D+02  0.2327143360D+00
      0.1689757040D+02  0.4701928980D+00
      0.5799635340D+01  0.3585208530D+00
 Atom O1       Shell     2 SP   3    bf    2 -     5         12.919073665731          1.480533434324          0.000000000000
      0.1553961625D+02 -0.1107775495D+00  0.7087426823D-01
      0.3599933586D+01 -0.1480262627D+00  0.3397528391D+00
      0.1013761750D+01  0.1130767015D+01  0.7271585773D+00
 Atom O1       Shell     3 SP   1    bf    6 -     9         12.919073665731          1.480533434324          0.000000000000
      0.2700058226D+00  0.1000000000D+01  0.1000000000D+01
 Atom O1       Shell     4 D   1     bf   10 -    15         12.919073665731          1.480533434324          0.000000000000
      0.8000000000D+00  0.1000000000D+01
 Atom H2       Shell     5 S   3     bf   16 -    16         13.988752954278          0.000000000000          0.000000000000
      0.1873113696D+02  0.3349460434D-01
      0.2825394365D+01  0.2347269535D+00
      0.6401216923D+00  0.8137573261D+00
 Atom H2       Shell     6 S   1     bf   17 -    17         13.988752954278          0.000000000000          0.000000000000
      0.1612777588D+00  0.1000000000D+01
 Atom O3       Shell     7 S   6     bf   18 -    18         19.741036557177         -3.748661087059          9.334888804380
      0.5484671660D+04  0.1831074430D-02
      0.8252349460D+03  0.1395017220D-01
      0.1880469580D+03  0.6844507810D-01
      0.5296450000D+02  0.2327143360D+00
      0.1689757040D+02  0.4701928980D+00
      0.5799635340D+01  0.3585208530D+00
 Atom O3       Shell     8 SP   3    bf   19 -    22         19.741036557177         -3.748661087059          9.334888804380
      0.1553961625D+02 -0.1107775495D+00  0.7087426823D-01
      0.3599933586D+01 -0.1480262627D+00  0.3397528391D+00
      0.1013761750D+01  0.1130767015D+01  0.7271585773D+00
 Atom O3       Shell     9 SP   1    bf   23 -    26         19.741036557177         -3.748661087059          9.334888804380
      0.2700058226D+00  0.1000000000D+01  0.1000000000D+01
 Atom O3       Shell    10 D   1     bf   27 -    32         19.741036557177         -3.748661087059          9.334888804380
      0.8000000000D+00  0.1000000000D+01
 Atom H4       Shell    11 S   3     bf   33 -    33         19.144569579997         -3.543452608241         11.051052228009
      0.1873113696D+02  0.3349460434D-01
      0.2825394365D+01  0.2347269535D+00
      0.6401216923D+00  0.8137573261D+00
 Atom H4       Shell    12 S   1     bf   34 -    34         19.144569579997         -3.543452608241         11.051052228009
      0.1612777588D+00  0.1000000000D+01
 Atom C5       Shell    13 S   6     bf   35 -    35          5.268674566368         -1.177247413319          1.421885821585
      0.3047524880D+04  0.1834737132D-02
      0.4573695180D+03  0.1403732281D-01
      0.1039486850D+03  0.6884262226D-01
      0.2921015530D+02  0.2321844432D+00
      0.9286662960D+01  0.4679413484D+00
      0.3163926960D+01  0.3623119853D+00
 Atom C5       Shell    14 SP   3    bf   36 -    39          5.268674566368         -1.177247413319          1.421885821585
      0.7868272350D+01 -0.1193324198D+00  0.6899906659D-01
      0.1881288540D+01 -0.1608541517D+00  0.3164239610D+00
      0.5442492580D+00  0.1143456438D+01  0.7443082909D+00
 Atom C5       Shell    15 SP   1    bf   40 -    43          5.268674566368         -1.177247413319          1.421885821585
      0.1687144782D+00  0.1000000000D+01  0.1000000000D+01
 Atom C5       Shell    16 D   1     bf   44 -    49          5.268674566368         -1.177247413319          1.421885821585
      0.8000000000D+00  0.1000000000D+01
 Atom C6       Shell    17 S   6     bf   50 -    50          7.725813174935          0.367933816573          0.976023951175
      0.3047524880D+04  0.1834737132D-02
      0.4573695180D+03  0.1403732281D-01
      0.1039486850D+03  0.6884262226D-01
      0.2921015530D+02  0.2321844432D+00
      0.9286662960D+01  0.4679413484D+00
      0.3163926960D+01  0.3623119853D+00
 Atom C6       Shell    18 SP   3    bf   51 -    54          7.725813174935          0.367933816573          0.976023951175
      0.7868272350D+01 -0.1193324198D+00  0.6899906659D-01
      0.1881288540D+01 -0.1608541517D+00  0.3164239610D+00
      0.5442492580D+00  0.1143456438D+01  0.7443082909D+00
 Atom C6       Shell    19 SP   1    bf   55 -    58          7.725813174935          0.367933816573          0.976023951175
      0.1687144782D+00  0.1000000000D+01  0.1000000000D+01
 Atom C6       Shell    20 D   1     bf   59 -    64          7.725813174935          0.367933816573          0.976023951175
      0.8000000000D+00  0.1000000000D+01
 Atom H7       Shell    21 S   3     bf   65 -    65          8.682890524032         -0.558002074176         -0.618549088446
      0.1873113696D+02  0.3349460434D-01
      0.2825394365D+01  0.2347269535D+00
      0.6401216923D+00  0.8137573261D+00
 Atom H7       Shell    22 S   1     bf   66 -    66          8.682890524032         -0.558002074176         -0.618549088446
      0.1612777588D+00  0.1000000000D+01
 Atom C8       Shell    23 S   6     bf   67 -    67          9.619416458928          0.325433743564          3.169619898161
      0.3047524880D+04  0.1834737132D-02
      0.4573695180D+03  0.1403732281D-01
      0.1039486850D+03  0.6884262226D-01
      0.2921015530D+02  0.2321844432D+00
      0.9286662960D+01  0.4679413484D+00
      0.3163926960D+01  0.3623119853D+00
 Atom C8       Shell    24 SP   3    bf   68 -    71          9.619416458928          0.325433743564          3.169619898161
      0.7868272350D+01 -0.1193324198D+00  0.6899906659D-01
      0.1881288540D+01 -0.1608541517D+00  0.3164239610D+00
      0.5442492580D+00  0.1143456438D+01  0.7443082909D+00
 Atom C8       Shell    25 SP   1    bf   72 -    75          9.619416458928          0.325433743564          3.169619898161
      0.1687144782D+00  0.1000000000D+01  0.1000000000D+01
 Atom C8       Shell    26 D   1     bf   76 -    81          9.619416458928          0.325433743564          3.169619898161
      0.8000000000D+00  0.1000000000D+01
 Atom H9       Shell    27 S   3     bf   82 -    82          8.763606056196          1.246020405446          4.824377389197
      0.1873113696D+02  0.3349460434D-01
      0.2825394365D+01  0.2347269535D+00
      0.6401216923D+00  0.8137573261D+00
 Atom H9       Shell    28 S   1     bf   83 -    83          8.763606056196          1.246020405446          4.824377389197
      0.1612777588D+00  0.1000000000D+01
 Atom C10      Shell    29 S   6     bf   84 -    84         10.326792199839         -2.430829784653          3.861798858354
      0.3047524880D+04  0.1834737132D-02
      0.4573695180D+03  0.1403732281D-01
      0.1039486850D+03  0.6884262226D-01
      0.2921015530D+02  0.2321844432D+00
      0.9286662960D+01  0.4679413484D+00
      0.3163926960D+01  0.3623119853D+00
 Atom C10      Shell    30 SP   3    bf   85 -    88         10.326792199839         -2.430829784653          3.861798858354
      0.7868272350D+01 -0.1193324198D+00  0.6899906659D-01
      0.1881288540D+01 -0.1608541517D+00  0.3164239610D+00
      0.5442492580D+00  0.1143456438D+01  0.7443082909D+00
 Atom C10      Shell    31 SP   1    bf   89 -    92         10.326792199839         -2.430829784653          3.861798858354
      0.1687144782D+00  0.1000000000D+01  0.1000000000D+01
 Atom C10      Shell    32 D   1     bf   93 -    98         10.326792199839         -2.430829784653          3.861798858354
      0.8000000000D+00  0.1000000000D+01
 Atom H11      Shell    33 S   3     bf   99 -    99         11.423414088651         -3.160313185929          2.246811655339
      0.1873113696D+02  0.3349460434D-01
      0.2825394365D+01  0.2347269535D+00
      0.6401216923D+00  0.8137573261D+00
 Atom H11      Shell    34 S   1     bf  100 -   100         11.423414088651         -3.160313185929          2.246811655339
      0.1612777588D+00  0.1000000000D+01
 Atom C12      Shell    35 S   6     bf  101 -   101          3.854182241587         -0.629236359002         -1.124555858302
      0.3047524880D+04  0.1834737132D-02
      0.4573695180D+03  0.1403732281D-01
      0.1039486850D+03  0.6884262226D-01
      0.2921015530D+02  0.2321844432D+00
      0.9286662960D+01  0.4679413484D+00
      0.3163926960D+01  0.3623119853D+00
 Atom C12      Shell    36 SP   3    bf  102 -   105          3.854182241587         -0.629236359002         -1.124555858302
      0.7868272350D+01 -0.1193324198D+00  0.6899906659D-01
      0.1881288540D+01 -0.1608541517D+00  0.3164239610D+00
      0.5442492580D+00  0.1143456438D+01  0.7443082909D+00
 Atom C12      Shell    37 SP   1    bf  106 -   109          3.854182241587         -0.629236359002         -1.124555858302
      0.1687144782D+00  0.1000000000D+01  0.1000000000D+01
 Atom C12      Shell    38 D   1     bf  110 -   115          3.854182241587         -0.629236359002         -1.124555858302
      0.8000000000D+00  0.1000000000D+01
 Atom H13      Shell    39 S   3     bf  116 -   116          4.825272646952         -1.760229966219         -2.577928315611
      0.1873113696D+02  0.3349460434D-01
      0.2825394365D+01  0.2347269535D+00
      0.6401216923D+00  0.8137573261D+00
 Atom H13      Shell    40 S   1     bf  117 -   117          4.825272646952         -1.760229966219         -2.577928315611
      0.1612777588D+00  0.1000000000D+01
 Atom C14      Shell    41 S   6     bf  118 -   118          6.101314961396         -3.933631109220          1.875162599395
      0.3047524880D+04  0.1834737132D-02
      0.4573695180D+03  0.1403732281D-01
      0.1039486850D+03  0.6884262226D-01
      0.2921015530D+02  0.2321844432D+00
      0.9286662960D+01  0.4679413484D+00
      0.3163926960D+01  0.3623119853D+00
 Atom C14      Shell    42 SP   3    bf  119 -   122          6.101314961396         -3.933631109220          1.875162599395
      0.7868272350D+01 -0.1193324198D+00  0.6899906659D-01
      0.1881288540D+01 -0.1608541517D+00  0.3164239610D+00
      0.5442492580D+00  0.1143456438D+01  0.7443082909D+00
 Atom C14      Shell    43 SP   1    bf  123 -   126          6.101314961396         -3.933631109220          1.875162599395
      0.1687144782D+00  0.1000000000D+01  0.1000000000D+01
 Atom C14      Shell    44 D   1     bf  127 -   132          6.101314961396         -3.933631109220          1.875162599395
      0.8000000000D+00  0.1000000000D+01
 Atom H15      Shell    45 S   3     bf  133 -   133          6.997441405057         -4.648312947102          0.142046537114
      0.1873113696D+02  0.3349460434D-01
      0.2825394365D+01  0.2347269535D+00
      0.6401216923D+00  0.8137573261D+00
 Atom H15      Shell    46 S   1     bf  134 -   134          6.997441405057         -4.648312947102          0.142046537114
      0.1612777588D+00  0.1000000000D+01
 Atom H16      Shell    47 S   3     bf  135 -   135          4.490289002301         -5.173476626657          2.257860846244
      0.1873113696D+02  0.3349460434D-01
      0.2825394365D+01  0.2347269535D+00
      0.6401216923D+00  0.8137573261D+00
 Atom H16      Shell    48 S   1     bf  136 -   136          4.490289002301         -5.173476626657          2.257860846244
      0.1612777588D+00  0.1000000000D+01
 Atom C17      Shell    49 S   6     bf  137 -   137         12.136663325151         -2.578385251390          6.205636782336
      0.3047524880D+04  0.1834737132D-02
      0.4573695180D+03  0.1403732281D-01
      0.1039486850D+03  0.6884262226D-01
      0.2921015530D+02  0.2321844432D+00
      0.9286662960D+01  0.4679413484D+00
      0.3163926960D+01  0.3623119853D+00
 Atom C17      Shell    50 SP   3    bf  138 -   141         12.136663325151         -2.578385251390          6.205636782336
      0.7868272350D+01 -0.1193324198D+00  0.6899906659D-01
      0.1881288540D+01 -0.1608541517D+00  0.3164239610D+00
      0.5442492580D+00  0.1143456438D+01  0.7443082909D+00
 Atom C17      Shell    51 SP   1    bf  142 -   145         12.136663325151         -2.578385251390          6.205636782336
      0.1687144782D+00  0.1000000000D+01  0.1000000000D+01
 Atom C17      Shell    52 D   1     bf  146 -   151         12.136663325151         -2.578385251390          6.205636782336
      0.8000000000D+00  0.1000000000D+01
 Atom C18      Shell    53 S   6     bf  152 -   152          6.800404857928          2.930004570929         -0.019565052750
      0.3047524880D+04  0.1834737132D-02
      0.4573695180D+03  0.1403732281D-01
      0.1039486850D+03  0.6884262226D-01
      0.2921015530D+02  0.2321844432D+00
      0.9286662960D+01  0.4679413484D+00
      0.3163926960D+01  0.3623119853D+00
 Atom C18      Shell    54 SP   3    bf  153 -   156          6.800404857928          2.930004570929         -0.019565052750
      0.7868272350D+01 -0.1193324198D+00  0.6899906659D-01
      0.1881288540D+01 -0.1608541517D+00  0.3164239610D+00
      0.5442492580D+00  0.1143456438D+01  0.7443082909D+00
 Atom C18      Shell    55 SP   1    bf  157 -   160          6.800404857928          2.930004570929         -0.019565052750
      0.1687144782D+00  0.1000000000D+01  0.1000000000D+01
 Atom C18      Shell    56 D   1     bf  161 -   166          6.800404857928          2.930004570929         -0.019565052750
      0.8000000000D+00  0.1000000000D+01
 Atom H19      Shell    57 S   3     bf  167 -   167          8.254559283910          3.900712061088         -1.121169506867
      0.1873113696D+02  0.3349460434D-01
      0.2825394365D+01  0.2347269535D+00
      0.6401216923D+00  0.8137573261D+00
 Atom H19      Shell    58 S   1     bf  168 -   168          8.254559283910          3.900712061088         -1.121169506867
      0.1612777588D+00  0.1000000000D+01
 Atom H20      Shell    59 S   3     bf  169 -   169          6.277325414016          4.188657549908          1.543759740100
      0.1873113696D+02  0.3349460434D-01
      0.2825394365D+01  0.2347269535D+00
      0.6401216923D+00  0.8137573261D+00
 Atom H20      Shell    60 S   1     bf  170 -   170          6.277325414016          4.188657549908          1.543759740100
      0.1612777588D+00  0.1000000000D+01
 Atom C21      Shell    61 S   6     bf  171 -   171          7.972138220466         -4.147403826873          4.099899211043
      0.3047524880D+04  0.1834737132D-02
      0.4573695180D+03  0.1403732281D-01
      0.1039486850D+03  0.6884262226D-01
      0.2921015530D+02  0.2321844432D+00
      0.9286662960D+01  0.4679413484D+00
      0.3163926960D+01  0.3623119853D+00
 Atom C21      Shell    62 SP   3    bf  172 -   175          7.972138220466         -4.147403826873          4.099899211043
      0.7868272350D+01 -0.1193324198D+00  0.6899906659D-01
      0.1881288540D+01 -0.1608541517D+00  0.3164239610D+00
      0.5442492580D+00  0.1143456438D+01  0.7443082909D+00
 Atom C21      Shell    63 SP   1    bf  176 -   179          7.972138220466         -4.147403826873          4.099899211043
      0.1687144782D+00  0.1000000000D+01  0.1000000000D+01
 Atom C21      Shell    64 D   1     bf  180 -   185          7.972138220466         -4.147403826873          4.099899211043
      0.8000000000D+00  0.1000000000D+01
 Atom H22      Shell    65 S   3     bf  186 -   186          6.957572548920         -3.707469951753          5.848689852397
      0.1873113696D+02  0.3349460434D-01
      0.2825394365D+01  0.2347269535D+00
      0.6401216923D+00  0.8137573261D+00
 Atom H22      Shell    66 S   1     bf  187 -   187          6.957572548920         -3.707469951753          5.848689852397
      0.1612777588D+00  0.1000000000D+01
 Atom H23      Shell    67 S   3     bf  188 -   188          8.567186599135         -6.124196464612          4.270688444844
      0.1873113696D+02  0.3349460434D-01
      0.2825394365D+01  0.2347269535D+00
      0.6401216923D+00  0.8137573261D+00
 Atom H23      Shell    68 S   1     bf  189 -   189          8.567186599135         -6.124196464612          4.270688444844
      0.1612777588D+00  0.1000000000D+01
 Atom C24      Shell    69 S   6     bf  190 -   190          4.454214829623          2.227666386353         -1.638446301023
      0.3047524880D+04  0.1834737132D-02
      0.4573695180D+03  0.1403732281D-01
      0.1039486850D+03  0.6884262226D-01
      0.2921015530D+02  0.2321844432D+00
      0.9286662960D+01  0.4679413484D+00
      0.3163926960D+01  0.3623119853D+00
 Atom C24      Shell    70 SP   3    bf  191 -   194          4.454214829623          2.227666386353         -1.638446301023
      0.7868272350D+01 -0.1193324198D+00  0.6899906659D-01
      0.1881288540D+01 -0.1608541517D+00  0.3164239610D+00
      0.5442492580D+00  0.1143456438D+01  0.7443082909D+00
 Atom C24      Shell    71 SP   1    bf  195 -   198          4.454214829623          2.227666386353         -1.638446301023
      0.1687144782D+00  0.1000000000D+01  0.1000000000D+01
 Atom C24      Shell    72 D   1     bf  199 -   204          4.454214829623          2.227666386353         -1.638446301023
      0.8000000000D+00  0.1000000000D+01
 Atom H25      Shell    73 S   3     bf  205 -   205          2.825040715535          3.407617676515         -1.140755082042
      0.1873113696D+02  0.3349460434D-01
      0.2825394365D+01  0.2347269535D+00
      0.6401216923D+00  0.8137573261D+00
 Atom H25      Shell    74 S   1     bf  206 -   206          2.825040715535          3.407617676515         -1.140755082042
      0.1612777588D+00  0.1000000000D+01
 Atom H26      Shell    75 S   3     bf  207 -   207          4.819597478122          2.558522094342         -3.645871040328
      0.1873113696D+02  0.3349460434D-01
      0.2825394365D+01  0.2347269535D+00
      0.6401216923D+00  0.8137573261D+00
 Atom H26      Shell    76 S   1     bf  208 -   208          4.819597478122          2.558522094342         -3.645871040328
      0.1612777588D+00  0.1000000000D+01
 Atom C27      Shell    77 S   6     bf  209 -   209         12.012934243593          1.872470306573          2.550524395403
      0.3047524880D+04  0.1834737132D-02
      0.4573695180D+03  0.1403732281D-01
      0.1039486850D+03  0.6884262226D-01
      0.2921015530D+02  0.2321844432D+00
      0.9286662960D+01  0.4679413484D+00
      0.3163926960D+01  0.3623119853D+00
 Atom C27      Shell    78 SP   3    bf  210 -   213         12.012934243593          1.872470306573          2.550524395403
      0.7868272350D+01 -0.1193324198D+00  0.6899906659D-01
      0.1881288540D+01 -0.1608541517D+00  0.3164239610D+00
      0.5442492580D+00  0.1143456438D+01  0.7443082909D+00
 Atom C27      Shell    79 SP   1    bf  214 -   217         12.012934243593          1.872470306573          2.550524395403
      0.1687144782D+00  0.1000000000D+01  0.1000000000D+01
 Atom C27      Shell    80 D   1     bf  218 -   223         12.012934243593          1.872470306573          2.550524395403
      0.8000000000D+00  0.1000000000D+01
 Atom H28      Shell    81 S   3     bf  224 -   224         11.520618539570          3.884153487027          2.581529245449
      0.1873113696D+02  0.3349460434D-01
      0.2825394365D+01  0.2347269535D+00
      0.6401216923D+00  0.8137573261D+00
 Atom H28      Shell    82 S   1     bf  225 -   225         11.520618539570          3.884153487027          2.581529245449
      0.1612777588D+00  0.1000000000D+01
 Atom C29      Shell    83 S   6     bf  226 -   226          0.995126984783         -1.225500946513         -1.352699697531
      0.3047524880D+04  0.1834737132D-02
      0.4573695180D+03  0.1403732281D-01
      0.1039486850D+03  0.6884262226D-01
      0.2921015530D+02  0.2321844432D+00
      0.9286662960D+01  0.4679413484D+00
      0.3163926960D+01  0.3623119853D+00
 Atom C29      Shell    84 SP   3    bf  227 -   230          0.995126984783         -1.225500946513         -1.352699697531
      0.7868272350D+01 -0.1193324198D+00  0.6899906659D-01
      0.1881288540D+01 -0.1608541517D+00  0.3164239610D+00
      0.5442492580D+00  0.1143456438D+01  0.7443082909D+00
 Atom C29      Shell    85 SP   1    bf  231 -   234          0.995126984783         -1.225500946513         -1.352699697531
      0.1687144782D+00  0.1000000000D+01  0.1000000000D+01
 Atom C29      Shell    86 D   1     bf  235 -   240          0.995126984783         -1.225500946513         -1.352699697531
      0.8000000000D+00  0.1000000000D+01
 Atom H30      Shell    87 S   3     bf  241 -   241          0.000000000000          0.000000000000          0.000000000000
      0.1873113696D+02  0.3349460434D-01
      0.2825394365D+01  0.2347269535D+00
      0.6401216923D+00  0.8137573261D+00
 Atom H30      Shell    88 S   1     bf  242 -   242          0.000000000000          0.000000000000          0.000000000000
      0.1612777588D+00  0.1000000000D+01
 Atom C31      Shell    89 S   6     bf  243 -   243          3.708823581479         -0.177730821497          3.681588489404
      0.3047524880D+04  0.1834737132D-02
      0.4573695180D+03  0.1403732281D-01
      0.1039486850D+03  0.6884262226D-01
      0.2921015530D+02  0.2321844432D+00
      0.9286662960D+01  0.4679413484D+00
      0.3163926960D+01  0.3623119853D+00
 Atom C31      Shell    90 SP   3    bf  244 -   247          3.708823581479         -0.177730821497          3.681588489404
      0.7868272350D+01 -0.1193324198D+00  0.6899906659D-01
      0.1881288540D+01 -0.1608541517D+00  0.3164239610D+00
      0.5442492580D+00  0.1143456438D+01  0.7443082909D+00
 Atom C31      Shell    91 SP   1    bf  248 -   251          3.708823581479         -0.177730821497          3.681588489404
      0.1687144782D+00  0.1000000000D+01  0.1000000000D+01
 Atom C31      Shell    92 D   1     bf  252 -   257          3.708823581479         -0.177730821497          3.681588489404
      0.8000000000D+00  0.1000000000D+01
 Atom H32      Shell    93 S   3     bf  258 -   258          4.795937010897         -0.147980730706          5.437832191729
      0.1873113696D+02  0.3349460434D-01
      0.2825394365D+01  0.2347269535D+00
      0.6401216923D+00  0.8137573261D+00
 Atom H32      Shell    94 S   1     bf  259 -   259          4.795937010897         -0.147980730706          5.437832191729
      0.1612777588D+00  0.1000000000D+01
 Atom H33      Shell    95 S   3     bf  260 -   260          3.027510508755          1.747271339338          3.356728315516
      0.1873113696D+02  0.3349460434D-01
      0.2825394365D+01  0.2347269535D+00
      0.6401216923D+00  0.8137573261D+00
 Atom H33      Shell    96 S   1     bf  261 -   261          3.027510508755          1.747271339338          3.356728315516
      0.1612777588D+00  0.1000000000D+01
 Atom H34      Shell    97 S   3     bf  262 -   262          2.049528631231         -1.368382610297          4.014059006169
      0.1873113696D+02  0.3349460434D-01
      0.2825394365D+01  0.2347269535D+00
      0.6401216923D+00  0.8137573261D+00
 Atom H34      Shell    98 S   1     bf  263 -   263          2.049528631231         -1.368382610297          4.014059006169
      0.1612777588D+00  0.1000000000D+01
 Atom C35      Shell    99 S   6     bf  264 -   264         14.218376638041         -0.569857516735          6.004968616216
      0.3047524880D+04  0.1834737132D-02
      0.4573695180D+03  0.1403732281D-01
      0.1039486850D+03  0.6884262226D-01
      0.2921015530D+02  0.2321844432D+00
      0.9286662960D+01  0.4679413484D+00
      0.3163926960D+01  0.3623119853D+00
 Atom C35      Shell   100 SP   3    bf  265 -   268         14.218376638041         -0.569857516735          6.004968616216
      0.7868272350D+01 -0.1193324198D+00  0.6899906659D-01
      0.1881288540D+01 -0.1608541517D+00  0.3164239610D+00
      0.5442492580D+00  0.1143456438D+01  0.7443082909D+00
 Atom C35      Shell   101 SP   1    bf  269 -   272         14.218376638041         -0.569857516735          6.004968616216
      0.1687144782D+00  0.1000000000D+01  0.1000000000D+01
 Atom C35      Shell   102 D   1     bf  273 -   278         14.218376638041         -0.569857516735          6.004968616216
      0.8000000000D+00  0.1000000000D+01
 Atom C36      Shell   103 S   6     bf  279 -   279         13.414618118030         -5.234972529110          6.244725842984
      0.3047524880D+04  0.1834737132D-02
      0.4573695180D+03  0.1403732281D-01
      0.1039486850D+03  0.6884262226D-01
      0.2921015530D+02  0.2321844432D+00
      0.9286662960D+01  0.4679413484D+00
      0.3163926960D+01  0.3623119853D+00
 Atom C36      Shell   104 SP   3    bf  280 -   283         13.414618118030         -5.234972529110          6.244725842984
      0.7868272350D+01 -0.1193324198D+00  0.6899906659D-01
      0.1881288540D+01 -0.1608541517D+00  0.3164239610D+00
      0.5442492580D+00  0.1143456438D+01  0.7443082909D+00
 Atom C36      Shell   105 SP   1    bf  284 -   287         13.414618118030         -5.234972529110          6.244725842984
      0.1687144782D+00  0.1000000000D+01  0.1000000000D+01
 Atom C36      Shell   106 D   1     bf  288 -   293         13.414618118030         -5.234972529110          6.244725842984
      0.8000000000D+00  0.1000000000D+01
 Atom H37      Shell   107 S   3     bf  294 -   294         14.133092447287         -5.638210814010          4.338462452148
      0.1873113696D+02  0.3349460434D-01
      0.2825394365D+01  0.2347269535D+00
      0.6401216923D+00  0.8137573261D+00
 Atom H37      Shell   108 S   1     bf  295 -   295         14.133092447287         -5.638210814010          4.338462452148
      0.1612777588D+00  0.1000000000D+01
 Atom H38      Shell   109 S   3     bf  296 -   296         11.984938631236         -6.676476769311          6.647019623865
      0.1873113696D+02  0.3349460434D-01
      0.2825394365D+01  0.2347269535D+00
      0.6401216923D+00  0.8137573261D+00
 Atom H38      Shell   110 S   1     bf  297 -   297         11.984938631236         -6.676476769311          6.647019623865
      0.1612777588D+00  0.1000000000D+01
 Atom C39      Shell   111 S   6     bf  298 -   298         14.115432540836          1.387319064546          4.391741995451
      0.3047524880D+04  0.1834737132D-02
      0.4573695180D+03  0.1403732281D-01
      0.1039486850D+03  0.6884262226D-01
      0.2921015530D+02  0.2321844432D+00
      0.9286662960D+01  0.4679413484D+00
      0.3163926960D+01  0.3623119853D+00
 Atom C39      Shell   112 SP   3    bf  299 -   302         14.115432540836          1.387319064546          4.391741995451
      0.7868272350D+01 -0.1193324198D+00  0.6899906659D-01
      0.1881288540D+01 -0.1608541517D+00  0.3164239610D+00
      0.5442492580D+00  0.1143456438D+01  0.7443082909D+00
 Atom C39      Shell   113 SP   1    bf  303 -   306         14.115432540836          1.387319064546          4.391741995451
      0.1687144782D+00  0.1000000000D+01  0.1000000000D+01
 Atom C39      Shell   114 D   1     bf  307 -   312         14.115432540836          1.387319064546          4.391741995451
      0.8000000000D+00  0.1000000000D+01
 Atom H40      Shell   115 S   3     bf  313 -   313         15.686027960496          2.717202397721          4.324080540235
[...]
 **** Fit      -0.009371
 **** Fit      -0.012154
 **** Fit      -0.015470
 **** Fit      -0.019114
 **** Fit      -0.022613
 **** Fit      -0.025239
 **** Fit      -0.026216
 **** Fit      -0.025079
 **** Fit      -0.021944
 **** Fit      -0.017468
 **** Fit      -0.012538
 **** Fit      -0.007922
 **** Fit      -0.004079
 **** Fit      -0.001162
 **** Fit       0.000886
 **** Fit      -0.004406
 **** Fit      -0.005649
 **** Fit      -0.007235
 **** Fit      -0.009192
 **** Fit      -0.011482
 **** Fit      -0.013947
 **** Fit      -0.016262
 **** Fit      -0.017965
 **** Fit      -0.018593
 **** Fit      -0.017870
 **** Fit      -0.015850
 **** Fit      -0.012895
 **** Fit      -0.009528
 **** Fit      -0.006240
 **** Fit      -0.003369
 **** Fit      -0.003454
 **** Fit      -0.004296
 **** Fit      -0.005370
 **** Fit      -0.006694
 **** Fit      -0.008238
 **** Fit      -0.009892
 **** Fit      -0.011440
 **** Fit      -0.012583
 **** Fit      -0.013030
 **** Fit      -0.012603
 **** Fit      -0.011320
 **** Fit      -0.003151
 **** Fit      -0.003842
 **** Fit      -0.004708
 **** Fit      -0.005731
 **** Fit      -0.006839
 **** Fit      -0.007890
 **** Fit      -0.008686
 **** Fit      -0.009032
 **** Fit      -0.008806
 **** Fit      -0.002244
 **** Fit      -0.002663
 **** Fit      -0.003213
 **** Fit      -0.003884
 **** Fit      -0.004629
 **** Fit      -0.005352
 **** Fit      -0.005919
 **** Fit      -0.006197
 **** Fit      -0.006096
 **** Fit      -0.001803
 **** Fit      -0.002144
 **** Fit      -0.002581
 **** Fit      -0.003084
 **** Fit      -0.003585
 **** Fit      -0.003992
 **** Fit      -0.004213
 **** Fit      -0.001414
 **** Fit      -0.001697
 **** Fit      -0.002035
 **** Fit      -0.002382
 **** Fit      -0.002672
 **** Fit      -0.022010
 **** Fit      -0.023699
 **** Fit      -0.024338
 **** Fit      -0.023727
 **** Fit      -0.021913
 **** Fit      -0.019179
 **** Fit      -0.020188
 **** Fit      -0.023861
 **** Fit      -0.027197
 **** Fit      -0.029628
 **** Fit      -0.030590
 **** Fit      -0.029754
 **** Fit      -0.027198
 **** Fit      -0.023387
 **** Fit      -0.018977
 **** Fit      -0.014580
 **** Fit      -0.010619
 **** Fit      -0.011737
 **** Fit      -0.015114
 **** Fit      -0.019143
 **** Fit      -0.023735
 **** Fit      -0.028603
 **** Fit      -0.033178
 **** Fit      -0.036617
 **** Fit      -0.038030
 **** Fit      -0.036881
 **** Fit      -0.033303
 **** Fit      -0.028056
 **** Fit      -0.022155
 **** Fit      -0.016474
 **** Fit      -0.011550
 **** Fit      -0.007591
 **** Fit      -0.007217
 **** Fit      -0.009660
 **** Fit      -0.012799
 **** Fit      -0.016756
 **** Fit      -0.021610
 **** Fit      -0.027317
 **** Fit      -0.033576
 **** Fit      -0.039656
 **** Fit      -0.044357
 **** Fit      -0.046330
 **** Fit      -0.044750
 **** Fit      -0.039852
 **** Fit      -0.032825
 **** Fit      -0.025167
 **** Fit      -0.018060
 **** Fit      -0.012138
 **** Fit      -0.007567
 **** Fit      -0.004229
 **** Fit      -0.005507
 **** Fit      -0.007516
 **** Fit      -0.010177
 **** Fit      -0.013660
 **** Fit      -0.018145
 **** Fit      -0.023782
 **** Fit      -0.030601
 **** Fit      -0.038308
 **** Fit      -0.046009
 **** Fit      -0.052082
 **** Fit      -0.054627
 **** Fit      -0.052486
 **** Fit      -0.046062
 **** Fit      -0.037086
 **** Fit      -0.027601
 **** Fit      -0.019097
 **** Fit      -0.012270
 **** Fit      -0.007200
 **** Fit      -0.003642
 **** Fit      -0.001250
 **** Fit      -0.005600
 **** Fit      -0.007697
 **** Fit      -0.010511
 **** Fit      -0.014250
 **** Fit      -0.019147
 **** Fit      -0.025425
 **** Fit      -0.033189
 **** Fit      -0.042172
 **** Fit      -0.051327
 **** Fit      -0.058615
 **** Fit      -0.061588
 **** Fit      -0.058806
 **** Fit      -0.050901
 **** Fit      -0.040150
 **** Fit      -0.029087
 **** Fit      -0.019446
 **** Fit      -0.011940
 **** Fit      -0.006548
 **** Fit      -0.002897
 **** Fit      -0.000532
 **** Fit      -0.005625
 **** Fit      -0.007760
 **** Fit      -0.010648
 **** Fit      -0.014525
 **** Fit      -0.019660
 **** Fit      -0.026329
 **** Fit      -0.034701
 **** Fit      -0.044533
 **** Fit      -0.054667
 **** Fit      -0.062744
 **** Fit      -0.053572
 **** Fit      -0.041591
 **** Fit      -0.029491
 **** Fit      -0.019152
 **** Fit      -0.011279
 **** Fit      -0.005762
 **** Fit      -0.002128
 **** Fit       0.000151
 **** Fit       0.001519
 **** Fit      -0.005587
 **** Fit      -0.007705
 **** Fit      -0.010581
 **** Fit      -0.014457
 **** Fit      -0.019616
 **** Fit      -0.026354
 **** Fit      -0.034867
 **** Fit      -0.044928
 **** Fit      -0.055341
 **** Fit      -0.063636
 **** Fit      -0.053787
 **** Fit      -0.041362
 **** Fit      -0.028928
 **** Fit      -0.018409
 **** Fit      -0.010493
 **** Fit      -0.005026
 **** Fit      -0.001485
 **** Fit       0.000690
 **** Fit       0.001960
 **** Fit      -0.005485
 **** Fit      -0.007531
 **** Fit      -0.010304
 **** Fit      -0.014036
 **** Fit      -0.018993
 **** Fit      -0.025453
 **** Fit      -0.033592
 **** Fit      -0.043179
 **** Fit      -0.053076
 **** Fit      -0.060950
 **** Fit      -0.063972
 **** Fit      -0.051479
 **** Fit      -0.039521
 **** Fit      -0.027530
 **** Fit      -0.017379
 **** Fit      -0.009739
 **** Fit      -0.004468
 **** Fit      -0.001065
 **** Fit       0.001013
 **** Fit       0.002213
 **** Fit      -0.005313
 **** Fit      -0.007232
 **** Fit      -0.009817
 **** Fit      -0.013271
 **** Fit      -0.017820
 **** Fit      -0.023691
 **** Fit      -0.030997
 **** Fit      -0.039486
 **** Fit      -0.048141
 **** Fit      -0.054978
 **** Fit      -0.057611
 **** Fit      -0.054643
 **** Fit      -0.046718
 **** Fit      -0.036108
 **** Fit      -0.025331
 **** Fit      -0.016085
 **** Fit      -0.009032
 **** Fit      -0.004101
 **** Fit      -0.000877
 **** Fit       0.001112
 **** Fit      -0.006807
 **** Fit      -0.009131
 **** Fit      -0.012200
 **** Fit      -0.016188
 **** Fit      -0.021250
 **** Fit      -0.027422
 **** Fit      -0.034426
 **** Fit      -0.041403
 **** Fit      -0.046811
 **** Fit      -0.048859
 **** Fit      -0.046483
 **** Fit      -0.040112
 **** Fit      -0.031435
 **** Fit      -0.022423
 **** Fit      -0.014499
 **** Fit      -0.008296
 **** Fit      -0.003842
 **** Fit      -0.000854
 **** Fit       0.001039
 **** Fit      -0.008277
 **** Fit      -0.010894
 **** Fit      -0.014239
 **** Fit      -0.018396
 **** Fit      -0.023335
 **** Fit      -0.028773
 **** Fit      -0.034024
 **** Fit      -0.037974
 **** Fit      -0.039401
 **** Fit      -0.037588
 **** Fit      -0.032800
 **** Fit      -0.026169
 **** Fit      -0.019093
 **** Fit      -0.012668
 **** Fit      -0.007462
 **** Fit      -0.003590
 **** Fit      -0.000897
 **** Fit       0.000870
 **** Fit      -0.015407
 **** Fit      -0.019185
 **** Fit      -0.023216
 **** Fit      -0.026980
 **** Fit      -0.029713
 **** Fit      -0.030634
 **** Fit      -0.029295
 **** Fit      -0.025854
 **** Fit      -0.021018
 **** Fit      -0.015713
 **** Fit      -0.010727
 **** Fit      -0.006529
 **** Fit      -0.003280
 **** Fit      -0.000928
 **** Fit      -0.012518
 **** Fit      -0.015307
 **** Fit      -0.018200
 **** Fit      -0.020820
 **** Fit      -0.022664
 **** Fit      -0.023241
 **** Fit      -0.022280
 **** Fit      -0.019871
 **** Fit      -0.016443
 **** Fit      -0.012581
 **** Fit      -0.008827
 **** Fit      -0.005545
 **** Fit      -0.008087
 **** Fit      -0.009895
 **** Fit      -0.011896
 **** Fit      -0.013929
 **** Fit      -0.015730
 **** Fit      -0.016970
 **** Fit      -0.017340
 **** Fit      -0.016672
 **** Fit      -0.015015
 **** Fit      -0.006352
 **** Fit      -0.007634
 **** Fit      -0.009039
 **** Fit      -0.010448
 **** Fit      -0.011684
 **** Fit      -0.012528
 **** Fit      -0.012782
 **** Fit      -0.005774
 **** Fit      -0.006742
 **** Fit      -0.007712
 **** Fit      -0.008563
 **** Fit      -0.009148
 **** Fit      -0.004964
 **** Fit      -0.005628
 **** Fit      -0.006215
 **** Fit      -0.023673
 **** Fit      -0.025352
 **** Fit      -0.025935
 **** Fit      -0.025237
 **** Fit      -0.023317
 **** Fit      -0.020471
 **** Fit      -0.021306
 **** Fit      -0.024884
 **** Fit      -0.028070
 **** Fit      -0.030326
 **** Fit      -0.031139
 **** Fit      -0.030226
 **** Fit      -0.027680
 **** Fit      -0.023948
 **** Fit      -0.019643
 **** Fit      -0.015335
 **** Fit      -0.024126
 **** Fit      -0.028575
 **** Fit      -0.032635
 **** Fit      -0.035572
 **** Fit      -0.036655
 **** Fit      -0.035473
 **** Fit      -0.032172
 **** Fit      -0.027403
 **** Fit      -0.022022
 **** Fit      -0.016780
 **** Fit      -0.012160
 **** Fit      -0.008368
 **** Fit      -0.013492
 **** Fit      -0.017200
 **** Fit      -0.021624
 **** Fit      -0.026662
 **** Fit      -0.031988
 **** Fit      -0.036954
 **** Fit      -0.040608
 **** Fit      -0.041965
 **** Fit      -0.040470
 **** Fit      -0.036340
 **** Fit      -0.030474
 **** Fit      -0.024001
 **** Fit      -0.017856
 **** Fit      -0.012583
 **** Fit      -0.008376
 **** Fit      -0.005192
 **** Fit      -0.010848
 **** Fit      -0.014078
 **** Fit      -0.018104
 **** Fit      -0.022981
 **** Fit      -0.028631
 **** Fit      -0.034712
 **** Fit      -0.040475
 **** Fit      -0.044763
 **** Fit      -0.046345
 **** Fit      -0.044529
 **** Fit      -0.039618
 **** Fit      -0.032758
 **** Fit      -0.025337
 **** Fit      -0.018442
 **** Fit      -0.012662
 **** Fit      -0.008157
 **** Fit      -0.004828
 **** Fit      -0.011018
 **** Fit      -0.014364
 **** Fit      -0.018573
 **** Fit      -0.023723
 **** Fit      -0.029759
 **** Fit      -0.036332
 **** Fit      -0.042625
 **** Fit      -0.047331
 **** Fit      -0.049039
 **** Fit      -0.046964
 **** Fit      -0.041482
 **** Fit      -0.033928
 **** Fit      -0.025871
 **** Fit      -0.018501
 **** Fit      -0.012423
 **** Fit      -0.007767
 **** Fit      -0.004389
 **** Fit      -0.010967
 **** Fit      -0.014314
 **** Fit      -0.018541
 **** Fit      -0.023737
 **** Fit      -0.029854
 **** Fit      -0.036545
 **** Fit      -0.042970
 **** Fit      -0.047775
 **** Fit      -0.049486
 **** Fit      -0.047292
 **** Fit      -0.041598
 **** Fit      -0.033808
 **** Fit      -0.025558
 **** Fit      -0.018066
 **** Fit      -0.011938
 **** Fit      -0.007287
 **** Fit      -0.003947
 **** Fit      -0.001646
 **** Fit      -0.010692
 **** Fit      -0.013921
 **** Fit      -0.017994
 **** Fit      -0.022990
 **** Fit      -0.028855
 **** Fit      -0.035249
 **** Fit      -0.041362
 **** Fit      -0.045909
 **** Fit      -0.047497
 **** Fit      -0.045361
 **** Fit      -0.039880
 **** Fit      -0.032383
 **** Fit      -0.024431
 **** Fit      -0.017198
 **** Fit      -0.011276
 **** Fit      -0.006782
 **** Fit      -0.003558
 **** Fit      -0.001343
 **** Fit      -0.013203
 **** Fit      -0.016964
 **** Fit      -0.021541
 **** Fit      -0.026863
 **** Fit      -0.032597
 **** Fit      -0.038015
 **** Fit      -0.041995
 **** Fit      -0.043348
 **** Fit      -0.041421
 **** Fit      -0.036525
 **** Fit      -0.029791
 **** Fit      -0.022582
 **** Fit      -0.015957
 **** Fit      -0.010476
 **** Fit      -0.006276
 **** Fit      -0.003238
 **** Fit      -0.019541
 **** Fit      -0.024120
 **** Fit      -0.028966
 **** Fit      -0.033458
 **** Fit      -0.036693
 **** Fit      -0.037745
 **** Fit      -0.036110
 **** Fit      -0.032019
 **** Fit      -0.026346
 **** Fit      -0.020180
 **** Fit      -0.014412
 **** Fit      -0.009552
 **** Fit      -0.005760
 **** Fit      -0.002969
 **** Fit      -0.020950
 **** Fit      -0.024839
 **** Fit      -0.028358
 **** Fit      -0.030826
 **** Fit      -0.031577
 **** Fit      -0.030251
 **** Fit      -0.027011
 **** Fit      -0.022479
 **** Fit      -0.017464
 **** Fit      -0.012666
 **** Fit      -0.008525
 **** Fit      -0.005215
 **** Fit      -0.020661
 **** Fit      -0.023301
 **** Fit      -0.025099
 **** Fit      -0.025599
 **** Fit      -0.024561
 **** Fit      -0.022092
 **** Fit      -0.018613
 **** Fit      -0.014691
 **** Fit      -0.010846
 **** Fit      -0.007438
 **** Fit      -0.019952
 **** Fit      -0.020271
 **** Fit      -0.019481
 **** Fit      -0.017650
 **** Fit      -0.015051
 **** Fit      -0.023683
 **** Fit      -0.025173
 **** Fit      -0.025634
 **** Fit      -0.024915
 **** Fit      -0.023081
 **** Fit      -0.020398
 **** Fit      -0.024175
 **** Fit      -0.026903
 **** Fit      -0.028762
 **** Fit      -0.029351
 **** Fit      -0.028462
 **** Fit      -0.026189
 **** Fit      -0.022894
 **** Fit      -0.019075
 **** Fit      -0.022934
 **** Fit      -0.026610
 **** Fit      -0.029840
 **** Fit      -0.032069
 **** Fit      -0.032781
 **** Fit      -0.031709
 **** Fit      -0.028980
 **** Fit      -0.025066
 **** Fit      -0.020601
 **** Fit      -0.016158
 **** Fit      -0.024386
 **** Fit      -0.028497
 **** Fit      -0.032153
 **** Fit      -0.034697
 **** Fit      -0.035506
 **** Fit      -0.034261
 **** Fit      -0.031120
 **** Fit      -0.026666
 **** Fit      -0.021651
 **** Fit      -0.016738
 **** Fit      -0.012365
 **** Fit      -0.025195
 **** Fit      -0.029581
 **** Fit      -0.033508
 **** Fit      -0.036250
 **** Fit      -0.037111
 **** Fit      -0.035732
 **** Fit      -0.032301
 **** Fit      -0.027477
 **** Fit      -0.022101
 **** Fit      -0.016892
 **** Fit      -0.012309
 **** Fit      -0.008547
 **** Fit      -0.025236
 **** Fit      -0.029677
 **** Fit      -0.033661
 **** Fit      -0.036440
 **** Fit      -0.037293
 **** Fit      -0.035852
 **** Fit      -0.032316
 **** Fit      -0.027373
 **** Fit      -0.021891
 **** Fit      -0.016609
 **** Fit      -0.011989
 **** Fit      -0.008221
 **** Fit      -0.024472
 **** Fit      -0.028733
 **** Fit      -0.032540
 **** Fit      -0.035179
 **** Fit      -0.035964
 **** Fit      -0.034548
 **** Fit      -0.031120
 **** Fit      -0.026338
 **** Fit      -0.021033
 **** Fit      -0.015917
 **** Fit      -0.011438
 **** Fit      -0.007786
 **** Fit      -0.022977
 **** Fit      -0.026850
 **** Fit      -0.030278
 **** Fit      -0.032625
 **** Fit      -0.033293
 **** Fit      -0.031979
 **** Fit      -0.028849
 **** Fit      -0.024478
 **** Fit      -0.019602
 **** Fit      -0.014868
 **** Fit      -0.010694
 **** Fit      -0.024259
 **** Fit      -0.027178
 **** Fit      -0.029142
 **** Fit      -0.029665
 **** Fit      -0.028507
 **** Fit      -0.025798
 **** Fit      -0.022004
 **** Fit      -0.017735
 **** Fit      -0.013540
 **** Fit      -0.009796
 **** Fit      -0.021259
 **** Fit      -0.023626
 **** Fit      -0.025183
 **** Fit      -0.025562
 **** Fit      -0.024581
 **** Fit      -0.022340
 **** Fit      -0.019191
 **** Fit      -0.015607
 **** Fit      -0.021169
 **** Fit      -0.021423
 **** Fit      -0.020619
 **** Fit      -0.018829
 **** Fit      -0.025736
 **** Fit      -0.026107
 **** Fit      -0.025320
 **** Fit      -0.023451
 **** Fit      -0.020763
 **** Fit      -0.025886
 **** Fit      -0.027441
 **** Fit      -0.027852
 **** Fit      -0.026965
 **** Fit      -0.024869
 **** Fit      -0.021878
 **** Fit      -0.024241
 **** Fit      -0.026755
 **** Fit      -0.028405
 **** Fit      -0.028833
 **** Fit      -0.027870
 **** Fit      -0.025620
 **** Fit      -0.022427
 **** Fit      -0.018753
 **** Fit      -0.024273
 **** Fit      -0.026809
 **** Fit      -0.028470
 **** Fit      -0.028888
 **** Fit      -0.027890
 **** Fit      -0.025585
 **** Fit      -0.022329
 **** Fit      -0.018597
 **** Fit      -0.023581
 **** Fit      -0.026015
 **** Fit      -0.027597
 **** Fit      -0.027977
 **** Fit      -0.026991
 **** Fit      -0.024743
 **** Fit      -0.021577
 **** Fit      -0.017950
 **** Fit      -0.024451
 **** Fit      -0.025878
 **** Fit      -0.026199
 **** Fit      -0.025267
 **** Fit      -0.023178
 **** Fit      -0.020239
 **** Fit      -0.023517
 **** Fit      -0.023767
 **** Fit      -0.022923
 **** Fit      -0.021065
 -----------------------------------------------------------------
 Leave Link  602 at Wed May 17 11:57:23 2017, MaxMem=   33554432 cpu:      88.4
 (Enter /scratch/michal/g09/l9999.exe)

 Test job not archived.
 1\1\GINC-RZEPICHA\SP\RHF\6-31G(d)\C27H46O2\MICHAL\17-May-2017\0\\#P HF
 /6-31G* SCF(Conver=6) NoSymm Test Pop=chelpg IOp(6/33=2) GFInput GFPri
 nt\\MEP - Input generated by R.E.D.-III.x MOLECULE\\0,1\O,0,6.83647934
 ,0.78346455,0.\H,0,7.40252924,0.,0.\O,0,10.44650662,-1.98370601,4.9398
 104\H,0,10.13086989,-1.87511436,5.84796497\C,0,2.7880625,-0.6229725,0.
 75242957\C,0,4.08832425,0.19470219,0.51648963\H,0,4.59478777,-0.295281
 98,-0.32732208\C,0,5.09037595,0.17221212,1.67729061\H,0,4.63750059,0.6
 593656,2.55295056\C,0,5.46470307,-1.28633972,2.04357594\H,0,6.04501038
 ,-1.67236571,1.18896152\C,0,2.0395454,-0.33297754,-0.59508933\H,0,2.55
 342431,-0.93147358,-1.36418091\C,0,3.22867682,-2.08158793,0.99229331\H
 ,0,3.70288651,-2.45978127,0.07516779\H,0,2.3761586,-2.73768592,1.19480
 85\C,0,6.42244562,-1.36442271,3.28388155\C,0,3.59861926,1.55049164,-0.
 01035338\H,0,4.36812464,2.06416792,-0.59329735\H,0,3.32181754,2.216542
 11,0.81692247\C,0,4.21867385,-2.19471158,2.16957322\H,0,3.68178882,-1.
 9619086,3.09499337\H,0,4.53355989,-3.24078519,2.25995099\C,0,2.3570689
 7,1.17883028,-0.86702844\H,0,1.49494716,1.80323361,-0.60366159\H,0,2.5
 5042114,1.35391158,-1.92931186\C,0,6.35697101,0.99086861,1.34967938\H,
 0,6.09644876,2.0554055,1.36608644\C,0,0.52659852,-0.64850717,-0.715817
 85\H,0,0.,0.,0.\C,0,1.96262491,-0.0940511,1.94821272\H,0,2.53790056,-0
 .07830803,2.87757686\H,0,1.60208956,0.92461617,1.77630412\H,0,1.084563
 84,-0.72411689,2.12414854\C,0,7.52404086,-0.30155561,3.17769253\C,0,7.
 09871017,-2.77022815,3.30456659\H,0,7.47891041,-2.98361266,2.29581545\
 H,0,6.34215637,-3.53303934,3.51745129\C,0,7.46956519,0.73413763,2.3240
 0977\H,0,8.30068849,1.43788158,2.28820487\C,0,5.65373006,-1.13821652,4
 .61440425\H,0,4.98120321,-1.97326681,4.83228647\H,0,6.33596222,-1.0452
 7695,5.46302723\H,0,5.0595089,-0.22019994,4.57724848\C,0,8.7145361,-0.
 45380474,4.10667071\H,0,9.47653635,0.29562902,3.87123697\H,0,8.4016912
 9,-0.26902866,5.14674158\C,0,8.26071824,-2.91737656,4.298712\H,0,7.896
 86807,-2.82368707,5.33259348\H,0,8.70437445,-3.91568102,4.21188375\C,0
 ,-0.00295342,-0.29648177,-2.14016354\H,0,0.73676998,0.30845956,-2.6743
 2989\H,0,-0.10253703,-1.22305397,-2.72366809\C,0,9.33440435,-1.8584086
 4,4.04992072\H,0,9.76923336,-2.01496354,3.05500859\C,0,0.17716543,-2.1
 0912743,-0.37428955\H,0,0.77849134,-2.8032713,-0.97451196\H,0,-0.87499
 869,-2.31785021,-0.58992461\H,0,0.34659791,-2.34553079,0.67933317\C,0,
 -1.33743936,0.47338161,-2.18077192\H,0,-1.21235133,1.41205784,-1.62499
 941\H,0,-1.53648393,0.76161471,-3.2231692\C,0,-2.56017538,-0.28880063,
 -1.64776921\H,0,-2.43166887,-0.50871191,-0.57811181\H,0,-2.61407982,-1
 .26220811,-2.15645415\C,0,-3.91059523,0.43298734,-1.83863908\H,0,-4.00
 585619,0.68116643,-2.90719214\C,0,-3.99711944,1.74457757,-1.04117538\H
 ,0,-3.87881552,1.55378276,0.03358058\H,0,-4.97031991,2.22718821,-1.186
 53021\H,0,-3.22629106,2.46173718,-1.34007433\C,0,-5.07657507,-0.497692
 27,-1.46896408\H,0,-5.03020434,-0.78030734,-0.40931629\H,0,-6.04383336
 ,-0.01146137,-1.63992962\H,0,-5.05524893,-1.42015887,-2.06054935\\Vers
 ion=EM64L-G09RevC.01\HF=-1198.9239428\RMSD=4.907e-07\Dipole=-0.5397022
 ,-0.3753384,0.7092654\Quadrupole=-17.9628128,4.7646172,13.1981956,-2.2
 52959,4.7815552,0.4637128\PG=C01 [X(C27H46O2)]\\@


 ERROR IS THE FORCE THAT WELDS MEN TOGETHER....
 TRUTH IS COMMUNICATED TO MEN ONLY BY DEEDS OF TRUTH.
           TOLSTOI,MY RELIGION
 Job cpu time:  0 days  0 hours 40 minutes 39.6 seconds.
 File lengths (MBytes):  RWF=    151 Int=      0 D2E=      0 Chk=     11 Scr=      1
 Normal termination of Gaussian 09 at Wed May 17 11:57:23 2017.
