 Entering Gaussian System, Link 0=/scratch/michal/g09//g09
 Input=JOB2-gau_m1-5-3.com
 Output=JOB2-gau_m1-5-3.log
 Initial command:
 /scratch/michal/g09/l1.exe /scratch/michal/gauss_scratch/Gau-3479.inp -scrdir=/scratch/michal/gauss_scratch/
 Entering Link 1 = /scratch/michal/g09/l1.exe PID=      3481.
  
 Copyright (c) 1988,1990,1992,1993,1995,1998,2003,2009,2011,
            Gaussian, Inc.  All Rights Reserved.
  
 This is part of the Gaussian(R) 09 program.  It is based on
 the Gaussian(R) 03 system (copyright 2003, Gaussian, Inc.),
 the Gaussian(R) 98 system (copyright 1998, Gaussian, Inc.),
 the Gaussian(R) 94 system (copyright 1995, Gaussian, Inc.),
 the Gaussian 92(TM) system (copyright 1992, Gaussian, Inc.),
 the Gaussian 90(TM) system (copyright 1990, Gaussian, Inc.),
 the Gaussian 88(TM) system (copyright 1988, Gaussian, Inc.),
 the Gaussian 86(TM) system (copyright 1986, Carnegie Mellon
 University), and the Gaussian 82(TM) system (copyright 1983,
 Carnegie Mellon University). Gaussian is a federally registered
 trademark of Gaussian, Inc.
  
 This software contains proprietary and confidential information,
 including trade secrets, belonging to Gaussian, Inc.
  
 This software is provided under written license and may be
 used, copied, transmitted, or stored only in accord with that
 written license.
  
 The following legend is applicable only to US Government
 contracts under FAR:
  
                    RESTRICTED RIGHTS LEGEND
  
 Use, reproduction and disclosure by the US Government is
 subject to restrictions as set forth in subparagraphs (a)
 and (c) of the Commercial Computer Software - Restricted
 Rights clause in FAR 52.227-19.
  
 Gaussian, Inc.
 340 Quinnipiac St., Bldg. 40, Wallingford CT 06492
  
  
 ---------------------------------------------------------------
 Warning -- This program may not be used in any manner that
 competes with the business of Gaussian, Inc. or will provide
 assistance to any competitor of Gaussian, Inc.  The licensee
 of this program is prohibited from giving any competitor of
 Gaussian, Inc. access to this program.  By using this program,
 the user acknowledges that Gaussian, Inc. is engaged in the
 business of creating and licensing software in the field of
 computational chemistry and represents and warrants to the
 licensee that it is not a competitor of Gaussian, Inc. and that
 it will not use this program in any manner prohibited above.
 ---------------------------------------------------------------
  

 Cite this work as:
 Gaussian 09, Revision C.01,
 M. J. Frisch, G. W. Trucks, H. B. Schlegel, G. E. Scuseria, 
 M. A. Robb, J. R. Cheeseman, G. Scalmani, V. Barone, B. Mennucci, 
 G. A. Petersson, H. Nakatsuji, M. Caricato, X. Li, H. P. Hratchian, 
 A. F. Izmaylov, J. Bloino, G. Zheng, J. L. Sonnenberg, M. Hada, 
 M. Ehara, K. Toyota, R. Fukuda, J. Hasegawa, M. Ishida, T. Nakajima, 
 Y. Honda, O. Kitao, H. Nakai, T. Vreven, J. A. Montgomery, Jr., 
 J. E. Peralta, F. Ogliaro, M. Bearpark, J. J. Heyd, E. Brothers, 
 K. N. Kudin, V. N. Staroverov, T. Keith, R. Kobayashi, J. Normand, 
 K. Raghavachari, A. Rendell, J. C. Burant, S. S. Iyengar, J. Tomasi, 
 M. Cossi, N. Rega, J. M. Millam, M. Klene, J. E. Knox, J. B. Cross, 
 V. Bakken, C. Adamo, J. Jaramillo, R. Gomperts, R. E. Stratmann, 
 O. Yazyev, A. J. Austin, R. Cammi, C. Pomelli, J. W. Ochterski, 
 R. L. Martin, K. Morokuma, V. G. Zakrzewski, G. A. Voth, 
 P. Salvador, J. J. Dannenberg, S. Dapprich, A. D. Daniels, 
 O. Farkas, J. B. Foresman, J. V. Ortiz, J. Cioslowski, 
 and D. J. Fox, Gaussian, Inc., Wallingford CT, 2010.
 
 ******************************************
 Gaussian 09:  EM64L-G09RevC.01 23-Sep-2011
                17-May-2017 
 ******************************************
 %Mem=256MB
 %NProc=48
 Will use up to   48 processors via shared memory.
 ----------------------------------------------------------------------
 #P HF/6-31G* SCF(Conver=6) NoSymm Test Pop=chelpg IOp(6/33=2) GFInput 
 GFPrint
 ----------------------------------------------------------------------
 1/38=1/1;
 2/12=2,15=1,17=6,18=5,40=1/2;
 3/5=1,6=6,7=1,11=9,16=1,24=110,25=1,30=1/1,2,3;
 4//1;
 5/5=2,6=6,38=5/2;
 6/7=2,8=2,9=2,10=2,15=8,20=3,28=1,33=2/1,2;
 99/5=1,9=1/99;
 Leave Link    1 at Wed May 17 12:02:50 2017, MaxMem=   33554432 cpu:       5.7
 (Enter /scratch/michal/g09/l101.exe)
 ----------------------------------------------
 MEP - Input generated by R.E.D.-III.x MOLECULE
 ----------------------------------------------
 Charge =  0 Multiplicity = 1
 Symbolic Z-Matrix:
 O                     5.76902   3.43983   0. 
 H                     5.13191   3.28457   0.71006 
 O                     0.        0.        0. 
 H                    -0.08344  -0.74501  -0.6117 
 C                     8.81846   0.36128   0.38314 
 C                     7.89813   1.53578  -0.05117 
 H                     7.72035   2.12244   0.86143 
 C                     6.51179   1.1226   -0.56055 
 H                     6.62731   0.53637  -1.48374 
 C                     5.77691   0.26303   0.49901 
 H                     5.55422   0.9435    1.33776 
 C                     10.10214   1.16341   0.79408 
 H                     9.86675   1.64185   1.75814 
 C                     8.07703  -0.37501   1.51777 
 H                     7.97629   0.30952   2.37235 
 H                     8.63974  -1.24186   1.87842 
 C                     4.38787  -0.2571   -0.0127 
 C                     8.78611   2.40648  -0.95042 
 H                     8.433     3.44049  -0.99513 
 H                     8.7976    2.02429  -1.97923 
 C                     6.68004  -0.85421   1.07301 
 H                     6.80819  -1.64707   0.32881 
 H                     6.18423  -1.32405   1.93033 
 C                     10.18984   2.28871  -0.29537 
 H                     10.95364   2.0389   -1.0414 
 H                     10.49346   3.24127   0.14838 
 C                     5.66057   2.35069  -0.94683 
 H                     6.06545   2.7768   -1.87196 
 C                     11.44846   0.41706   0.97905 
 H                     11.72713   0.        0. 
 C                     9.13931  -0.60388  -0.78157 
 H                     8.23741  -1.01558  -1.24193 
 H                     9.70857  -0.11057  -1.57517 
 H                     9.73758  -1.45155  -0.43148 
 C                     3.6311    0.86351  -0.73807 
 C                     3.53866  -0.70535   1.21692 
 H                     3.5892    0.08688   1.97684 
 H                     3.99369  -1.59435   1.66658 
 C                     4.21492   2.00127  -1.14928 
 H                     3.6087    2.76324  -1.63836 
 C                     4.55023  -1.44998  -0.99392 
 H                     4.91725  -2.34224  -0.47793 
 H                     3.60008  -1.71759  -1.46274 
 H                     5.24979  -1.20792  -1.79966 
 C                     2.15315   0.63553  -0.99724 
 H                     1.70043   1.53596  -1.42384 
 H                     2.02486  -0.16533  -1.7429 
 C                     2.05939  -0.99037   0.91563 
 H                     1.96314  -1.85634   0.24414 
 H                     1.53184  -1.25068   1.84025 
 C                     12.57763   1.40728   1.40261 
 H                     12.23539   2.43874   1.27055 
 H                     12.76277   1.30024   2.47999 
 C                     1.38714   0.21994   0.268 
 H                     1.39294   1.0563    0.97785 
 C                     11.36797  -0.75001   1.98037 
 H                     10.97638  -0.40876   2.94679 
 H                     12.35917  -1.17632   2.16191 
 H                     10.72607  -1.56122   1.62769 
 C                     13.90296   1.27116   0.6247 
 H                     13.68322   1.39105  -0.44524 
 H                     14.54947   2.11814   0.88816 
 C                     14.68855  -0.04126   0.80539 
 H                     15.52127  -0.04567   0.08641 
 H                     14.04918  -0.88797   0.52097 
 C                     15.27247  -0.31061   2.2091 
 H                     14.4523  -0.27288   2.94017 
 C                     16.31497   0.74076   2.62309 
 H                     17.15282   0.75811   1.91384 
 H                     16.72439   0.51548   3.61442 
 H                     15.89215   1.74958   2.66428 
 C                     15.8804  -1.72133   2.26948 
 H                     16.70869  -1.82056   1.55607 
 H                     16.27405  -1.94352   3.26793 
 H                     15.13717  -2.4886    2.02343 
 
 NAtoms=     75 NQM=        0 NQMF=       0 NMMI=     75 NMMIF=      0
                NMic=       0 NMicF=      0.
                    Isotopes and Nuclear Properties:
 (Nuclear quadrupole moments (NQMom) in fm**2, nuclear magnetic moments (NMagM)
  in nuclear magnetons)

  Atom         1           2           3           4           5           6           7           8           9          10
 IAtWgt=          16           1          16           1          12          12           1          12           1          12
 AtmWgt=  15.9949146   1.0078250  15.9949146   1.0078250  12.0000000  12.0000000   1.0078250  12.0000000   1.0078250  12.0000000
 NucSpn=           0           1           0           1           0           0           1           0           1           0
 AtZEff=   0.0000000   0.0000000   0.0000000   0.0000000   0.0000000   0.0000000   0.0000000   0.0000000   0.0000000   0.0000000
 NQMom=    0.0000000   0.0000000   0.0000000   0.0000000   0.0000000   0.0000000   0.0000000   0.0000000   0.0000000   0.0000000
 NMagM=    0.0000000   2.7928460   0.0000000   2.7928460   0.0000000   0.0000000   2.7928460   0.0000000   2.7928460   0.0000000

  Atom        11          12          13          14          15          16          17          18          19          20
 IAtWgt=           1          12           1          12           1           1          12          12           1           1
 AtmWgt=   1.0078250  12.0000000   1.0078250  12.0000000   1.0078250   1.0078250  12.0000000  12.0000000   1.0078250   1.0078250
 NucSpn=           1           0           1           0           1           1           0           0           1           1
 AtZEff=   0.0000000   0.0000000   0.0000000   0.0000000   0.0000000   0.0000000   0.0000000   0.0000000   0.0000000   0.0000000
 NQMom=    0.0000000   0.0000000   0.0000000   0.0000000   0.0000000   0.0000000   0.0000000   0.0000000   0.0000000   0.0000000
 NMagM=    2.7928460   0.0000000   2.7928460   0.0000000   2.7928460   2.7928460   0.0000000   0.0000000   2.7928460   2.7928460

  Atom        21          22          23          24          25          26          27          28          29          30
 IAtWgt=          12           1           1          12           1           1          12           1          12           1
 AtmWgt=  12.0000000   1.0078250   1.0078250  12.0000000   1.0078250   1.0078250  12.0000000   1.0078250  12.0000000   1.0078250
 NucSpn=           0           1           1           0           1           1           0           1           0           1
 AtZEff=   0.0000000   0.0000000   0.0000000   0.0000000   0.0000000   0.0000000   0.0000000   0.0000000   0.0000000   0.0000000
 NQMom=    0.0000000   0.0000000   0.0000000   0.0000000   0.0000000   0.0000000   0.0000000   0.0000000   0.0000000   0.0000000
 NMagM=    0.0000000   2.7928460   2.7928460   0.0000000   2.7928460   2.7928460   0.0000000   2.7928460   0.0000000   2.7928460

  Atom        31          32          33          34          35          36          37          38          39          40
 IAtWgt=          12           1           1           1          12          12           1           1          12           1
 AtmWgt=  12.0000000   1.0078250   1.0078250   1.0078250  12.0000000  12.0000000   1.0078250   1.0078250  12.0000000   1.0078250
 NucSpn=           0           1           1           1           0           0           1           1           0           1
 AtZEff=   0.0000000   0.0000000   0.0000000   0.0000000   0.0000000   0.0000000   0.0000000   0.0000000   0.0000000   0.0000000
 NQMom=    0.0000000   0.0000000   0.0000000   0.0000000   0.0000000   0.0000000   0.0000000   0.0000000   0.0000000   0.0000000
 NMagM=    0.0000000   2.7928460   2.7928460   2.7928460   0.0000000   0.0000000   2.7928460   2.7928460   0.0000000   2.7928460

  Atom        41          42          43          44          45          46          47          48          49          50
 IAtWgt=          12           1           1           1          12           1           1          12           1           1
 AtmWgt=  12.0000000   1.0078250   1.0078250   1.0078250  12.0000000   1.0078250   1.0078250  12.0000000   1.0078250   1.0078250
 NucSpn=           0           1           1           1           0           1           1           0           1           1
 AtZEff=   0.0000000   0.0000000   0.0000000   0.0000000   0.0000000   0.0000000   0.0000000   0.0000000   0.0000000   0.0000000
 NQMom=    0.0000000   0.0000000   0.0000000   0.0000000   0.0000000   0.0000000   0.0000000   0.0000000   0.0000000   0.0000000
 NMagM=    0.0000000   2.7928460   2.7928460   2.7928460   0.0000000   2.7928460   2.7928460   0.0000000   2.7928460   2.7928460

  Atom        51          52          53          54          55          56          57          58          59          60
 IAtWgt=          12           1           1          12           1          12           1           1           1          12
 AtmWgt=  12.0000000   1.0078250   1.0078250  12.0000000   1.0078250  12.0000000   1.0078250   1.0078250   1.0078250  12.0000000
 NucSpn=           0           1           1           0           1           0           1           1           1           0
 AtZEff=   0.0000000   0.0000000   0.0000000   0.0000000   0.0000000   0.0000000   0.0000000   0.0000000   0.0000000   0.0000000
 NQMom=    0.0000000   0.0000000   0.0000000   0.0000000   0.0000000   0.0000000   0.0000000   0.0000000   0.0000000   0.0000000
 NMagM=    0.0000000   2.7928460   2.7928460   0.0000000   2.7928460   0.0000000   2.7928460   2.7928460   2.7928460   0.0000000

  Atom        61          62          63          64          65          66          67          68          69          70
 IAtWgt=           1           1          12           1           1          12           1          12           1           1
 AtmWgt=   1.0078250   1.0078250  12.0000000   1.0078250   1.0078250  12.0000000   1.0078250  12.0000000   1.0078250   1.0078250
 NucSpn=           1           1           0           1           1           0           1           0           1           1
 AtZEff=   0.0000000   0.0000000   0.0000000   0.0000000   0.0000000   0.0000000   0.0000000   0.0000000   0.0000000   0.0000000
 NQMom=    0.0000000   0.0000000   0.0000000   0.0000000   0.0000000   0.0000000   0.0000000   0.0000000   0.0000000   0.0000000
 NMagM=    2.7928460   2.7928460   0.0000000   2.7928460   2.7928460   0.0000000   2.7928460   0.0000000   2.7928460   2.7928460

  Atom        71          72          73          74          75
 IAtWgt=           1          12           1           1           1
 AtmWgt=   1.0078250  12.0000000   1.0078250   1.0078250   1.0078250
 NucSpn=           1           0           1           1           1
 AtZEff=   0.0000000   0.0000000   0.0000000   0.0000000   0.0000000
 NQMom=    0.0000000   0.0000000   0.0000000   0.0000000   0.0000000
 NMagM=    2.7928460   0.0000000   2.7928460   2.7928460   2.7928460
 Leave Link  101 at Wed May 17 12:02:50 2017, MaxMem=   33554432 cpu:       9.8
 (Enter /scratch/michal/g09/l202.exe)
 Symmetry turned off by external request.
 Stoichiometry    C27H46O2
 Framework group  C1[X(C27H46O2)]
 Deg. of freedom   219
 Full point group                 C1      NOp   1
                          Input orientation:                          
 ---------------------------------------------------------------------
 Center     Atomic      Atomic             Coordinates (Angstroms)
 Number     Number       Type             X           Y           Z
 ---------------------------------------------------------------------
      1          8           0        5.769020    3.439830    0.000000
      2          1           0        5.131910    3.284568    0.710060
      3          8           0        0.000000    0.000000    0.000000
      4          1           0       -0.083445   -0.745007   -0.611698
      5          6           0        8.818463    0.361279    0.383142
      6          6           0        7.898130    1.535778   -0.051168
      7          1           0        7.720346    2.122435    0.861434
      8          6           0        6.511790    1.122595   -0.560547
      9          1           0        6.627309    0.536367   -1.483740
     10          6           0        5.776913    0.263032    0.499008
     11          1           0        5.554219    0.943500    1.337761
     12          6           0       10.102139    1.163413    0.794083
     13          1           0        9.866749    1.641851    1.758137
     14          6           0        8.077026   -0.375010    1.517765
     15          1           0        7.976286    0.309525    2.372348
     16          1           0        8.639742   -1.241864    1.878423
     17          6           0        4.387867   -0.257102   -0.012703
     18          6           0        8.786113    2.406485   -0.950419
     19          1           0        8.433000    3.440488   -0.995133
     20          1           0        8.797597    2.024293   -1.979228
     21          6           0        6.680038   -0.854206    1.073007
     22          1           0        6.808186   -1.647067    0.328815
     23          1           0        6.184235   -1.324051    1.930329
     24          6           0       10.189841    2.288707   -0.295373
     25          1           0       10.953641    2.038900   -1.041397
     26          1           0       10.493460    3.241266    0.148382
     27          6           0        5.660571    2.350688   -0.946825
     28          1           0        6.065446    2.776797   -1.871962
     29          6           0       11.448460    0.417056    0.979053
     30          1           0       11.727128    0.000000    0.000000
     31          6           0        9.139312   -0.603878   -0.781570
     32          1           0        8.237413   -1.015580   -1.241934
     33          1           0        9.708573   -0.110569   -1.575172
     34          1           0        9.737581   -1.451549   -0.431477
     35          6           0        3.631102    0.863512   -0.738068
     36          6           0        3.538663   -0.705355    1.216922
     37          1           0        3.589196    0.086882    1.976842
     38          1           0        3.993693   -1.594347    1.666585
     39          6           0        4.214922    2.001265   -1.149276
     40          1           0        3.608696    2.763237   -1.638363
     41          6           0        4.550235   -1.449981   -0.993917
     42          1           0        4.917251   -2.342239   -0.477932
     43          1           0        3.600078   -1.717590   -1.462739
     44          1           0        5.249794   -1.207917   -1.799663
     45          6           0        2.153146    0.635532   -0.997240
     46          1           0        1.700431    1.535961   -1.423837
     47          1           0        2.024858   -0.165329   -1.742897
     48          6           0        2.059391   -0.990366    0.915630
     49          1           0        1.963139   -1.856339    0.244144
     50          1           0        1.531842   -1.250683    1.840245
     51          6           0       12.577627    1.407279    1.402606
     52          1           0       12.235389    2.438741    1.270549
     53          1           0       12.762772    1.300238    2.479986
     54          6           0        1.387136    0.219938    0.267997
     55          1           0        1.392943    1.056305    0.977852
     56          6           0       11.367968   -0.750012    1.980365
     57          1           0       10.976377   -0.408758    2.946792
     58          1           0       12.359173   -1.176322    2.161913
     59          1           0       10.726067   -1.561217    1.627693
     60          6           0       13.902963    1.271157    0.624701
     61          1           0       13.683223    1.391051   -0.445242
     62          1           0       14.549471    2.118141    0.888159
     63          6           0       14.688548   -0.041262    0.805390
     64          1           0       15.521267   -0.045667    0.086410
     65          1           0       14.049183   -0.887971    0.520966
     66          6           0       15.272469   -0.310612    2.209099
     67          1           0       14.452299   -0.272882    2.940167
     68          6           0       16.314971    0.740761    2.623087
     69          1           0       17.152818    0.758108    1.913835
     70          1           0       16.724387    0.515477    3.614415
     71          1           0       15.892148    1.749576    2.664284
     72          6           0       15.880396   -1.721330    2.269477
     73          1           0       16.708694   -1.820557    1.556072
     74          1           0       16.274055   -1.943520    3.267927
     75          1           0       15.137174   -2.488597    2.023427
 ---------------------------------------------------------------------
 Rotational constants (GHZ):      0.4863814      0.0564145      0.0530252
 Leave Link  202 at Wed May 17 12:02:50 2017, MaxMem=   33554432 cpu:       2.2
 (Enter /scratch/michal/g09/l301.exe)
 Standard basis: 6-31G(d) (6D, 7F)
 Ernie: Thresh=  0.10000D-02 Tol=  0.10000D-05 Strict=F.
 AO basis set in the form of general basis input (Overlap normalization):
      1 0
 S   6 1.00       0.000000000000
      0.5484671660D+04  0.1831074430D-02
      0.8252349460D+03  0.1395017220D-01
      0.1880469580D+03  0.6844507810D-01
      0.5296450000D+02  0.2327143360D+00
      0.1689757040D+02  0.4701928980D+00
      0.5799635340D+01  0.3585208530D+00
 SP   3 1.00       0.000000000000
      0.1553961625D+02 -0.1107775495D+00  0.7087426823D-01
      0.3599933586D+01 -0.1480262627D+00  0.3397528391D+00
      0.1013761750D+01  0.1130767015D+01  0.7271585773D+00
 SP   1 1.00       0.000000000000
      0.2700058226D+00  0.1000000000D+01  0.1000000000D+01
 D   1 1.00       0.000000000000
      0.8000000000D+00  0.1000000000D+01
 ****
      2 0
 S   3 1.00       0.000000000000
      0.1873113696D+02  0.3349460434D-01
      0.2825394365D+01  0.2347269535D+00
      0.6401216923D+00  0.8137573261D+00
 S   1 1.00       0.000000000000
      0.1612777588D+00  0.1000000000D+01
 ****
      3 0
 S   6 1.00       0.000000000000
      0.5484671660D+04  0.1831074430D-02
      0.8252349460D+03  0.1395017220D-01
      0.1880469580D+03  0.6844507810D-01
      0.5296450000D+02  0.2327143360D+00
      0.1689757040D+02  0.4701928980D+00
      0.5799635340D+01  0.3585208530D+00
 SP   3 1.00       0.000000000000
      0.1553961625D+02 -0.1107775495D+00  0.7087426823D-01
      0.3599933586D+01 -0.1480262627D+00  0.3397528391D+00
      0.1013761750D+01  0.1130767015D+01  0.7271585773D+00
 SP   1 1.00       0.000000000000
      0.2700058226D+00  0.1000000000D+01  0.1000000000D+01
 D   1 1.00       0.000000000000
      0.8000000000D+00  0.1000000000D+01
 ****
      4 0
 S   3 1.00       0.000000000000
      0.1873113696D+02  0.3349460434D-01
      0.2825394365D+01  0.2347269535D+00
      0.6401216923D+00  0.8137573261D+00
 S   1 1.00       0.000000000000
      0.1612777588D+00  0.1000000000D+01
 ****
      5 0
 S   6 1.00       0.000000000000
      0.3047524880D+04  0.1834737132D-02
      0.4573695180D+03  0.1403732281D-01
      0.1039486850D+03  0.6884262226D-01
      0.2921015530D+02  0.2321844432D+00
      0.9286662960D+01  0.4679413484D+00
      0.3163926960D+01  0.3623119853D+00
 SP   3 1.00       0.000000000000
      0.7868272350D+01 -0.1193324198D+00  0.6899906659D-01
      0.1881288540D+01 -0.1608541517D+00  0.3164239610D+00
      0.5442492580D+00  0.1143456438D+01  0.7443082909D+00
 SP   1 1.00       0.000000000000
      0.1687144782D+00  0.1000000000D+01  0.1000000000D+01
 D   1 1.00       0.000000000000
      0.8000000000D+00  0.1000000000D+01
 ****
      6 0
 S   6 1.00       0.000000000000
      0.3047524880D+04  0.1834737132D-02
      0.4573695180D+03  0.1403732281D-01
      0.1039486850D+03  0.6884262226D-01
      0.2921015530D+02  0.2321844432D+00
      0.9286662960D+01  0.4679413484D+00
      0.3163926960D+01  0.3623119853D+00
 SP   3 1.00       0.000000000000
      0.7868272350D+01 -0.1193324198D+00  0.6899906659D-01
      0.1881288540D+01 -0.1608541517D+00  0.3164239610D+00
      0.5442492580D+00  0.1143456438D+01  0.7443082909D+00
 SP   1 1.00       0.000000000000
      0.1687144782D+00  0.1000000000D+01  0.1000000000D+01
 D   1 1.00       0.000000000000
      0.8000000000D+00  0.1000000000D+01
 ****
      7 0
 S   3 1.00       0.000000000000
      0.1873113696D+02  0.3349460434D-01
      0.2825394365D+01  0.2347269535D+00
      0.6401216923D+00  0.8137573261D+00
 S   1 1.00       0.000000000000
      0.1612777588D+00  0.1000000000D+01
 ****
      8 0
 S   6 1.00       0.000000000000
      0.3047524880D+04  0.1834737132D-02
      0.4573695180D+03  0.1403732281D-01
      0.1039486850D+03  0.6884262226D-01
      0.2921015530D+02  0.2321844432D+00
      0.9286662960D+01  0.4679413484D+00
      0.3163926960D+01  0.3623119853D+00
 SP   3 1.00       0.000000000000
      0.7868272350D+01 -0.1193324198D+00  0.6899906659D-01
      0.1881288540D+01 -0.1608541517D+00  0.3164239610D+00
      0.5442492580D+00  0.1143456438D+01  0.7443082909D+00
 SP   1 1.00       0.000000000000
      0.1687144782D+00  0.1000000000D+01  0.1000000000D+01
 D   1 1.00       0.000000000000
      0.8000000000D+00  0.1000000000D+01
 ****
      9 0
 S   3 1.00       0.000000000000
      0.1873113696D+02  0.3349460434D-01
      0.2825394365D+01  0.2347269535D+00
      0.6401216923D+00  0.8137573261D+00
 S   1 1.00       0.000000000000
      0.1612777588D+00  0.1000000000D+01
 ****
     10 0
 S   6 1.00       0.000000000000
      0.3047524880D+04  0.1834737132D-02
      0.4573695180D+03  0.1403732281D-01
      0.1039486850D+03  0.6884262226D-01
      0.2921015530D+02  0.2321844432D+00
      0.9286662960D+01  0.4679413484D+00
      0.3163926960D+01  0.3623119853D+00
 SP   3 1.00       0.000000000000
      0.7868272350D+01 -0.1193324198D+00  0.6899906659D-01
      0.1881288540D+01 -0.1608541517D+00  0.3164239610D+00
      0.5442492580D+00  0.1143456438D+01  0.7443082909D+00
 SP   1 1.00       0.000000000000
      0.1687144782D+00  0.1000000000D+01  0.1000000000D+01
 D   1 1.00       0.000000000000
      0.8000000000D+00  0.1000000000D+01
 ****
     11 0
 S   3 1.00       0.000000000000
      0.1873113696D+02  0.3349460434D-01
      0.2825394365D+01  0.2347269535D+00
      0.6401216923D+00  0.8137573261D+00
 S   1 1.00       0.000000000000
      0.1612777588D+00  0.1000000000D+01
 ****
     12 0
 S   6 1.00       0.000000000000
      0.3047524880D+04  0.1834737132D-02
      0.4573695180D+03  0.1403732281D-01
      0.1039486850D+03  0.6884262226D-01
      0.2921015530D+02  0.2321844432D+00
      0.9286662960D+01  0.4679413484D+00
      0.3163926960D+01  0.3623119853D+00
 SP   3 1.00       0.000000000000
      0.7868272350D+01 -0.1193324198D+00  0.6899906659D-01
      0.1881288540D+01 -0.1608541517D+00  0.3164239610D+00
      0.5442492580D+00  0.1143456438D+01  0.7443082909D+00
 SP   1 1.00       0.000000000000
      0.1687144782D+00  0.1000000000D+01  0.1000000000D+01
 D   1 1.00       0.000000000000
      0.8000000000D+00  0.1000000000D+01
 ****
     13 0
 S   3 1.00       0.000000000000
      0.1873113696D+02  0.3349460434D-01
      0.2825394365D+01  0.2347269535D+00
      0.6401216923D+00  0.8137573261D+00
 S   1 1.00       0.000000000000
      0.1612777588D+00  0.1000000000D+01
 ****
     14 0
 S   6 1.00       0.000000000000
      0.3047524880D+04  0.1834737132D-02
      0.4573695180D+03  0.1403732281D-01
      0.1039486850D+03  0.6884262226D-01
      0.2921015530D+02  0.2321844432D+00
      0.9286662960D+01  0.4679413484D+00
      0.3163926960D+01  0.3623119853D+00
 SP   3 1.00       0.000000000000
      0.7868272350D+01 -0.1193324198D+00  0.6899906659D-01
      0.1881288540D+01 -0.1608541517D+00  0.3164239610D+00
      0.5442492580D+00  0.1143456438D+01  0.7443082909D+00
 SP   1 1.00       0.000000000000
      0.1687144782D+00  0.1000000000D+01  0.1000000000D+01
 D   1 1.00       0.000000000000
      0.8000000000D+00  0.1000000000D+01
 ****
     15 0
 S   3 1.00       0.000000000000
      0.1873113696D+02  0.3349460434D-01
      0.2825394365D+01  0.2347269535D+00
      0.6401216923D+00  0.8137573261D+00
 S   1 1.00       0.000000000000
      0.1612777588D+00  0.1000000000D+01
 ****
     16 0
 S   3 1.00       0.000000000000
      0.1873113696D+02  0.3349460434D-01
      0.2825394365D+01  0.2347269535D+00
      0.6401216923D+00  0.8137573261D+00
 S   1 1.00       0.000000000000
      0.1612777588D+00  0.1000000000D+01
 ****
     17 0
 S   6 1.00       0.000000000000
      0.3047524880D+04  0.1834737132D-02
      0.4573695180D+03  0.1403732281D-01
      0.1039486850D+03  0.6884262226D-01
      0.2921015530D+02  0.2321844432D+00
      0.9286662960D+01  0.4679413484D+00
      0.3163926960D+01  0.3623119853D+00
 SP   3 1.00       0.000000000000
      0.7868272350D+01 -0.1193324198D+00  0.6899906659D-01
      0.1881288540D+01 -0.1608541517D+00  0.3164239610D+00
      0.5442492580D+00  0.1143456438D+01  0.7443082909D+00
 SP   1 1.00       0.000000000000
      0.1687144782D+00  0.1000000000D+01  0.1000000000D+01
 D   1 1.00       0.000000000000
      0.8000000000D+00  0.1000000000D+01
 ****
     18 0
 S   6 1.00       0.000000000000
      0.3047524880D+04  0.1834737132D-02
      0.4573695180D+03  0.1403732281D-01
      0.1039486850D+03  0.6884262226D-01
      0.2921015530D+02  0.2321844432D+00
      0.9286662960D+01  0.4679413484D+00
      0.3163926960D+01  0.3623119853D+00
 SP   3 1.00       0.000000000000
      0.7868272350D+01 -0.1193324198D+00  0.6899906659D-01
      0.1881288540D+01 -0.1608541517D+00  0.3164239610D+00
      0.5442492580D+00  0.1143456438D+01  0.7443082909D+00
 SP   1 1.00       0.000000000000
      0.1687144782D+00  0.1000000000D+01  0.1000000000D+01
 D   1 1.00       0.000000000000
      0.8000000000D+00  0.1000000000D+01
 ****
     19 0
 S   3 1.00       0.000000000000
      0.1873113696D+02  0.3349460434D-01
      0.2825394365D+01  0.2347269535D+00
      0.6401216923D+00  0.8137573261D+00
 S   1 1.00       0.000000000000
      0.1612777588D+00  0.1000000000D+01
 ****
     20 0
 S   3 1.00       0.000000000000
      0.1873113696D+02  0.3349460434D-01
      0.2825394365D+01  0.2347269535D+00
      0.6401216923D+00  0.8137573261D+00
 S   1 1.00       0.000000000000
      0.1612777588D+00  0.1000000000D+01
 ****
     21 0
 S   6 1.00       0.000000000000
      0.3047524880D+04  0.1834737132D-02
      0.4573695180D+03  0.1403732281D-01
      0.1039486850D+03  0.6884262226D-01
      0.2921015530D+02  0.2321844432D+00
      0.9286662960D+01  0.4679413484D+00
      0.3163926960D+01  0.3623119853D+00
 SP   3 1.00       0.000000000000
      0.7868272350D+01 -0.1193324198D+00  0.6899906659D-01
      0.1881288540D+01 -0.1608541517D+00  0.3164239610D+00
      0.5442492580D+00  0.1143456438D+01  0.7443082909D+00
 SP   1 1.00       0.000000000000
      0.1687144782D+00  0.1000000000D+01  0.1000000000D+01
 D   1 1.00       0.000000000000
      0.8000000000D+00  0.1000000000D+01
 ****
     22 0
 S   3 1.00       0.000000000000
      0.1873113696D+02  0.3349460434D-01
      0.2825394365D+01  0.2347269535D+00
      0.6401216923D+00  0.8137573261D+00
 S   1 1.00       0.000000000000
      0.1612777588D+00  0.1000000000D+01
 ****
     23 0
 S   3 1.00       0.000000000000
      0.1873113696D+02  0.3349460434D-01
      0.2825394365D+01  0.2347269535D+00
      0.6401216923D+00  0.8137573261D+00
 S   1 1.00       0.000000000000
      0.1612777588D+00  0.1000000000D+01
 ****
     24 0
 S   6 1.00       0.000000000000
      0.3047524880D+04  0.1834737132D-02
      0.4573695180D+03  0.1403732281D-01
      0.1039486850D+03  0.6884262226D-01
      0.2921015530D+02  0.2321844432D+00
      0.9286662960D+01  0.4679413484D+00
      0.3163926960D+01  0.3623119853D+00
 SP   3 1.00       0.000000000000
      0.7868272350D+01 -0.1193324198D+00  0.6899906659D-01
      0.1881288540D+01 -0.1608541517D+00  0.3164239610D+00
      0.5442492580D+00  0.1143456438D+01  0.7443082909D+00
 SP   1 1.00       0.000000000000
      0.1687144782D+00  0.1000000000D+01  0.1000000000D+01
 D   1 1.00       0.000000000000
      0.8000000000D+00  0.1000000000D+01
 ****
     25 0
 S   3 1.00       0.000000000000
      0.1873113696D+02  0.3349460434D-01
      0.2825394365D+01  0.2347269535D+00
      0.6401216923D+00  0.8137573261D+00
 S   1 1.00       0.000000000000
      0.1612777588D+00  0.1000000000D+01
 ****
     26 0
 S   3 1.00       0.000000000000
      0.1873113696D+02  0.3349460434D-01
      0.2825394365D+01  0.2347269535D+00
      0.6401216923D+00  0.8137573261D+00
 S   1 1.00       0.000000000000
      0.1612777588D+00  0.1000000000D+01
 ****
     27 0
 S   6 1.00       0.000000000000
      0.3047524880D+04  0.1834737132D-02
      0.4573695180D+03  0.1403732281D-01
      0.1039486850D+03  0.6884262226D-01
      0.2921015530D+02  0.2321844432D+00
      0.9286662960D+01  0.4679413484D+00
      0.3163926960D+01  0.3623119853D+00
 SP   3 1.00       0.000000000000
      0.7868272350D+01 -0.1193324198D+00  0.6899906659D-01
      0.1881288540D+01 -0.1608541517D+00  0.3164239610D+00
      0.5442492580D+00  0.1143456438D+01  0.7443082909D+00
 SP   1 1.00       0.000000000000
      0.1687144782D+00  0.1000000000D+01  0.1000000000D+01
 D   1 1.00       0.000000000000
      0.8000000000D+00  0.1000000000D+01
 ****
     28 0
 S   3 1.00       0.000000000000
      0.1873113696D+02  0.3349460434D-01
      0.2825394365D+01  0.2347269535D+00
      0.6401216923D+00  0.8137573261D+00
 S   1 1.00       0.000000000000
      0.1612777588D+00  0.1000000000D+01
 ****
     29 0
 S   6 1.00       0.000000000000
      0.3047524880D+04  0.1834737132D-02
      0.4573695180D+03  0.1403732281D-01
      0.1039486850D+03  0.6884262226D-01
      0.2921015530D+02  0.2321844432D+00
      0.9286662960D+01  0.4679413484D+00
      0.3163926960D+01  0.3623119853D+00
 SP   3 1.00       0.000000000000
      0.7868272350D+01 -0.1193324198D+00  0.6899906659D-01
      0.1881288540D+01 -0.1608541517D+00  0.3164239610D+00
      0.5442492580D+00  0.1143456438D+01  0.7443082909D+00
 SP   1 1.00       0.000000000000
      0.1687144782D+00  0.1000000000D+01  0.1000000000D+01
 D   1 1.00       0.000000000000
      0.8000000000D+00  0.1000000000D+01
 ****
     30 0
 S   3 1.00       0.000000000000
      0.1873113696D+02  0.3349460434D-01
      0.2825394365D+01  0.2347269535D+00
      0.6401216923D+00  0.8137573261D+00
 S   1 1.00       0.000000000000
      0.1612777588D+00  0.1000000000D+01
 ****
     31 0
 S   6 1.00       0.000000000000
      0.3047524880D+04  0.1834737132D-02
      0.4573695180D+03  0.1403732281D-01
      0.1039486850D+03  0.6884262226D-01
      0.2921015530D+02  0.2321844432D+00
      0.9286662960D+01  0.4679413484D+00
      0.3163926960D+01  0.3623119853D+00
 SP   3 1.00       0.000000000000
      0.7868272350D+01 -0.1193324198D+00  0.6899906659D-01
      0.1881288540D+01 -0.1608541517D+00  0.3164239610D+00
      0.5442492580D+00  0.1143456438D+01  0.7443082909D+00
 SP   1 1.00       0.000000000000
      0.1687144782D+00  0.1000000000D+01  0.1000000000D+01
 D   1 1.00       0.000000000000
      0.8000000000D+00  0.1000000000D+01
 ****
     32 0
 S   3 1.00       0.000000000000
      0.1873113696D+02  0.3349460434D-01
      0.2825394365D+01  0.2347269535D+00
      0.6401216923D+00  0.8137573261D+00
 S   1 1.00       0.000000000000
      0.1612777588D+00  0.1000000000D+01
 ****
     33 0
 S   3 1.00       0.000000000000
      0.1873113696D+02  0.3349460434D-01
      0.2825394365D+01  0.2347269535D+00
      0.6401216923D+00  0.8137573261D+00
 S   1 1.00       0.000000000000
      0.1612777588D+00  0.1000000000D+01
 ****
     34 0
 S   3 1.00       0.000000000000
      0.1873113696D+02  0.3349460434D-01
      0.2825394365D+01  0.2347269535D+00
      0.6401216923D+00  0.8137573261D+00
 S   1 1.00       0.000000000000
      0.1612777588D+00  0.1000000000D+01
 ****
     35 0
 S   6 1.00       0.000000000000
      0.3047524880D+04  0.1834737132D-02
      0.4573695180D+03  0.1403732281D-01
      0.1039486850D+03  0.6884262226D-01
      0.2921015530D+02  0.2321844432D+00
      0.9286662960D+01  0.4679413484D+00
      0.3163926960D+01  0.3623119853D+00
 SP   3 1.00       0.000000000000
      0.7868272350D+01 -0.1193324198D+00  0.6899906659D-01
      0.1881288540D+01 -0.1608541517D+00  0.3164239610D+00
      0.5442492580D+00  0.1143456438D+01  0.7443082909D+00
 SP   1 1.00       0.000000000000
      0.1687144782D+00  0.1000000000D+01  0.1000000000D+01
 D   1 1.00       0.000000000000
      0.8000000000D+00  0.1000000000D+01
 ****
     36 0
 S   6 1.00       0.000000000000
      0.3047524880D+04  0.1834737132D-02
      0.4573695180D+03  0.1403732281D-01
      0.1039486850D+03  0.6884262226D-01
      0.2921015530D+02  0.2321844432D+00
      0.9286662960D+01  0.4679413484D+00
      0.3163926960D+01  0.3623119853D+00
 SP   3 1.00       0.000000000000
      0.7868272350D+01 -0.1193324198D+00  0.6899906659D-01
      0.1881288540D+01 -0.1608541517D+00  0.3164239610D+00
      0.5442492580D+00  0.1143456438D+01  0.7443082909D+00
 SP   1 1.00       0.000000000000
      0.1687144782D+00  0.1000000000D+01  0.1000000000D+01
 D   1 1.00       0.000000000000
      0.8000000000D+00  0.1000000000D+01
 ****
     37 0
 S   3 1.00       0.000000000000
      0.1873113696D+02  0.3349460434D-01
      0.2825394365D+01  0.2347269535D+00
      0.6401216923D+00  0.8137573261D+00
 S   1 1.00       0.000000000000
      0.1612777588D+00  0.1000000000D+01
 ****
     38 0
 S   3 1.00       0.000000000000
      0.1873113696D+02  0.3349460434D-01
      0.2825394365D+01  0.2347269535D+00
      0.6401216923D+00  0.8137573261D+00
 S   1 1.00       0.000000000000
      0.1612777588D+00  0.1000000000D+01
 ****
     39 0
 S   6 1.00       0.000000000000
      0.3047524880D+04  0.1834737132D-02
      0.4573695180D+03  0.1403732281D-01
      0.1039486850D+03  0.6884262226D-01
      0.2921015530D+02  0.2321844432D+00
      0.9286662960D+01  0.4679413484D+00
      0.3163926960D+01  0.3623119853D+00
 SP   3 1.00       0.000000000000
      0.7868272350D+01 -0.1193324198D+00  0.6899906659D-01
      0.1881288540D+01 -0.1608541517D+00  0.3164239610D+00
      0.5442492580D+00  0.1143456438D+01  0.7443082909D+00
 SP   1 1.00       0.000000000000
      0.1687144782D+00  0.1000000000D+01  0.1000000000D+01
 D   1 1.00       0.000000000000
      0.8000000000D+00  0.1000000000D+01
 ****
     40 0
 S   3 1.00       0.000000000000
      0.1873113696D+02  0.3349460434D-01
      0.2825394365D+01  0.2347269535D+00
      0.6401216923D+00  0.8137573261D+00
 S   1 1.00       0.000000000000
      0.1612777588D+00  0.1000000000D+01
 ****
     41 0
 S   6 1.00       0.000000000000
      0.3047524880D+04  0.1834737132D-02
      0.4573695180D+03  0.1403732281D-01
      0.1039486850D+03  0.6884262226D-01
      0.2921015530D+02  0.2321844432D+00
      0.9286662960D+01  0.4679413484D+00
      0.3163926960D+01  0.3623119853D+00
 SP   3 1.00       0.000000000000
      0.7868272350D+01 -0.1193324198D+00  0.6899906659D-01
      0.1881288540D+01 -0.1608541517D+00  0.3164239610D+00
      0.5442492580D+00  0.1143456438D+01  0.7443082909D+00
 SP   1 1.00       0.000000000000
      0.1687144782D+00  0.1000000000D+01  0.1000000000D+01
 D   1 1.00       0.000000000000
      0.8000000000D+00  0.1000000000D+01
 ****
     42 0
 S   3 1.00       0.000000000000
      0.1873113696D+02  0.3349460434D-01
      0.2825394365D+01  0.2347269535D+00
      0.6401216923D+00  0.8137573261D+00
 S   1 1.00       0.000000000000
      0.1612777588D+00  0.1000000000D+01
 ****
     43 0
 S   3 1.00       0.000000000000
      0.1873113696D+02  0.3349460434D-01
      0.2825394365D+01  0.2347269535D+00
      0.6401216923D+00  0.8137573261D+00
 S   1 1.00       0.000000000000
      0.1612777588D+00  0.1000000000D+01
 ****
     44 0
 S   3 1.00       0.000000000000
      0.1873113696D+02  0.3349460434D-01
      0.2825394365D+01  0.2347269535D+00
      0.6401216923D+00  0.8137573261D+00
 S   1 1.00       0.000000000000
      0.1612777588D+00  0.1000000000D+01
 ****
     45 0
 S   6 1.00       0.000000000000
      0.3047524880D+04  0.1834737132D-02
      0.4573695180D+03  0.1403732281D-01
      0.1039486850D+03  0.6884262226D-01
      0.2921015530D+02  0.2321844432D+00
      0.9286662960D+01  0.4679413484D+00
      0.3163926960D+01  0.3623119853D+00
 SP   3 1.00       0.000000000000
      0.7868272350D+01 -0.1193324198D+00  0.6899906659D-01
      0.1881288540D+01 -0.1608541517D+00  0.3164239610D+00
      0.5442492580D+00  0.1143456438D+01  0.7443082909D+00
 SP   1 1.00       0.000000000000
      0.1687144782D+00  0.1000000000D+01  0.1000000000D+01
 D   1 1.00       0.000000000000
      0.8000000000D+00  0.1000000000D+01
 ****
     46 0
 S   3 1.00       0.000000000000
      0.1873113696D+02  0.3349460434D-01
      0.2825394365D+01  0.2347269535D+00
      0.6401216923D+00  0.8137573261D+00
 S   1 1.00       0.000000000000
      0.1612777588D+00  0.1000000000D+01
 ****
     47 0
 S   3 1.00       0.000000000000
      0.1873113696D+02  0.3349460434D-01
      0.2825394365D+01  0.2347269535D+00
      0.6401216923D+00  0.8137573261D+00
 S   1 1.00       0.000000000000
      0.1612777588D+00  0.1000000000D+01
 ****
     48 0
 S   6 1.00       0.000000000000
      0.3047524880D+04  0.1834737132D-02
      0.4573695180D+03  0.1403732281D-01
      0.1039486850D+03  0.6884262226D-01
      0.2921015530D+02  0.2321844432D+00
      0.9286662960D+01  0.4679413484D+00
      0.3163926960D+01  0.3623119853D+00
 SP   3 1.00       0.000000000000
      0.7868272350D+01 -0.1193324198D+00  0.6899906659D-01
      0.1881288540D+01 -0.1608541517D+00  0.3164239610D+00
      0.5442492580D+00  0.1143456438D+01  0.7443082909D+00
 SP   1 1.00       0.000000000000
      0.1687144782D+00  0.1000000000D+01  0.1000000000D+01
 D   1 1.00       0.000000000000
      0.8000000000D+00  0.1000000000D+01
 ****
     49 0
 S   3 1.00       0.000000000000
      0.1873113696D+02  0.3349460434D-01
      0.2825394365D+01  0.2347269535D+00
      0.6401216923D+00  0.8137573261D+00
 S   1 1.00       0.000000000000
      0.1612777588D+00  0.1000000000D+01
 ****
     50 0
 S   3 1.00       0.000000000000
      0.1873113696D+02  0.3349460434D-01
      0.2825394365D+01  0.2347269535D+00
      0.6401216923D+00  0.8137573261D+00
 S   1 1.00       0.000000000000
      0.1612777588D+00  0.1000000000D+01
 ****
     51 0
 S   6 1.00       0.000000000000
      0.3047524880D+04  0.1834737132D-02
      0.4573695180D+03  0.1403732281D-01
      0.1039486850D+03  0.6884262226D-01
      0.2921015530D+02  0.2321844432D+00
      0.9286662960D+01  0.4679413484D+00
      0.3163926960D+01  0.3623119853D+00
 SP   3 1.00       0.000000000000
      0.7868272350D+01 -0.1193324198D+00  0.6899906659D-01
      0.1881288540D+01 -0.1608541517D+00  0.3164239610D+00
      0.5442492580D+00  0.1143456438D+01  0.7443082909D+00
 SP   1 1.00       0.000000000000
      0.1687144782D+00  0.1000000000D+01  0.1000000000D+01
 D   1 1.00       0.000000000000
      0.8000000000D+00  0.1000000000D+01
 ****
     52 0
 S   3 1.00       0.000000000000
      0.1873113696D+02  0.3349460434D-01
      0.2825394365D+01  0.2347269535D+00
      0.6401216923D+00  0.8137573261D+00
 S   1 1.00       0.000000000000
      0.1612777588D+00  0.1000000000D+01
 ****
     53 0
 S   3 1.00       0.000000000000
      0.1873113696D+02  0.3349460434D-01
      0.2825394365D+01  0.2347269535D+00
      0.6401216923D+00  0.8137573261D+00
 S   1 1.00       0.000000000000
      0.1612777588D+00  0.1000000000D+01
 ****
     54 0
 S   6 1.00       0.000000000000
      0.3047524880D+04  0.1834737132D-02
      0.4573695180D+03  0.1403732281D-01
      0.1039486850D+03  0.6884262226D-01
      0.2921015530D+02  0.2321844432D+00
      0.9286662960D+01  0.4679413484D+00
      0.3163926960D+01  0.3623119853D+00
 SP   3 1.00       0.000000000000
      0.7868272350D+01 -0.1193324198D+00  0.6899906659D-01
      0.1881288540D+01 -0.1608541517D+00  0.3164239610D+00
      0.5442492580D+00  0.1143456438D+01  0.7443082909D+00
 SP   1 1.00       0.000000000000
      0.1687144782D+00  0.1000000000D+01  0.1000000000D+01
 D   1 1.00       0.000000000000
      0.8000000000D+00  0.1000000000D+01
 ****
     55 0
 S   3 1.00       0.000000000000
      0.1873113696D+02  0.3349460434D-01
      0.2825394365D+01  0.2347269535D+00
      0.6401216923D+00  0.8137573261D+00
 S   1 1.00       0.000000000000
      0.1612777588D+00  0.1000000000D+01
 ****
     56 0
 S   6 1.00       0.000000000000
      0.3047524880D+04  0.1834737132D-02
      0.4573695180D+03  0.1403732281D-01
      0.1039486850D+03  0.6884262226D-01
      0.2921015530D+02  0.2321844432D+00
      0.9286662960D+01  0.4679413484D+00
      0.3163926960D+01  0.3623119853D+00
 SP   3 1.00       0.000000000000
      0.7868272350D+01 -0.1193324198D+00  0.6899906659D-01
      0.1881288540D+01 -0.1608541517D+00  0.3164239610D+00
      0.5442492580D+00  0.1143456438D+01  0.7443082909D+00
 SP   1 1.00       0.000000000000
      0.1687144782D+00  0.1000000000D+01  0.1000000000D+01
 D   1 1.00       0.000000000000
      0.8000000000D+00  0.1000000000D+01
 ****
     57 0
 S   3 1.00       0.000000000000
      0.1873113696D+02  0.3349460434D-01
      0.2825394365D+01  0.2347269535D+00
      0.6401216923D+00  0.8137573261D+00
 S   1 1.00       0.000000000000
      0.1612777588D+00  0.1000000000D+01
 ****
     58 0
 S   3 1.00       0.000000000000
      0.1873113696D+02  0.3349460434D-01
      0.2825394365D+01  0.2347269535D+00
      0.6401216923D+00  0.8137573261D+00
 S   1 1.00       0.000000000000
      0.1612777588D+00  0.1000000000D+01
 ****
     59 0
 S   3 1.00       0.000000000000
      0.1873113696D+02  0.3349460434D-01
      0.2825394365D+01  0.2347269535D+00
      0.6401216923D+00  0.8137573261D+00
 S   1 1.00       0.000000000000
      0.1612777588D+00  0.1000000000D+01
 ****
     60 0
 S   6 1.00       0.000000000000
      0.3047524880D+04  0.1834737132D-02
      0.4573695180D+03  0.1403732281D-01
      0.1039486850D+03  0.6884262226D-01
      0.2921015530D+02  0.2321844432D+00
      0.9286662960D+01  0.4679413484D+00
      0.3163926960D+01  0.3623119853D+00
 SP   3 1.00       0.000000000000
      0.7868272350D+01 -0.1193324198D+00  0.6899906659D-01
      0.1881288540D+01 -0.1608541517D+00  0.3164239610D+00
      0.5442492580D+00  0.1143456438D+01  0.7443082909D+00
 SP   1 1.00       0.000000000000
      0.1687144782D+00  0.1000000000D+01  0.1000000000D+01
 D   1 1.00       0.000000000000
      0.8000000000D+00  0.1000000000D+01
 ****
     61 0
 S   3 1.00       0.000000000000
      0.1873113696D+02  0.3349460434D-01
      0.2825394365D+01  0.2347269535D+00
      0.6401216923D+00  0.8137573261D+00
 S   1 1.00       0.000000000000
      0.1612777588D+00  0.1000000000D+01
 ****
     62 0
 S   3 1.00       0.000000000000
      0.1873113696D+02  0.3349460434D-01
      0.2825394365D+01  0.2347269535D+00
      0.6401216923D+00  0.8137573261D+00
 S   1 1.00       0.000000000000
      0.1612777588D+00  0.1000000000D+01
 ****
     63 0
 S   6 1.00       0.000000000000
      0.3047524880D+04  0.1834737132D-02
      0.4573695180D+03  0.1403732281D-01
      0.1039486850D+03  0.6884262226D-01
      0.2921015530D+02  0.2321844432D+00
      0.9286662960D+01  0.4679413484D+00
      0.3163926960D+01  0.3623119853D+00
 SP   3 1.00       0.000000000000
      0.7868272350D+01 -0.1193324198D+00  0.6899906659D-01
      0.1881288540D+01 -0.1608541517D+00  0.3164239610D+00
      0.5442492580D+00  0.1143456438D+01  0.7443082909D+00
 SP   1 1.00       0.000000000000
      0.1687144782D+00  0.1000000000D+01  0.1000000000D+01
 D   1 1.00       0.000000000000
      0.8000000000D+00  0.1000000000D+01
 ****
     64 0
 S   3 1.00       0.000000000000
      0.1873113696D+02  0.3349460434D-01
      0.2825394365D+01  0.2347269535D+00
      0.6401216923D+00  0.8137573261D+00
 S   1 1.00       0.000000000000
      0.1612777588D+00  0.1000000000D+01
 ****
     65 0
 S   3 1.00       0.000000000000
      0.1873113696D+02  0.3349460434D-01
      0.2825394365D+01  0.2347269535D+00
      0.6401216923D+00  0.8137573261D+00
 S   1 1.00       0.000000000000
      0.1612777588D+00  0.1000000000D+01
 ****
     66 0
 S   6 1.00       0.000000000000
      0.3047524880D+04  0.1834737132D-02
      0.4573695180D+03  0.1403732281D-01
      0.1039486850D+03  0.6884262226D-01
      0.2921015530D+02  0.2321844432D+00
      0.9286662960D+01  0.4679413484D+00
      0.3163926960D+01  0.3623119853D+00
 SP   3 1.00       0.000000000000
      0.7868272350D+01 -0.1193324198D+00  0.6899906659D-01
      0.1881288540D+01 -0.1608541517D+00  0.3164239610D+00
      0.5442492580D+00  0.1143456438D+01  0.7443082909D+00
 SP   1 1.00       0.000000000000
      0.1687144782D+00  0.1000000000D+01  0.1000000000D+01
 D   1 1.00       0.000000000000
      0.8000000000D+00  0.1000000000D+01
 ****
     67 0
 S   3 1.00       0.000000000000
      0.1873113696D+02  0.3349460434D-01
      0.2825394365D+01  0.2347269535D+00
      0.6401216923D+00  0.8137573261D+00
 S   1 1.00       0.000000000000
      0.1612777588D+00  0.1000000000D+01
 ****
     68 0
 S   6 1.00       0.000000000000
      0.3047524880D+04  0.1834737132D-02
      0.4573695180D+03  0.1403732281D-01
      0.1039486850D+03  0.6884262226D-01
      0.2921015530D+02  0.2321844432D+00
      0.9286662960D+01  0.4679413484D+00
      0.3163926960D+01  0.3623119853D+00
 SP   3 1.00       0.000000000000
      0.7868272350D+01 -0.1193324198D+00  0.6899906659D-01
      0.1881288540D+01 -0.1608541517D+00  0.3164239610D+00
      0.5442492580D+00  0.1143456438D+01  0.7443082909D+00
 SP   1 1.00       0.000000000000
      0.1687144782D+00  0.1000000000D+01  0.1000000000D+01
 D   1 1.00       0.000000000000
      0.8000000000D+00  0.1000000000D+01
 ****
     69 0
 S   3 1.00       0.000000000000
      0.1873113696D+02  0.3349460434D-01
      0.2825394365D+01  0.2347269535D+00
      0.6401216923D+00  0.8137573261D+00
 S   1 1.00       0.000000000000
      0.1612777588D+00  0.1000000000D+01
 ****
     70 0
 S   3 1.00       0.000000000000
      0.1873113696D+02  0.3349460434D-01
      0.2825394365D+01  0.2347269535D+00
      0.6401216923D+00  0.8137573261D+00
 S   1 1.00       0.000000000000
      0.1612777588D+00  0.1000000000D+01
 ****
     71 0
 S   3 1.00       0.000000000000
      0.1873113696D+02  0.3349460434D-01
      0.2825394365D+01  0.2347269535D+00
      0.6401216923D+00  0.8137573261D+00
 S   1 1.00       0.000000000000
      0.1612777588D+00  0.1000000000D+01
 ****
     72 0
 S   6 1.00       0.000000000000
      0.3047524880D+04  0.1834737132D-02
      0.4573695180D+03  0.1403732281D-01
      0.1039486850D+03  0.6884262226D-01
      0.2921015530D+02  0.2321844432D+00
      0.9286662960D+01  0.4679413484D+00
      0.3163926960D+01  0.3623119853D+00
 SP   3 1.00       0.000000000000
      0.7868272350D+01 -0.1193324198D+00  0.6899906659D-01
      0.1881288540D+01 -0.1608541517D+00  0.3164239610D+00
      0.5442492580D+00  0.1143456438D+01  0.7443082909D+00
 SP   1 1.00       0.000000000000
      0.1687144782D+00  0.1000000000D+01  0.1000000000D+01
 D   1 1.00       0.000000000000
      0.8000000000D+00  0.1000000000D+01
 ****
     73 0
 S   3 1.00       0.000000000000
      0.1873113696D+02  0.3349460434D-01
      0.2825394365D+01  0.2347269535D+00
      0.6401216923D+00  0.8137573261D+00
 S   1 1.00       0.000000000000
      0.1612777588D+00  0.1000000000D+01
 ****
     74 0
 S   3 1.00       0.000000000000
      0.1873113696D+02  0.3349460434D-01
      0.2825394365D+01  0.2347269535D+00
      0.6401216923D+00  0.8137573261D+00
 S   1 1.00       0.000000000000
      0.1612777588D+00  0.1000000000D+01
 ****
     75 0
 S   3 1.00       0.000000000000
      0.1873113696D+02  0.3349460434D-01
      0.2825394365D+01  0.2347269535D+00
      0.6401216923D+00  0.8137573261D+00
 S   1 1.00       0.000000000000
      0.1612777588D+00  0.1000000000D+01
 ****

 AO basis set (Overlap normalization):
 Atom O1       Shell     1 S   6     bf    1 -     1         10.901868025215          6.500337475164          0.000000000000
      0.5484671660D+04  0.1831074430D-02
      0.8252349460D+03  0.1395017220D-01
      0.1880469580D+03  0.6844507810D-01
      0.5296450000D+02  0.2327143360D+00
      0.1689757040D+02  0.4701928980D+00
      0.5799635340D+01  0.3585208530D+00
 Atom O1       Shell     2 SP   3    bf    2 -     5         10.901868025215          6.500337475164          0.000000000000
      0.1553961625D+02 -0.1107775495D+00  0.7087426823D-01
      0.3599933586D+01 -0.1480262627D+00  0.3397528391D+00
      0.1013761750D+01  0.1130767015D+01  0.7271585773D+00
 Atom O1       Shell     3 SP   1    bf    6 -     9         10.901868025215          6.500337475164          0.000000000000
      0.2700058226D+00  0.1000000000D+01  0.1000000000D+01
 Atom O1       Shell     4 D   1     bf   10 -    15         10.901868025215          6.500337475164          0.000000000000
      0.8000000000D+00  0.1000000000D+01
 Atom H2       Shell     5 S   3     bf   16 -    16          9.697904192953          6.206934306093          1.341819202478
      0.1873113696D+02  0.3349460434D-01
      0.2825394365D+01  0.2347269535D+00
      0.6401216923D+00  0.8137573261D+00
 Atom H2       Shell     6 S   1     bf   17 -    17          9.697904192953          6.206934306093          1.341819202478
      0.1612777588D+00  0.1000000000D+01
 Atom O3       Shell     7 S   6     bf   18 -    18          0.000000000000          0.000000000000          0.000000000000
      0.5484671660D+04  0.1831074430D-02
      0.8252349460D+03  0.1395017220D-01
      0.1880469580D+03  0.6844507810D-01
      0.5296450000D+02  0.2327143360D+00
      0.1689757040D+02  0.4701928980D+00
      0.5799635340D+01  0.3585208530D+00
 Atom O3       Shell     8 SP   3    bf   19 -    22          0.000000000000          0.000000000000          0.000000000000
      0.1553961625D+02 -0.1107775495D+00  0.7087426823D-01
      0.3599933586D+01 -0.1480262627D+00  0.3397528391D+00
      0.1013761750D+01  0.1130767015D+01  0.7271585773D+00
 Atom O3       Shell     9 SP   1    bf   23 -    26          0.000000000000          0.000000000000          0.000000000000
      0.2700058226D+00  0.1000000000D+01  0.1000000000D+01
 Atom O3       Shell    10 D   1     bf   27 -    32          0.000000000000          0.000000000000          0.000000000000
      0.8000000000D+00  0.1000000000D+01
 Atom H4       Shell    11 S   3     bf   33 -    33         -0.157687365679         -1.407859971870         -1.155942149568
      0.1873113696D+02  0.3349460434D-01
      0.2825394365D+01  0.2347269535D+00
      0.6401216923D+00  0.8137573261D+00
 Atom H4       Shell    12 S   1     bf   34 -    34         -0.157687365679         -1.407859971870         -1.155942149568
      0.1612777588D+00  0.1000000000D+01
 Atom C5       Shell    13 S   6     bf   35 -    35         16.664479586143          0.682717422700          0.724032618527
      0.3047524880D+04  0.1834737132D-02
      0.4573695180D+03  0.1403732281D-01
      0.1039486850D+03  0.6884262226D-01
      0.2921015530D+02  0.2321844432D+00
      0.9286662960D+01  0.4679413484D+00
      0.3163926960D+01  0.3623119853D+00
 Atom C5       Shell    14 SP   3    bf   36 -    39         16.664479586143          0.682717422700          0.724032618527
      0.7868272350D+01 -0.1193324198D+00  0.6899906659D-01
      0.1881288540D+01 -0.1608541517D+00  0.3164239610D+00
      0.5442492580D+00  0.1143456438D+01  0.7443082909D+00
 Atom C5       Shell    15 SP   1    bf   40 -    43         16.664479586143          0.682717422700          0.724032618527
      0.1687144782D+00  0.1000000000D+01  0.1000000000D+01
 Atom C5       Shell    16 D   1     bf   44 -    49         16.664479586143          0.682717422700          0.724032618527
      0.8000000000D+00  0.1000000000D+01
 Atom C6       Shell    17 S   6     bf   50 -    50         14.925302491853          2.902200690185         -0.096693166617
      0.3047524880D+04  0.1834737132D-02
      0.4573695180D+03  0.1403732281D-01
      0.1039486850D+03  0.6884262226D-01
      0.2921015530D+02  0.2321844432D+00
      0.9286662960D+01  0.4679413484D+00
      0.3163926960D+01  0.3623119853D+00
 Atom C6       Shell    18 SP   3    bf   51 -    54         14.925302491853          2.902200690185         -0.096693166617
      0.7868272350D+01 -0.1193324198D+00  0.6899906659D-01
      0.1881288540D+01 -0.1608541517D+00  0.3164239610D+00
      0.5442492580D+00  0.1143456438D+01  0.7443082909D+00
 Atom C6       Shell    19 SP   1    bf   55 -    58         14.925302491853          2.902200690185         -0.096693166617
      0.1687144782D+00  0.1000000000D+01  0.1000000000D+01
 Atom C6       Shell    20 D   1     bf   59 -    64         14.925302491853          2.902200690185         -0.096693166617
      0.8000000000D+00  0.1000000000D+01
 Atom H7       Shell    21 S   3     bf   65 -    65         14.589339477736          4.010821376180          1.627874492734
      0.1873113696D+02  0.3349460434D-01
      0.2825394365D+01  0.2347269535D+00
      0.6401216923D+00  0.8137573261D+00
 Atom H7       Shell    22 S   1     bf   66 -    66         14.589339477736          4.010821376180          1.627874492734
      0.1612777588D+00  0.1000000000D+01
 Atom C8       Shell    23 S   6     bf   67 -    67         12.305499130151          2.121398034113         -1.059279747693
      0.3047524880D+04  0.1834737132D-02
      0.4573695180D+03  0.1403732281D-01
      0.1039486850D+03  0.6884262226D-01
      0.2921015530D+02  0.2321844432D+00
      0.9286662960D+01  0.4679413484D+00
      0.3163926960D+01  0.3623119853D+00
 Atom C8       Shell    24 SP   3    bf   68 -    71         12.305499130151          2.121398034113         -1.059279747693
      0.7868272350D+01 -0.1193324198D+00  0.6899906659D-01
      0.1881288540D+01 -0.1608541517D+00  0.3164239610D+00
      0.5442492580D+00  0.1143456438D+01  0.7443082909D+00
 Atom C8       Shell    25 SP   1    bf   72 -    75         12.305499130151          2.121398034113         -1.059279747693
      0.1687144782D+00  0.1000000000D+01  0.1000000000D+01
 Atom C8       Shell    26 D   1     bf   76 -    81         12.305499130151          2.121398034113         -1.059279747693
      0.8000000000D+00  0.1000000000D+01
 Atom H9       Shell    27 S   3     bf   82 -    82         12.523799820590          1.013586491053         -2.803861855565
      0.1873113696D+02  0.3349460434D-01
      0.2825394365D+01  0.2347269535D+00
      0.6401216923D+00  0.8137573261D+00
 Atom H9       Shell    28 S   1     bf   83 -    83         12.523799820590          1.013586491053         -2.803861855565
      0.1612777588D+00  0.1000000000D+01
 Atom C10      Shell    29 S   6     bf   84 -    84         10.916782821000          0.497058916617          0.942988911653
      0.3047524880D+04  0.1834737132D-02
      0.4573695180D+03  0.1403732281D-01
      0.1039486850D+03  0.6884262226D-01
      0.2921015530D+02  0.2321844432D+00
      0.9286662960D+01  0.4679413484D+00
      0.3163926960D+01  0.3623119853D+00
 Atom C10      Shell    30 SP   3    bf   85 -    88         10.916782821000          0.497058916617          0.942988911653
      0.7868272350D+01 -0.1193324198D+00  0.6899906659D-01
      0.1881288540D+01 -0.1608541517D+00  0.3164239610D+00
      0.5442492580D+00  0.1143456438D+01  0.7443082909D+00
 Atom C10      Shell    31 SP   1    bf   89 -    92         10.916782821000          0.497058916617          0.942988911653
      0.1687144782D+00  0.1000000000D+01  0.1000000000D+01
 Atom C10      Shell    32 D   1     bf   93 -    98         10.916782821000          0.497058916617          0.942988911653
      0.8000000000D+00  0.1000000000D+01
 Atom H11      Shell    33 S   3     bf   99 -    99         10.495953661344          1.782957097706          2.528002525968
      0.1873113696D+02  0.3349460434D-01
      0.2825394365D+01  0.2347269535D+00
      0.6401216923D+00  0.8137573261D+00
 Atom H11      Shell    34 S   1     bf  100 -   100         10.495953661344          1.782957097706          2.528002525968
      0.1612777588D+00  0.1000000000D+01
 Atom C12      Shell    35 S   6     bf  101 -   101         19.090276708850          2.198532384076          1.500599132219
      0.3047524880D+04  0.1834737132D-02
      0.4573695180D+03  0.1403732281D-01
      0.1039486850D+03  0.6884262226D-01
      0.2921015530D+02  0.2321844432D+00
      0.9286662960D+01  0.4679413484D+00
      0.3163926960D+01  0.3623119853D+00
 Atom C12      Shell    36 SP   3    bf  102 -   105         19.090276708850          2.198532384076          1.500599132219
      0.7868272350D+01 -0.1193324198D+00  0.6899906659D-01
      0.1881288540D+01 -0.1608541517D+00  0.3164239610D+00
      0.5442492580D+00  0.1143456438D+01  0.7443082909D+00
 Atom C12      Shell    37 SP   1    bf  106 -   109         19.090276708850          2.198532384076          1.500599132219
      0.1687144782D+00  0.1000000000D+01  0.1000000000D+01
 Atom C12      Shell    38 D   1     bf  110 -   115         19.090276708850          2.198532384076          1.500599132219
      0.8000000000D+00  0.1000000000D+01
 Atom H13      Shell    39 S   3     bf  116 -   116         18.645453790971          3.102648249676          3.322396961662
      0.1873113696D+02  0.3349460434D-01
      0.2825394365D+01  0.2347269535D+00
      0.6401216923D+00  0.8137573261D+00
 Atom H13      Shell    40 S   1     bf  117 -   117         18.645453790971          3.102648249676          3.322396961662
      0.1612777588D+00  0.1000000000D+01
 Atom C14      Shell    41 S   6     bf  118 -   118         15.263367675115         -0.708666707320          2.868160202976
      0.3047524880D+04  0.1834737132D-02
      0.4573695180D+03  0.1403732281D-01
      0.1039486850D+03  0.6884262226D-01
      0.2921015530D+02  0.2321844432D+00
      0.9286662960D+01  0.4679413484D+00
      0.3163926960D+01  0.3623119853D+00
 Atom C14      Shell    42 SP   3    bf  119 -   122         15.263367675115         -0.708666707320          2.868160202976
      0.7868272350D+01 -0.1193324198D+00  0.6899906659D-01
      0.1881288540D+01 -0.1608541517D+00  0.3164239610D+00
      0.5442492580D+00  0.1143456438D+01  0.7443082909D+00
 Atom C14      Shell    43 SP   1    bf  123 -   126         15.263367675115         -0.708666707320          2.868160202976
      0.1687144782D+00  0.1000000000D+01  0.1000000000D+01
 Atom C14      Shell    44 D   1     bf  127 -   132         15.263367675115         -0.708666707320          2.868160202976
      0.8000000000D+00  0.1000000000D+01
 Atom H15      Shell    45 S   3     bf  133 -   133         15.072996985741          0.584917065542          4.483088144180
      0.1873113696D+02  0.3349460434D-01
      0.2825394365D+01  0.2347269535D+00
      0.6401216923D+00  0.8137573261D+00
 Atom H15      Shell    46 S   1     bf  134 -   134         15.072996985741          0.584917065542          4.483088144180
      0.1612777588D+00  0.1000000000D+01
 Atom H16      Shell    47 S   3     bf  135 -   135         16.326747145858         -2.346783043263          3.549705693118
      0.1873113696D+02  0.3349460434D-01
      0.2825394365D+01  0.2347269535D+00
      0.6401216923D+00  0.8137573261D+00
 Atom H16      Shell    48 S   1     bf  136 -   136         16.326747145858         -2.346783043263          3.549705693118
      0.1612777588D+00  0.1000000000D+01
 Atom C17      Shell    49 S   6     bf  137 -   137          8.291867391061         -0.485851895786         -0.024005814676
      0.3047524880D+04  0.1834737132D-02
      0.4573695180D+03  0.1403732281D-01
      0.1039486850D+03  0.6884262226D-01
      0.2921015530D+02  0.2321844432D+00
      0.9286662960D+01  0.4679413484D+00
      0.3163926960D+01  0.3623119853D+00
 Atom C17      Shell    50 SP   3    bf  138 -   141          8.291867391061         -0.485851895786         -0.024005814676
      0.7868272350D+01 -0.1193324198D+00  0.6899906659D-01
      0.1881288540D+01 -0.1608541517D+00  0.3164239610D+00
      0.5442492580D+00  0.1143456438D+01  0.7443082909D+00
 Atom C17      Shell    51 SP   1    bf  142 -   145          8.291867391061         -0.485851895786         -0.024005814676
      0.1687144782D+00  0.1000000000D+01  0.1000000000D+01
 Atom C17      Shell    52 D   1     bf  146 -   151          8.291867391061         -0.485851895786         -0.024005814676
      0.8000000000D+00  0.1000000000D+01
 Atom C18      Shell    53 S   6     bf  152 -   152         16.603347078025          4.547596988185         -1.796031413621
      0.3047524880D+04  0.1834737132D-02
      0.4573695180D+03  0.1403732281D-01
      0.1039486850D+03  0.6884262226D-01
      0.2921015530D+02  0.2321844432D+00
      0.9286662960D+01  0.4679413484D+00
      0.3163926960D+01  0.3623119853D+00
 Atom C18      Shell    54 SP   3    bf  153 -   156         16.603347078025          4.547596988185         -1.796031413621
      0.7868272350D+01 -0.1193324198D+00  0.6899906659D-01
      0.1881288540D+01 -0.1608541517D+00  0.3164239610D+00
      0.5442492580D+00  0.1143456438D+01  0.7443082909D+00
 Atom C18      Shell    55 SP   1    bf  157 -   160         16.603347078025          4.547596988185         -1.796031413621
      0.1687144782D+00  0.1000000000D+01  0.1000000000D+01
 Atom C18      Shell    56 D   1     bf  161 -   166         16.603347078025          4.547596988185         -1.796031413621
      0.8000000000D+00  0.1000000000D+01
 Atom H19      Shell    57 S   3     bf  167 -   167         15.936060440830          6.501580442527         -1.880528268879
      0.1873113696D+02  0.3349460434D-01
      0.2825394365D+01  0.2347269535D+00
      0.6401216923D+00  0.8137573261D+00
 Atom H19      Shell    58 S   1     bf  168 -   168         15.936060440830          6.501580442527         -1.880528268879
      0.1612777588D+00  0.1000000000D+01
 Atom H20      Shell    59 S   3     bf  169 -   169         16.625048352784          3.825360176402         -3.740198024162
      0.1873113696D+02  0.3349460434D-01
      0.2825394365D+01  0.2347269535D+00
      0.6401216923D+00  0.8137573261D+00
 Atom H20      Shell    60 S   1     bf  170 -   170         16.625048352784          3.825360176402         -3.740198024162
      0.1612777588D+00  0.1000000000D+01
 Atom C21      Shell    61 S   6     bf  171 -   171         12.623441904838         -1.614215949088          2.027689973382
      0.3047524880D+04  0.1834737132D-02
      0.4573695180D+03  0.1403732281D-01
      0.1039486850D+03  0.6884262226D-01
      0.2921015530D+02  0.2321844432D+00
      0.9286662960D+01  0.4679413484D+00
      0.3163926960D+01  0.3623119853D+00
 Atom C21      Shell    62 SP   3    bf  172 -   175         12.623441904838         -1.614215949088          2.027689973382
      0.7868272350D+01 -0.1193324198D+00  0.6899906659D-01
      0.1881288540D+01 -0.1608541517D+00  0.3164239610D+00
      0.5442492580D+00  0.1143456438D+01  0.7443082909D+00
 Atom C21      Shell    63 SP   1    bf  176 -   179         12.623441904838         -1.614215949088          2.027689973382
      0.1687144782D+00  0.1000000000D+01  0.1000000000D+01
 Atom C21      Shell    64 D   1     bf  180 -   185         12.623441904838         -1.614215949088          2.027689973382
      0.8000000000D+00  0.1000000000D+01
 Atom H22      Shell    65 S   3     bf  186 -   186         12.865607493075         -3.112505269055          0.621369977131
      0.1873113696D+02  0.3349460434D-01
      0.2825394365D+01  0.2347269535D+00
      0.6401216923D+00  0.8137573261D+00
 Atom H22      Shell    66 S   1     bf  187 -   187         12.865607493075         -3.112505269055          0.621369977131
      0.1612777588D+00  0.1000000000D+01
 Atom H23      Shell    67 S   3     bf  188 -   188         11.686509603235         -2.502092925597          3.647793685490
      0.1873113696D+02  0.3349460434D-01
      0.2825394365D+01  0.2347269535D+00
      0.6401216923D+00  0.8137573261D+00
 Atom H23      Shell    68 S   1     bf  189 -   189         11.686509603235         -2.502092925597          3.647793685490
      0.1612777588D+00  0.1000000000D+01
 Atom C24      Shell    69 S   6     bf  190 -   190         19.256008298526          4.325029938644         -0.558174870734
      0.3047524880D+04  0.1834737132D-02
      0.4573695180D+03  0.1403732281D-01
      0.1039486850D+03  0.6884262226D-01
      0.2921015530D+02  0.2321844432D+00
      0.9286662960D+01  0.4679413484D+00
      0.3163926960D+01  0.3623119853D+00
 Atom C24      Shell    70 SP   3    bf  191 -   194         19.256008298526          4.325029938644         -0.558174870734
      0.7868272350D+01 -0.1193324198D+00  0.6899906659D-01
      0.1881288540D+01 -0.1608541517D+00  0.3164239610D+00
      0.5442492580D+00  0.1143456438D+01  0.7443082909D+00
 Atom C24      Shell    71 SP   1    bf  195 -   198         19.256008298526          4.325029938644         -0.558174870734
      0.1687144782D+00  0.1000000000D+01  0.1000000000D+01
 Atom C24      Shell    72 D   1     bf  199 -   204         19.256008298526          4.325029938644         -0.558174870734
      0.8000000000D+00  0.1000000000D+01
 Atom H25      Shell    73 S   3     bf  205 -   205         20.699381345591          3.852961932039         -1.967955711424
      0.1873113696D+02  0.3349460434D-01
      0.2825394365D+01  0.2347269535D+00
      0.6401216923D+00  0.8137573261D+00
 Atom H25      Shell    74 S   1     bf  206 -   206         20.699381345591          3.852961932039         -1.967955711424
      0.1612777588D+00  0.1000000000D+01
 Atom H26      Shell    75 S   3     bf  207 -   207         19.829765491904          6.125104345738          0.280401532022
      0.1873113696D+02  0.3349460434D-01
      0.2825394365D+01  0.2347269535D+00
      0.6401216923D+00  0.8137573261D+00
 Atom H26      Shell    76 S   1     bf  208 -   208         19.829765491904          6.125104345738          0.280401532022
      0.1612777588D+00  0.1000000000D+01
 Atom C27      Shell    77 S   6     bf  209 -   209         10.696929512672          4.442157375340         -1.789240248126
      0.3047524880D+04  0.1834737132D-02
      0.4573695180D+03  0.1403732281D-01
      0.1039486850D+03  0.6884262226D-01
      0.2921015530D+02  0.2321844432D+00
      0.9286662960D+01  0.4679413484D+00
      0.3163926960D+01  0.3623119853D+00
 Atom C27      Shell    78 SP   3    bf  210 -   213         10.696929512672          4.442157375340         -1.789240248126
      0.7868272350D+01 -0.1193324198D+00  0.6899906659D-01
      0.1881288540D+01 -0.1608541517D+00  0.3164239610D+00
      0.5442492580D+00  0.1143456438D+01  0.7443082909D+00
 Atom C27      Shell    79 SP   1    bf  214 -   217         10.696929512672          4.442157375340         -1.789240248126
      0.1687144782D+00  0.1000000000D+01  0.1000000000D+01
 Atom C27      Shell    80 D   1     bf  218 -   223         10.696929512672          4.442157375340         -1.789240248126
      0.8000000000D+00  0.1000000000D+01
 Atom H28      Shell    81 S   3     bf  224 -   224         11.462032399622          5.247385308598         -3.537494887559
      0.1873113696D+02  0.3349460434D-01
      0.2825394365D+01  0.2347269535D+00
      0.6401216923D+00  0.8137573261D+00
 Atom H28      Shell    82 S   1     bf  225 -   225         11.462032399622          5.247385308598         -3.537494887559
      0.1612777588D+00  0.1000000000D+01
 Atom C29      Shell    83 S   6     bf  226 -   226         21.634453533070          0.788121395310          1.850142474217
      0.3047524880D+04  0.1834737132D-02
      0.4573695180D+03  0.1403732281D-01
      0.1039486850D+03  0.6884262226D-01
      0.2921015530D+02  0.2321844432D+00
      0.9286662960D+01  0.4679413484D+00
      0.3163926960D+01  0.3623119853D+00
 Atom C29      Shell    84 SP   3    bf  227 -   230         21.634453533070          0.788121395310          1.850142474217
      0.7868272350D+01 -0.1193324198D+00  0.6899906659D-01
      0.1881288540D+01 -0.1608541517D+00  0.3164239610D+00
      0.5442492580D+00  0.1143456438D+01  0.7443082909D+00
 Atom C29      Shell    85 SP   1    bf  231 -   234         21.634453533070          0.788121395310          1.850142474217
      0.1687144782D+00  0.1000000000D+01  0.1000000000D+01
 Atom C29      Shell    86 D   1     bf  235 -   240         21.634453533070          0.788121395310          1.850142474217
      0.8000000000D+00  0.1000000000D+01
 Atom H30      Shell    87 S   3     bf  241 -   241         22.161059640583          0.000000000000          0.000000000000
      0.1873113696D+02  0.3349460434D-01
      0.2825394365D+01  0.2347269535D+00
      0.6401216923D+00  0.8137573261D+00
 Atom H30      Shell    88 S   1     bf  242 -   242         22.161059640583          0.000000000000          0.000000000000
      0.1612777588D+00  0.1000000000D+01
 Atom C31      Shell    89 S   6     bf  243 -   243         17.270796874173         -1.141163565243         -1.476954085159
      0.3047524880D+04  0.1834737132D-02
      0.4573695180D+03  0.1403732281D-01
      0.1039486850D+03  0.6884262226D-01
      0.2921015530D+02  0.2321844432D+00
      0.9286662960D+01  0.4679413484D+00
      0.3163926960D+01  0.3623119853D+00
 Atom C31      Shell    90 SP   3    bf  244 -   247         17.270796874173         -1.141163565243         -1.476954085159
      0.7868272350D+01 -0.1193324198D+00  0.6899906659D-01
      0.1881288540D+01 -0.1608541517D+00  0.3164239610D+00
      0.5442492580D+00  0.1143456438D+01  0.7443082909D+00
 Atom C31      Shell    91 SP   1    bf  248 -   251         17.270796874173         -1.141163565243         -1.476954085159
      0.1687144782D+00  0.1000000000D+01  0.1000000000D+01
 Atom C31      Shell    92 D   1     bf  252 -   257         17.270796874173         -1.141163565243         -1.476954085159
      0.8000000000D+00  0.1000000000D+01
 Atom H32      Shell    93 S   3     bf  258 -   258         15.566455274876         -1.919168179420         -2.346914700482
      0.1873113696D+02  0.3349460434D-01
      0.2825394365D+01  0.2347269535D+00
      0.6401216923D+00  0.8137573261D+00
 Atom H32      Shell    94 S   1     bf  259 -   259         15.566455274876         -1.919168179420         -2.346914700482
      0.1612777588D+00  0.1000000000D+01
 Atom H33      Shell    95 S   3     bf  260 -   260         18.346544659149         -0.208945771294         -2.976644278005
      0.1873113696D+02  0.3349460434D-01
      0.2825394365D+01  0.2347269535D+00
      0.6401216923D+00  0.8137573261D+00
 Atom H33      Shell    96 S   1     bf  261 -   261         18.346544659149         -0.208945771294         -2.976644278005
      0.1612777588D+00  0.1000000000D+01
 Atom H34      Shell    97 S   3     bf  262 -   262         18.401360455311         -2.743030739868         -0.815374250810
      0.1873113696D+02  0.3349460434D-01
      0.2825394365D+01  0.2347269535D+00
      0.6401216923D+00  0.8137573261D+00
 Atom H34      Shell    98 S   1     bf  263 -   263         18.401360455311         -2.743030739868         -0.815374250810
      0.1612777588D+00  0.1000000000D+01
 Atom C35      Shell    99 S   6     bf  264 -   264          6.861788737416          1.631800871207         -1.394747256721
      0.3047524880D+04  0.1834737132D-02
      0.4573695180D+03  0.1403732281D-01
      0.1039486850D+03  0.6884262226D-01
      0.2921015530D+02  0.2321844432D+00
      0.9286662960D+01  0.4679413484D+00
      0.3163926960D+01  0.3623119853D+00
 Atom C35      Shell   100 SP   3    bf  265 -   268          6.861788737416          1.631800871207         -1.394747256721
      0.7868272350D+01 -0.1193324198D+00  0.6899906659D-01
      0.1881288540D+01 -0.1608541517D+00  0.3164239610D+00
      0.5442492580D+00  0.1143456438D+01  0.7443082909D+00
 Atom C35      Shell   101 SP   1    bf  269 -   272          6.861788737416          1.631800871207         -1.394747256721
      0.1687144782D+00  0.1000000000D+01  0.1000000000D+01
 Atom C35      Shell   102 D   1     bf  273 -   278          6.861788737416          1.631800871207         -1.394747256721
      0.8000000000D+00  0.1000000000D+01
 Atom C36      Shell   103 S   6     bf  279 -   279          6.687104192240         -1.332927133955          2.299648775960
      0.3047524880D+04  0.1834737132D-02
      0.4573695180D+03  0.1403732281D-01
      0.1039486850D+03  0.6884262226D-01
      0.2921015530D+02  0.2321844432D+00
      0.9286662960D+01  0.4679413484D+00
      0.3163926960D+01  0.3623119853D+00
 Atom C36      Shell   104 SP   3    bf  280 -   283          6.687104192240         -1.332927133955          2.299648775960
      0.7868272350D+01 -0.1193324198D+00  0.6899906659D-01
      0.1881288540D+01 -0.1608541517D+00  0.3164239610D+00
      0.5442492580D+00  0.1143456438D+01  0.7443082909D+00
 Atom C36      Shell   105 SP   1    bf  284 -   287          6.687104192240         -1.332927133955          2.299648775960
      0.1687144782D+00  0.1000000000D+01  0.1000000000D+01
 Atom C36      Shell   106 D   1     bf  288 -   293          6.687104192240         -1.332927133955          2.299648775960
      0.8000000000D+00  0.1000000000D+01
 Atom H37      Shell   107 S   3     bf  294 -   294          6.782598365420          0.164182713446          3.735689836808
      0.1873113696D+02  0.3349460434D-01
      0.2825394365D+01  0.2347269535D+00
      0.6401216923D+00  0.8137573261D+00
 Atom H37      Shell   108 S   1     bf  295 -   295          6.782598365420          0.164182713446          3.735689836808
      0.1612777588D+00  0.1000000000D+01
 Atom H38      Shell   109 S   3     bf  296 -   296          7.546986142206         -3.012878510486          3.149389170483
      0.1873113696D+02  0.3349460434D-01
      0.2825394365D+01  0.2347269535D+00
      0.6401216923D+00  0.8137573261D+00
 Atom H38      Shell   110 S   1     bf  297 -   297          7.546986142206         -3.012878510486          3.149389170483
      0.1612777588D+00  0.1000000000D+01
 Atom C39      Shell   111 S   6     bf  298 -   298          7.965048591625          3.781843033891         -2.171817571400
      0.3047524880D+04  0.1834737132D-02
      0.4573695180D+03  0.1403732281D-01
      0.1039486850D+03  0.6884262226D-01
      0.2921015530D+02  0.2321844432D+00
      0.9286662960D+01  0.4679413484D+00
      0.3163926960D+01  0.3623119853D+00
 Atom C39      Shell   112 SP   3    bf  299 -   302          7.965048591625          3.781843033891         -2.171817571400
      0.7868272350D+01 -0.1193324198D+00  0.6899906659D-01
      0.1881288540D+01 -0.1608541517D+00  0.3164239610D+00
      0.5442492580D+00  0.1143456438D+01  0.7443082909D+00
 Atom C39      Shell   113 SP   1    bf  303 -   306          7.965048591625          3.781843033891         -2.171817571400
      0.1687144782D+00  0.1000000000D+01  0.1000000000D+01
 Atom C39      Shell   114 D   1     bf  307 -   312          7.965048591625          3.781843033891         -2.171817571400
      0.8000000000D+00  0.1000000000D+01
[...]
 **** Fit      -0.001250
 **** Fit      -0.001506
 **** Fit      -0.001756
 **** Fit      -0.001966
 **** Fit      -0.002109
 **** Fit      -0.000660
 **** Fit      -0.000871
 **** Fit      -0.000121
 **** Fit      -0.000326
 **** Fit      -0.000582
 **** Fit      -0.000857
 **** Fit      -0.001105
 **** Fit      -0.001280
 **** Fit       0.000237
 **** Fit       0.000095
 **** Fit      -0.000133
 **** Fit      -0.000441
 **** Fit      -0.000793
 **** Fit      -0.001126
 **** Fit      -0.001371
 **** Fit      -0.001480
 **** Fit       0.000529
 **** Fit       0.000487
 **** Fit       0.000358
 **** Fit       0.000113
 **** Fit      -0.000249
 **** Fit      -0.000686
 **** Fit      -0.001115
 **** Fit      -0.001443
 **** Fit      -0.001601
 **** Fit      -0.001572
 **** Fit      -0.001384
 **** Fit      -0.001097
 **** Fit      -0.000776
 **** Fit       0.000703
 **** Fit       0.000753
 **** Fit       0.000743
 **** Fit       0.000630
 **** Fit       0.000373
 **** Fit      -0.000037
 **** Fit      -0.000556
 **** Fit      -0.001082
 **** Fit      -0.001494
 **** Fit      -0.001707
 **** Fit      -0.001696
 **** Fit      -0.001495
 **** Fit      -0.001178
 **** Fit      -0.000820
 **** Fit      -0.000483
 **** Fit       0.000873
 **** Fit       0.000951
 **** Fit       0.000965
 **** Fit       0.000863
 **** Fit       0.000595
 **** Fit       0.000144
 **** Fit      -0.000442
 **** Fit      -0.001047
 **** Fit      -0.001532
 **** Fit      -0.001794
 **** Fit      -0.001803
 **** Fit      -0.001599
 **** Fit      -0.001260
 **** Fit      -0.000872
 **** Fit      -0.000506
 **** Fit       0.001008
 **** Fit       0.001099
 **** Fit       0.001120
 **** Fit       0.001017
 **** Fit       0.000734
 **** Fit       0.000253
 **** Fit      -0.000377
 **** Fit      -0.001032
 **** Fit      -0.001564
 **** Fit      -0.001863
 **** Fit      -0.001894
 **** Fit      -0.001694
 **** Fit      -0.001344
 **** Fit      -0.000935
 **** Fit      -0.000543
 **** Fit       0.001103
 **** Fit       0.001192
 **** Fit       0.001205
 **** Fit       0.001087
 **** Fit       0.000785
 **** Fit       0.000284
 **** Fit      -0.000366
 **** Fit      -0.001042
 **** Fit      -0.001599
 **** Fit      -0.001925
 **** Fit      -0.001978
 **** Fit      -0.001790
 **** Fit      -0.001436
 **** Fit      -0.001010
 **** Fit      -0.000593
 **** Fit       0.001164
 **** Fit       0.001245
 **** Fit       0.001245
 **** Fit       0.001109
 **** Fit       0.000791
 **** Fit       0.000280
 **** Fit      -0.000377
 **** Fit      -0.001064
 **** Fit      -0.001642
 **** Fit      -0.001997
 **** Fit      -0.002078
 **** Fit      -0.001905
 **** Fit      -0.001547
 **** Fit      -0.001101
 **** Fit      -0.000654
 **** Fit       0.001284
 **** Fit       0.001279
 **** Fit       0.001141
 **** Fit       0.000824
 **** Fit       0.000313
 **** Fit      -0.000352
 **** Fit      -0.001067
 **** Fit      -0.001691
 **** Fit      -0.002099
 **** Fit      -0.002222
 **** Fit      -0.002063
 **** Fit      -0.001692
 **** Fit      -0.001211
 **** Fit      -0.000725
 **** Fit      -0.000308
 **** Fit       0.000005
 **** Fit       0.001330
 **** Fit       0.001345
 **** Fit       0.001235
 **** Fit       0.000950
 **** Fit       0.000456
 **** Fit      -0.000226
 **** Fit      -0.001005
 **** Fit      -0.001728
 **** Fit      -0.002235
 **** Fit      -0.002423
 **** Fit      -0.002280
 **** Fit      -0.001880
 **** Fit      -0.001348
 **** Fit      -0.000808
 **** Fit      -0.000351
 **** Fit      -0.000015
 **** Fit       0.000202
 **** Fit       0.001388
 **** Fit       0.001453
 **** Fit       0.001413
 **** Fit       0.001203
 **** Fit       0.000758
 **** Fit       0.000058
 **** Fit      -0.000825
 **** Fit      -0.001710
 **** Fit      -0.002376
 **** Fit      -0.002664
 **** Fit      -0.002545
 **** Fit      -0.002108
 **** Fit      -0.001512
 **** Fit      -0.000911
 **** Fit      -0.000411
 **** Fit      -0.000052
 **** Fit       0.000173
 **** Fit       0.001277
 **** Fit       0.001441
 **** Fit       0.001579
 **** Fit       0.001644
 **** Fit       0.001555
 **** Fit       0.001204
 **** Fit       0.000507
 **** Fit      -0.000500
 **** Fit      -0.001597
 **** Fit      -0.002475
 **** Fit      -0.002899
 **** Fit      -0.002821
 **** Fit      -0.002356
 **** Fit      -0.001701
 **** Fit      -0.001044
 **** Fit      -0.000504
 **** Fit      -0.000124
 **** Fit       0.000110
 **** Fit       0.000233
 **** Fit       0.001248
 **** Fit       0.001455
 **** Fit       0.001668
 **** Fit       0.001846
 **** Fit       0.001896
 **** Fit       0.001667
 **** Fit       0.001002
 **** Fit      -0.000107
 **** Fit      -0.001411
 **** Fit      -0.002505
 **** Fit      -0.003077
 **** Fit      -0.003060
 **** Fit      -0.002594
 **** Fit      -0.001907
 **** Fit      -0.001214
 **** Fit      -0.000647
 **** Fit      -0.000247
 **** Fit       0.000000
 **** Fit       0.000135
 **** Fit       0.001160
 **** Fit       0.001390
 **** Fit       0.001648
 **** Fit       0.001901
 **** Fit       0.002051
 **** Fit       0.001919
 **** Fit       0.001301
 **** Fit       0.000150
 **** Fit      -0.001271
 **** Fit      -0.002498
 **** Fit      -0.003175
 **** Fit      -0.003221
 **** Fit      -0.002787
 **** Fit      -0.002112
 **** Fit      -0.001418
 **** Fit      -0.000840
 **** Fit      -0.000424
 **** Fit      -0.000158
 **** Fit      -0.000004
 **** Fit       0.001005
 **** Fit       0.001223
 **** Fit       0.001475
 **** Fit       0.001727
 **** Fit       0.001885
 **** Fit       0.001772
 **** Fit       0.001185
 **** Fit       0.000074
 **** Fit      -0.001309
 **** Fit      -0.002514
 **** Fit      -0.003198
 **** Fit      -0.003283
 **** Fit      -0.002906
 **** Fit      -0.002286
 **** Fit      -0.001628
 **** Fit      -0.001062
 **** Fit      -0.000638
 **** Fit      -0.000352
 **** Fit      -0.000173
 **** Fit       0.000790
 **** Fit       0.000964
 **** Fit       0.001157
 **** Fit       0.001334
 **** Fit       0.001410
 **** Fit       0.001238
 **** Fit       0.000664
 **** Fit      -0.000332
 **** Fit      -0.001530
 **** Fit      -0.002564
 **** Fit      -0.003157
 **** Fit      -0.003244
 **** Fit      -0.002931
 **** Fit      -0.002395
 **** Fit      -0.001805
 **** Fit      -0.001274
 **** Fit      -0.000856
 **** Fit      -0.000556
 **** Fit       0.000539
 **** Fit       0.000648
 **** Fit       0.000754
 **** Fit       0.000820
 **** Fit       0.000777
 **** Fit       0.000524
 **** Fit      -0.000029
 **** Fit      -0.000864
 **** Fit      -0.001807
 **** Fit      -0.002600
 **** Fit      -0.003051
 **** Fit      -0.003114
 **** Fit      -0.002862
 **** Fit      -0.002419
 **** Fit      -0.001913
 **** Fit      -0.001437
 **** Fit      -0.001042
 **** Fit      -0.000740
 **** Fit       0.000325
 **** Fit       0.000344
 **** Fit       0.000309
 **** Fit       0.000167
 **** Fit      -0.000138
 **** Fit      -0.000642
 **** Fit      -0.001305
 **** Fit      -0.002002
 **** Fit      -0.002566
 **** Fit      -0.002879
 **** Fit      -0.002913
 **** Fit      -0.002711
 **** Fit      -0.002358
 **** Fit      -0.001941
 **** Fit      -0.001531
 **** Fit      -0.001173
 **** Fit       0.000035
 **** Fit      -0.000010
 **** Fit      -0.000114
 **** Fit      -0.000309
 **** Fit      -0.000620
 **** Fit      -0.001051
 **** Fit      -0.001559
 **** Fit      -0.002057
 **** Fit      -0.002444
 **** Fit      -0.002652
 **** Fit      -0.002663
 **** Fit      -0.002504
 **** Fit      -0.002228
 **** Fit      -0.001893
 **** Fit      -0.000281
 **** Fit      -0.000418
 **** Fit      -0.000623
 **** Fit      -0.000907
 **** Fit      -0.001257
 **** Fit      -0.001637
 **** Fit      -0.001989
 **** Fit      -0.002252
 **** Fit      -0.002389
 **** Fit      -0.002387
 **** Fit      -0.000799
 **** Fit      -0.001038
 **** Fit      -0.001312
 **** Fit      -0.001592
 **** Fit      -0.001841
 **** Fit      -0.002022
 **** Fit      -0.000165
 **** Fit      -0.000391
 **** Fit      -0.000636
 **** Fit      -0.000864
 **** Fit       0.000177
 **** Fit      -0.000020
 **** Fit      -0.000282
 **** Fit      -0.000578
 **** Fit      -0.000860
 **** Fit      -0.001078
 **** Fit       0.000469
 **** Fit       0.000343
 **** Fit       0.000131
 **** Fit      -0.000165
 **** Fit      -0.000509
 **** Fit      -0.000846
 **** Fit      -0.001112
 **** Fit      -0.001260
 **** Fit       0.000616
 **** Fit       0.000490
 **** Fit       0.000263
 **** Fit      -0.000061
 **** Fit      -0.000447
 **** Fit      -0.000831
 **** Fit      -0.001140
 **** Fit      -0.001319
 **** Fit       0.000731
 **** Fit       0.000600
 **** Fit       0.000360
 **** Fit       0.000013
 **** Fit      -0.000404
 **** Fit      -0.000823
 **** Fit      -0.001166
 **** Fit      -0.001372
 **** Fit       0.000809
 **** Fit       0.000672
 **** Fit       0.000420
 **** Fit       0.000056
 **** Fit      -0.000383
 **** Fit      -0.000826
 **** Fit      -0.001195
 **** Fit      -0.001425
 **** Fit       0.000863
 **** Fit       0.000721
 **** Fit       0.000461
 **** Fit       0.000085
 **** Fit      -0.000369
 **** Fit      -0.000834
 **** Fit      -0.001229
 **** Fit      -0.001486
 **** Fit       0.000771
 **** Fit       0.000512
 **** Fit       0.000131
 **** Fit      -0.000339
 **** Fit      -0.000833
 **** Fit      -0.001266
 **** Fit      -0.001563
 **** Fit      -0.001675
 **** Fit       0.000845
 **** Fit       0.000599
 **** Fit       0.000221
 **** Fit      -0.000269
 **** Fit      -0.000806
 **** Fit      -0.001299
 **** Fit      -0.001653
 **** Fit      -0.001807
 **** Fit      -0.001749
 **** Fit      -0.001517
 **** Fit      -0.001181
 **** Fit      -0.000816
 **** Fit       0.001035
 **** Fit       0.000947
 **** Fit       0.000733
 **** Fit       0.000368
 **** Fit      -0.000142
 **** Fit      -0.000738
 **** Fit      -0.001313
 **** Fit      -0.001747
 **** Fit      -0.001956
 **** Fit      -0.001919
 **** Fit      -0.001677
 **** Fit      -0.001313
 **** Fit      -0.000917
 **** Fit      -0.000557
 **** Fit       0.001059
 **** Fit       0.001099
 **** Fit       0.001059
 **** Fit       0.000892
 **** Fit       0.000553
 **** Fit       0.000029
 **** Fit      -0.000629
 **** Fit      -0.001299
 **** Fit      -0.001828
 **** Fit      -0.002103
 **** Fit      -0.002093
 **** Fit      -0.001847
 **** Fit      -0.001461
 **** Fit      -0.001037
 **** Fit      -0.000653
 **** Fit      -0.000349
 **** Fit       0.001052
 **** Fit       0.001128
 **** Fit       0.001137
 **** Fit       0.001021
 **** Fit       0.000718
 **** Fit       0.000192
 **** Fit      -0.000515
 **** Fit      -0.001268
 **** Fit      -0.001884
 **** Fit      -0.002225
 **** Fit      -0.002248
 **** Fit      -0.002008
 **** Fit      -0.001612
 **** Fit      -0.001172
 **** Fit      -0.000772
 **** Fit      -0.000455
 **** Fit       0.000989
 **** Fit       0.001087
 **** Fit       0.001128
 **** Fit       0.001050
 **** Fit       0.000779
 **** Fit       0.000264
 **** Fit      -0.000462
 **** Fit      -0.001257
 **** Fit      -0.001923
 **** Fit      -0.002307
 **** Fit      -0.002361
 **** Fit      -0.002139
 **** Fit      -0.001752
 **** Fit      -0.001314
 **** Fit      -0.000911
 **** Fit      -0.000585
 **** Fit       0.000861
 **** Fit       0.000956
 **** Fit       0.000998
 **** Fit       0.000928
 **** Fit       0.000672
 **** Fit       0.000177
 **** Fit      -0.000526
 **** Fit      -0.001301
 **** Fit      -0.001957
 **** Fit      -0.002345
 **** Fit      -0.002417
 **** Fit      -0.002223
 **** Fit      -0.001864
 **** Fit      -0.001447
 **** Fit      -0.001054
 **** Fit      -0.000729
 **** Fit       0.000672
 **** Fit       0.000739
 **** Fit       0.000754
 **** Fit       0.000663
 **** Fit       0.000403
 **** Fit      -0.000063
 **** Fit      -0.000704
 **** Fit      -0.001400
 **** Fit      -0.001988
 **** Fit      -0.002339
 **** Fit      -0.002413
 **** Fit      -0.002249
 **** Fit      -0.001932
 **** Fit      -0.001553
 **** Fit      -0.001184
 **** Fit      -0.000868
 **** Fit       0.000444
 **** Fit       0.000469
 **** Fit       0.000439
 **** Fit       0.000313
 **** Fit       0.000047
 **** Fit      -0.000381
 **** Fit      -0.000935
 **** Fit      -0.001517
 **** Fit      -0.002001
 **** Fit      -0.002291
 **** Fit      -0.002353
 **** Fit      -0.002217
 **** Fit      -0.001947
 **** Fit      -0.001615
 **** Fit      -0.001282
 **** Fit       0.000188
 **** Fit       0.000115
 **** Fit      -0.000041
 **** Fit      -0.000306
 **** Fit      -0.000685
 **** Fit      -0.001142
 **** Fit      -0.001603
 **** Fit      -0.001978
 **** Fit      -0.002200
 **** Fit      -0.002245
 **** Fit      -0.002133
 **** Fit      -0.001909
 **** Fit      -0.000170
 **** Fit      -0.000340
 **** Fit      -0.000590
 **** Fit      -0.000913
 **** Fit      -0.001278
 **** Fit      -0.001630
 **** Fit      -0.001909
 **** Fit      -0.002071
 **** Fit      -0.002100
 **** Fit      -0.000558
 **** Fit      -0.000781
 **** Fit      -0.001047
 **** Fit      -0.001331
 **** Fit      -0.001595
 **** Fit      -0.001799
 **** Fit      -0.000142
 **** Fit      -0.000406
 **** Fit      -0.000091
 **** Fit      -0.000378
 **** Fit       0.000067
 **** Fit      -0.000284
 **** Fit      -0.000658
 **** Fit      -0.000998
 **** Fit      -0.001248
 **** Fit       0.000613
 **** Fit       0.000423
 **** Fit       0.000138
 **** Fit      -0.000228
 **** Fit      -0.000635
 **** Fit      -0.001019
 **** Fit      -0.001312
 **** Fit      -0.001467
 **** Fit       0.000663
 **** Fit       0.000492
 **** Fit       0.000214
 **** Fit      -0.000164
 **** Fit      -0.000603
 **** Fit      -0.001032
 **** Fit      -0.001372
 **** Fit      -0.001562
 **** Fit      -0.001581
 **** Fit       0.000742
 **** Fit       0.000684
 **** Fit       0.000534
 **** Fit       0.000268
 **** Fit      -0.000115
 **** Fit      -0.000578
 **** Fit      -0.001044
 **** Fit      -0.001424
 **** Fit      -0.001645
 **** Fit      -0.001684
 **** Fit      -0.001562
 **** Fit      -0.001330
 **** Fit       0.000696
 **** Fit       0.000653
 **** Fit       0.000519
 **** Fit       0.000265
 **** Fit      -0.000115
 **** Fit      -0.000585
 **** Fit      -0.001068
 **** Fit      -0.001468
 **** Fit      -0.001709
 **** Fit      -0.001765
 **** Fit      -0.001654
 **** Fit      -0.001429
 **** Fit       0.000594
 **** Fit       0.000554
 **** Fit       0.000426
 **** Fit       0.000183
 **** Fit      -0.000184
 **** Fit      -0.000640
 **** Fit      -0.001112
 **** Fit      -0.001506
 **** Fit      -0.001750
 **** Fit      -0.001815
 **** Fit      -0.001718
 **** Fit      -0.001508
 **** Fit       0.000442
 **** Fit       0.000391
 **** Fit       0.000261
 **** Fit       0.000025
 **** Fit      -0.000319
 **** Fit      -0.000742
 **** Fit      -0.001176
 **** Fit      -0.001538
 **** Fit      -0.001765
 **** Fit      -0.001830
 **** Fit       0.000188
 **** Fit       0.000050
 **** Fit      -0.000177
 **** Fit      -0.000493
 **** Fit      -0.000867
 **** Fit      -0.001244
 **** Fit      -0.001557
 **** Fit      -0.001752
 **** Fit      -0.001810
 **** Fit      -0.000025
 **** Fit      -0.000170
 **** Fit      -0.000384
 **** Fit      -0.000664
 **** Fit      -0.000983
 **** Fit      -0.001296
 **** Fit      -0.001552
 **** Fit      -0.001711
 **** Fit      -0.000562
 **** Fit      -0.000803
 **** Fit      -0.001066
 **** Fit      -0.001318
 **** Fit      -0.001519
 **** Fit       0.000025
 **** Fit      -0.000247
 **** Fit      -0.000548
 **** Fit      -0.000834
 **** Fit       0.000247
 **** Fit       0.000034
 **** Fit      -0.000242
 **** Fit      -0.000554
 **** Fit      -0.000858
 **** Fit      -0.001105
 **** Fit       0.000217
 **** Fit       0.000010
 **** Fit      -0.000264
 **** Fit      -0.000579
 **** Fit      -0.000890
 **** Fit      -0.001146
 **** Fit       0.000145
 **** Fit      -0.000055
 **** Fit      -0.000320
 **** Fit      -0.000627
 **** Fit      -0.000931
 **** Fit      -0.001184
 **** Fit       0.000034
 **** Fit      -0.000158
 **** Fit      -0.000409
 **** Fit      -0.000696
 **** Fit      -0.000980
 **** Fit      -0.001217
 **** Fit      -0.000285
 **** Fit      -0.000516
 **** Fit      -0.000775
 **** Fit      -0.001029
 -----------------------------------------------------------------
 Leave Link  602 at Wed May 17 12:04:10 2017, MaxMem=   33554432 cpu:      95.8
 (Enter /scratch/michal/g09/l9999.exe)

 Test job not archived.
 1\1\GINC-RZEPICHA\SP\RHF\6-31G(d)\C27H46O2\MICHAL\17-May-2017\0\\#P HF
 /6-31G* SCF(Conver=6) NoSymm Test Pop=chelpg IOp(6/33=2) GFInput GFPri
 nt\\MEP - Input generated by R.E.D.-III.x MOLECULE\\0,1\O,0,5.76902009
 ,3.43983044,0.\H,0,5.13190987,3.28456817,0.71006014\O,0,0.,0.,0.\H,0,-
 0.08344456,-0.74500741,-0.61169824\C,0,8.81846279,0.3612785,0.38314156
 \C,0,7.89812991,1.53577846,-0.05116782\H,0,7.72034594,2.12243526,0.861
 43408\C,0,6.51178968,1.12259549,-0.5605467\H,0,6.62730943,0.53636687,-
 1.48373979\C,0,5.77691266,0.26303225,0.49900824\H,0,5.55421946,0.94350
 026,1.33776132\C,0,10.10213934,1.16341323,0.79408286\H,0,9.86674919,1.
 64185074,1.75813675\C,0,8.0770263,-0.37501027,1.51776501\H,0,7.9762864
 7,0.30952478,2.37234807\H,0,8.63974248,-1.2418641,1.87842335\C,0,4.387
 86724,-0.25710175,-0.01270333\C,0,8.78611286,2.40648468,-0.95041889\H,
 0,8.43299998,3.44048819,-0.9951327\H,0,8.79759668,2.02429342,-1.979227
 55\C,0,6.68003775,-0.85420629,1.07300732\H,0,6.80818626,-1.64706685,0.
 32881483\H,0,6.18423453,-1.32405055,1.93032928\C,0,10.18984072,2.28870
 727,-0.29537342\H,0,10.95364084,2.03889964,-1.04139731\H,0,10.49345995
 ,3.24126562,0.1483821\C,0,5.6605713,2.35068844,-0.94682516\H,0,6.06544
 631,2.77679671,-1.87196167\C,0,11.44845973,0.41705588,0.97905323\H,0,1
 1.72712768,0.,0.\C,0,9.13931208,-0.60387775,-0.78157044\H,0,8.23741335
 ,-1.01558006,-1.24193377\H,0,9.70857329,-0.11056934,-1.57517231\H,0,9.
 73758056,-1.45154935,-0.43147747\C,0,3.63110221,0.86351183,-0.73806846
 \C,0,3.53866313,-0.70535466,1.21692172\H,0,3.58919647,0.08688175,1.976
 84192\H,0,3.99369306,-1.59434664,1.66658497\C,0,4.21492218,2.00126514,
 -1.14927636\H,0,3.60869569,2.76323748,-1.6383625\C,0,4.55023466,-1.449
 98127,-0.99391678\H,0,4.91725103,-2.34223861,-0.47793227\H,0,3.6000784
 5,-1.71759047,-1.46273929\H,0,5.24979417,-1.20791658,-1.79966292\C,0,2
 .15314589,0.63553228,-0.99724034\H,0,1.70043081,1.53596104,-1.42383731
 \H,0,2.02485785,-0.16532901,-1.74289743\C,0,2.05939069,-0.99036589,0.9
 1563003\H,0,1.9631391,-1.85633889,0.2441439\H,0,1.53184212,-1.25068269
 ,1.84024507\C,0,12.57762727,1.40727869,1.40260557\H,0,12.2353891,2.438
 74129,1.27054935\H,0,12.76277218,1.30023771,2.479986\C,0,1.38713639,0.
 21993758,0.26799699\H,0,1.39294265,1.05630491,0.97785182\C,0,11.367967
 54,-0.75001224,1.98036507\H,0,10.97637695,-0.40875796,2.94679153\H,0,1
 2.35917269,-1.17632214,2.16191268\H,0,10.72606713,-1.56121656,1.627693
 25\C,0,13.90296328,1.2711574,0.62470068\H,0,13.68322316,1.39105126,-0.
 44524233\H,0,14.54947099,2.11814147,0.88815915\C,0,14.68854764,-0.0412
 6167,0.8053901\H,0,15.52126659,-0.04566706,0.08641013\H,0,14.0491828,-
 0.88797099,0.52096577\C,0,15.27246915,-0.31061225,2.20909935\H,0,14.45
 229912,-0.27288164,2.94016658\C,0,16.31497135,0.74076067,2.62308661\H,
 0,17.15281809,0.75810791,1.91383513\H,0,16.72438734,0.51547659,3.61441
 533\H,0,15.89214829,1.74957638,2.66428436\C,0,15.88039619,-1.72132974,
 2.26947728\H,0,16.70869359,-1.82055682,1.55607187\H,0,16.2740548,-1.94
 352036,3.26792653\H,0,15.1371738,-2.48859712,2.02342694\\Version=EM64L
 -G09RevC.01\HF=-1198.921925\RMSD=4.856e-07\Dipole=0.0743703,-0.967349,
 -0.1319036\Quadrupole=-5.7117788,-0.8484031,6.560182,-7.2365838,1.0292
 865,1.6435005\PG=C01 [X(C27H46O2)]\\@


 EDUCATION WITHOUT COMMON SENSE IS A LOAD OF BOOKS ON THE BACK OF AN ASS.
 Job cpu time:  0 days  0 hours 41 minutes 56.4 seconds.
 File lengths (MBytes):  RWF=    151 Int=      0 D2E=      0 Chk=     11 Scr=      1
 Normal termination of Gaussian 09 at Wed May 17 12:04:10 2017.
