 Entering Gaussian System, Link 0=/scratch/michal/g09//g09
 Input=JOB2-gau_m1-20-1.com
 Output=JOB2-gau_m1-20-1.log
 Initial command:
 /scratch/michal/g09/l1.exe /scratch/michal/gauss_scratch/Gau-33759.inp -scrdir=/scratch/michal/gauss_scratch/
 Entering Link 1 = /scratch/michal/g09/l1.exe PID=     33761.
  
 Copyright (c) 1988,1990,1992,1993,1995,1998,2003,2009,2011,
            Gaussian, Inc.  All Rights Reserved.
  
 This is part of the Gaussian(R) 09 program.  It is based on
 the Gaussian(R) 03 system (copyright 2003, Gaussian, Inc.),
 the Gaussian(R) 98 system (copyright 1998, Gaussian, Inc.),
 the Gaussian(R) 94 system (copyright 1995, Gaussian, Inc.),
 the Gaussian 92(TM) system (copyright 1992, Gaussian, Inc.),
 the Gaussian 90(TM) system (copyright 1990, Gaussian, Inc.),
 the Gaussian 88(TM) system (copyright 1988, Gaussian, Inc.),
 the Gaussian 86(TM) system (copyright 1986, Carnegie Mellon
 University), and the Gaussian 82(TM) system (copyright 1983,
 Carnegie Mellon University). Gaussian is a federally registered
 trademark of Gaussian, Inc.
  
 This software contains proprietary and confidential information,
 including trade secrets, belonging to Gaussian, Inc.
  
 This software is provided under written license and may be
 used, copied, transmitted, or stored only in accord with that
 written license.
  
 The following legend is applicable only to US Government
 contracts under FAR:
  
                    RESTRICTED RIGHTS LEGEND
  
 Use, reproduction and disclosure by the US Government is
 subject to restrictions as set forth in subparagraphs (a)
 and (c) of the Commercial Computer Software - Restricted
 Rights clause in FAR 52.227-19.
  
 Gaussian, Inc.
 340 Quinnipiac St., Bldg. 40, Wallingford CT 06492
  
  
 ---------------------------------------------------------------
 Warning -- This program may not be used in any manner that
 competes with the business of Gaussian, Inc. or will provide
 assistance to any competitor of Gaussian, Inc.  The licensee
 of this program is prohibited from giving any competitor of
 Gaussian, Inc. access to this program.  By using this program,
 the user acknowledges that Gaussian, Inc. is engaged in the
 business of creating and licensing software in the field of
 computational chemistry and represents and warrants to the
 licensee that it is not a competitor of Gaussian, Inc. and that
 it will not use this program in any manner prohibited above.
 ---------------------------------------------------------------
  

 Cite this work as:
 Gaussian 09, Revision C.01,
 M. J. Frisch, G. W. Trucks, H. B. Schlegel, G. E. Scuseria, 
 M. A. Robb, J. R. Cheeseman, G. Scalmani, V. Barone, B. Mennucci, 
 G. A. Petersson, H. Nakatsuji, M. Caricato, X. Li, H. P. Hratchian, 
 A. F. Izmaylov, J. Bloino, G. Zheng, J. L. Sonnenberg, M. Hada, 
 M. Ehara, K. Toyota, R. Fukuda, J. Hasegawa, M. Ishida, T. Nakajima, 
 Y. Honda, O. Kitao, H. Nakai, T. Vreven, J. A. Montgomery, Jr., 
 J. E. Peralta, F. Ogliaro, M. Bearpark, J. J. Heyd, E. Brothers, 
 K. N. Kudin, V. N. Staroverov, T. Keith, R. Kobayashi, J. Normand, 
 K. Raghavachari, A. Rendell, J. C. Burant, S. S. Iyengar, J. Tomasi, 
 M. Cossi, N. Rega, J. M. Millam, M. Klene, J. E. Knox, J. B. Cross, 
 V. Bakken, C. Adamo, J. Jaramillo, R. Gomperts, R. E. Stratmann, 
 O. Yazyev, A. J. Austin, R. Cammi, C. Pomelli, J. W. Ochterski, 
 R. L. Martin, K. Morokuma, V. G. Zakrzewski, G. A. Voth, 
 P. Salvador, J. J. Dannenberg, S. Dapprich, A. D. Daniels, 
 O. Farkas, J. B. Foresman, J. V. Ortiz, J. Cioslowski, 
 and D. J. Fox, Gaussian, Inc., Wallingford CT, 2010.
 
 ******************************************
 Gaussian 09:  EM64L-G09RevC.01 23-Sep-2011
                17-May-2017 
 ******************************************
 %Mem=256MB
 %NProc=48
 Will use up to   48 processors via shared memory.
 ----------------------------------------------------------------------
 #P HF/6-31G* SCF(Conver=6) NoSymm Test Pop=chelpg IOp(6/33=2) GFInput 
 GFPrint
 ----------------------------------------------------------------------
 1/38=1/1;
 2/12=2,15=1,17=6,18=5,40=1/2;
 3/5=1,6=6,7=1,11=9,16=1,24=110,25=1,30=1/1,2,3;
 4//1;
 5/5=2,6=6,38=5/2;
 6/7=2,8=2,9=2,10=2,15=8,20=3,28=1,33=2/1,2;
 99/5=1,9=1/99;
 Leave Link    1 at Wed May 17 13:24:28 2017, MaxMem=   33554432 cpu:       3.8
 (Enter /scratch/michal/g09/l101.exe)
 ----------------------------------------------
 MEP - Input generated by R.E.D.-III.x MOLECULE
 ----------------------------------------------
 Charge =  0 Multiplicity = 1
 Symbolic Z-Matrix:
 O                     0.        0.        0. 
 H                     0.96655   0.        0. 
 O                     4.36118  -1.26632  -4.94689 
 H                     4.0875   -1.06994  -5.85392 
 C                    -1.23888   4.106    -0.72894 
 C                    -1.13703   2.5721   -0.50128 
 H                    -0.44058   2.44669   0.33994 
 C                    -0.53057   1.78167  -1.66696 
 H                    -1.19062   1.86763  -2.54234 
 C                     0.87038   2.33739  -2.02838 
 H                     1.52285   2.08682  -1.17536 
 C                    -1.91622   4.52895   0.6208 
 H                    -1.13287   4.43666   1.38743 
 C                     0.20077   4.60761  -0.96129 
 H                     0.7834    4.44008  -0.04399 
 H                     0.23083   5.68435  -1.15709 
 C                     1.49591   1.61643  -3.27358 
 C                    -2.52021   2.16574   0.02774 
 H                    -2.47438   1.24927   0.62255 
 H                    -3.21839   1.97928  -0.79841 
 C                     0.87648   3.88057  -2.14212 
 H                     0.37646   4.1866   -3.06684 
 H                     1.90902   4.23885  -2.22623 
 C                    -2.96764   3.39605   0.86554 
 H                    -3.96595   3.73184   0.56053 
 H                    -3.03831   3.15095   1.92976 
 C                    -0.44907   0.27383  -1.34833 
 H                    -1.46361  -0.14055  -1.36753 
 C                    -2.52962   5.94484   0.75578 
 H                    -3.32417   6.03022   0. 
 C                    -2.14678   4.47486  -1.92425 
 H                    -1.81585   4.01259  -2.85781 
 H                    -3.18316   4.16391  -1.76138 
 H                    -2.15334   5.55812  -2.08627 
 C                     1.28298   0.09985  -3.17672 
 C                     3.03084   1.89538  -3.29325 
 H                     3.4275    1.70759  -2.28575 
 H                     3.2033    2.95694  -3.50042 
 C                     0.41276  -0.46985  -2.3267 
 H                     0.33152  -1.55607  -2.29767 
 C                     0.86132   2.11374  -4.60099 
 H                     1.14062   3.15043  -4.81149 
 H                     1.18869   1.51331  -5.45336 
 H                    -0.23056   2.05339  -4.56527 
 C                     2.10562  -0.76839  -4.11101 
 H                     1.9468   -1.8267   -3.88195 
 H                     1.77227  -0.61743  -5.1502 
 C                     3.83243   1.0473   -4.29251 
 H                     3.54254   1.29248  -5.32493 
 H                     4.90092   1.27437  -4.20462 
 C                    -3.23751   6.15007   2.12316 
 H                    -3.71886   7.1388    2.10019 
 H                    -4.0534    5.42444   2.21499 
 C                     3.60638  -0.44516  -4.05228 
 H                     3.98854  -0.71077  -3.05888 
 C                    -1.52757   7.08473   0.49206 
 H                    -0.61386   6.97476   1.08655 
 H                    -1.97413   8.05346   0.7461 
 H                    -1.23026   7.13123  -0.55865 
 C                    -2.34383   6.07642   3.37312 
 H                    -1.92888   5.06671   3.48128 
 H                    -1.48093   6.74169   3.24392 
 C                    -3.05559   6.48791   4.67624 
 H                    -3.41953   7.51929   4.56118 
 H                    -2.31337   6.51798   5.48786 
 C                    -4.23415   5.60458   5.13848 
 H                    -4.9773    5.56782   4.32916 
 C                    -4.91881   6.23324   6.36286 
 H                    -4.22332   6.29739   7.20972 
 H                    -5.78107   5.63886   6.68611 
 H                    -5.2728    7.24768   6.14592 
 C                    -3.79983   4.16289   5.44692 
 H                    -3.0426    4.14654   6.24169 
 H                    -4.65069   3.5617    5.78712 
 H                    -3.37372   3.66278   4.57136 
 
 NAtoms=     75 NQM=        0 NQMF=       0 NMMI=     75 NMMIF=      0
                NMic=       0 NMicF=      0.
                    Isotopes and Nuclear Properties:
 (Nuclear quadrupole moments (NQMom) in fm**2, nuclear magnetic moments (NMagM)
  in nuclear magnetons)

  Atom         1           2           3           4           5           6           7           8           9          10
 IAtWgt=          16           1          16           1          12          12           1          12           1          12
 AtmWgt=  15.9949146   1.0078250  15.9949146   1.0078250  12.0000000  12.0000000   1.0078250  12.0000000   1.0078250  12.0000000
 NucSpn=           0           1           0           1           0           0           1           0           1           0
 AtZEff=   0.0000000   0.0000000   0.0000000   0.0000000   0.0000000   0.0000000   0.0000000   0.0000000   0.0000000   0.0000000
 NQMom=    0.0000000   0.0000000   0.0000000   0.0000000   0.0000000   0.0000000   0.0000000   0.0000000   0.0000000   0.0000000
 NMagM=    0.0000000   2.7928460   0.0000000   2.7928460   0.0000000   0.0000000   2.7928460   0.0000000   2.7928460   0.0000000

  Atom        11          12          13          14          15          16          17          18          19          20
 IAtWgt=           1          12           1          12           1           1          12          12           1           1
 AtmWgt=   1.0078250  12.0000000   1.0078250  12.0000000   1.0078250   1.0078250  12.0000000  12.0000000   1.0078250   1.0078250
 NucSpn=           1           0           1           0           1           1           0           0           1           1
 AtZEff=   0.0000000   0.0000000   0.0000000   0.0000000   0.0000000   0.0000000   0.0000000   0.0000000   0.0000000   0.0000000
 NQMom=    0.0000000   0.0000000   0.0000000   0.0000000   0.0000000   0.0000000   0.0000000   0.0000000   0.0000000   0.0000000
 NMagM=    2.7928460   0.0000000   2.7928460   0.0000000   2.7928460   2.7928460   0.0000000   0.0000000   2.7928460   2.7928460

  Atom        21          22          23          24          25          26          27          28          29          30
 IAtWgt=          12           1           1          12           1           1          12           1          12           1
 AtmWgt=  12.0000000   1.0078250   1.0078250  12.0000000   1.0078250   1.0078250  12.0000000   1.0078250  12.0000000   1.0078250
 NucSpn=           0           1           1           0           1           1           0           1           0           1
 AtZEff=   0.0000000   0.0000000   0.0000000   0.0000000   0.0000000   0.0000000   0.0000000   0.0000000   0.0000000   0.0000000
 NQMom=    0.0000000   0.0000000   0.0000000   0.0000000   0.0000000   0.0000000   0.0000000   0.0000000   0.0000000   0.0000000
 NMagM=    0.0000000   2.7928460   2.7928460   0.0000000   2.7928460   2.7928460   0.0000000   2.7928460   0.0000000   2.7928460

  Atom        31          32          33          34          35          36          37          38          39          40
 IAtWgt=          12           1           1           1          12          12           1           1          12           1
 AtmWgt=  12.0000000   1.0078250   1.0078250   1.0078250  12.0000000  12.0000000   1.0078250   1.0078250  12.0000000   1.0078250
 NucSpn=           0           1           1           1           0           0           1           1           0           1
 AtZEff=   0.0000000   0.0000000   0.0000000   0.0000000   0.0000000   0.0000000   0.0000000   0.0000000   0.0000000   0.0000000
 NQMom=    0.0000000   0.0000000   0.0000000   0.0000000   0.0000000   0.0000000   0.0000000   0.0000000   0.0000000   0.0000000
 NMagM=    0.0000000   2.7928460   2.7928460   2.7928460   0.0000000   0.0000000   2.7928460   2.7928460   0.0000000   2.7928460

  Atom        41          42          43          44          45          46          47          48          49          50
 IAtWgt=          12           1           1           1          12           1           1          12           1           1
 AtmWgt=  12.0000000   1.0078250   1.0078250   1.0078250  12.0000000   1.0078250   1.0078250  12.0000000   1.0078250   1.0078250
 NucSpn=           0           1           1           1           0           1           1           0           1           1
 AtZEff=   0.0000000   0.0000000   0.0000000   0.0000000   0.0000000   0.0000000   0.0000000   0.0000000   0.0000000   0.0000000
 NQMom=    0.0000000   0.0000000   0.0000000   0.0000000   0.0000000   0.0000000   0.0000000   0.0000000   0.0000000   0.0000000
 NMagM=    0.0000000   2.7928460   2.7928460   2.7928460   0.0000000   2.7928460   2.7928460   0.0000000   2.7928460   2.7928460

  Atom        51          52          53          54          55          56          57          58          59          60
 IAtWgt=          12           1           1          12           1          12           1           1           1          12
 AtmWgt=  12.0000000   1.0078250   1.0078250  12.0000000   1.0078250  12.0000000   1.0078250   1.0078250   1.0078250  12.0000000
 NucSpn=           0           1           1           0           1           0           1           1           1           0
 AtZEff=   0.0000000   0.0000000   0.0000000   0.0000000   0.0000000   0.0000000   0.0000000   0.0000000   0.0000000   0.0000000
 NQMom=    0.0000000   0.0000000   0.0000000   0.0000000   0.0000000   0.0000000   0.0000000   0.0000000   0.0000000   0.0000000
 NMagM=    0.0000000   2.7928460   2.7928460   0.0000000   2.7928460   0.0000000   2.7928460   2.7928460   2.7928460   0.0000000

  Atom        61          62          63          64          65          66          67          68          69          70
 IAtWgt=           1           1          12           1           1          12           1          12           1           1
 AtmWgt=   1.0078250   1.0078250  12.0000000   1.0078250   1.0078250  12.0000000   1.0078250  12.0000000   1.0078250   1.0078250
 NucSpn=           1           1           0           1           1           0           1           0           1           1
 AtZEff=   0.0000000   0.0000000   0.0000000   0.0000000   0.0000000   0.0000000   0.0000000   0.0000000   0.0000000   0.0000000
 NQMom=    0.0000000   0.0000000   0.0000000   0.0000000   0.0000000   0.0000000   0.0000000   0.0000000   0.0000000   0.0000000
 NMagM=    2.7928460   2.7928460   0.0000000   2.7928460   2.7928460   0.0000000   2.7928460   0.0000000   2.7928460   2.7928460

  Atom        71          72          73          74          75
 IAtWgt=           1          12           1           1           1
 AtmWgt=   1.0078250  12.0000000   1.0078250   1.0078250   1.0078250
 NucSpn=           1           0           1           1           1
 AtZEff=   0.0000000   0.0000000   0.0000000   0.0000000   0.0000000
 NQMom=    0.0000000   0.0000000   0.0000000   0.0000000   0.0000000
 NMagM=    2.7928460   0.0000000   2.7928460   2.7928460   2.7928460
 Leave Link  101 at Wed May 17 13:24:28 2017, MaxMem=   33554432 cpu:      11.5
 (Enter /scratch/michal/g09/l202.exe)
 Symmetry turned off by external request.
 Stoichiometry    C27H46O2
 Framework group  C1[X(C27H46O2)]
 Deg. of freedom   219
 Full point group                 C1      NOp   1
                          Input orientation:                          
 ---------------------------------------------------------------------
 Center     Atomic      Atomic             Coordinates (Angstroms)
 Number     Number       Type             X           Y           Z
 ---------------------------------------------------------------------
      1          8           0        0.000000    0.000000    0.000000
      2          1           0        0.966545    0.000000    0.000000
      3          8           0        4.361177   -1.266321   -4.946893
      4          1           0        4.087499   -1.069938   -5.853922
      5          6           0       -1.238878    4.106001   -0.728937
      6          6           0       -1.137033    2.572099   -0.501284
      7          1           0       -0.440581    2.446687    0.339939
      8          6           0       -0.530567    1.781666   -1.666962
      9          1           0       -1.190615    1.867632   -2.542339
     10          6           0        0.870380    2.337394   -2.028375
     11          1           0        1.522849    2.086816   -1.175362
     12          6           0       -1.916225    4.528952    0.620797
     13          1           0       -1.132868    4.436657    1.387429
     14          6           0        0.200773    4.607613   -0.961288
     15          1           0        0.783399    4.440077   -0.043991
     16          1           0        0.230826    5.684352   -1.157087
     17          6           0        1.495912    1.616431   -3.273581
     18          6           0       -2.520211    2.165742    0.027745
     19          1           0       -2.474379    1.249267    0.622551
     20          1           0       -3.218389    1.979277   -0.798413
     21          6           0        0.876480    3.880570   -2.142118
     22          1           0        0.376458    4.186605   -3.066837
     23          1           0        1.909022    4.238849   -2.226234
     24          6           0       -2.967637    3.396049    0.865542
     25          1           0       -3.965948    3.731842    0.560528
     26          1           0       -3.038307    3.150945    1.929761
     27          6           0       -0.449068    0.273828   -1.348329
     28          1           0       -1.463612   -0.140546   -1.367531
     29          6           0       -2.529617    5.944841    0.755779
     30          1           0       -3.324173    6.030216    0.000000
     31          6           0       -2.146776    4.474858   -1.924253
     32          1           0       -1.815847    4.012593   -2.857810
     33          1           0       -3.183162    4.163914   -1.761376
     34          1           0       -2.153345    5.558119   -2.086271
     35          6           0        1.282980    0.099849   -3.176720
     36          6           0        3.030841    1.895382   -3.293252
     37          1           0        3.427502    1.707589   -2.285749
     38          1           0        3.203298    2.956941   -3.500425
     39          6           0        0.412763   -0.469851   -2.326698
     40          1           0        0.331521   -1.556069   -2.297670
     41          6           0        0.861316    2.113738   -4.600989
     42          1           0        1.140622    3.150434   -4.811487
     43          1           0        1.188687    1.513307   -5.453360
     44          1           0       -0.230565    2.053394   -4.565268
     45          6           0        2.105625   -0.768387   -4.111011
     46          1           0        1.946800   -1.826699   -3.881953
     47          1           0        1.772267   -0.617434   -5.150203
     48          6           0        3.832426    1.047297   -4.292505
     49          1           0        3.542543    1.292484   -5.324933
     50          1           0        4.900920    1.274369   -4.204618
     51          6           0       -3.237506    6.150070    2.123158
     52          1           0       -3.718857    7.138801    2.100187
     53          1           0       -4.053396    5.424444    2.214992
     54          6           0        3.606377   -0.445161   -4.052277
     55          1           0        3.988540   -0.710770   -3.058885
     56          6           0       -1.527566    7.084735    0.492063
     57          1           0       -0.613858    6.974760    1.086554
     58          1           0       -1.974127    8.053455    0.746102
     59          1           0       -1.230255    7.131230   -0.558654
     60          6           0       -2.343827    6.076422    3.373117
     61          1           0       -1.928875    5.066713    3.481277
     62          1           0       -1.480929    6.741686    3.243921
     63          6           0       -3.055591    6.487912    4.676237
     64          1           0       -3.419529    7.519295    4.561175
     65          1           0       -2.313371    6.517982    5.487860
     66          6           0       -4.234151    5.604575    5.138478
     67          1           0       -4.977298    5.567815    4.329160
     68          6           0       -4.918807    6.233237    6.362862
     69          1           0       -4.223320    6.297392    7.209716
     70          1           0       -5.781070    5.638855    6.686111
     71          1           0       -5.272804    7.247676    6.145920
     72          6           0       -3.799835    4.162891    5.446924
     73          1           0       -3.042602    4.146542    6.241692
     74          1           0       -4.650691    3.561702    5.787120
     75          1           0       -3.373721    3.662776    4.571357
 ---------------------------------------------------------------------
 Rotational constants (GHZ):      0.4178527      0.0605664      0.0571255
 Leave Link  202 at Wed May 17 13:24:28 2017, MaxMem=   33554432 cpu:       0.2
 (Enter /scratch/michal/g09/l301.exe)
 Standard basis: 6-31G(d) (6D, 7F)
 Ernie: Thresh=  0.10000D-02 Tol=  0.10000D-05 Strict=F.
 AO basis set in the form of general basis input (Overlap normalization):
      1 0
 S   6 1.00       0.000000000000
      0.5484671660D+04  0.1831074430D-02
      0.8252349460D+03  0.1395017220D-01
      0.1880469580D+03  0.6844507810D-01
      0.5296450000D+02  0.2327143360D+00
      0.1689757040D+02  0.4701928980D+00
      0.5799635340D+01  0.3585208530D+00
 SP   3 1.00       0.000000000000
      0.1553961625D+02 -0.1107775495D+00  0.7087426823D-01
      0.3599933586D+01 -0.1480262627D+00  0.3397528391D+00
      0.1013761750D+01  0.1130767015D+01  0.7271585773D+00
 SP   1 1.00       0.000000000000
      0.2700058226D+00  0.1000000000D+01  0.1000000000D+01
 D   1 1.00       0.000000000000
      0.8000000000D+00  0.1000000000D+01
 ****
      2 0
 S   3 1.00       0.000000000000
      0.1873113696D+02  0.3349460434D-01
      0.2825394365D+01  0.2347269535D+00
      0.6401216923D+00  0.8137573261D+00
 S   1 1.00       0.000000000000
      0.1612777588D+00  0.1000000000D+01
 ****
      3 0
 S   6 1.00       0.000000000000
      0.5484671660D+04  0.1831074430D-02
      0.8252349460D+03  0.1395017220D-01
      0.1880469580D+03  0.6844507810D-01
      0.5296450000D+02  0.2327143360D+00
      0.1689757040D+02  0.4701928980D+00
      0.5799635340D+01  0.3585208530D+00
 SP   3 1.00       0.000000000000
      0.1553961625D+02 -0.1107775495D+00  0.7087426823D-01
      0.3599933586D+01 -0.1480262627D+00  0.3397528391D+00
      0.1013761750D+01  0.1130767015D+01  0.7271585773D+00
 SP   1 1.00       0.000000000000
      0.2700058226D+00  0.1000000000D+01  0.1000000000D+01
 D   1 1.00       0.000000000000
      0.8000000000D+00  0.1000000000D+01
 ****
      4 0
 S   3 1.00       0.000000000000
      0.1873113696D+02  0.3349460434D-01
      0.2825394365D+01  0.2347269535D+00
      0.6401216923D+00  0.8137573261D+00
 S   1 1.00       0.000000000000
      0.1612777588D+00  0.1000000000D+01
 ****
      5 0
 S   6 1.00       0.000000000000
      0.3047524880D+04  0.1834737132D-02
      0.4573695180D+03  0.1403732281D-01
      0.1039486850D+03  0.6884262226D-01
      0.2921015530D+02  0.2321844432D+00
      0.9286662960D+01  0.4679413484D+00
      0.3163926960D+01  0.3623119853D+00
 SP   3 1.00       0.000000000000
      0.7868272350D+01 -0.1193324198D+00  0.6899906659D-01
      0.1881288540D+01 -0.1608541517D+00  0.3164239610D+00
      0.5442492580D+00  0.1143456438D+01  0.7443082909D+00
 SP   1 1.00       0.000000000000
      0.1687144782D+00  0.1000000000D+01  0.1000000000D+01
 D   1 1.00       0.000000000000
      0.8000000000D+00  0.1000000000D+01
 ****
      6 0
 S   6 1.00       0.000000000000
      0.3047524880D+04  0.1834737132D-02
      0.4573695180D+03  0.1403732281D-01
      0.1039486850D+03  0.6884262226D-01
      0.2921015530D+02  0.2321844432D+00
      0.9286662960D+01  0.4679413484D+00
      0.3163926960D+01  0.3623119853D+00
 SP   3 1.00       0.000000000000
      0.7868272350D+01 -0.1193324198D+00  0.6899906659D-01
      0.1881288540D+01 -0.1608541517D+00  0.3164239610D+00
      0.5442492580D+00  0.1143456438D+01  0.7443082909D+00
 SP   1 1.00       0.000000000000
      0.1687144782D+00  0.1000000000D+01  0.1000000000D+01
 D   1 1.00       0.000000000000
      0.8000000000D+00  0.1000000000D+01
 ****
      7 0
 S   3 1.00       0.000000000000
      0.1873113696D+02  0.3349460434D-01
      0.2825394365D+01  0.2347269535D+00
      0.6401216923D+00  0.8137573261D+00
 S   1 1.00       0.000000000000
      0.1612777588D+00  0.1000000000D+01
 ****
      8 0
 S   6 1.00       0.000000000000
      0.3047524880D+04  0.1834737132D-02
      0.4573695180D+03  0.1403732281D-01
      0.1039486850D+03  0.6884262226D-01
      0.2921015530D+02  0.2321844432D+00
      0.9286662960D+01  0.4679413484D+00
      0.3163926960D+01  0.3623119853D+00
 SP   3 1.00       0.000000000000
      0.7868272350D+01 -0.1193324198D+00  0.6899906659D-01
      0.1881288540D+01 -0.1608541517D+00  0.3164239610D+00
      0.5442492580D+00  0.1143456438D+01  0.7443082909D+00
 SP   1 1.00       0.000000000000
      0.1687144782D+00  0.1000000000D+01  0.1000000000D+01
 D   1 1.00       0.000000000000
      0.8000000000D+00  0.1000000000D+01
 ****
      9 0
 S   3 1.00       0.000000000000
      0.1873113696D+02  0.3349460434D-01
      0.2825394365D+01  0.2347269535D+00
      0.6401216923D+00  0.8137573261D+00
 S   1 1.00       0.000000000000
      0.1612777588D+00  0.1000000000D+01
 ****
     10 0
 S   6 1.00       0.000000000000
      0.3047524880D+04  0.1834737132D-02
      0.4573695180D+03  0.1403732281D-01
      0.1039486850D+03  0.6884262226D-01
      0.2921015530D+02  0.2321844432D+00
      0.9286662960D+01  0.4679413484D+00
      0.3163926960D+01  0.3623119853D+00
 SP   3 1.00       0.000000000000
      0.7868272350D+01 -0.1193324198D+00  0.6899906659D-01
      0.1881288540D+01 -0.1608541517D+00  0.3164239610D+00
      0.5442492580D+00  0.1143456438D+01  0.7443082909D+00
 SP   1 1.00       0.000000000000
      0.1687144782D+00  0.1000000000D+01  0.1000000000D+01
 D   1 1.00       0.000000000000
      0.8000000000D+00  0.1000000000D+01
 ****
     11 0
 S   3 1.00       0.000000000000
      0.1873113696D+02  0.3349460434D-01
      0.2825394365D+01  0.2347269535D+00
      0.6401216923D+00  0.8137573261D+00
 S   1 1.00       0.000000000000
      0.1612777588D+00  0.1000000000D+01
 ****
     12 0
 S   6 1.00       0.000000000000
      0.3047524880D+04  0.1834737132D-02
      0.4573695180D+03  0.1403732281D-01
      0.1039486850D+03  0.6884262226D-01
      0.2921015530D+02  0.2321844432D+00
      0.9286662960D+01  0.4679413484D+00
      0.3163926960D+01  0.3623119853D+00
 SP   3 1.00       0.000000000000
      0.7868272350D+01 -0.1193324198D+00  0.6899906659D-01
      0.1881288540D+01 -0.1608541517D+00  0.3164239610D+00
      0.5442492580D+00  0.1143456438D+01  0.7443082909D+00
 SP   1 1.00       0.000000000000
      0.1687144782D+00  0.1000000000D+01  0.1000000000D+01
 D   1 1.00       0.000000000000
      0.8000000000D+00  0.1000000000D+01
 ****
     13 0
 S   3 1.00       0.000000000000
      0.1873113696D+02  0.3349460434D-01
      0.2825394365D+01  0.2347269535D+00
      0.6401216923D+00  0.8137573261D+00
 S   1 1.00       0.000000000000
      0.1612777588D+00  0.1000000000D+01
 ****
     14 0
 S   6 1.00       0.000000000000
      0.3047524880D+04  0.1834737132D-02
      0.4573695180D+03  0.1403732281D-01
      0.1039486850D+03  0.6884262226D-01
      0.2921015530D+02  0.2321844432D+00
      0.9286662960D+01  0.4679413484D+00
      0.3163926960D+01  0.3623119853D+00
 SP   3 1.00       0.000000000000
      0.7868272350D+01 -0.1193324198D+00  0.6899906659D-01
      0.1881288540D+01 -0.1608541517D+00  0.3164239610D+00
      0.5442492580D+00  0.1143456438D+01  0.7443082909D+00
 SP   1 1.00       0.000000000000
      0.1687144782D+00  0.1000000000D+01  0.1000000000D+01
 D   1 1.00       0.000000000000
      0.8000000000D+00  0.1000000000D+01
 ****
     15 0
 S   3 1.00       0.000000000000
      0.1873113696D+02  0.3349460434D-01
      0.2825394365D+01  0.2347269535D+00
      0.6401216923D+00  0.8137573261D+00
 S   1 1.00       0.000000000000
      0.1612777588D+00  0.1000000000D+01
 ****
     16 0
 S   3 1.00       0.000000000000
      0.1873113696D+02  0.3349460434D-01
      0.2825394365D+01  0.2347269535D+00
      0.6401216923D+00  0.8137573261D+00
 S   1 1.00       0.000000000000
      0.1612777588D+00  0.1000000000D+01
 ****
     17 0
 S   6 1.00       0.000000000000
      0.3047524880D+04  0.1834737132D-02
      0.4573695180D+03  0.1403732281D-01
      0.1039486850D+03  0.6884262226D-01
      0.2921015530D+02  0.2321844432D+00
      0.9286662960D+01  0.4679413484D+00
      0.3163926960D+01  0.3623119853D+00
 SP   3 1.00       0.000000000000
      0.7868272350D+01 -0.1193324198D+00  0.6899906659D-01
      0.1881288540D+01 -0.1608541517D+00  0.3164239610D+00
      0.5442492580D+00  0.1143456438D+01  0.7443082909D+00
 SP   1 1.00       0.000000000000
      0.1687144782D+00  0.1000000000D+01  0.1000000000D+01
 D   1 1.00       0.000000000000
      0.8000000000D+00  0.1000000000D+01
 ****
     18 0
 S   6 1.00       0.000000000000
      0.3047524880D+04  0.1834737132D-02
      0.4573695180D+03  0.1403732281D-01
      0.1039486850D+03  0.6884262226D-01
      0.2921015530D+02  0.2321844432D+00
      0.9286662960D+01  0.4679413484D+00
      0.3163926960D+01  0.3623119853D+00
 SP   3 1.00       0.000000000000
      0.7868272350D+01 -0.1193324198D+00  0.6899906659D-01
      0.1881288540D+01 -0.1608541517D+00  0.3164239610D+00
      0.5442492580D+00  0.1143456438D+01  0.7443082909D+00
 SP   1 1.00       0.000000000000
      0.1687144782D+00  0.1000000000D+01  0.1000000000D+01
 D   1 1.00       0.000000000000
      0.8000000000D+00  0.1000000000D+01
 ****
     19 0
 S   3 1.00       0.000000000000
      0.1873113696D+02  0.3349460434D-01
      0.2825394365D+01  0.2347269535D+00
      0.6401216923D+00  0.8137573261D+00
 S   1 1.00       0.000000000000
      0.1612777588D+00  0.1000000000D+01
 ****
     20 0
 S   3 1.00       0.000000000000
      0.1873113696D+02  0.3349460434D-01
      0.2825394365D+01  0.2347269535D+00
      0.6401216923D+00  0.8137573261D+00
 S   1 1.00       0.000000000000
      0.1612777588D+00  0.1000000000D+01
 ****
     21 0
 S   6 1.00       0.000000000000
      0.3047524880D+04  0.1834737132D-02
      0.4573695180D+03  0.1403732281D-01
      0.1039486850D+03  0.6884262226D-01
      0.2921015530D+02  0.2321844432D+00
      0.9286662960D+01  0.4679413484D+00
      0.3163926960D+01  0.3623119853D+00
 SP   3 1.00       0.000000000000
      0.7868272350D+01 -0.1193324198D+00  0.6899906659D-01
      0.1881288540D+01 -0.1608541517D+00  0.3164239610D+00
      0.5442492580D+00  0.1143456438D+01  0.7443082909D+00
 SP   1 1.00       0.000000000000
      0.1687144782D+00  0.1000000000D+01  0.1000000000D+01
 D   1 1.00       0.000000000000
      0.8000000000D+00  0.1000000000D+01
 ****
     22 0
 S   3 1.00       0.000000000000
      0.1873113696D+02  0.3349460434D-01
      0.2825394365D+01  0.2347269535D+00
      0.6401216923D+00  0.8137573261D+00
 S   1 1.00       0.000000000000
      0.1612777588D+00  0.1000000000D+01
 ****
     23 0
 S   3 1.00       0.000000000000
      0.1873113696D+02  0.3349460434D-01
      0.2825394365D+01  0.2347269535D+00
      0.6401216923D+00  0.8137573261D+00
 S   1 1.00       0.000000000000
      0.1612777588D+00  0.1000000000D+01
 ****
     24 0
 S   6 1.00       0.000000000000
      0.3047524880D+04  0.1834737132D-02
      0.4573695180D+03  0.1403732281D-01
      0.1039486850D+03  0.6884262226D-01
      0.2921015530D+02  0.2321844432D+00
      0.9286662960D+01  0.4679413484D+00
      0.3163926960D+01  0.3623119853D+00
 SP   3 1.00       0.000000000000
      0.7868272350D+01 -0.1193324198D+00  0.6899906659D-01
      0.1881288540D+01 -0.1608541517D+00  0.3164239610D+00
      0.5442492580D+00  0.1143456438D+01  0.7443082909D+00
 SP   1 1.00       0.000000000000
      0.1687144782D+00  0.1000000000D+01  0.1000000000D+01
 D   1 1.00       0.000000000000
      0.8000000000D+00  0.1000000000D+01
 ****
     25 0
 S   3 1.00       0.000000000000
      0.1873113696D+02  0.3349460434D-01
      0.2825394365D+01  0.2347269535D+00
      0.6401216923D+00  0.8137573261D+00
 S   1 1.00       0.000000000000
      0.1612777588D+00  0.1000000000D+01
 ****
     26 0
 S   3 1.00       0.000000000000
      0.1873113696D+02  0.3349460434D-01
      0.2825394365D+01  0.2347269535D+00
      0.6401216923D+00  0.8137573261D+00
 S   1 1.00       0.000000000000
      0.1612777588D+00  0.1000000000D+01
 ****
     27 0
 S   6 1.00       0.000000000000
      0.3047524880D+04  0.1834737132D-02
      0.4573695180D+03  0.1403732281D-01
      0.1039486850D+03  0.6884262226D-01
      0.2921015530D+02  0.2321844432D+00
      0.9286662960D+01  0.4679413484D+00
      0.3163926960D+01  0.3623119853D+00
 SP   3 1.00       0.000000000000
      0.7868272350D+01 -0.1193324198D+00  0.6899906659D-01
      0.1881288540D+01 -0.1608541517D+00  0.3164239610D+00
      0.5442492580D+00  0.1143456438D+01  0.7443082909D+00
 SP   1 1.00       0.000000000000
      0.1687144782D+00  0.1000000000D+01  0.1000000000D+01
 D   1 1.00       0.000000000000
      0.8000000000D+00  0.1000000000D+01
 ****
     28 0
 S   3 1.00       0.000000000000
      0.1873113696D+02  0.3349460434D-01
      0.2825394365D+01  0.2347269535D+00
      0.6401216923D+00  0.8137573261D+00
 S   1 1.00       0.000000000000
      0.1612777588D+00  0.1000000000D+01
 ****
     29 0
 S   6 1.00       0.000000000000
      0.3047524880D+04  0.1834737132D-02
      0.4573695180D+03  0.1403732281D-01
      0.1039486850D+03  0.6884262226D-01
      0.2921015530D+02  0.2321844432D+00
      0.9286662960D+01  0.4679413484D+00
      0.3163926960D+01  0.3623119853D+00
 SP   3 1.00       0.000000000000
      0.7868272350D+01 -0.1193324198D+00  0.6899906659D-01
      0.1881288540D+01 -0.1608541517D+00  0.3164239610D+00
      0.5442492580D+00  0.1143456438D+01  0.7443082909D+00
 SP   1 1.00       0.000000000000
      0.1687144782D+00  0.1000000000D+01  0.1000000000D+01
 D   1 1.00       0.000000000000
      0.8000000000D+00  0.1000000000D+01
 ****
     30 0
 S   3 1.00       0.000000000000
      0.1873113696D+02  0.3349460434D-01
      0.2825394365D+01  0.2347269535D+00
      0.6401216923D+00  0.8137573261D+00
 S   1 1.00       0.000000000000
      0.1612777588D+00  0.1000000000D+01
 ****
     31 0
 S   6 1.00       0.000000000000
      0.3047524880D+04  0.1834737132D-02
      0.4573695180D+03  0.1403732281D-01
      0.1039486850D+03  0.6884262226D-01
      0.2921015530D+02  0.2321844432D+00
      0.9286662960D+01  0.4679413484D+00
      0.3163926960D+01  0.3623119853D+00
 SP   3 1.00       0.000000000000
      0.7868272350D+01 -0.1193324198D+00  0.6899906659D-01
      0.1881288540D+01 -0.1608541517D+00  0.3164239610D+00
      0.5442492580D+00  0.1143456438D+01  0.7443082909D+00
 SP   1 1.00       0.000000000000
      0.1687144782D+00  0.1000000000D+01  0.1000000000D+01
 D   1 1.00       0.000000000000
      0.8000000000D+00  0.1000000000D+01
 ****
     32 0
 S   3 1.00       0.000000000000
      0.1873113696D+02  0.3349460434D-01
      0.2825394365D+01  0.2347269535D+00
      0.6401216923D+00  0.8137573261D+00
 S   1 1.00       0.000000000000
      0.1612777588D+00  0.1000000000D+01
 ****
     33 0
 S   3 1.00       0.000000000000
      0.1873113696D+02  0.3349460434D-01
      0.2825394365D+01  0.2347269535D+00
      0.6401216923D+00  0.8137573261D+00
 S   1 1.00       0.000000000000
      0.1612777588D+00  0.1000000000D+01
 ****
     34 0
 S   3 1.00       0.000000000000
      0.1873113696D+02  0.3349460434D-01
      0.2825394365D+01  0.2347269535D+00
      0.6401216923D+00  0.8137573261D+00
 S   1 1.00       0.000000000000
      0.1612777588D+00  0.1000000000D+01
 ****
     35 0
 S   6 1.00       0.000000000000
      0.3047524880D+04  0.1834737132D-02
      0.4573695180D+03  0.1403732281D-01
      0.1039486850D+03  0.6884262226D-01
      0.2921015530D+02  0.2321844432D+00
      0.9286662960D+01  0.4679413484D+00
      0.3163926960D+01  0.3623119853D+00
 SP   3 1.00       0.000000000000
      0.7868272350D+01 -0.1193324198D+00  0.6899906659D-01
      0.1881288540D+01 -0.1608541517D+00  0.3164239610D+00
      0.5442492580D+00  0.1143456438D+01  0.7443082909D+00
 SP   1 1.00       0.000000000000
      0.1687144782D+00  0.1000000000D+01  0.1000000000D+01
 D   1 1.00       0.000000000000
      0.8000000000D+00  0.1000000000D+01
 ****
     36 0
 S   6 1.00       0.000000000000
      0.3047524880D+04  0.1834737132D-02
      0.4573695180D+03  0.1403732281D-01
      0.1039486850D+03  0.6884262226D-01
      0.2921015530D+02  0.2321844432D+00
      0.9286662960D+01  0.4679413484D+00
      0.3163926960D+01  0.3623119853D+00
 SP   3 1.00       0.000000000000
      0.7868272350D+01 -0.1193324198D+00  0.6899906659D-01
      0.1881288540D+01 -0.1608541517D+00  0.3164239610D+00
      0.5442492580D+00  0.1143456438D+01  0.7443082909D+00
 SP   1 1.00       0.000000000000
      0.1687144782D+00  0.1000000000D+01  0.1000000000D+01
 D   1 1.00       0.000000000000
      0.8000000000D+00  0.1000000000D+01
 ****
     37 0
 S   3 1.00       0.000000000000
      0.1873113696D+02  0.3349460434D-01
      0.2825394365D+01  0.2347269535D+00
      0.6401216923D+00  0.8137573261D+00
 S   1 1.00       0.000000000000
      0.1612777588D+00  0.1000000000D+01
 ****
     38 0
 S   3 1.00       0.000000000000
      0.1873113696D+02  0.3349460434D-01
      0.2825394365D+01  0.2347269535D+00
      0.6401216923D+00  0.8137573261D+00
 S   1 1.00       0.000000000000
      0.1612777588D+00  0.1000000000D+01
 ****
     39 0
 S   6 1.00       0.000000000000
      0.3047524880D+04  0.1834737132D-02
      0.4573695180D+03  0.1403732281D-01
      0.1039486850D+03  0.6884262226D-01
      0.2921015530D+02  0.2321844432D+00
      0.9286662960D+01  0.4679413484D+00
      0.3163926960D+01  0.3623119853D+00
 SP   3 1.00       0.000000000000
      0.7868272350D+01 -0.1193324198D+00  0.6899906659D-01
      0.1881288540D+01 -0.1608541517D+00  0.3164239610D+00
      0.5442492580D+00  0.1143456438D+01  0.7443082909D+00
 SP   1 1.00       0.000000000000
      0.1687144782D+00  0.1000000000D+01  0.1000000000D+01
 D   1 1.00       0.000000000000
      0.8000000000D+00  0.1000000000D+01
 ****
     40 0
 S   3 1.00       0.000000000000
      0.1873113696D+02  0.3349460434D-01
      0.2825394365D+01  0.2347269535D+00
      0.6401216923D+00  0.8137573261D+00
 S   1 1.00       0.000000000000
      0.1612777588D+00  0.1000000000D+01
 ****
     41 0
 S   6 1.00       0.000000000000
      0.3047524880D+04  0.1834737132D-02
      0.4573695180D+03  0.1403732281D-01
      0.1039486850D+03  0.6884262226D-01
      0.2921015530D+02  0.2321844432D+00
      0.9286662960D+01  0.4679413484D+00
      0.3163926960D+01  0.3623119853D+00
 SP   3 1.00       0.000000000000
      0.7868272350D+01 -0.1193324198D+00  0.6899906659D-01
      0.1881288540D+01 -0.1608541517D+00  0.3164239610D+00
      0.5442492580D+00  0.1143456438D+01  0.7443082909D+00
 SP   1 1.00       0.000000000000
      0.1687144782D+00  0.1000000000D+01  0.1000000000D+01
 D   1 1.00       0.000000000000
      0.8000000000D+00  0.1000000000D+01
 ****
     42 0
 S   3 1.00       0.000000000000
      0.1873113696D+02  0.3349460434D-01
      0.2825394365D+01  0.2347269535D+00
      0.6401216923D+00  0.8137573261D+00
 S   1 1.00       0.000000000000
      0.1612777588D+00  0.1000000000D+01
 ****
     43 0
 S   3 1.00       0.000000000000
      0.1873113696D+02  0.3349460434D-01
      0.2825394365D+01  0.2347269535D+00
      0.6401216923D+00  0.8137573261D+00
 S   1 1.00       0.000000000000
      0.1612777588D+00  0.1000000000D+01
 ****
     44 0
 S   3 1.00       0.000000000000
      0.1873113696D+02  0.3349460434D-01
      0.2825394365D+01  0.2347269535D+00
      0.6401216923D+00  0.8137573261D+00
 S   1 1.00       0.000000000000
      0.1612777588D+00  0.1000000000D+01
 ****
     45 0
 S   6 1.00       0.000000000000
      0.3047524880D+04  0.1834737132D-02
      0.4573695180D+03  0.1403732281D-01
      0.1039486850D+03  0.6884262226D-01
      0.2921015530D+02  0.2321844432D+00
      0.9286662960D+01  0.4679413484D+00
      0.3163926960D+01  0.3623119853D+00
 SP   3 1.00       0.000000000000
      0.7868272350D+01 -0.1193324198D+00  0.6899906659D-01
      0.1881288540D+01 -0.1608541517D+00  0.3164239610D+00
      0.5442492580D+00  0.1143456438D+01  0.7443082909D+00
 SP   1 1.00       0.000000000000
      0.1687144782D+00  0.1000000000D+01  0.1000000000D+01
 D   1 1.00       0.000000000000
      0.8000000000D+00  0.1000000000D+01
 ****
     46 0
 S   3 1.00       0.000000000000
      0.1873113696D+02  0.3349460434D-01
      0.2825394365D+01  0.2347269535D+00
      0.6401216923D+00  0.8137573261D+00
 S   1 1.00       0.000000000000
      0.1612777588D+00  0.1000000000D+01
 ****
     47 0
 S   3 1.00       0.000000000000
      0.1873113696D+02  0.3349460434D-01
      0.2825394365D+01  0.2347269535D+00
      0.6401216923D+00  0.8137573261D+00
 S   1 1.00       0.000000000000
      0.1612777588D+00  0.1000000000D+01
 ****
     48 0
 S   6 1.00       0.000000000000
      0.3047524880D+04  0.1834737132D-02
      0.4573695180D+03  0.1403732281D-01
      0.1039486850D+03  0.6884262226D-01
      0.2921015530D+02  0.2321844432D+00
      0.9286662960D+01  0.4679413484D+00
      0.3163926960D+01  0.3623119853D+00
 SP   3 1.00       0.000000000000
      0.7868272350D+01 -0.1193324198D+00  0.6899906659D-01
      0.1881288540D+01 -0.1608541517D+00  0.3164239610D+00
      0.5442492580D+00  0.1143456438D+01  0.7443082909D+00
 SP   1 1.00       0.000000000000
      0.1687144782D+00  0.1000000000D+01  0.1000000000D+01
 D   1 1.00       0.000000000000
      0.8000000000D+00  0.1000000000D+01
 ****
     49 0
 S   3 1.00       0.000000000000
      0.1873113696D+02  0.3349460434D-01
      0.2825394365D+01  0.2347269535D+00
      0.6401216923D+00  0.8137573261D+00
 S   1 1.00       0.000000000000
      0.1612777588D+00  0.1000000000D+01
 ****
     50 0
 S   3 1.00       0.000000000000
      0.1873113696D+02  0.3349460434D-01
      0.2825394365D+01  0.2347269535D+00
      0.6401216923D+00  0.8137573261D+00
 S   1 1.00       0.000000000000
      0.1612777588D+00  0.1000000000D+01
 ****
     51 0
 S   6 1.00       0.000000000000
      0.3047524880D+04  0.1834737132D-02
      0.4573695180D+03  0.1403732281D-01
      0.1039486850D+03  0.6884262226D-01
      0.2921015530D+02  0.2321844432D+00
      0.9286662960D+01  0.4679413484D+00
      0.3163926960D+01  0.3623119853D+00
 SP   3 1.00       0.000000000000
      0.7868272350D+01 -0.1193324198D+00  0.6899906659D-01
      0.1881288540D+01 -0.1608541517D+00  0.3164239610D+00
      0.5442492580D+00  0.1143456438D+01  0.7443082909D+00
 SP   1 1.00       0.000000000000
      0.1687144782D+00  0.1000000000D+01  0.1000000000D+01
 D   1 1.00       0.000000000000
      0.8000000000D+00  0.1000000000D+01
 ****
     52 0
 S   3 1.00       0.000000000000
      0.1873113696D+02  0.3349460434D-01
      0.2825394365D+01  0.2347269535D+00
      0.6401216923D+00  0.8137573261D+00
 S   1 1.00       0.000000000000
      0.1612777588D+00  0.1000000000D+01
 ****
     53 0
 S   3 1.00       0.000000000000
      0.1873113696D+02  0.3349460434D-01
      0.2825394365D+01  0.2347269535D+00
      0.6401216923D+00  0.8137573261D+00
 S   1 1.00       0.000000000000
      0.1612777588D+00  0.1000000000D+01
 ****
     54 0
 S   6 1.00       0.000000000000
      0.3047524880D+04  0.1834737132D-02
      0.4573695180D+03  0.1403732281D-01
      0.1039486850D+03  0.6884262226D-01
      0.2921015530D+02  0.2321844432D+00
      0.9286662960D+01  0.4679413484D+00
      0.3163926960D+01  0.3623119853D+00
 SP   3 1.00       0.000000000000
      0.7868272350D+01 -0.1193324198D+00  0.6899906659D-01
      0.1881288540D+01 -0.1608541517D+00  0.3164239610D+00
      0.5442492580D+00  0.1143456438D+01  0.7443082909D+00
 SP   1 1.00       0.000000000000
      0.1687144782D+00  0.1000000000D+01  0.1000000000D+01
 D   1 1.00       0.000000000000
      0.8000000000D+00  0.1000000000D+01
 ****
     55 0
 S   3 1.00       0.000000000000
      0.1873113696D+02  0.3349460434D-01
      0.2825394365D+01  0.2347269535D+00
      0.6401216923D+00  0.8137573261D+00
 S   1 1.00       0.000000000000
      0.1612777588D+00  0.1000000000D+01
 ****
     56 0
 S   6 1.00       0.000000000000
      0.3047524880D+04  0.1834737132D-02
      0.4573695180D+03  0.1403732281D-01
      0.1039486850D+03  0.6884262226D-01
      0.2921015530D+02  0.2321844432D+00
      0.9286662960D+01  0.4679413484D+00
      0.3163926960D+01  0.3623119853D+00
 SP   3 1.00       0.000000000000
      0.7868272350D+01 -0.1193324198D+00  0.6899906659D-01
      0.1881288540D+01 -0.1608541517D+00  0.3164239610D+00
      0.5442492580D+00  0.1143456438D+01  0.7443082909D+00
 SP   1 1.00       0.000000000000
      0.1687144782D+00  0.1000000000D+01  0.1000000000D+01
 D   1 1.00       0.000000000000
      0.8000000000D+00  0.1000000000D+01
 ****
     57 0
 S   3 1.00       0.000000000000
      0.1873113696D+02  0.3349460434D-01
      0.2825394365D+01  0.2347269535D+00
      0.6401216923D+00  0.8137573261D+00
 S   1 1.00       0.000000000000
      0.1612777588D+00  0.1000000000D+01
 ****
     58 0
 S   3 1.00       0.000000000000
      0.1873113696D+02  0.3349460434D-01
      0.2825394365D+01  0.2347269535D+00
      0.6401216923D+00  0.8137573261D+00
 S   1 1.00       0.000000000000
      0.1612777588D+00  0.1000000000D+01
 ****
     59 0
 S   3 1.00       0.000000000000
      0.1873113696D+02  0.3349460434D-01
      0.2825394365D+01  0.2347269535D+00
      0.6401216923D+00  0.8137573261D+00
 S   1 1.00       0.000000000000
      0.1612777588D+00  0.1000000000D+01
 ****
     60 0
 S   6 1.00       0.000000000000
      0.3047524880D+04  0.1834737132D-02
      0.4573695180D+03  0.1403732281D-01
      0.1039486850D+03  0.6884262226D-01
      0.2921015530D+02  0.2321844432D+00
      0.9286662960D+01  0.4679413484D+00
      0.3163926960D+01  0.3623119853D+00
 SP   3 1.00       0.000000000000
      0.7868272350D+01 -0.1193324198D+00  0.6899906659D-01
      0.1881288540D+01 -0.1608541517D+00  0.3164239610D+00
      0.5442492580D+00  0.1143456438D+01  0.7443082909D+00
 SP   1 1.00       0.000000000000
      0.1687144782D+00  0.1000000000D+01  0.1000000000D+01
 D   1 1.00       0.000000000000
      0.8000000000D+00  0.1000000000D+01
 ****
     61 0
 S   3 1.00       0.000000000000
      0.1873113696D+02  0.3349460434D-01
      0.2825394365D+01  0.2347269535D+00
      0.6401216923D+00  0.8137573261D+00
 S   1 1.00       0.000000000000
      0.1612777588D+00  0.1000000000D+01
 ****
     62 0
 S   3 1.00       0.000000000000
      0.1873113696D+02  0.3349460434D-01
      0.2825394365D+01  0.2347269535D+00
      0.6401216923D+00  0.8137573261D+00
 S   1 1.00       0.000000000000
      0.1612777588D+00  0.1000000000D+01
 ****
     63 0
 S   6 1.00       0.000000000000
      0.3047524880D+04  0.1834737132D-02
      0.4573695180D+03  0.1403732281D-01
      0.1039486850D+03  0.6884262226D-01
      0.2921015530D+02  0.2321844432D+00
      0.9286662960D+01  0.4679413484D+00
      0.3163926960D+01  0.3623119853D+00
 SP   3 1.00       0.000000000000
      0.7868272350D+01 -0.1193324198D+00  0.6899906659D-01
      0.1881288540D+01 -0.1608541517D+00  0.3164239610D+00
      0.5442492580D+00  0.1143456438D+01  0.7443082909D+00
 SP   1 1.00       0.000000000000
      0.1687144782D+00  0.1000000000D+01  0.1000000000D+01
 D   1 1.00       0.000000000000
      0.8000000000D+00  0.1000000000D+01
 ****
     64 0
 S   3 1.00       0.000000000000
      0.1873113696D+02  0.3349460434D-01
      0.2825394365D+01  0.2347269535D+00
      0.6401216923D+00  0.8137573261D+00
 S   1 1.00       0.000000000000
      0.1612777588D+00  0.1000000000D+01
 ****
     65 0
 S   3 1.00       0.000000000000
      0.1873113696D+02  0.3349460434D-01
      0.2825394365D+01  0.2347269535D+00
      0.6401216923D+00  0.8137573261D+00
 S   1 1.00       0.000000000000
      0.1612777588D+00  0.1000000000D+01
 ****
     66 0
 S   6 1.00       0.000000000000
      0.3047524880D+04  0.1834737132D-02
      0.4573695180D+03  0.1403732281D-01
      0.1039486850D+03  0.6884262226D-01
      0.2921015530D+02  0.2321844432D+00
      0.9286662960D+01  0.4679413484D+00
      0.3163926960D+01  0.3623119853D+00
 SP   3 1.00       0.000000000000
      0.7868272350D+01 -0.1193324198D+00  0.6899906659D-01
      0.1881288540D+01 -0.1608541517D+00  0.3164239610D+00
      0.5442492580D+00  0.1143456438D+01  0.7443082909D+00
 SP   1 1.00       0.000000000000
      0.1687144782D+00  0.1000000000D+01  0.1000000000D+01
 D   1 1.00       0.000000000000
      0.8000000000D+00  0.1000000000D+01
 ****
     67 0
 S   3 1.00       0.000000000000
      0.1873113696D+02  0.3349460434D-01
      0.2825394365D+01  0.2347269535D+00
      0.6401216923D+00  0.8137573261D+00
 S   1 1.00       0.000000000000
      0.1612777588D+00  0.1000000000D+01
 ****
     68 0
 S   6 1.00       0.000000000000
      0.3047524880D+04  0.1834737132D-02
      0.4573695180D+03  0.1403732281D-01
      0.1039486850D+03  0.6884262226D-01
      0.2921015530D+02  0.2321844432D+00
      0.9286662960D+01  0.4679413484D+00
      0.3163926960D+01  0.3623119853D+00
 SP   3 1.00       0.000000000000
      0.7868272350D+01 -0.1193324198D+00  0.6899906659D-01
      0.1881288540D+01 -0.1608541517D+00  0.3164239610D+00
      0.5442492580D+00  0.1143456438D+01  0.7443082909D+00
 SP   1 1.00       0.000000000000
      0.1687144782D+00  0.1000000000D+01  0.1000000000D+01
 D   1 1.00       0.000000000000
      0.8000000000D+00  0.1000000000D+01
 ****
     69 0
 S   3 1.00       0.000000000000
      0.1873113696D+02  0.3349460434D-01
      0.2825394365D+01  0.2347269535D+00
      0.6401216923D+00  0.8137573261D+00
 S   1 1.00       0.000000000000
      0.1612777588D+00  0.1000000000D+01
 ****
     70 0
 S   3 1.00       0.000000000000
      0.1873113696D+02  0.3349460434D-01
      0.2825394365D+01  0.2347269535D+00
      0.6401216923D+00  0.8137573261D+00
 S   1 1.00       0.000000000000
      0.1612777588D+00  0.1000000000D+01
 ****
     71 0
 S   3 1.00       0.000000000000
      0.1873113696D+02  0.3349460434D-01
      0.2825394365D+01  0.2347269535D+00
      0.6401216923D+00  0.8137573261D+00
 S   1 1.00       0.000000000000
      0.1612777588D+00  0.1000000000D+01
 ****
     72 0
 S   6 1.00       0.000000000000
      0.3047524880D+04  0.1834737132D-02
      0.4573695180D+03  0.1403732281D-01
      0.1039486850D+03  0.6884262226D-01
      0.2921015530D+02  0.2321844432D+00
      0.9286662960D+01  0.4679413484D+00
      0.3163926960D+01  0.3623119853D+00
 SP   3 1.00       0.000000000000
      0.7868272350D+01 -0.1193324198D+00  0.6899906659D-01
      0.1881288540D+01 -0.1608541517D+00  0.3164239610D+00
      0.5442492580D+00  0.1143456438D+01  0.7443082909D+00
 SP   1 1.00       0.000000000000
      0.1687144782D+00  0.1000000000D+01  0.1000000000D+01
 D   1 1.00       0.000000000000
      0.8000000000D+00  0.1000000000D+01
 ****
     73 0
 S   3 1.00       0.000000000000
      0.1873113696D+02  0.3349460434D-01
      0.2825394365D+01  0.2347269535D+00
      0.6401216923D+00  0.8137573261D+00
 S   1 1.00       0.000000000000
      0.1612777588D+00  0.1000000000D+01
 ****
     74 0
 S   3 1.00       0.000000000000
      0.1873113696D+02  0.3349460434D-01
      0.2825394365D+01  0.2347269535D+00
      0.6401216923D+00  0.8137573261D+00
 S   1 1.00       0.000000000000
      0.1612777588D+00  0.1000000000D+01
 ****
     75 0
 S   3 1.00       0.000000000000
      0.1873113696D+02  0.3349460434D-01
      0.2825394365D+01  0.2347269535D+00
      0.6401216923D+00  0.8137573261D+00
 S   1 1.00       0.000000000000
      0.1612777588D+00  0.1000000000D+01
 ****

 AO basis set (Overlap normalization):
 Atom O1       Shell     1 S   6     bf    1 -     1          0.000000000000          0.000000000000          0.000000000000
      0.5484671660D+04  0.1831074430D-02
      0.8252349460D+03  0.1395017220D-01
      0.1880469580D+03  0.6844507810D-01
      0.5296450000D+02  0.2327143360D+00
      0.1689757040D+02  0.4701928980D+00
      0.5799635340D+01  0.3585208530D+00
 Atom O1       Shell     2 SP   3    bf    2 -     5          0.000000000000          0.000000000000          0.000000000000
      0.1553961625D+02 -0.1107775495D+00  0.7087426823D-01
      0.3599933586D+01 -0.1480262627D+00  0.3397528391D+00
      0.1013761750D+01  0.1130767015D+01  0.7271585773D+00
 Atom O1       Shell     3 SP   1    bf    6 -     9          0.000000000000          0.000000000000          0.000000000000
      0.2700058226D+00  0.1000000000D+01  0.1000000000D+01
 Atom O1       Shell     4 D   1     bf   10 -    15          0.000000000000          0.000000000000          0.000000000000
      0.8000000000D+00  0.1000000000D+01
 Atom H2       Shell     5 S   3     bf   16 -    16          1.826505345110          0.000000000000          0.000000000000
      0.1873113696D+02  0.3349460434D-01
      0.2825394365D+01  0.2347269535D+00
      0.6401216923D+00  0.8137573261D+00
 Atom H2       Shell     6 S   1     bf   17 -    17          1.826505345110          0.000000000000          0.000000000000
      0.1612777588D+00  0.1000000000D+01
 Atom O3       Shell     7 S   6     bf   18 -    18          8.241429825786         -2.393000131986         -9.348272033826
      0.5484671660D+04  0.1831074430D-02
      0.8252349460D+03  0.1395017220D-01
      0.1880469580D+03  0.6844507810D-01
      0.5296450000D+02  0.2327143360D+00
      0.1689757040D+02  0.4701928980D+00
      0.5799635340D+01  0.3585208530D+00
 Atom O3       Shell     8 SP   3    bf   19 -    22          8.241429825786         -2.393000131986         -9.348272033826
      0.1553961625D+02 -0.1107775495D+00  0.7087426823D-01
      0.3599933586D+01 -0.1480262627D+00  0.3397528391D+00
      0.1013761750D+01  0.1130767015D+01  0.7271585773D+00
 Atom O3       Shell     9 SP   1    bf   23 -    26          8.241429825786         -2.393000131986         -9.348272033826
      0.2700058226D+00  0.1000000000D+01  0.1000000000D+01
 Atom O3       Shell    10 D   1     bf   27 -    32          8.241429825786         -2.393000131986         -9.348272033826
      0.8000000000D+00  0.1000000000D+01
 Atom H4       Shell    11 S   3     bf   33 -    33          7.724254434334         -2.021889459017        -11.062309005329
      0.1873113696D+02  0.3349460434D-01
      0.2825394365D+01  0.2347269535D+00
      0.6401216923D+00  0.8137573261D+00
 Atom H4       Shell    12 S   1     bf   34 -    34          7.724254434334         -2.021889459017        -11.062309005329
      0.1612777588D+00  0.1000000000D+01
 Atom C5       Shell    13 S   6     bf   35 -    35         -2.341140339927          7.759216635464         -1.377491638278
      0.3047524880D+04  0.1834737132D-02
      0.4573695180D+03  0.1403732281D-01
      0.1039486850D+03  0.6884262226D-01
      0.2921015530D+02  0.2321844432D+00
      0.9286662960D+01  0.4679413484D+00
      0.3163926960D+01  0.3623119853D+00
 Atom C5       Shell    14 SP   3    bf   36 -    39         -2.341140339927          7.759216635464         -1.377491638278
      0.7868272350D+01 -0.1193324198D+00  0.6899906659D-01
      0.1881288540D+01 -0.1608541517D+00  0.3164239610D+00
      0.5442492580D+00  0.1143456438D+01  0.7443082909D+00
 Atom C5       Shell    15 SP   1    bf   40 -    43         -2.341140339927          7.759216635464         -1.377491638278
      0.1687144782D+00  0.1000000000D+01  0.1000000000D+01
 Atom C5       Shell    16 D   1     bf   44 -    49         -2.341140339927          7.759216635464         -1.377491638278
      0.8000000000D+00  0.1000000000D+01
 Atom C6       Shell    17 S   6     bf   50 -    50         -2.148681824430          4.860561846292         -0.947289021263
      0.3047524880D+04  0.1834737132D-02
      0.4573695180D+03  0.1403732281D-01
      0.1039486850D+03  0.6884262226D-01
      0.2921015530D+02  0.2321844432D+00
      0.9286662960D+01  0.4679413484D+00
      0.3163926960D+01  0.3623119853D+00
 Atom C6       Shell    18 SP   3    bf   51 -    54         -2.148681824430          4.860561846292         -0.947289021263
      0.7868272350D+01 -0.1193324198D+00  0.6899906659D-01
      0.1881288540D+01 -0.1608541517D+00  0.3164239610D+00
      0.5442492580D+00  0.1143456438D+01  0.7443082909D+00
 Atom C6       Shell    19 SP   1    bf   55 -    58         -2.148681824430          4.860561846292         -0.947289021263
      0.1687144782D+00  0.1000000000D+01  0.1000000000D+01
 Atom C6       Shell    20 D   1     bf   59 -    64         -2.148681824430          4.860561846292         -0.947289021263
      0.8000000000D+00  0.1000000000D+01
 Atom H7       Shell    21 S   3     bf   65 -    65         -0.832577278175          4.623568060535          0.642392329983
      0.1873113696D+02  0.3349460434D-01
      0.2825394365D+01  0.2347269535D+00
      0.6401216923D+00  0.8137573261D+00
 Atom H7       Shell    22 S   1     bf   66 -    66         -0.832577278175          4.623568060535          0.642392329983
      0.1612777588D+00  0.1000000000D+01
 Atom C8       Shell    23 S   6     bf   67 -    67         -1.002625588154          3.366861083733         -3.150100727962
      0.3047524880D+04  0.1834737132D-02
      0.4573695180D+03  0.1403732281D-01
      0.1039486850D+03  0.6884262226D-01
      0.2921015530D+02  0.2321844432D+00
      0.9286662960D+01  0.4679413484D+00
      0.3163926960D+01  0.3623119853D+00
 Atom C8       Shell    24 SP   3    bf   68 -    71         -1.002625588154          3.366861083733         -3.150100727962
      0.7868272350D+01 -0.1193324198D+00  0.6899906659D-01
      0.1881288540D+01 -0.1608541517D+00  0.3164239610D+00
      0.5442492580D+00  0.1143456438D+01  0.7443082909D+00
 Atom C8       Shell    25 SP   1    bf   72 -    75         -1.002625588154          3.366861083733         -3.150100727962
      0.1687144782D+00  0.1000000000D+01  0.1000000000D+01
 Atom C8       Shell    26 D   1     bf   76 -    81         -1.002625588154          3.366861083733         -3.150100727962
      0.8000000000D+00  0.1000000000D+01
 Atom H9       Shell    27 S   3     bf   82 -    82         -2.249936468678          3.529313167089         -4.804324484749
      0.1873113696D+02  0.3349460434D-01
      0.2825394365D+01  0.2347269535D+00
      0.6401216923D+00  0.8137573261D+00
 Atom H9       Shell    28 S   1     bf   83 -    83         -2.249936468678          3.529313167089         -4.804324484749
      0.1612777588D+00  0.1000000000D+01
 Atom C10      Shell    29 S   6     bf   84 -    84          1.644780587431          4.417035223849         -3.833073717223
      0.3047524880D+04  0.1834737132D-02
      0.4573695180D+03  0.1403732281D-01
      0.1039486850D+03  0.6884262226D-01
      0.2921015530D+02  0.2321844432D+00
      0.9286662960D+01  0.4679413484D+00
      0.3163926960D+01  0.3623119853D+00
 Atom C10      Shell    30 SP   3    bf   85 -    88          1.644780587431          4.417035223849         -3.833073717223
      0.7868272350D+01 -0.1193324198D+00  0.6899906659D-01
      0.1881288540D+01 -0.1608541517D+00  0.3164239610D+00
      0.5442492580D+00  0.1143456438D+01  0.7443082909D+00
 Atom C10      Shell    31 SP   1    bf   89 -    92          1.644780587431          4.417035223849         -3.833073717223
      0.1687144782D+00  0.1000000000D+01  0.1000000000D+01
 Atom C10      Shell    32 D   1     bf   93 -    98          1.644780587431          4.417035223849         -3.833073717223
      0.8000000000D+00  0.1000000000D+01
 Atom H11      Shell    33 S   3     bf   99 -    99          2.877768326526          3.943510162806         -2.221111606699
      0.1873113696D+02  0.3349460434D-01
      0.2825394365D+01  0.2347269535D+00
      0.6401216923D+00  0.8137573261D+00
 Atom H11      Shell    34 S   1     bf  100 -   100          2.877768326526          3.943510162806         -2.221111606699
      0.1612777588D+00  0.1000000000D+01
 Atom C12      Shell    35 S   6     bf  101 -   101         -3.621140364502          8.558479421416          1.173137070007
      0.3047524880D+04  0.1834737132D-02
      0.4573695180D+03  0.1403732281D-01
      0.1039486850D+03  0.6884262226D-01
      0.2921015530D+02  0.2321844432D+00
      0.9286662960D+01  0.4679413484D+00
      0.3163926960D+01  0.3623119853D+00
 Atom C12      Shell    36 SP   3    bf  102 -   105         -3.621140364502          8.558479421416          1.173137070007
      0.7868272350D+01 -0.1193324198D+00  0.6899906659D-01
      0.1881288540D+01 -0.1608541517D+00  0.3164239610D+00
      0.5442492580D+00  0.1143456438D+01  0.7443082909D+00
 Atom C12      Shell    37 SP   1    bf  106 -   109         -3.621140364502          8.558479421416          1.173137070007
      0.1687144782D+00  0.1000000000D+01  0.1000000000D+01
 Atom C12      Shell    38 D   1     bf  110 -   115         -3.621140364502          8.558479421416          1.173137070007
      0.8000000000D+00  0.1000000000D+01
 Atom H13      Shell    39 S   3     bf  116 -   116         -2.140810075737          8.384067053495          2.621860385289
      0.1873113696D+02  0.3349460434D-01
      0.2825394365D+01  0.2347269535D+00
      0.6401216923D+00  0.8137573261D+00
 Atom H13      Shell    40 S   1     bf  117 -   117         -2.140810075737          8.384067053495          2.621860385289
      0.1612777588D+00  0.1000000000D+01
 Atom C14      Shell    41 S   6     bf  118 -   118          0.379405644727          8.707126129406         -1.816571659542
      0.3047524880D+04  0.1834737132D-02
      0.4573695180D+03  0.1403732281D-01
      0.1039486850D+03  0.6884262226D-01
      0.2921015530D+02  0.2321844432D+00
      0.9286662960D+01  0.4679413484D+00
      0.3163926960D+01  0.3623119853D+00
 Atom C14      Shell    42 SP   3    bf  119 -   122          0.379405644727          8.707126129406         -1.816571659542
      0.7868272350D+01 -0.1193324198D+00  0.6899906659D-01
      0.1881288540D+01 -0.1608541517D+00  0.3164239610D+00
      0.5442492580D+00  0.1143456438D+01  0.7443082909D+00
 Atom C14      Shell    43 SP   1    bf  123 -   126          0.379405644727          8.707126129406         -1.816571659542
      0.1687144782D+00  0.1000000000D+01  0.1000000000D+01
 Atom C14      Shell    44 D   1     bf  127 -   132          0.379405644727          8.707126129406         -1.816571659542
      0.8000000000D+00  0.1000000000D+01
 Atom H15      Shell    45 S   3     bf  133 -   133          1.480409128139          8.390529709000         -0.083130413188
      0.1873113696D+02  0.3349460434D-01
      0.2825394365D+01  0.2347269535D+00
      0.6401216923D+00  0.8137573261D+00
 Atom H15      Shell    46 S   1     bf  134 -   134          1.480409128139          8.390529709000         -0.083130413188
      0.1612777588D+00  0.1000000000D+01
 Atom H16      Shell    47 S   3     bf  135 -   135          0.436198321192         10.741869354400         -2.186577334052
      0.1873113696D+02  0.3349460434D-01
      0.2825394365D+01  0.2347269535D+00
      0.6401216923D+00  0.8137573261D+00
 Atom H16      Shell    48 S   1     bf  136 -   136          0.436198321192         10.741869354400         -2.186577334052
      0.1612777588D+00  0.1000000000D+01
 Atom C17      Shell    49 S   6     bf  137 -   137          2.826864754788          3.054611846015         -6.186171885071
      0.3047524880D+04  0.1834737132D-02
      0.4573695180D+03  0.1403732281D-01
      0.1039486850D+03  0.6884262226D-01
      0.2921015530D+02  0.2321844432D+00
      0.9286662960D+01  0.4679413484D+00
      0.3163926960D+01  0.3623119853D+00
 Atom C17      Shell    50 SP   3    bf  138 -   141          2.826864754788          3.054611846015         -6.186171885071
      0.7868272350D+01 -0.1193324198D+00  0.6899906659D-01
      0.1881288540D+01 -0.1608541517D+00  0.3164239610D+00
      0.5442492580D+00  0.1143456438D+01  0.7443082909D+00
 Atom C17      Shell    51 SP   1    bf  142 -   145          2.826864754788          3.054611846015         -6.186171885071
      0.1687144782D+00  0.1000000000D+01  0.1000000000D+01
 Atom C17      Shell    52 D   1     bf  146 -   151          2.826864754788          3.054611846015         -6.186171885071
      0.8000000000D+00  0.1000000000D+01
 Atom C18      Shell    53 S   6     bf  152 -   152         -4.762508303627          4.092660067070          0.052429884639
      0.3047524880D+04  0.1834737132D-02
      0.4573695180D+03  0.1403732281D-01
      0.1039486850D+03  0.6884262226D-01
      0.2921015530D+02  0.2321844432D+00
      0.9286662960D+01  0.4679413484D+00
      0.3163926960D+01  0.3623119853D+00
 Atom C18      Shell    54 SP   3    bf  153 -   156         -4.762508303627          4.092660067070          0.052429884639
      0.7868272350D+01 -0.1193324198D+00  0.6899906659D-01
      0.1881288540D+01 -0.1608541517D+00  0.3164239610D+00
      0.5442492580D+00  0.1143456438D+01  0.7443082909D+00
 Atom C18      Shell    55 SP   1    bf  157 -   160         -4.762508303627          4.092660067070          0.052429884639
      0.1687144782D+00  0.1000000000D+01  0.1000000000D+01
 Atom C18      Shell    56 D   1     bf  161 -   166         -4.762508303627          4.092660067070          0.052429884639
      0.8000000000D+00  0.1000000000D+01
 Atom H19      Shell    57 S   3     bf  167 -   167         -4.675899395957          2.360773271639          1.176451120521
      0.1873113696D+02  0.3349460434D-01
      0.2825394365D+01  0.2347269535D+00
      0.6401216923D+00  0.8137573261D+00
 Atom H19      Shell    58 S   1     bf  168 -   168         -4.675899395957          2.360773271639          1.176451120521
      0.1612777588D+00  0.1000000000D+01
 Atom H20      Shell    59 S   3     bf  169 -   169         -6.081874271523          3.740291773476         -1.508781362915
      0.1873113696D+02  0.3349460434D-01
      0.2825394365D+01  0.2347269535D+00
      0.6401216923D+00  0.8137573261D+00
 Atom H20      Shell    60 S   1     bf  170 -   170         -6.081874271523          3.740291773476         -1.508781362915
      0.1612777588D+00  0.1000000000D+01
 Atom C21      Shell    61 S   6     bf  171 -   171          1.656307822356          7.333213896985         -4.048016402119
      0.3047524880D+04  0.1834737132D-02
      0.4573695180D+03  0.1403732281D-01
      0.1039486850D+03  0.6884262226D-01
      0.2921015530D+02  0.2321844432D+00
      0.9286662960D+01  0.4679413484D+00
      0.3163926960D+01  0.3623119853D+00
 Atom C21      Shell    62 SP   3    bf  172 -   175          1.656307822356          7.333213896985         -4.048016402119
      0.7868272350D+01 -0.1193324198D+00  0.6899906659D-01
      0.1881288540D+01 -0.1608541517D+00  0.3164239610D+00
      0.5442492580D+00  0.1143456438D+01  0.7443082909D+00
 Atom C21      Shell    63 SP   1    bf  176 -   179          1.656307822356          7.333213896985         -4.048016402119
      0.1687144782D+00  0.1000000000D+01  0.1000000000D+01
 Atom C21      Shell    64 D   1     bf  180 -   185          1.656307822356          7.333213896985         -4.048016402119
      0.8000000000D+00  0.1000000000D+01
 Atom H22      Shell    65 S   3     bf  186 -   186          0.711402161486          7.911536479727         -5.795482553324
      0.1873113696D+02  0.3349460434D-01
      0.2825394365D+01  0.2347269535D+00
      0.6401216923D+00  0.8137573261D+00
 Atom H22      Shell    66 S   1     bf  187 -   187          0.711402161486          7.911536479727         -5.795482553324
      0.1612777588D+00  0.1000000000D+01
 Atom H23      Shell    67 S   3     bf  188 -   188          3.607529120702          8.010264390060         -4.206972340951
      0.1873113696D+02  0.3349460434D-01
      0.2825394365D+01  0.2347269535D+00
      0.6401216923D+00  0.8137573261D+00
 Atom H23      Shell    68 S   1     bf  189 -   189          3.607529120702          8.010264390060         -4.206972340951
      0.1612777588D+00  0.1000000000D+01
 Atom C24      Shell    69 S   6     bf  190 -   190         -5.608022061092          6.417603318648          1.635636523928
      0.3047524880D+04  0.1834737132D-02
      0.4573695180D+03  0.1403732281D-01
      0.1039486850D+03  0.6884262226D-01
      0.2921015530D+02  0.2321844432D+00
      0.9286662960D+01  0.4679413484D+00
      0.3163926960D+01  0.3623119853D+00
 Atom C24      Shell    70 SP   3    bf  191 -   194         -5.608022061092          6.417603318648          1.635636523928
      0.7868272350D+01 -0.1193324198D+00  0.6899906659D-01
      0.1881288540D+01 -0.1608541517D+00  0.3164239610D+00
      0.5442492580D+00  0.1143456438D+01  0.7443082909D+00
 Atom C24      Shell    71 SP   1    bf  195 -   198         -5.608022061092          6.417603318648          1.635636523928
      0.1687144782D+00  0.1000000000D+01  0.1000000000D+01
 Atom C24      Shell    72 D   1     bf  199 -   204         -5.608022061092          6.417603318648          1.635636523928
      0.8000000000D+00  0.1000000000D+01
 Atom H25      Shell    73 S   3     bf  205 -   205         -7.494554896964          7.052159748043          1.059244523198
      0.1873113696D+02  0.3349460434D-01
      0.2825394365D+01  0.2347269535D+00
      0.6401216923D+00  0.8137573261D+00
 Atom H25      Shell    74 S   1     bf  206 -   206         -7.494554896964          7.052159748043          1.059244523198
      0.1612777588D+00  0.1000000000D+01
 Atom H26      Shell    75 S   3     bf  207 -   207         -5.741568043143          5.954423525525          3.646719111622
      0.1873113696D+02  0.3349460434D-01
      0.2825394365D+01  0.2347269535D+00
      0.6401216923D+00  0.8137573261D+00
 Atom H26      Shell    76 S   1     bf  208 -   208         -5.741568043143          5.954423525525          3.646719111622
      0.1612777588D+00  0.1000000000D+01
 Atom C27      Shell    77 S   6     bf  209 -   209         -0.848615213789          0.517459001550         -2.547972225774
      0.3047524880D+04  0.1834737132D-02
      0.4573695180D+03  0.1403732281D-01
      0.1039486850D+03  0.6884262226D-01
      0.2921015530D+02  0.2321844432D+00
      0.9286662960D+01  0.4679413484D+00
      0.3163926960D+01  0.3623119853D+00
 Atom C27      Shell    78 SP   3    bf  210 -   213         -0.848615213789          0.517459001550         -2.547972225774
      0.7868272350D+01 -0.1193324198D+00  0.6899906659D-01
      0.1881288540D+01 -0.1608541517D+00  0.3164239610D+00
      0.5442492580D+00  0.1143456438D+01  0.7443082909D+00
 Atom C27      Shell    79 SP   1    bf  214 -   217         -0.848615213789          0.517459001550         -2.547972225774
      0.1687144782D+00  0.1000000000D+01  0.1000000000D+01
 Atom C27      Shell    80 D   1     bf  218 -   223         -0.848615213789          0.517459001550         -2.547972225774
      0.8000000000D+00  0.1000000000D+01
 Atom H28      Shell    81 S   3     bf  224 -   224         -2.765826090469         -0.265594034888         -2.584258614697
      0.1873113696D+02  0.3349460434D-01
      0.2825394365D+01  0.2347269535D+00
      0.6401216923D+00  0.8137573261D+00
 Atom H28      Shell    82 S   1     bf  225 -   225         -2.765826090469         -0.265594034888         -2.584258614697
      0.1612777588D+00  0.1000000000D+01
 Atom C29      Shell    83 S   6     bf  226 -   226         -4.780283577859         11.234121261269          1.428215440370
      0.3047524880D+04  0.1834737132D-02
      0.4573695180D+03  0.1403732281D-01
      0.1039486850D+03  0.6884262226D-01
      0.2921015530D+02  0.2321844432D+00
      0.9286662960D+01  0.4679413484D+00
      0.3163926960D+01  0.3623119853D+00
 Atom C29      Shell    84 SP   3    bf  227 -   230         -4.780283577859         11.234121261269          1.428215440370
      0.7868272350D+01 -0.1193324198D+00  0.6899906659D-01
      0.1881288540D+01 -0.1608541517D+00  0.3164239610D+00
      0.5442492580D+00  0.1143456438D+01  0.7443082909D+00
 Atom C29      Shell    85 SP   1    bf  231 -   234         -4.780283577859         11.234121261269          1.428215440370
      0.1687144782D+00  0.1000000000D+01  0.1000000000D+01
 Atom C29      Shell    86 D   1     bf  235 -   240         -4.780283577859         11.234121261269          1.428215440370
      0.8000000000D+00  0.1000000000D+01
 Atom H30      Shell    87 S   3     bf  241 -   241         -6.281775945826         11.395457158988          0.000000000000
      0.1873113696D+02  0.3349460434D-01
      0.2825394365D+01  0.2347269535D+00
      0.6401216923D+00  0.8137573261D+00
 Atom H30      Shell    88 S   1     bf  242 -   242         -6.281775945826         11.395457158988          0.000000000000
      0.1612777588D+00  0.1000000000D+01
 Atom C31      Shell    89 S   6     bf  243 -   243         -4.056818009453          8.456256632676         -3.636310424493
      0.3047524880D+04  0.1834737132D-02
      0.4573695180D+03  0.1403732281D-01
      0.1039486850D+03  0.6884262226D-01
      0.2921015530D+02  0.2321844432D+00
      0.9286662960D+01  0.4679413484D+00
      0.3163926960D+01  0.3623119853D+00
 Atom C31      Shell    90 SP   3    bf  244 -   247         -4.056818009453          8.456256632676         -3.636310424493
      0.7868272350D+01 -0.1193324198D+00  0.6899906659D-01
      0.1881288540D+01 -0.1608541517D+00  0.3164239610D+00
      0.5442492580D+00  0.1143456438D+01  0.7443082909D+00
 Atom C31      Shell    91 SP   1    bf  248 -   251         -4.056818009453          8.456256632676         -3.636310424493
      0.1687144782D+00  0.1000000000D+01  0.1000000000D+01
 Atom C31      Shell    92 D   1     bf  252 -   257         -4.056818009453          8.456256632676         -3.636310424493
      0.8000000000D+00  0.1000000000D+01
 Atom H32      Shell    93 S   3     bf  258 -   258         -3.431453831578          7.582701663761         -5.400479014610
      0.1873113696D+02  0.3349460434D-01
      0.2825394365D+01  0.2347269535D+00
      0.6401216923D+00  0.8137573261D+00
 Atom H32      Shell    94 S   1     bf  259 -   259         -3.431453831578          7.582701663761         -5.400479014610
      0.1612777588D+00  0.1000000000D+01
 Atom H33      Shell    95 S   3     bf  260 -   260         -6.015304189841          7.868656212717         -3.328518521599
      0.1873113696D+02  0.3349460434D-01
      0.2825394365D+01  0.2347269535D+00
      0.6401216923D+00  0.8137573261D+00
 Atom H33      Shell    96 S   1     bf  261 -   261         -6.015304189841          7.868656212717         -3.328518521599
      0.1612777588D+00  0.1000000000D+01
 Atom H34      Shell    97 S   3     bf  262 -   262         -4.069231771598         10.503323064139         -3.942481528180
      0.1873113696D+02  0.3349460434D-01
      0.2825394365D+01  0.2347269535D+00
      0.6401216923D+00  0.8137573261D+00
 Atom H34      Shell    98 S   1     bf  263 -   263         -4.069231771598         10.503323064139         -3.942481528180
      0.1612777588D+00  0.1000000000D+01
 Atom C35      Shell    99 S   6     bf  264 -   264          2.424480928456          0.188686395368         -6.003131443367
      0.3047524880D+04  0.1834737132D-02
      0.4573695180D+03  0.1403732281D-01
      0.1039486850D+03  0.6884262226D-01
      0.2921015530D+02  0.2321844432D+00
      0.9286662960D+01  0.4679413484D+00
      0.3163926960D+01  0.3623119853D+00
 Atom C35      Shell   100 SP   3    bf  265 -   268          2.424480928456          0.188686395368         -6.003131443367
      0.7868272350D+01 -0.1193324198D+00  0.6899906659D-01
      0.1881288540D+01 -0.1608541517D+00  0.3164239610D+00
      0.5442492580D+00  0.1143456438D+01  0.7443082909D+00
 Atom C35      Shell   101 SP   1    bf  269 -   272          2.424480928456          0.188686395368         -6.003131443367
      0.1687144782D+00  0.1000000000D+01  0.1000000000D+01
 Atom C35      Shell   102 D   1     bf  273 -   278          2.424480928456          0.188686395368         -6.003131443367
      0.8000000000D+00  0.1000000000D+01
 Atom C36      Shell   103 S   6     bf  279 -   279          5.727459801369          3.581753501913         -6.223343535098
      0.3047524880D+04  0.1834737132D-02
      0.4573695180D+03  0.1403732281D-01
      0.1039486850D+03  0.6884262226D-01
      0.2921015530D+02  0.2321844432D+00
      0.9286662960D+01  0.4679413484D+00
      0.3163926960D+01  0.3623119853D+00
 Atom C36      Shell   104 SP   3    bf  280 -   283          5.727459801369          3.581753501913         -6.223343535098
      0.7868272350D+01 -0.1193324198D+00  0.6899906659D-01
      0.1881288540D+01 -0.1608541517D+00  0.3164239610D+00
      0.5442492580D+00  0.1143456438D+01  0.7443082909D+00
 Atom C36      Shell   105 SP   1    bf  284 -   287          5.727459801369          3.581753501913         -6.223343535098
      0.1687144782D+00  0.1000000000D+01  0.1000000000D+01
 Atom C36      Shell   106 D   1     bf  288 -   293          5.727459801369          3.581753501913         -6.223343535098
      0.8000000000D+00  0.1000000000D+01
 Atom H37      Shell   107 S   3     bf  294 -   294          6.477039740870          3.226875349658         -4.319440393305
      0.1873113696D+02  0.3349460434D-01
      0.2825394365D+01  0.2347269535D+00
      0.6401216923D+00  0.8137573261D+00
 Atom H37      Shell   108 S   1     bf  295 -   295          6.477039740870          3.226875349658         -4.319440393305
      0.1612777588D+00  0.1000000000D+01
 Atom H38      Shell   109 S   3     bf  296 -   296          6.053355790842          5.587808870074         -6.614844296350
      0.1873113696D+02  0.3349460434D-01
      0.2825394365D+01  0.2347269535D+00
      0.6401216923D+00  0.8137573261D+00
 Atom H38      Shell   110 S   1     bf  297 -   297          6.053355790842          5.587808870074         -6.614844296350
      0.1612777588D+00  0.1000000000D+01
 Atom C39      Shell   111 S   6     bf  298 -   298          0.780009575809         -0.887890299078         -4.396821314734
      0.3047524880D+04  0.1834737132D-02
      0.4573695180D+03  0.1403732281D-01
      0.1039486850D+03  0.6884262226D-01
      0.2921015530D+02  0.2321844432D+00
      0.9286662960D+01  0.4679413484D+00
      0.3163926960D+01  0.3623119853D+00
 Atom C39      Shell   112 SP   3    bf  299 -   302          0.780009575809         -0.887890299078         -4.396821314734
      0.7868272350D+01 -0.1193324198D+00  0.6899906659D-01
      0.1881288540D+01 -0.1608541517D+00  0.3164239610D+00
      0.5442492580D+00  0.1143456438D+01  0.7443082909D+00
 Atom C39      Shell   113 SP   1    bf  303 -   306          0.780009575809         -0.887890299078         -4.396821314734
      0.1687144782D+00  0.1000000000D+01  0.1000000000D+01
 Atom C39      Shell   114 D   1     bf  307 -   312          0.780009575809         -0.887890299078         -4.396821314734
      0.8000000000D+00  0.1000000000D+01
 Atom H40      Shell   115 S   3     bf  313 -   313          0.626483897300         -2.940543857031         -4.341966457932
[...]
 **** Fit       0.004833
 **** Fit       0.006558
 **** Fit       0.008479
 **** Fit       0.009831
 **** Fit       0.010012
 **** Fit       0.009132
 **** Fit       0.007829
 **** Fit       0.006655
 **** Fit       0.005816
 **** Fit       0.005283
 **** Fit       0.004959
 **** Fit       0.004757
 **** Fit       0.003732
 **** Fit       0.003657
 **** Fit       0.003775
 **** Fit       0.004204
 **** Fit       0.005029
 **** Fit       0.006205
 **** Fit       0.007463
 **** Fit       0.008357
 **** Fit       0.008546
 **** Fit       0.008068
 **** Fit       0.007257
 **** Fit       0.006448
 **** Fit       0.005804
 **** Fit       0.005347
 **** Fit       0.005038
 **** Fit       0.004015
 **** Fit       0.004143
 **** Fit       0.004471
 **** Fit       0.005035
 **** Fit       0.005787
 **** Fit       0.006566
 **** Fit       0.007131
 **** Fit       0.007305
 **** Fit       0.007087
 **** Fit       0.006631
 **** Fit       0.006115
 **** Fit       0.005654
 **** Fit       0.005289
 **** Fit       0.005016
 **** Fit       0.004371
 **** Fit       0.004619
 **** Fit       0.005001
 **** Fit       0.005479
 **** Fit       0.005960
 **** Fit       0.006317
 **** Fit       0.006458
 **** Fit       0.006369
 **** Fit       0.006116
 **** Fit       0.005789
 **** Fit       0.005462
 **** Fit       0.005175
 **** Fit       0.004506
 **** Fit       0.004698
 **** Fit       0.004966
 **** Fit       0.005281
 **** Fit       0.005588
 **** Fit       0.005820
 **** Fit       0.005924
 **** Fit       0.005887
 **** Fit       0.005736
 **** Fit       0.005517
 **** Fit       0.005276
 **** Fit       0.004927
 **** Fit       0.005146
 **** Fit       0.005354
 **** Fit       0.005510
 **** Fit       0.005584
 **** Fit       0.005564
 **** Fit       0.005461
 **** Fit      -0.023319
 **** Fit      -0.024373
 **** Fit      -0.024398
 **** Fit      -0.020659
 **** Fit      -0.023840
 **** Fit      -0.026241
 **** Fit      -0.027500
 **** Fit      -0.027448
 **** Fit      -0.026174
 **** Fit      -0.023969
 **** Fit      -0.018184
 **** Fit      -0.022345
 **** Fit      -0.026147
 **** Fit      -0.029020
 **** Fit      -0.030483
 **** Fit      -0.030319
 **** Fit      -0.028663
 **** Fit      -0.025922
 **** Fit      -0.022602
 **** Fit      -0.014305
 **** Fit      -0.018842
 **** Fit      -0.023597
 **** Fit      -0.027990
 **** Fit      -0.031310
 **** Fit      -0.032945
 **** Fit      -0.032633
 **** Fit      -0.030569
 **** Fit      -0.027294
 **** Fit      -0.023439
 **** Fit      -0.009835
 **** Fit      -0.014045
 **** Fit      -0.018950
 **** Fit      -0.024162
 **** Fit      -0.029014
 **** Fit      -0.032670
 **** Fit      -0.034405
 **** Fit      -0.033924
 **** Fit      -0.031491
 **** Fit      -0.027770
 **** Fit      -0.023505
 **** Fit      -0.019276
 **** Fit      -0.015432
 **** Fit      -0.005627
 **** Fit      -0.009022
 **** Fit      -0.013315
 **** Fit      -0.018377
 **** Fit      -0.023801
 **** Fit      -0.028866
 **** Fit      -0.032656
 **** Fit      -0.034384
 **** Fit      -0.033746
 **** Fit      -0.031066
 **** Fit      -0.027095
 **** Fit      -0.022638
 **** Fit      -0.018301
 **** Fit      -0.014420
 **** Fit      -0.011124
 **** Fit      -0.008424
 **** Fit      -0.004656
 **** Fit      -0.007934
 **** Fit      -0.012113
 **** Fit      -0.017066
 **** Fit      -0.022381
 **** Fit      -0.027329
 **** Fit      -0.030991
 **** Fit      -0.032588
 **** Fit      -0.031842
 **** Fit      -0.029112
 **** Fit      -0.025163
 **** Fit      -0.020799
 **** Fit      -0.016604
 **** Fit      -0.012888
 **** Fit      -0.009761
 **** Fit      -0.007220
 **** Fit      -0.005206
 **** Fit      -0.003599
 **** Fit      -0.006633
 **** Fit      -0.010502
 **** Fit      -0.015075
 **** Fit      -0.019953
 **** Fit      -0.024450
 **** Fit      -0.027724
 **** Fit      -0.029081
 **** Fit      -0.028299
 **** Fit      -0.025729
 **** Fit      -0.022084
 **** Fit      -0.018095
 **** Fit      -0.014284
 **** Fit      -0.010924
 **** Fit      -0.008107
 **** Fit      -0.005825
 **** Fit      -0.004024
 **** Fit      -0.005201
 **** Fit      -0.008606
 **** Fit      -0.012585
 **** Fit      -0.016773
 **** Fit      -0.020567
 **** Fit      -0.023264
 **** Fit      -0.024306
 **** Fit      -0.023543
 **** Fit      -0.021292
 **** Fit      -0.018160
 **** Fit      -0.014756
 **** Fit      -0.011515
 **** Fit      -0.008657
 **** Fit      -0.006259
 **** Fit      -0.004313
 **** Fit      -0.002777
 **** Fit      -0.003735
 **** Fit      -0.006584
 **** Fit      -0.009855
 **** Fit      -0.013221
 **** Fit      -0.016192
 **** Fit      -0.018221
 **** Fit      -0.018907
 **** Fit      -0.018173
 **** Fit      -0.016300
 **** Fit      -0.013773
 **** Fit      -0.011065
 **** Fit      -0.008498
 **** Fit      -0.006233
 **** Fit      -0.004322
 **** Fit      -0.002761
 **** Fit      -0.007144
 **** Fit      -0.009683
 **** Fit      -0.011828
 **** Fit      -0.013181
 **** Fit      -0.013482
 **** Fit      -0.012732
 **** Fit      -0.011195
 **** Fit      -0.009261
 **** Fit      -0.007269
 **** Fit      -0.005417
 **** Fit      -0.003786
 **** Fit      -0.002394
 **** Fit      -0.001239
 **** Fit      -0.004652
 **** Fit      -0.006440
 **** Fit      -0.007835
 **** Fit      -0.008552
 **** Fit      -0.008444
 **** Fit      -0.007591
 **** Fit      -0.006287
 **** Fit      -0.004871
 **** Fit      -0.003565
 **** Fit      -0.002427
 **** Fit      -0.001434
 **** Fit      -0.000563
 **** Fit       0.000190
 **** Fit       0.000822
 **** Fit      -0.002495
 **** Fit      -0.003654
 **** Fit      -0.004414
 **** Fit      -0.004567
 **** Fit      -0.004045
 **** Fit      -0.003013
 **** Fit      -0.001829
 **** Fit      -0.000834
 **** Fit      -0.000150
 **** Fit       0.000316
 **** Fit       0.000705
 **** Fit       0.001088
 **** Fit       0.001470
 **** Fit       0.001825
 **** Fit       0.000155
 **** Fit      -0.000717
 **** Fit      -0.001385
 **** Fit      -0.001651
 **** Fit      -0.001355
 **** Fit      -0.000484
 **** Fit       0.000730
 **** Fit       0.001857
 **** Fit       0.002532
 **** Fit       0.002710
 **** Fit       0.002618
 **** Fit       0.002503
 **** Fit       0.002478
 **** Fit       0.002548
 **** Fit       0.002670
 **** Fit       0.001225
 **** Fit       0.000688
 **** Fit       0.000372
 **** Fit       0.000441
 **** Fit       0.001020
 **** Fit       0.002086
 **** Fit       0.003373
 **** Fit       0.004424
 **** Fit       0.004878
 **** Fit       0.004736
 **** Fit       0.004291
 **** Fit       0.003846
 **** Fit       0.003542
 **** Fit       0.003388
 **** Fit       0.003337
 **** Fit       0.002058
 **** Fit       0.001756
 **** Fit       0.001665
 **** Fit       0.001915
 **** Fit       0.002592
 **** Fit       0.003653
 **** Fit       0.004844
 **** Fit       0.005755
 **** Fit       0.006075
 **** Fit       0.005817
 **** Fit       0.005260
 **** Fit       0.004691
 **** Fit       0.004258
 **** Fit       0.003979
 **** Fit       0.003819
 **** Fit       0.002540
 **** Fit       0.002574
 **** Fit       0.002881
 **** Fit       0.003514
 **** Fit       0.004418
 **** Fit       0.005385
 **** Fit       0.006107
 **** Fit       0.006351
 **** Fit       0.006123
 **** Fit       0.005631
 **** Fit       0.005099
 **** Fit       0.004659
 **** Fit       0.004342
 **** Fit       0.004130
 **** Fit       0.003097
 **** Fit       0.003187
 **** Fit       0.003479
 **** Fit       0.003997
 **** Fit       0.004687
 **** Fit       0.005401
 **** Fit       0.005931
 **** Fit       0.006126
 **** Fit       0.005981
 **** Fit       0.005622
 **** Fit       0.005202
 **** Fit       0.004822
 **** Fit       0.004523
 **** Fit       0.003591
 **** Fit       0.003839
 **** Fit       0.004231
 **** Fit       0.004726
 **** Fit       0.005223
 **** Fit       0.005596
 **** Fit       0.005750
 **** Fit       0.005676
 **** Fit       0.005441
 **** Fit       0.005137
 **** Fit       0.004837
 **** Fit       0.004578
 **** Fit       0.003851
 **** Fit       0.004051
 **** Fit       0.004340
 **** Fit       0.004686
 **** Fit       0.005026
 **** Fit       0.005283
 **** Fit       0.005401
 **** Fit       0.005369
 **** Fit       0.005219
 **** Fit       0.005005
 **** Fit       0.004774
 **** Fit       0.004386
 **** Fit       0.004630
 **** Fit       0.004863
 **** Fit       0.005041
 **** Fit       0.005128
 **** Fit       0.005114
 **** Fit       0.005015
 **** Fit       0.004860
 **** Fit       0.004737
 **** Fit       0.004861
 **** Fit       0.004923
 **** Fit       0.004914
 **** Fit      -0.021182
 **** Fit      -0.023151
 **** Fit      -0.024173
 **** Fit      -0.024123
 **** Fit      -0.019285
 **** Fit      -0.022248
 **** Fit      -0.024451
 **** Fit      -0.025560
 **** Fit      -0.025434
 **** Fit      -0.024168
 **** Fit      -0.019501
 **** Fit      -0.022694
 **** Fit      -0.025057
 **** Fit      -0.026210
 **** Fit      -0.025999
 **** Fit      -0.024548
 **** Fit      -0.022194
 **** Fit      -0.015406
 **** Fit      -0.019055
 **** Fit      -0.022333
 **** Fit      -0.024742
 **** Fit      -0.025879
 **** Fit      -0.025588
 **** Fit      -0.024019
 **** Fit      -0.021541
 **** Fit      -0.014328
 **** Fit      -0.017886
 **** Fit      -0.021071
 **** Fit      -0.023388
 **** Fit      -0.024442
 **** Fit      -0.024091
 **** Fit      -0.022497
 **** Fit      -0.020038
 **** Fit      -0.016041
 **** Fit      -0.018956
 **** Fit      -0.021047
 **** Fit      -0.021958
 **** Fit      -0.021572
 **** Fit      -0.020052
 **** Fit      -0.017756
 **** Fit      -0.013678
 **** Fit      -0.016185
 **** Fit      -0.017945
 **** Fit      -0.018666
 **** Fit      -0.018266
 **** Fit      -0.016898
 **** Fit      -0.014876
 **** Fit      -0.012552
 **** Fit      -0.010210
 **** Fit      -0.013047
 **** Fit      -0.014417
 **** Fit      -0.014919
 **** Fit      -0.014508
 **** Fit      -0.013327
 **** Fit      -0.011639
 **** Fit      -0.009727
 **** Fit      -0.007814
 **** Fit      -0.006041
 **** Fit      -0.009844
 **** Fit      -0.010807
 **** Fit      -0.011072
 **** Fit      -0.010635
 **** Fit      -0.009633
 **** Fit      -0.008287
 **** Fit      -0.006808
 **** Fit      -0.005353
 **** Fit      -0.004009
 **** Fit      -0.002820
 **** Fit      -0.005780
 **** Fit      -0.006819
 **** Fit      -0.007391
 **** Fit      -0.007414
 **** Fit      -0.006923
 **** Fit      -0.006067
 **** Fit      -0.005031
 **** Fit      -0.003969
 **** Fit      -0.002964
 **** Fit      -0.002048
 **** Fit      -0.001231
 **** Fit      -0.000516
 **** Fit      -0.002608
 **** Fit      -0.003514
 **** Fit      -0.004138
 **** Fit      -0.004362
 **** Fit      -0.004154
 **** Fit      -0.003590
 **** Fit      -0.002836
 **** Fit      -0.002063
 **** Fit      -0.001371
 **** Fit      -0.000778
 **** Fit      -0.000257
 **** Fit       0.000217
 **** Fit       0.000648
 **** Fit      -0.001044
 **** Fit      -0.001601
 **** Fit      -0.001892
 **** Fit      -0.001836
 **** Fit      -0.001438
 **** Fit      -0.000808
 **** Fit      -0.000128
 **** Fit       0.000438
 **** Fit       0.000828
 **** Fit       0.001081
 **** Fit       0.001274
 **** Fit       0.001459
 **** Fit       0.001651
 **** Fit       0.000234
 **** Fit      -0.000062
 **** Fit      -0.000113
 **** Fit       0.000132
 **** Fit       0.000646
 **** Fit       0.001302
 **** Fit       0.001913
 **** Fit       0.002324
 **** Fit       0.002501
 **** Fit       0.002517
 **** Fit       0.002476
 **** Fit       0.002450
 **** Fit       0.002462
 **** Fit       0.001240
 **** Fit       0.001122
 **** Fit       0.001218
 **** Fit       0.001557
 **** Fit       0.002099
 **** Fit       0.002720
 **** Fit       0.003248
 **** Fit       0.003550
 **** Fit       0.003606
 **** Fit       0.003494
 **** Fit       0.003325
 **** Fit       0.003173
 **** Fit       0.003071
 **** Fit       0.001995
 **** Fit       0.002160
 **** Fit       0.002513
 **** Fit       0.003010
 **** Fit       0.003546
 **** Fit       0.003979
 **** Fit       0.004206
 **** Fit       0.004212
 **** Fit       0.004062
 **** Fit       0.003852
 **** Fit       0.003650
 **** Fit       0.003490
 **** Fit       0.002617
 **** Fit       0.002798
 **** Fit       0.003115
 **** Fit       0.003529
 **** Fit       0.003956
 **** Fit       0.004294
 **** Fit       0.004468
 **** Fit       0.004463
 **** Fit       0.004327
 **** Fit       0.004129
 **** Fit       0.003926
 **** Fit       0.003217
 **** Fit       0.003479
 **** Fit       0.003801
 **** Fit       0.004125
 **** Fit       0.004378
 **** Fit       0.004510
 **** Fit       0.004510
 **** Fit       0.004404
 **** Fit       0.004239
 **** Fit       0.004060
 **** Fit       0.003693
 **** Fit       0.003936
 **** Fit       0.004173
 **** Fit       0.004359
 **** Fit       0.004458
 **** Fit       0.004461
 **** Fit       0.004383
 **** Fit       0.004253
 **** Fit       0.004169
 **** Fit       0.004303
 **** Fit       0.004376
 **** Fit       0.004379
 **** Fit      -0.011719
 **** Fit      -0.010956
 **** Fit      -0.009811
 **** Fit      -0.008453
 **** Fit      -0.008924
 **** Fit      -0.009151
 **** Fit      -0.008895
 **** Fit      -0.008232
 **** Fit      -0.007288
 **** Fit      -0.006198
 **** Fit      -0.005073
 **** Fit      -0.005908
 **** Fit      -0.006364
 **** Fit      -0.006439
 **** Fit      -0.006151
 **** Fit      -0.005576
 **** Fit      -0.004824
 **** Fit      -0.003994
 **** Fit      -0.003162
 **** Fit      -0.002371
 **** Fit      -0.003801
 **** Fit      -0.004035
 **** Fit      -0.003971
 **** Fit      -0.003646
 **** Fit      -0.003143
 **** Fit      -0.002558
 **** Fit      -0.001964
 **** Fit      -0.001399
 **** Fit      -0.000875
 **** Fit      -0.000395
 **** Fit      -0.001981
 **** Fit      -0.002033
 **** Fit      -0.001854
 **** Fit      -0.001499
 **** Fit      -0.001054
 **** Fit      -0.000608
 **** Fit      -0.000210
 **** Fit       0.000131
 **** Fit       0.000428
 **** Fit       0.000699
 **** Fit      -0.000375
 **** Fit      -0.000485
 **** Fit      -0.000405
 **** Fit      -0.000150
 **** Fit       0.000217
 **** Fit       0.000608
 **** Fit       0.000946
 **** Fit       0.001196
 **** Fit       0.001367
 **** Fit       0.001493
 **** Fit       0.001602
 **** Fit       0.000688
 **** Fit       0.000846
 **** Fit       0.001133
 **** Fit       0.001486
 **** Fit       0.001824
 **** Fit       0.002079
 **** Fit       0.002227
 **** Fit       0.002288
 **** Fit       0.002301
 **** Fit       0.002302
 **** Fit       0.001568
 **** Fit       0.001757
 **** Fit       0.002038
 **** Fit       0.002355
 **** Fit       0.002636
 **** Fit       0.002830
 **** Fit       0.002917
 **** Fit       0.002918
 **** Fit       0.002870
 **** Fit       0.002808
 **** Fit       0.002204
 **** Fit       0.002392
 **** Fit       0.002642
 **** Fit       0.002907
 **** Fit       0.003135
 **** Fit       0.003281
 **** Fit       0.003334
 **** Fit       0.003309
 **** Fit       0.003237
 **** Fit       0.002819
 **** Fit       0.003027
 **** Fit       0.003240
 **** Fit       0.003417
 **** Fit       0.003528
 **** Fit       0.003562
 **** Fit       0.003531
 **** Fit       0.003431
 **** Fit       0.003566
 **** Fit       0.003649
 **** Fit      -0.005404
 **** Fit      -0.005012
 **** Fit      -0.004464
 **** Fit      -0.003827
 **** Fit      -0.003673
 **** Fit      -0.003481
 **** Fit      -0.003137
 **** Fit      -0.002698
 **** Fit      -0.002215
 **** Fit      -0.001724
 **** Fit      -0.002068
 **** Fit      -0.001999
 **** Fit      -0.001790
 **** Fit      -0.001487
 **** Fit      -0.001142
 **** Fit      -0.000791
 **** Fit      -0.000456
 **** Fit      -0.000722
 **** Fit      -0.000599
 **** Fit      -0.000383
 **** Fit      -0.000119
 **** Fit       0.000149
 **** Fit       0.000394
 **** Fit       0.000607
 **** Fit       0.000512
 **** Fit       0.000723
 **** Fit       0.000950
 **** Fit       0.001157
 **** Fit       0.001323
 **** Fit       0.001448
 **** Fit       0.001353
 **** Fit       0.001547
 **** Fit       0.001739
 **** Fit       0.001898
 **** Fit       0.002009
 **** Fit       0.002134
 **** Fit       0.002291
 **** Fit       0.002413
 -----------------------------------------------------------------
 Leave Link  602 at Wed May 17 13:26:02 2017, MaxMem=   33554432 cpu:      89.2
 (Enter /scratch/michal/g09/l9999.exe)

 Test job not archived.
 1\1\GINC-RZEPICHA\SP\RHF\6-31G(d)\C27H46O2\MICHAL\17-May-2017\0\\#P HF
 /6-31G* SCF(Conver=6) NoSymm Test Pop=chelpg IOp(6/33=2) GFInput GFPri
 nt\\MEP - Input generated by R.E.D.-III.x MOLECULE\\0,1\O,0,0.,0.,0.\H
 ,0,0.966545,0.,0.\O,0,4.36117683,-1.26632113,-4.9468925\H,0,4.0874994,
 -1.06993782,-5.8539218\C,0,-1.23887811,4.1060006,-0.72893718\C,0,-1.13
 703345,2.57209855,-0.50128376\H,0,-0.44058092,2.44668684,0.33993938\C,
 0,-0.53056661,1.78166615,-1.66696151\H,0,-1.1906151,1.86763209,-2.5423
 3902\C,0,0.8703804,2.33739437,-2.02837525\H,0,1.52284941,2.0868157,-1.
 17536164\C,0,-1.91622495,4.52895225,0.6207974\H,0,-1.1328679,4.4366572
 ,1.38742876\C,0,0.20077282,4.6076127,-0.96128832\H,0,0.78339877,4.4400
 7709,-0.04399072\H,0,0.23082621,5.68435244,-1.15708689\C,0,1.4959124,1
 .61643097,-3.27358117\C,0,-2.52021085,2.16574243,0.0277447\H,0,-2.4743
 7939,1.24926741,0.62255112\H,0,-3.21838925,1.97927716,-0.79841271\C,0,
 0.87648035,3.88056966,-2.14211802\H,0,0.37645781,4.18660479,-3.0668372
 8\H,0,1.90902219,4.23884935,-2.22623388\C,0,-2.96763746,3.39604941,0.8
 6554157\H,0,-3.96594764,3.73184221,0.56052806\H,0,-3.03830695,3.150945
 22,1.92976064\C,0,-0.44906783,0.27382751,-1.34832883\H,0,-1.46361213,-
 0.14054631,-1.36753076\C,0,-2.52961712,5.94484093,0.75577906\H,0,-3.32
 417266,6.03021621,0.\C,0,-2.14677563,4.47485828,-1.9242526\H,0,-1.8158
 4716,4.0125929,-2.85781041\H,0,-3.18316188,4.16391353,-1.76137614\H,0,
 -2.15334471,5.55811918,-2.08627137\C,0,1.28298005,0.09984854,-3.176720
 34\C,0,3.03084119,1.89538232,-3.29325156\H,0,3.42750181,1.70758889,-2.
 28574941\H,0,3.20329792,2.9569411,-3.50042484\C,0,0.41276329,-0.469851
 31,-2.32669763\H,0,0.331521,-1.55606879,-2.29766969\C,0,0.86131645,2.1
 1373772,-4.60098919\H,0,1.14062181,3.15043433,-4.81148651\H,0,1.188686
 81,1.51330682,-5.45336025\H,0,-0.23056493,2.05339389,-4.56526848\C,0,2
 .10562477,-0.76838688,-4.11101079\H,0,1.9467996,-1.8266992,-3.88195285
 \H,0,1.77226693,-0.61743424,-5.15020326\C,0,3.83242588,1.04729688,-4.2
 9250543\H,0,3.54254347,1.29248353,-5.32493293\H,0,4.90092047,1.2743689
 2,-4.20461771\C,0,-3.23750561,6.15006972,2.12315806\H,0,-3.71885686,7.
 13880135,2.10018656\H,0,-4.05339638,5.4244442,2.21499246\C,0,3.6063773
 8,-0.44516137,-4.0522766\H,0,3.98854049,-0.7107699,-3.05888461\C,0,-1.
 52756598,7.08473476,0.49206278\H,0,-0.61385774,6.97475985,1.0865541\H,
 0,-1.97412662,8.05345542,0.74610225\H,0,-1.23025511,7.13123011,-0.5586
 5421\C,0,-2.34382671,6.07642155,3.37311742\H,0,-1.92887547,5.06671313,
 3.48127687\H,0,-1.48092894,6.74168628,3.2439213\C,0,-3.05559117,6.4879
 1211,4.67623711\H,0,-3.41952938,7.51929497,4.56117533\H,0,-2.31337084,
 6.51798155,5.48786007\C,0,-4.23415131,5.60457548,5.13847835\H,0,-4.977
 29835,5.56781545,4.3291597\C,0,-4.91880689,6.23323718,6.36286185\H,0,-
 4.2233197,6.29739152,7.20971556\H,0,-5.78106992,5.63885524,6.68611103\
 H,0,-5.27280367,7.24767593,6.14592001\C,0,-3.79983462,4.16289123,5.446
 92406\H,0,-3.0426018,4.14654169,6.2416918\H,0,-4.65069133,3.56170181,5
 .78711984\H,0,-3.37372056,3.66277567,4.5713571\\Version=EM64L-G09RevC.
 01\HF=-1198.9264694\RMSD=4.893e-07\Dipole=-0.0110376,0.6809068,-0.8067
 226\Quadrupole=-5.2509663,-1.326648,6.5776143,5.549915,3.1936466,-5.33
 49134\PG=C01 [X(C27H46O2)]\\@


 This summer one third of the nation will be ill-housed
 ill-nourished and ill-clad. Only they call it a vacation.
 -- Jonas Salk
 Job cpu time:  0 days  0 hours 48 minutes 15.2 seconds.
 File lengths (MBytes):  RWF=    151 Int=      0 D2E=      0 Chk=     11 Scr=      1
 Normal termination of Gaussian 09 at Wed May 17 13:26:02 2017.
