 Entering Gaussian System, Link 0=/home/michal/g09/g09
 Input=JOB2-gau_m1-11-3.com
 Output=JOB2-gau_m1-11-3.log
 Initial command:
 /home/michal/g09/l1.exe "/home/michal/gauss_scratch/Gau-32155.inp" -scrdir="/home/michal/gauss_scratch/"
 Entering Link 1 = /home/michal/g09/l1.exe PID=     32156.
  
 Copyright (c) 1988,1990,1992,1993,1995,1998,2003,2009,2013,
            Gaussian, Inc.  All Rights Reserved.
  
 This is part of the Gaussian(R) 09 program.  It is based on
 the Gaussian(R) 03 system (copyright 2003, Gaussian, Inc.),
 the Gaussian(R) 98 system (copyright 1998, Gaussian, Inc.),
 the Gaussian(R) 94 system (copyright 1995, Gaussian, Inc.),
 the Gaussian 92(TM) system (copyright 1992, Gaussian, Inc.),
 the Gaussian 90(TM) system (copyright 1990, Gaussian, Inc.),
 the Gaussian 88(TM) system (copyright 1988, Gaussian, Inc.),
 the Gaussian 86(TM) system (copyright 1986, Carnegie Mellon
 University), and the Gaussian 82(TM) system (copyright 1983,
 Carnegie Mellon University). Gaussian is a federally registered
 trademark of Gaussian, Inc.
  
 This software contains proprietary and confidential information,
 including trade secrets, belonging to Gaussian, Inc.
  
 This software is provided under written license and may be
 used, copied, transmitted, or stored only in accord with that
 written license.
  
 The following legend is applicable only to US Government
 contracts under FAR:
  
                    RESTRICTED RIGHTS LEGEND
  
 Use, reproduction and disclosure by the US Government is
 subject to restrictions as set forth in subparagraphs (a)
 and (c) of the Commercial Computer Software - Restricted
 Rights clause in FAR 52.227-19.
  
 Gaussian, Inc.
 340 Quinnipiac St., Bldg. 40, Wallingford CT 06492
  
  
 ---------------------------------------------------------------
 Warning -- This program may not be used in any manner that
 competes with the business of Gaussian, Inc. or will provide
 assistance to any competitor of Gaussian, Inc.  The licensee
 of this program is prohibited from giving any competitor of
 Gaussian, Inc. access to this program.  By using this program,
 the user acknowledges that Gaussian, Inc. is engaged in the
 business of creating and licensing software in the field of
 computational chemistry and represents and warrants to the
 licensee that it is not a competitor of Gaussian, Inc. and that
 it will not use this program in any manner prohibited above.
 ---------------------------------------------------------------
  

 Cite this work as:
 Gaussian 09, Revision D.01,
 M. J. Frisch, G. W. Trucks, H. B. Schlegel, G. E. Scuseria, 
 M. A. Robb, J. R. Cheeseman, G. Scalmani, V. Barone, B. Mennucci, 
 G. A. Petersson, H. Nakatsuji, M. Caricato, X. Li, H. P. Hratchian, 
 A. F. Izmaylov, J. Bloino, G. Zheng, J. L. Sonnenberg, M. Hada, 
 M. Ehara, K. Toyota, R. Fukuda, J. Hasegawa, M. Ishida, T. Nakajima, 
 Y. Honda, O. Kitao, H. Nakai, T. Vreven, J. A. Montgomery, Jr., 
 J. E. Peralta, F. Ogliaro, M. Bearpark, J. J. Heyd, E. Brothers, 
 K. N. Kudin, V. N. Staroverov, T. Keith, R. Kobayashi, J. Normand, 
 K. Raghavachari, A. Rendell, J. C. Burant, S. S. Iyengar, J. Tomasi, 
 M. Cossi, N. Rega, J. M. Millam, M. Klene, J. E. Knox, J. B. Cross, 
 V. Bakken, C. Adamo, J. Jaramillo, R. Gomperts, R. E. Stratmann, 
 O. Yazyev, A. J. Austin, R. Cammi, C. Pomelli, J. W. Ochterski, 
 R. L. Martin, K. Morokuma, V. G. Zakrzewski, G. A. Voth, 
 P. Salvador, J. J. Dannenberg, S. Dapprich, A. D. Daniels, 
 O. Farkas, J. B. Foresman, J. V. Ortiz, J. Cioslowski, 
 and D. J. Fox, Gaussian, Inc., Wallingford CT, 2013.
 
 ******************************************
 Gaussian 09:  EM64L-G09RevD.01 24-Apr-2013
                27-Apr-2017 
 ******************************************
 %Mem=256MB
 %NProc=12
 Will use up to   12 processors via shared memory.
 ----------------------------------------------------------------------
 #P HF/6-31G* SCF(Conver=6) NoSymm Test Pop=mk IOp(6/33=2) GFInput GFPr
 int
 ----------------------------------------------------------------------
 1/38=1/1;
 2/12=2,15=1,17=6,18=5,40=1/2;
 3/5=1,6=6,7=1,11=9,16=1,24=110,25=1,30=1/1,2,3;
 4//1;
 5/5=2,6=6,38=5/2;
 6/7=2,8=2,9=2,10=2,15=8,20=1,28=1,33=2/1,2;
 99/5=1,9=1/99;
 Leave Link    1 at Thu Apr 27 15:39:14 2017, MaxMem=    33554432 cpu:         0.6
 (Enter /home/michal/g09/l101.exe)
 ----------------------------------------------
 MEP - Input generated by R.E.D.-III.x MOLECULE
 ----------------------------------------------
 Symbolic Z-matrix:
 Charge =  0 Multiplicity = 1
 C                    -1.00417   1.98204   1.68859 
 H                    -0.98817   1.00318   2.18328 
 C                     0.32491   2.70126   1.95966 
 H                     0.48155   2.79663   3.03877 
 H                     0.23546   3.72495   1.56108 
 C                     1.51137   2.01079   1.3146 
 C                     1.3974    1.65413  -0.17173 
 C                    -0.00434   1.01487  -0.42143 
 H                     0.        0.        0. 
 H                    -0.16549   0.90214  -1.49853 
 C                    -1.18933   1.78186   0.18525 
 H                    -1.29867   2.76511  -0.29607 
 H                    -2.12167   1.23646   0. 
 C                     2.60919   1.7441    2.03488 
 H                     2.62936   1.99331   3.09638 
 C                     3.86964   1.12472   1.50705 
 H                     4.0208    0.14197   1.98275 
 C                     3.913     0.9736   -0.0211 
 H                     4.21338   1.94635  -0.42554 
 C                     2.49943   0.6039   -0.55145 
 H                     2.21322  -0.3237   -0.02827 
 C                     2.53151   0.26904  -2.06035 
 H                     2.69734   1.18424  -2.63897 
 H                     1.55333  -0.11262  -2.3728 
 C                     3.60373  -0.76592  -2.4534 
 H                     3.35834  -1.73623  -1.9977 
 H                     3.56293  -0.91267  -3.53746 
 C                     5.01044  -0.34274  -1.98722 
 C                     4.92153  -0.10621  -0.4515 
 H                     4.53535  -1.05522  -0.03921 
 C                     6.38811   0.        0. 
 H                     6.51787  -0.24575   1.05714 
 H                     6.75763   1.02322  -0.12197 
 C                     7.13512  -0.98781  -0.93744 
 H                     7.99555  -0.49735  -1.40788 
 H                     7.53564  -1.84368  -0.38448 
 C                     6.11477  -1.45517  -2.02601 
 H                     5.62468  -2.37088  -1.66305 
 C                     5.48359   0.91425  -2.75217 
 H                     4.83533   1.77674  -2.57832 
 H                     6.49617   1.21153  -2.46446 
 H                     5.49097   0.72807  -3.83146 
 C                     6.80072  -1.80279  -3.37078 
 H                     7.29831  -0.88976  -3.72904 
 C                     5.82239  -2.2514   -4.47286 
 H                     5.161    -3.05546  -4.13116 
 H                     6.37315  -2.62349  -5.34498 
 H                     5.18907  -1.42979  -4.81705 
 C                     1.53224   2.95871  -1.00148 
 H                     1.31438   2.78148  -2.05917 
 H                     0.83647   3.72749  -0.65428 
 H                     2.54036   3.37528  -0.9208 
 O                     5.02963   1.81769   2.03372 
 O                     5.06191   3.17272   1.49584 
 H                     4.7314    3.68102   2.2546 
 O                    -2.10758   2.66139   2.29349 
 H                    -2.20176   3.53047   1.87873 
 C                     7.93372  -2.84971  -3.19661 
 H                     8.42971  -2.9658   -4.17103 
 H                     8.69874  -2.44855  -2.52026 
 C                     7.51516  -4.2421   -2.69512 
 H                     7.04617  -4.15275  -1.70763 
 H                     6.75331  -4.66124  -3.36345 
 C                     8.71178  -5.20408  -2.61052 
 H                     9.47328  -4.76032  -1.9528 
 H                     9.17618  -5.27431  -3.6049 
 C                     8.41563  -6.63756  -2.11125 
 H                     9.38079  -7.16545  -2.12179 
 C                     7.90214  -6.66686  -0.66205 
 H                     6.90791  -6.21341  -0.5758 
 H                     7.82327  -7.69736  -0.29715 
 H                     8.57657  -6.12493   0.01141 
 C                     7.47015  -7.40813  -3.04774 
 H                     6.46128  -6.97953  -3.04588 
 H                     7.38048  -8.45511  -2.73613 
 H                     7.83606  -7.39752  -4.08124 
 
 NAtoms=     76 NQM=       76 NQMF=       0 NMMI=      0 NMMIF=      0
                NMic=       0 NMicF=      0.
                    Isotopes and Nuclear Properties:
 (Nuclear quadrupole moments (NQMom) in fm**2, nuclear magnetic moments (NMagM)
  in nuclear magnetons)

  Atom         1           2           3           4           5           6           7           8           9          10
 IAtWgt=          12           1          12           1           1          12          12          12           1           1
 AtmWgt=  12.0000000   1.0078250  12.0000000   1.0078250   1.0078250  12.0000000  12.0000000  12.0000000   1.0078250   1.0078250
 NucSpn=           0           1           0           1           1           0           0           0           1           1
 AtZEff=   0.0000000   0.0000000   0.0000000   0.0000000   0.0000000   0.0000000   0.0000000   0.0000000   0.0000000   0.0000000
 NQMom=    0.0000000   0.0000000   0.0000000   0.0000000   0.0000000   0.0000000   0.0000000   0.0000000   0.0000000   0.0000000
 NMagM=    0.0000000   2.7928460   0.0000000   2.7928460   2.7928460   0.0000000   0.0000000   0.0000000   2.7928460   2.7928460
 AtZNuc=   6.0000000   1.0000000   6.0000000   1.0000000   1.0000000   6.0000000   6.0000000   6.0000000   1.0000000   1.0000000

  Atom        11          12          13          14          15          16          17          18          19          20
 IAtWgt=          12           1           1          12           1          12           1          12           1          12
 AtmWgt=  12.0000000   1.0078250   1.0078250  12.0000000   1.0078250  12.0000000   1.0078250  12.0000000   1.0078250  12.0000000
 NucSpn=           0           1           1           0           1           0           1           0           1           0
 AtZEff=   0.0000000   0.0000000   0.0000000   0.0000000   0.0000000   0.0000000   0.0000000   0.0000000   0.0000000   0.0000000
 NQMom=    0.0000000   0.0000000   0.0000000   0.0000000   0.0000000   0.0000000   0.0000000   0.0000000   0.0000000   0.0000000
 NMagM=    0.0000000   2.7928460   2.7928460   0.0000000   2.7928460   0.0000000   2.7928460   0.0000000   2.7928460   0.0000000
 AtZNuc=   6.0000000   1.0000000   1.0000000   6.0000000   1.0000000   6.0000000   1.0000000   6.0000000   1.0000000   6.0000000

  Atom        21          22          23          24          25          26          27          28          29          30
 IAtWgt=           1          12           1           1          12           1           1          12          12           1
 AtmWgt=   1.0078250  12.0000000   1.0078250   1.0078250  12.0000000   1.0078250   1.0078250  12.0000000  12.0000000   1.0078250
 NucSpn=           1           0           1           1           0           1           1           0           0           1
 AtZEff=   0.0000000   0.0000000   0.0000000   0.0000000   0.0000000   0.0000000   0.0000000   0.0000000   0.0000000   0.0000000
 NQMom=    0.0000000   0.0000000   0.0000000   0.0000000   0.0000000   0.0000000   0.0000000   0.0000000   0.0000000   0.0000000
 NMagM=    2.7928460   0.0000000   2.7928460   2.7928460   0.0000000   2.7928460   2.7928460   0.0000000   0.0000000   2.7928460
 AtZNuc=   1.0000000   6.0000000   1.0000000   1.0000000   6.0000000   1.0000000   1.0000000   6.0000000   6.0000000   1.0000000

  Atom        31          32          33          34          35          36          37          38          39          40
 IAtWgt=          12           1           1          12           1           1          12           1          12           1
 AtmWgt=  12.0000000   1.0078250   1.0078250  12.0000000   1.0078250   1.0078250  12.0000000   1.0078250  12.0000000   1.0078250
 NucSpn=           0           1           1           0           1           1           0           1           0           1
 AtZEff=   0.0000000   0.0000000   0.0000000   0.0000000   0.0000000   0.0000000   0.0000000   0.0000000   0.0000000   0.0000000
 NQMom=    0.0000000   0.0000000   0.0000000   0.0000000   0.0000000   0.0000000   0.0000000   0.0000000   0.0000000   0.0000000
 NMagM=    0.0000000   2.7928460   2.7928460   0.0000000   2.7928460   2.7928460   0.0000000   2.7928460   0.0000000   2.7928460
 AtZNuc=   6.0000000   1.0000000   1.0000000   6.0000000   1.0000000   1.0000000   6.0000000   1.0000000   6.0000000   1.0000000

  Atom        41          42          43          44          45          46          47          48          49          50
 IAtWgt=           1           1          12           1          12           1           1           1          12           1
 AtmWgt=   1.0078250   1.0078250  12.0000000   1.0078250  12.0000000   1.0078250   1.0078250   1.0078250  12.0000000   1.0078250
 NucSpn=           1           1           0           1           0           1           1           1           0           1
 AtZEff=   0.0000000   0.0000000   0.0000000   0.0000000   0.0000000   0.0000000   0.0000000   0.0000000   0.0000000   0.0000000
 NQMom=    0.0000000   0.0000000   0.0000000   0.0000000   0.0000000   0.0000000   0.0000000   0.0000000   0.0000000   0.0000000
 NMagM=    2.7928460   2.7928460   0.0000000   2.7928460   0.0000000   2.7928460   2.7928460   2.7928460   0.0000000   2.7928460
 AtZNuc=   1.0000000   1.0000000   6.0000000   1.0000000   6.0000000   1.0000000   1.0000000   1.0000000   6.0000000   1.0000000

  Atom        51          52          53          54          55          56          57          58          59          60
 IAtWgt=           1           1          16          16           1          16           1          12           1           1
 AtmWgt=   1.0078250   1.0078250  15.9949146  15.9949146   1.0078250  15.9949146   1.0078250  12.0000000   1.0078250   1.0078250
 NucSpn=           1           1           0           0           1           0           1           0           1           1
 AtZEff=   0.0000000   0.0000000   0.0000000   0.0000000   0.0000000   0.0000000   0.0000000   0.0000000   0.0000000   0.0000000
 NQMom=    0.0000000   0.0000000   0.0000000   0.0000000   0.0000000   0.0000000   0.0000000   0.0000000   0.0000000   0.0000000
 NMagM=    2.7928460   2.7928460   0.0000000   0.0000000   2.7928460   0.0000000   2.7928460   0.0000000   2.7928460   2.7928460
 AtZNuc=   1.0000000   1.0000000   8.0000000   8.0000000   1.0000000   8.0000000   1.0000000   6.0000000   1.0000000   1.0000000

  Atom        61          62          63          64          65          66          67          68          69          70
 IAtWgt=          12           1           1          12           1           1          12           1          12           1
 AtmWgt=  12.0000000   1.0078250   1.0078250  12.0000000   1.0078250   1.0078250  12.0000000   1.0078250  12.0000000   1.0078250
 NucSpn=           0           1           1           0           1           1           0           1           0           1
 AtZEff=   0.0000000   0.0000000   0.0000000   0.0000000   0.0000000   0.0000000   0.0000000   0.0000000   0.0000000   0.0000000
 NQMom=    0.0000000   0.0000000   0.0000000   0.0000000   0.0000000   0.0000000   0.0000000   0.0000000   0.0000000   0.0000000
 NMagM=    0.0000000   2.7928460   2.7928460   0.0000000   2.7928460   2.7928460   0.0000000   2.7928460   0.0000000   2.7928460
 AtZNuc=   6.0000000   1.0000000   1.0000000   6.0000000   1.0000000   1.0000000   6.0000000   1.0000000   6.0000000   1.0000000

  Atom        71          72          73          74          75          76
 IAtWgt=           1           1          12           1           1           1
 AtmWgt=   1.0078250   1.0078250  12.0000000   1.0078250   1.0078250   1.0078250
 NucSpn=           1           1           0           1           1           1
 AtZEff=   0.0000000   0.0000000   0.0000000   0.0000000   0.0000000   0.0000000
 NQMom=    0.0000000   0.0000000   0.0000000   0.0000000   0.0000000   0.0000000
 NMagM=    2.7928460   2.7928460   0.0000000   2.7928460   2.7928460   2.7928460
 AtZNuc=   1.0000000   1.0000000   6.0000000   1.0000000   1.0000000   1.0000000
 Leave Link  101 at Thu Apr 27 15:39:15 2017, MaxMem=    33554432 cpu:         1.0
 (Enter /home/michal/g09/l202.exe)
 Symmetry turned off by external request.
 Stoichiometry    C27H46O3
 Framework group  C1[X(C27H46O3)]
 Deg. of freedom   222
 Full point group                 C1      NOp   1
                          Input orientation:                          
 ---------------------------------------------------------------------
 Center     Atomic      Atomic             Coordinates (Angstroms)
 Number     Number       Type             X           Y           Z
 ---------------------------------------------------------------------
      1          6           0       -1.004173    1.982042    1.688592
      2          1           0       -0.988167    1.003179    2.183276
      3          6           0        0.324914    2.701263    1.959659
      4          1           0        0.481545    2.796630    3.038775
      5          1           0        0.235464    3.724954    1.561080
      6          6           0        1.511374    2.010794    1.314599
      7          6           0        1.397404    1.654131   -0.171729
      8          6           0       -0.004337    1.014866   -0.421434
      9          1           0        0.000000    0.000000    0.000000
     10          1           0       -0.165488    0.902142   -1.498533
     11          6           0       -1.189327    1.781855    0.185253
     12          1           0       -1.298673    2.765114   -0.296071
     13          1           0       -2.121672    1.236457    0.000000
     14          6           0        2.609190    1.744105    2.034878
     15          1           0        2.629360    1.993313    3.096380
     16          6           0        3.869637    1.124715    1.507045
     17          1           0        4.020802    0.141970    1.982748
     18          6           0        3.912999    0.973595   -0.021099
     19          1           0        4.213376    1.946351   -0.425542
     20          6           0        2.499425    0.603901   -0.551452
     21          1           0        2.213215   -0.323695   -0.028270
     22          6           0        2.531506    0.269041   -2.060346
     23          1           0        2.697338    1.184244   -2.638974
     24          1           0        1.553335   -0.112623   -2.372802
     25          6           0        3.603734   -0.765918   -2.453402
     26          1           0        3.358340   -1.736231   -1.997700
     27          1           0        3.562930   -0.912668   -3.537461
     28          6           0        5.010440   -0.342741   -1.987220
     29          6           0        4.921530   -0.106211   -0.451496
     30          1           0        4.535348   -1.055216   -0.039205
     31          6           0        6.388114    0.000000    0.000000
     32          1           0        6.517867   -0.245749    1.057144
     33          1           0        6.757628    1.023223   -0.121966
     34          6           0        7.135117   -0.987806   -0.937436
     35          1           0        7.995550   -0.497349   -1.407877
     36          1           0        7.535639   -1.843684   -0.384483
     37          6           0        6.114771   -1.455165   -2.026010
     38          1           0        5.624682   -2.370879   -1.663053
     39          6           0        5.483587    0.914250   -2.752172
     40          1           0        4.835328    1.776738   -2.578318
     41          1           0        6.496173    1.211530   -2.464464
     42          1           0        5.490973    0.728070   -3.831459
     43          6           0        6.800717   -1.802793   -3.370778
     44          1           0        7.298312   -0.889761   -3.729041
     45          6           0        5.822392   -2.251396   -4.472857
     46          1           0        5.160995   -3.055461   -4.131161
     47          1           0        6.373147   -2.623492   -5.344984
     48          1           0        5.189067   -1.429786   -4.817047
     49          6           0        1.532240    2.958713   -1.001477
     50          1           0        1.314381    2.781481   -2.059170
     51          1           0        0.836472    3.727489   -0.654279
     52          1           0        2.540356    3.375284   -0.920799
     53          8           0        5.029628    1.817694    2.033724
     54          8           0        5.061908    3.172720    1.495844
     55          1           0        4.731400    3.681019    2.254597
     56          8           0       -2.107581    2.661392    2.293494
     57          1           0       -2.201758    3.530473    1.878732
     58          6           0        7.933721   -2.849715   -3.196607
     59          1           0        8.429709   -2.965798   -4.171033
     60          1           0        8.698737   -2.448553   -2.520258
     61          6           0        7.515165   -4.242098   -2.695121
     62          1           0        7.046169   -4.152747   -1.707630
     63          1           0        6.753305   -4.661239   -3.363445
     64          6           0        8.711784   -5.204085   -2.610515
     65          1           0        9.473277   -4.760320   -1.952795
     66          1           0        9.176182   -5.274313   -3.604899
     67          6           0        8.415630   -6.637558   -2.111253
     68          1           0        9.380795   -7.165451   -2.121792
     69          6           0        7.902140   -6.666856   -0.662051
     70          1           0        6.907910   -6.213414   -0.575802
     71          1           0        7.823268   -7.697355   -0.297146
     72          1           0        8.576567   -6.124930    0.011410
     73          6           0        7.470151   -7.408131   -3.047738
     74          1           0        6.461277   -6.979534   -3.045885
     75          1           0        7.380483   -8.455109   -2.736130
     76          1           0        7.836065   -7.397518   -4.081237
 ---------------------------------------------------------------------
 Rotational constants (GHZ):      0.2882623      0.0599737      0.0582409
 Leave Link  202 at Thu Apr 27 15:39:15 2017, MaxMem=    33554432 cpu:         0.5
 (Enter /home/michal/g09/l301.exe)
 Standard basis: 6-31G(d) (6D, 7F)
 Ernie: Thresh=  0.10000D-02 Tol=  0.10000D-05 Strict=F.
 AO basis set in the form of general basis input (Overlap normalization):
      1 0
 S   6 1.00       0.000000000000
      0.3047524880D+04  0.1834737132D-02
      0.4573695180D+03  0.1403732281D-01
      0.1039486850D+03  0.6884262226D-01
      0.2921015530D+02  0.2321844432D+00
      0.9286662960D+01  0.4679413484D+00
      0.3163926960D+01  0.3623119853D+00
 SP   3 1.00       0.000000000000
      0.7868272350D+01 -0.1193324198D+00  0.6899906659D-01
      0.1881288540D+01 -0.1608541517D+00  0.3164239610D+00
      0.5442492580D+00  0.1143456438D+01  0.7443082909D+00
 SP   1 1.00       0.000000000000
      0.1687144782D+00  0.1000000000D+01  0.1000000000D+01
 D   1 1.00       0.000000000000
      0.8000000000D+00  0.1000000000D+01
 ****
      2 0
 S   3 1.00       0.000000000000
      0.1873113696D+02  0.3349460434D-01
      0.2825394365D+01  0.2347269535D+00
      0.6401216923D+00  0.8137573261D+00
 S   1 1.00       0.000000000000
      0.1612777588D+00  0.1000000000D+01
 ****
      3 0
 S   6 1.00       0.000000000000
      0.3047524880D+04  0.1834737132D-02
      0.4573695180D+03  0.1403732281D-01
      0.1039486850D+03  0.6884262226D-01
      0.2921015530D+02  0.2321844432D+00
      0.9286662960D+01  0.4679413484D+00
      0.3163926960D+01  0.3623119853D+00
 SP   3 1.00       0.000000000000
      0.7868272350D+01 -0.1193324198D+00  0.6899906659D-01
      0.1881288540D+01 -0.1608541517D+00  0.3164239610D+00
      0.5442492580D+00  0.1143456438D+01  0.7443082909D+00
 SP   1 1.00       0.000000000000
      0.1687144782D+00  0.1000000000D+01  0.1000000000D+01
 D   1 1.00       0.000000000000
      0.8000000000D+00  0.1000000000D+01
 ****
      4 0
 S   3 1.00       0.000000000000
      0.1873113696D+02  0.3349460434D-01
      0.2825394365D+01  0.2347269535D+00
      0.6401216923D+00  0.8137573261D+00
 S   1 1.00       0.000000000000
      0.1612777588D+00  0.1000000000D+01
 ****
      5 0
 S   3 1.00       0.000000000000
      0.1873113696D+02  0.3349460434D-01
      0.2825394365D+01  0.2347269535D+00
      0.6401216923D+00  0.8137573261D+00
 S   1 1.00       0.000000000000
      0.1612777588D+00  0.1000000000D+01
 ****
      6 0
 S   6 1.00       0.000000000000
      0.3047524880D+04  0.1834737132D-02
      0.4573695180D+03  0.1403732281D-01
      0.1039486850D+03  0.6884262226D-01
      0.2921015530D+02  0.2321844432D+00
      0.9286662960D+01  0.4679413484D+00
      0.3163926960D+01  0.3623119853D+00
 SP   3 1.00       0.000000000000
      0.7868272350D+01 -0.1193324198D+00  0.6899906659D-01
      0.1881288540D+01 -0.1608541517D+00  0.3164239610D+00
      0.5442492580D+00  0.1143456438D+01  0.7443082909D+00
 SP   1 1.00       0.000000000000
      0.1687144782D+00  0.1000000000D+01  0.1000000000D+01
 D   1 1.00       0.000000000000
      0.8000000000D+00  0.1000000000D+01
 ****
      7 0
 S   6 1.00       0.000000000000
      0.3047524880D+04  0.1834737132D-02
      0.4573695180D+03  0.1403732281D-01
      0.1039486850D+03  0.6884262226D-01
      0.2921015530D+02  0.2321844432D+00
      0.9286662960D+01  0.4679413484D+00
      0.3163926960D+01  0.3623119853D+00
 SP   3 1.00       0.000000000000
      0.7868272350D+01 -0.1193324198D+00  0.6899906659D-01
      0.1881288540D+01 -0.1608541517D+00  0.3164239610D+00
      0.5442492580D+00  0.1143456438D+01  0.7443082909D+00
 SP   1 1.00       0.000000000000
      0.1687144782D+00  0.1000000000D+01  0.1000000000D+01
 D   1 1.00       0.000000000000
      0.8000000000D+00  0.1000000000D+01
 ****
      8 0
 S   6 1.00       0.000000000000
      0.3047524880D+04  0.1834737132D-02
      0.4573695180D+03  0.1403732281D-01
      0.1039486850D+03  0.6884262226D-01
      0.2921015530D+02  0.2321844432D+00
      0.9286662960D+01  0.4679413484D+00
      0.3163926960D+01  0.3623119853D+00
 SP   3 1.00       0.000000000000
      0.7868272350D+01 -0.1193324198D+00  0.6899906659D-01
      0.1881288540D+01 -0.1608541517D+00  0.3164239610D+00
      0.5442492580D+00  0.1143456438D+01  0.7443082909D+00
 SP   1 1.00       0.000000000000
      0.1687144782D+00  0.1000000000D+01  0.1000000000D+01
 D   1 1.00       0.000000000000
      0.8000000000D+00  0.1000000000D+01
 ****
      9 0
 S   3 1.00       0.000000000000
      0.1873113696D+02  0.3349460434D-01
      0.2825394365D+01  0.2347269535D+00
      0.6401216923D+00  0.8137573261D+00
 S   1 1.00       0.000000000000
      0.1612777588D+00  0.1000000000D+01
 ****
     10 0
 S   3 1.00       0.000000000000
      0.1873113696D+02  0.3349460434D-01
      0.2825394365D+01  0.2347269535D+00
      0.6401216923D+00  0.8137573261D+00
 S   1 1.00       0.000000000000
      0.1612777588D+00  0.1000000000D+01
 ****
     11 0
 S   6 1.00       0.000000000000
      0.3047524880D+04  0.1834737132D-02
      0.4573695180D+03  0.1403732281D-01
      0.1039486850D+03  0.6884262226D-01
      0.2921015530D+02  0.2321844432D+00
      0.9286662960D+01  0.4679413484D+00
      0.3163926960D+01  0.3623119853D+00
 SP   3 1.00       0.000000000000
      0.7868272350D+01 -0.1193324198D+00  0.6899906659D-01
      0.1881288540D+01 -0.1608541517D+00  0.3164239610D+00
      0.5442492580D+00  0.1143456438D+01  0.7443082909D+00
 SP   1 1.00       0.000000000000
      0.1687144782D+00  0.1000000000D+01  0.1000000000D+01
 D   1 1.00       0.000000000000
      0.8000000000D+00  0.1000000000D+01
 ****
     12 0
 S   3 1.00       0.000000000000
      0.1873113696D+02  0.3349460434D-01
      0.2825394365D+01  0.2347269535D+00
      0.6401216923D+00  0.8137573261D+00
 S   1 1.00       0.000000000000
      0.1612777588D+00  0.1000000000D+01
 ****
     13 0
 S   3 1.00       0.000000000000
      0.1873113696D+02  0.3349460434D-01
      0.2825394365D+01  0.2347269535D+00
      0.6401216923D+00  0.8137573261D+00
 S   1 1.00       0.000000000000
      0.1612777588D+00  0.1000000000D+01
 ****
     14 0
 S   6 1.00       0.000000000000
      0.3047524880D+04  0.1834737132D-02
      0.4573695180D+03  0.1403732281D-01
      0.1039486850D+03  0.6884262226D-01
      0.2921015530D+02  0.2321844432D+00
      0.9286662960D+01  0.4679413484D+00
      0.3163926960D+01  0.3623119853D+00
 SP   3 1.00       0.000000000000
      0.7868272350D+01 -0.1193324198D+00  0.6899906659D-01
      0.1881288540D+01 -0.1608541517D+00  0.3164239610D+00
      0.5442492580D+00  0.1143456438D+01  0.7443082909D+00
 SP   1 1.00       0.000000000000
      0.1687144782D+00  0.1000000000D+01  0.1000000000D+01
 D   1 1.00       0.000000000000
      0.8000000000D+00  0.1000000000D+01
 ****
     15 0
 S   3 1.00       0.000000000000
      0.1873113696D+02  0.3349460434D-01
      0.2825394365D+01  0.2347269535D+00
      0.6401216923D+00  0.8137573261D+00
 S   1 1.00       0.000000000000
      0.1612777588D+00  0.1000000000D+01
 ****
     16 0
 S   6 1.00       0.000000000000
      0.3047524880D+04  0.1834737132D-02
      0.4573695180D+03  0.1403732281D-01
      0.1039486850D+03  0.6884262226D-01
      0.2921015530D+02  0.2321844432D+00
      0.9286662960D+01  0.4679413484D+00
      0.3163926960D+01  0.3623119853D+00
 SP   3 1.00       0.000000000000
      0.7868272350D+01 -0.1193324198D+00  0.6899906659D-01
      0.1881288540D+01 -0.1608541517D+00  0.3164239610D+00
      0.5442492580D+00  0.1143456438D+01  0.7443082909D+00
 SP   1 1.00       0.000000000000
      0.1687144782D+00  0.1000000000D+01  0.1000000000D+01
 D   1 1.00       0.000000000000
      0.8000000000D+00  0.1000000000D+01
 ****
     17 0
 S   3 1.00       0.000000000000
      0.1873113696D+02  0.3349460434D-01
      0.2825394365D+01  0.2347269535D+00
      0.6401216923D+00  0.8137573261D+00
 S   1 1.00       0.000000000000
      0.1612777588D+00  0.1000000000D+01
 ****
     18 0
 S   6 1.00       0.000000000000
      0.3047524880D+04  0.1834737132D-02
      0.4573695180D+03  0.1403732281D-01
      0.1039486850D+03  0.6884262226D-01
      0.2921015530D+02  0.2321844432D+00
      0.9286662960D+01  0.4679413484D+00
      0.3163926960D+01  0.3623119853D+00
 SP   3 1.00       0.000000000000
      0.7868272350D+01 -0.1193324198D+00  0.6899906659D-01
      0.1881288540D+01 -0.1608541517D+00  0.3164239610D+00
      0.5442492580D+00  0.1143456438D+01  0.7443082909D+00
 SP   1 1.00       0.000000000000
      0.1687144782D+00  0.1000000000D+01  0.1000000000D+01
 D   1 1.00       0.000000000000
      0.8000000000D+00  0.1000000000D+01
 ****
     19 0
 S   3 1.00       0.000000000000
      0.1873113696D+02  0.3349460434D-01
      0.2825394365D+01  0.2347269535D+00
      0.6401216923D+00  0.8137573261D+00
 S   1 1.00       0.000000000000
      0.1612777588D+00  0.1000000000D+01
 ****
     20 0
 S   6 1.00       0.000000000000
      0.3047524880D+04  0.1834737132D-02
      0.4573695180D+03  0.1403732281D-01
      0.1039486850D+03  0.6884262226D-01
      0.2921015530D+02  0.2321844432D+00
      0.9286662960D+01  0.4679413484D+00
      0.3163926960D+01  0.3623119853D+00
 SP   3 1.00       0.000000000000
      0.7868272350D+01 -0.1193324198D+00  0.6899906659D-01
      0.1881288540D+01 -0.1608541517D+00  0.3164239610D+00
      0.5442492580D+00  0.1143456438D+01  0.7443082909D+00
 SP   1 1.00       0.000000000000
      0.1687144782D+00  0.1000000000D+01  0.1000000000D+01
 D   1 1.00       0.000000000000
      0.8000000000D+00  0.1000000000D+01
 ****
     21 0
 S   3 1.00       0.000000000000
      0.1873113696D+02  0.3349460434D-01
      0.2825394365D+01  0.2347269535D+00
      0.6401216923D+00  0.8137573261D+00
 S   1 1.00       0.000000000000
      0.1612777588D+00  0.1000000000D+01
 ****
     22 0
 S   6 1.00       0.000000000000
      0.3047524880D+04  0.1834737132D-02
      0.4573695180D+03  0.1403732281D-01
      0.1039486850D+03  0.6884262226D-01
      0.2921015530D+02  0.2321844432D+00
      0.9286662960D+01  0.4679413484D+00
      0.3163926960D+01  0.3623119853D+00
 SP   3 1.00       0.000000000000
      0.7868272350D+01 -0.1193324198D+00  0.6899906659D-01
      0.1881288540D+01 -0.1608541517D+00  0.3164239610D+00
      0.5442492580D+00  0.1143456438D+01  0.7443082909D+00
 SP   1 1.00       0.000000000000
      0.1687144782D+00  0.1000000000D+01  0.1000000000D+01
 D   1 1.00       0.000000000000
      0.8000000000D+00  0.1000000000D+01
 ****
     23 0
 S   3 1.00       0.000000000000
      0.1873113696D+02  0.3349460434D-01
      0.2825394365D+01  0.2347269535D+00
      0.6401216923D+00  0.8137573261D+00
 S   1 1.00       0.000000000000
      0.1612777588D+00  0.1000000000D+01
 ****
     24 0
 S   3 1.00       0.000000000000
      0.1873113696D+02  0.3349460434D-01
      0.2825394365D+01  0.2347269535D+00
      0.6401216923D+00  0.8137573261D+00
 S   1 1.00       0.000000000000
      0.1612777588D+00  0.1000000000D+01
 ****
     25 0
 S   6 1.00       0.000000000000
      0.3047524880D+04  0.1834737132D-02
      0.4573695180D+03  0.1403732281D-01
      0.1039486850D+03  0.6884262226D-01
      0.2921015530D+02  0.2321844432D+00
      0.9286662960D+01  0.4679413484D+00
      0.3163926960D+01  0.3623119853D+00
 SP   3 1.00       0.000000000000
      0.7868272350D+01 -0.1193324198D+00  0.6899906659D-01
      0.1881288540D+01 -0.1608541517D+00  0.3164239610D+00
      0.5442492580D+00  0.1143456438D+01  0.7443082909D+00
 SP   1 1.00       0.000000000000
      0.1687144782D+00  0.1000000000D+01  0.1000000000D+01
 D   1 1.00       0.000000000000
      0.8000000000D+00  0.1000000000D+01
 ****
     26 0
 S   3 1.00       0.000000000000
      0.1873113696D+02  0.3349460434D-01
      0.2825394365D+01  0.2347269535D+00
      0.6401216923D+00  0.8137573261D+00
 S   1 1.00       0.000000000000
      0.1612777588D+00  0.1000000000D+01
 ****
     27 0
 S   3 1.00       0.000000000000
      0.1873113696D+02  0.3349460434D-01
      0.2825394365D+01  0.2347269535D+00
      0.6401216923D+00  0.8137573261D+00
 S   1 1.00       0.000000000000
      0.1612777588D+00  0.1000000000D+01
 ****
     28 0
 S   6 1.00       0.000000000000
      0.3047524880D+04  0.1834737132D-02
      0.4573695180D+03  0.1403732281D-01
      0.1039486850D+03  0.6884262226D-01
      0.2921015530D+02  0.2321844432D+00
      0.9286662960D+01  0.4679413484D+00
      0.3163926960D+01  0.3623119853D+00
 SP   3 1.00       0.000000000000
      0.7868272350D+01 -0.1193324198D+00  0.6899906659D-01
      0.1881288540D+01 -0.1608541517D+00  0.3164239610D+00
      0.5442492580D+00  0.1143456438D+01  0.7443082909D+00
 SP   1 1.00       0.000000000000
      0.1687144782D+00  0.1000000000D+01  0.1000000000D+01
 D   1 1.00       0.000000000000
      0.8000000000D+00  0.1000000000D+01
 ****
     29 0
 S   6 1.00       0.000000000000
      0.3047524880D+04  0.1834737132D-02
      0.4573695180D+03  0.1403732281D-01
      0.1039486850D+03  0.6884262226D-01
      0.2921015530D+02  0.2321844432D+00
      0.9286662960D+01  0.4679413484D+00
      0.3163926960D+01  0.3623119853D+00
 SP   3 1.00       0.000000000000
      0.7868272350D+01 -0.1193324198D+00  0.6899906659D-01
      0.1881288540D+01 -0.1608541517D+00  0.3164239610D+00
      0.5442492580D+00  0.1143456438D+01  0.7443082909D+00
 SP   1 1.00       0.000000000000
      0.1687144782D+00  0.1000000000D+01  0.1000000000D+01
 D   1 1.00       0.000000000000
      0.8000000000D+00  0.1000000000D+01
 ****
     30 0
 S   3 1.00       0.000000000000
      0.1873113696D+02  0.3349460434D-01
      0.2825394365D+01  0.2347269535D+00
      0.6401216923D+00  0.8137573261D+00
 S   1 1.00       0.000000000000
      0.1612777588D+00  0.1000000000D+01
 ****
     31 0
 S   6 1.00       0.000000000000
      0.3047524880D+04  0.1834737132D-02
      0.4573695180D+03  0.1403732281D-01
      0.1039486850D+03  0.6884262226D-01
      0.2921015530D+02  0.2321844432D+00
      0.9286662960D+01  0.4679413484D+00
      0.3163926960D+01  0.3623119853D+00
 SP   3 1.00       0.000000000000
      0.7868272350D+01 -0.1193324198D+00  0.6899906659D-01
      0.1881288540D+01 -0.1608541517D+00  0.3164239610D+00
      0.5442492580D+00  0.1143456438D+01  0.7443082909D+00
 SP   1 1.00       0.000000000000
      0.1687144782D+00  0.1000000000D+01  0.1000000000D+01
 D   1 1.00       0.000000000000
      0.8000000000D+00  0.1000000000D+01
 ****
     32 0
 S   3 1.00       0.000000000000
      0.1873113696D+02  0.3349460434D-01
      0.2825394365D+01  0.2347269535D+00
      0.6401216923D+00  0.8137573261D+00
 S   1 1.00       0.000000000000
      0.1612777588D+00  0.1000000000D+01
 ****
     33 0
 S   3 1.00       0.000000000000
      0.1873113696D+02  0.3349460434D-01
      0.2825394365D+01  0.2347269535D+00
      0.6401216923D+00  0.8137573261D+00
 S   1 1.00       0.000000000000
      0.1612777588D+00  0.1000000000D+01
 ****
     34 0
 S   6 1.00       0.000000000000
      0.3047524880D+04  0.1834737132D-02
      0.4573695180D+03  0.1403732281D-01
      0.1039486850D+03  0.6884262226D-01
      0.2921015530D+02  0.2321844432D+00
      0.9286662960D+01  0.4679413484D+00
      0.3163926960D+01  0.3623119853D+00
 SP   3 1.00       0.000000000000
      0.7868272350D+01 -0.1193324198D+00  0.6899906659D-01
      0.1881288540D+01 -0.1608541517D+00  0.3164239610D+00
      0.5442492580D+00  0.1143456438D+01  0.7443082909D+00
 SP   1 1.00       0.000000000000
      0.1687144782D+00  0.1000000000D+01  0.1000000000D+01
 D   1 1.00       0.000000000000
      0.8000000000D+00  0.1000000000D+01
 ****
     35 0
 S   3 1.00       0.000000000000
      0.1873113696D+02  0.3349460434D-01
      0.2825394365D+01  0.2347269535D+00
      0.6401216923D+00  0.8137573261D+00
 S   1 1.00       0.000000000000
      0.1612777588D+00  0.1000000000D+01
 ****
     36 0
 S   3 1.00       0.000000000000
      0.1873113696D+02  0.3349460434D-01
      0.2825394365D+01  0.2347269535D+00
      0.6401216923D+00  0.8137573261D+00
 S   1 1.00       0.000000000000
      0.1612777588D+00  0.1000000000D+01
 ****
     37 0
 S   6 1.00       0.000000000000
      0.3047524880D+04  0.1834737132D-02
      0.4573695180D+03  0.1403732281D-01
      0.1039486850D+03  0.6884262226D-01
      0.2921015530D+02  0.2321844432D+00
      0.9286662960D+01  0.4679413484D+00
      0.3163926960D+01  0.3623119853D+00
 SP   3 1.00       0.000000000000
      0.7868272350D+01 -0.1193324198D+00  0.6899906659D-01
      0.1881288540D+01 -0.1608541517D+00  0.3164239610D+00
      0.5442492580D+00  0.1143456438D+01  0.7443082909D+00
 SP   1 1.00       0.000000000000
      0.1687144782D+00  0.1000000000D+01  0.1000000000D+01
 D   1 1.00       0.000000000000
      0.8000000000D+00  0.1000000000D+01
 ****
     38 0
 S   3 1.00       0.000000000000
      0.1873113696D+02  0.3349460434D-01
      0.2825394365D+01  0.2347269535D+00
      0.6401216923D+00  0.8137573261D+00
 S   1 1.00       0.000000000000
      0.1612777588D+00  0.1000000000D+01
 ****
     39 0
 S   6 1.00       0.000000000000
      0.3047524880D+04  0.1834737132D-02
      0.4573695180D+03  0.1403732281D-01
      0.1039486850D+03  0.6884262226D-01
      0.2921015530D+02  0.2321844432D+00
      0.9286662960D+01  0.4679413484D+00
      0.3163926960D+01  0.3623119853D+00
 SP   3 1.00       0.000000000000
      0.7868272350D+01 -0.1193324198D+00  0.6899906659D-01
      0.1881288540D+01 -0.1608541517D+00  0.3164239610D+00
      0.5442492580D+00  0.1143456438D+01  0.7443082909D+00
 SP   1 1.00       0.000000000000
      0.1687144782D+00  0.1000000000D+01  0.1000000000D+01
 D   1 1.00       0.000000000000
      0.8000000000D+00  0.1000000000D+01
 ****
     40 0
 S   3 1.00       0.000000000000
      0.1873113696D+02  0.3349460434D-01
      0.2825394365D+01  0.2347269535D+00
      0.6401216923D+00  0.8137573261D+00
 S   1 1.00       0.000000000000
      0.1612777588D+00  0.1000000000D+01
 ****
     41 0
 S   3 1.00       0.000000000000
      0.1873113696D+02  0.3349460434D-01
      0.2825394365D+01  0.2347269535D+00
      0.6401216923D+00  0.8137573261D+00
 S   1 1.00       0.000000000000
      0.1612777588D+00  0.1000000000D+01
 ****
     42 0
 S   3 1.00       0.000000000000
      0.1873113696D+02  0.3349460434D-01
      0.2825394365D+01  0.2347269535D+00
      0.6401216923D+00  0.8137573261D+00
 S   1 1.00       0.000000000000
      0.1612777588D+00  0.1000000000D+01
 ****
     43 0
 S   6 1.00       0.000000000000
      0.3047524880D+04  0.1834737132D-02
      0.4573695180D+03  0.1403732281D-01
      0.1039486850D+03  0.6884262226D-01
      0.2921015530D+02  0.2321844432D+00
      0.9286662960D+01  0.4679413484D+00
      0.3163926960D+01  0.3623119853D+00
 SP   3 1.00       0.000000000000
      0.7868272350D+01 -0.1193324198D+00  0.6899906659D-01
      0.1881288540D+01 -0.1608541517D+00  0.3164239610D+00
      0.5442492580D+00  0.1143456438D+01  0.7443082909D+00
 SP   1 1.00       0.000000000000
      0.1687144782D+00  0.1000000000D+01  0.1000000000D+01
 D   1 1.00       0.000000000000
      0.8000000000D+00  0.1000000000D+01
 ****
     44 0
 S   3 1.00       0.000000000000
      0.1873113696D+02  0.3349460434D-01
      0.2825394365D+01  0.2347269535D+00
      0.6401216923D+00  0.8137573261D+00
 S   1 1.00       0.000000000000
      0.1612777588D+00  0.1000000000D+01
 ****
     45 0
 S   6 1.00       0.000000000000
      0.3047524880D+04  0.1834737132D-02
      0.4573695180D+03  0.1403732281D-01
      0.1039486850D+03  0.6884262226D-01
      0.2921015530D+02  0.2321844432D+00
      0.9286662960D+01  0.4679413484D+00
      0.3163926960D+01  0.3623119853D+00
 SP   3 1.00       0.000000000000
      0.7868272350D+01 -0.1193324198D+00  0.6899906659D-01
      0.1881288540D+01 -0.1608541517D+00  0.3164239610D+00
      0.5442492580D+00  0.1143456438D+01  0.7443082909D+00
 SP   1 1.00       0.000000000000
      0.1687144782D+00  0.1000000000D+01  0.1000000000D+01
 D   1 1.00       0.000000000000
      0.8000000000D+00  0.1000000000D+01
 ****
     46 0
 S   3 1.00       0.000000000000
      0.1873113696D+02  0.3349460434D-01
      0.2825394365D+01  0.2347269535D+00
      0.6401216923D+00  0.8137573261D+00
 S   1 1.00       0.000000000000
      0.1612777588D+00  0.1000000000D+01
 ****
     47 0
 S   3 1.00       0.000000000000
      0.1873113696D+02  0.3349460434D-01
      0.2825394365D+01  0.2347269535D+00
      0.6401216923D+00  0.8137573261D+00
 S   1 1.00       0.000000000000
      0.1612777588D+00  0.1000000000D+01
 ****
     48 0
 S   3 1.00       0.000000000000
      0.1873113696D+02  0.3349460434D-01
      0.2825394365D+01  0.2347269535D+00
      0.6401216923D+00  0.8137573261D+00
 S   1 1.00       0.000000000000
      0.1612777588D+00  0.1000000000D+01
 ****
     49 0
 S   6 1.00       0.000000000000
      0.3047524880D+04  0.1834737132D-02
      0.4573695180D+03  0.1403732281D-01
      0.1039486850D+03  0.6884262226D-01
      0.2921015530D+02  0.2321844432D+00
      0.9286662960D+01  0.4679413484D+00
      0.3163926960D+01  0.3623119853D+00
 SP   3 1.00       0.000000000000
      0.7868272350D+01 -0.1193324198D+00  0.6899906659D-01
      0.1881288540D+01 -0.1608541517D+00  0.3164239610D+00
      0.5442492580D+00  0.1143456438D+01  0.7443082909D+00
 SP   1 1.00       0.000000000000
      0.1687144782D+00  0.1000000000D+01  0.1000000000D+01
 D   1 1.00       0.000000000000
      0.8000000000D+00  0.1000000000D+01
 ****
     50 0
 S   3 1.00       0.000000000000
      0.1873113696D+02  0.3349460434D-01
      0.2825394365D+01  0.2347269535D+00
      0.6401216923D+00  0.8137573261D+00
 S   1 1.00       0.000000000000
      0.1612777588D+00  0.1000000000D+01
 ****
     51 0
 S   3 1.00       0.000000000000
      0.1873113696D+02  0.3349460434D-01
      0.2825394365D+01  0.2347269535D+00
      0.6401216923D+00  0.8137573261D+00
 S   1 1.00       0.000000000000
      0.1612777588D+00  0.1000000000D+01
 ****
     52 0
 S   3 1.00       0.000000000000
      0.1873113696D+02  0.3349460434D-01
      0.2825394365D+01  0.2347269535D+00
      0.6401216923D+00  0.8137573261D+00
 S   1 1.00       0.000000000000
      0.1612777588D+00  0.1000000000D+01
 ****
     53 0
 S   6 1.00       0.000000000000
      0.5484671660D+04  0.1831074430D-02
      0.8252349460D+03  0.1395017220D-01
      0.1880469580D+03  0.6844507810D-01
      0.5296450000D+02  0.2327143360D+00
      0.1689757040D+02  0.4701928980D+00
      0.5799635340D+01  0.3585208530D+00
 SP   3 1.00       0.000000000000
      0.1553961625D+02 -0.1107775495D+00  0.7087426823D-01
      0.3599933586D+01 -0.1480262627D+00  0.3397528391D+00
      0.1013761750D+01  0.1130767015D+01  0.7271585773D+00
 SP   1 1.00       0.000000000000
      0.2700058226D+00  0.1000000000D+01  0.1000000000D+01
 D   1 1.00       0.000000000000
      0.8000000000D+00  0.1000000000D+01
 ****
     54 0
 S   6 1.00       0.000000000000
      0.5484671660D+04  0.1831074430D-02
      0.8252349460D+03  0.1395017220D-01
      0.1880469580D+03  0.6844507810D-01
      0.5296450000D+02  0.2327143360D+00
      0.1689757040D+02  0.4701928980D+00
      0.5799635340D+01  0.3585208530D+00
 SP   3 1.00       0.000000000000
      0.1553961625D+02 -0.1107775495D+00  0.7087426823D-01
      0.3599933586D+01 -0.1480262627D+00  0.3397528391D+00
      0.1013761750D+01  0.1130767015D+01  0.7271585773D+00
 SP   1 1.00       0.000000000000
      0.2700058226D+00  0.1000000000D+01  0.1000000000D+01
 D   1 1.00       0.000000000000
      0.8000000000D+00  0.1000000000D+01
 ****
     55 0
 S   3 1.00       0.000000000000
      0.1873113696D+02  0.3349460434D-01
      0.2825394365D+01  0.2347269535D+00
      0.6401216923D+00  0.8137573261D+00
 S   1 1.00       0.000000000000
      0.1612777588D+00  0.1000000000D+01
 ****
     56 0
 S   6 1.00       0.000000000000
      0.5484671660D+04  0.1831074430D-02
      0.8252349460D+03  0.1395017220D-01
      0.1880469580D+03  0.6844507810D-01
      0.5296450000D+02  0.2327143360D+00
      0.1689757040D+02  0.4701928980D+00
      0.5799635340D+01  0.3585208530D+00
 SP   3 1.00       0.000000000000
      0.1553961625D+02 -0.1107775495D+00  0.7087426823D-01
      0.3599933586D+01 -0.1480262627D+00  0.3397528391D+00
      0.1013761750D+01  0.1130767015D+01  0.7271585773D+00
 SP   1 1.00       0.000000000000
      0.2700058226D+00  0.1000000000D+01  0.1000000000D+01
 D   1 1.00       0.000000000000
      0.8000000000D+00  0.1000000000D+01
 ****
     57 0
 S   3 1.00       0.000000000000
      0.1873113696D+02  0.3349460434D-01
      0.2825394365D+01  0.2347269535D+00
      0.6401216923D+00  0.8137573261D+00
 S   1 1.00       0.000000000000
      0.1612777588D+00  0.1000000000D+01
 ****
     58 0
 S   6 1.00       0.000000000000
      0.3047524880D+04  0.1834737132D-02
      0.4573695180D+03  0.1403732281D-01
      0.1039486850D+03  0.6884262226D-01
      0.2921015530D+02  0.2321844432D+00
      0.9286662960D+01  0.4679413484D+00
      0.3163926960D+01  0.3623119853D+00
 SP   3 1.00       0.000000000000
      0.7868272350D+01 -0.1193324198D+00  0.6899906659D-01
      0.1881288540D+01 -0.1608541517D+00  0.3164239610D+00
      0.5442492580D+00  0.1143456438D+01  0.7443082909D+00
 SP   1 1.00       0.000000000000
      0.1687144782D+00  0.1000000000D+01  0.1000000000D+01
 D   1 1.00       0.000000000000
      0.8000000000D+00  0.1000000000D+01
 ****
     59 0
 S   3 1.00       0.000000000000
      0.1873113696D+02  0.3349460434D-01
      0.2825394365D+01  0.2347269535D+00
      0.6401216923D+00  0.8137573261D+00
 S   1 1.00       0.000000000000
      0.1612777588D+00  0.1000000000D+01
 ****
     60 0
 S   3 1.00       0.000000000000
      0.1873113696D+02  0.3349460434D-01
      0.2825394365D+01  0.2347269535D+00
      0.6401216923D+00  0.8137573261D+00
 S   1 1.00       0.000000000000
      0.1612777588D+00  0.1000000000D+01
 ****
     61 0
 S   6 1.00       0.000000000000
      0.3047524880D+04  0.1834737132D-02
      0.4573695180D+03  0.1403732281D-01
      0.1039486850D+03  0.6884262226D-01
      0.2921015530D+02  0.2321844432D+00
      0.9286662960D+01  0.4679413484D+00
      0.3163926960D+01  0.3623119853D+00
 SP   3 1.00       0.000000000000
      0.7868272350D+01 -0.1193324198D+00  0.6899906659D-01
      0.1881288540D+01 -0.1608541517D+00  0.3164239610D+00
      0.5442492580D+00  0.1143456438D+01  0.7443082909D+00
 SP   1 1.00       0.000000000000
      0.1687144782D+00  0.1000000000D+01  0.1000000000D+01
 D   1 1.00       0.000000000000
      0.8000000000D+00  0.1000000000D+01
 ****
     62 0
 S   3 1.00       0.000000000000
      0.1873113696D+02  0.3349460434D-01
      0.2825394365D+01  0.2347269535D+00
      0.6401216923D+00  0.8137573261D+00
 S   1 1.00       0.000000000000
      0.1612777588D+00  0.1000000000D+01
 ****
     63 0
 S   3 1.00       0.000000000000
      0.1873113696D+02  0.3349460434D-01
      0.2825394365D+01  0.2347269535D+00
      0.6401216923D+00  0.8137573261D+00
 S   1 1.00       0.000000000000
      0.1612777588D+00  0.1000000000D+01
 ****
     64 0
 S   6 1.00       0.000000000000
      0.3047524880D+04  0.1834737132D-02
      0.4573695180D+03  0.1403732281D-01
      0.1039486850D+03  0.6884262226D-01
      0.2921015530D+02  0.2321844432D+00
      0.9286662960D+01  0.4679413484D+00
      0.3163926960D+01  0.3623119853D+00
 SP   3 1.00       0.000000000000
      0.7868272350D+01 -0.1193324198D+00  0.6899906659D-01
      0.1881288540D+01 -0.1608541517D+00  0.3164239610D+00
      0.5442492580D+00  0.1143456438D+01  0.7443082909D+00
 SP   1 1.00       0.000000000000
      0.1687144782D+00  0.1000000000D+01  0.1000000000D+01
 D   1 1.00       0.000000000000
      0.8000000000D+00  0.1000000000D+01
 ****
     65 0
 S   3 1.00       0.000000000000
      0.1873113696D+02  0.3349460434D-01
      0.2825394365D+01  0.2347269535D+00
      0.6401216923D+00  0.8137573261D+00
 S   1 1.00       0.000000000000
      0.1612777588D+00  0.1000000000D+01
 ****
     66 0
 S   3 1.00       0.000000000000
      0.1873113696D+02  0.3349460434D-01
      0.2825394365D+01  0.2347269535D+00
      0.6401216923D+00  0.8137573261D+00
 S   1 1.00       0.000000000000
      0.1612777588D+00  0.1000000000D+01
 ****
     67 0
 S   6 1.00       0.000000000000
      0.3047524880D+04  0.1834737132D-02
      0.4573695180D+03  0.1403732281D-01
      0.1039486850D+03  0.6884262226D-01
      0.2921015530D+02  0.2321844432D+00
      0.9286662960D+01  0.4679413484D+00
      0.3163926960D+01  0.3623119853D+00
 SP   3 1.00       0.000000000000
      0.7868272350D+01 -0.1193324198D+00  0.6899906659D-01
      0.1881288540D+01 -0.1608541517D+00  0.3164239610D+00
      0.5442492580D+00  0.1143456438D+01  0.7443082909D+00
 SP   1 1.00       0.000000000000
      0.1687144782D+00  0.1000000000D+01  0.1000000000D+01
 D   1 1.00       0.000000000000
      0.8000000000D+00  0.1000000000D+01
 ****
     68 0
 S   3 1.00       0.000000000000
      0.1873113696D+02  0.3349460434D-01
      0.2825394365D+01  0.2347269535D+00
      0.6401216923D+00  0.8137573261D+00
 S   1 1.00       0.000000000000
      0.1612777588D+00  0.1000000000D+01
 ****
     69 0
 S   6 1.00       0.000000000000
      0.3047524880D+04  0.1834737132D-02
      0.4573695180D+03  0.1403732281D-01
      0.1039486850D+03  0.6884262226D-01
      0.2921015530D+02  0.2321844432D+00
      0.9286662960D+01  0.4679413484D+00
      0.3163926960D+01  0.3623119853D+00
 SP   3 1.00       0.000000000000
      0.7868272350D+01 -0.1193324198D+00  0.6899906659D-01
      0.1881288540D+01 -0.1608541517D+00  0.3164239610D+00
      0.5442492580D+00  0.1143456438D+01  0.7443082909D+00
 SP   1 1.00       0.000000000000
      0.1687144782D+00  0.1000000000D+01  0.1000000000D+01
 D   1 1.00       0.000000000000
      0.8000000000D+00  0.1000000000D+01
 ****
     70 0
 S   3 1.00       0.000000000000
      0.1873113696D+02  0.3349460434D-01
      0.2825394365D+01  0.2347269535D+00
      0.6401216923D+00  0.8137573261D+00
 S   1 1.00       0.000000000000
      0.1612777588D+00  0.1000000000D+01
 ****
     71 0
 S   3 1.00       0.000000000000
      0.1873113696D+02  0.3349460434D-01
      0.2825394365D+01  0.2347269535D+00
      0.6401216923D+00  0.8137573261D+00
 S   1 1.00       0.000000000000
      0.1612777588D+00  0.1000000000D+01
 ****
     72 0
 S   3 1.00       0.000000000000
      0.1873113696D+02  0.3349460434D-01
      0.2825394365D+01  0.2347269535D+00
      0.6401216923D+00  0.8137573261D+00
 S   1 1.00       0.000000000000
      0.1612777588D+00  0.1000000000D+01
 ****
     73 0
 S   6 1.00       0.000000000000
      0.3047524880D+04  0.1834737132D-02
      0.4573695180D+03  0.1403732281D-01
      0.1039486850D+03  0.6884262226D-01
      0.2921015530D+02  0.2321844432D+00
      0.9286662960D+01  0.4679413484D+00
      0.3163926960D+01  0.3623119853D+00
 SP   3 1.00       0.000000000000
      0.7868272350D+01 -0.1193324198D+00  0.6899906659D-01
      0.1881288540D+01 -0.1608541517D+00  0.3164239610D+00
      0.5442492580D+00  0.1143456438D+01  0.7443082909D+00
 SP   1 1.00       0.000000000000
      0.1687144782D+00  0.1000000000D+01  0.1000000000D+01
 D   1 1.00       0.000000000000
      0.8000000000D+00  0.1000000000D+01
 ****
     74 0
 S   3 1.00       0.000000000000
      0.1873113696D+02  0.3349460434D-01
      0.2825394365D+01  0.2347269535D+00
      0.6401216923D+00  0.8137573261D+00
 S   1 1.00       0.000000000000
      0.1612777588D+00  0.1000000000D+01
 ****
     75 0
 S   3 1.00       0.000000000000
      0.1873113696D+02  0.3349460434D-01
      0.2825394365D+01  0.2347269535D+00
      0.6401216923D+00  0.8137573261D+00
 S   1 1.00       0.000000000000
      0.1612777588D+00  0.1000000000D+01
 ****
     76 0
 S   3 1.00       0.000000000000
      0.1873113696D+02  0.3349460434D-01
      0.2825394365D+01  0.2347269535D+00
      0.6401216923D+00  0.8137573261D+00
 S   1 1.00       0.000000000000
      0.1612777588D+00  0.1000000000D+01
 ****

 AO basis set (Overlap normalization):
 Atom C1       Shell     1 S   6     bf    1 -     1         -1.897612375778          3.745517452048          3.190976940408
      0.3047524880D+04  0.1834737132D-02
      0.4573695180D+03  0.1403732281D-01
      0.1039486850D+03  0.6884262226D-01
      0.2921015530D+02  0.2321844432D+00
      0.9286662960D+01  0.4679413484D+00
      0.3163926960D+01  0.3623119853D+00
 Atom C1       Shell     2 SP   3    bf    2 -     5         -1.897612375778          3.745517452048          3.190976940408
      0.7868272350D+01 -0.1193324198D+00  0.6899906659D-01
      0.1881288540D+01 -0.1608541517D+00  0.3164239610D+00
      0.5442492580D+00  0.1143456438D+01  0.7443082909D+00
 Atom C1       Shell     3 SP   1    bf    6 -     9         -1.897612375778          3.745517452048          3.190976940408
      0.1687144782D+00  0.1000000000D+01  0.1000000000D+01
 Atom C1       Shell     4 D   1     bf   10 -    15         -1.897612375778          3.745517452048          3.190976940408
      0.8000000000D+00  0.1000000000D+01
 Atom H2       Shell     5 S   3     bf   16 -    16         -1.867364946863          1.895733421084          4.125793580221
      0.1873113696D+02  0.3349460434D-01
      0.2825394365D+01  0.2347269535D+00
      0.6401216923D+00  0.8137573261D+00
 Atom H2       Shell     6 S   1     bf   17 -    17         -1.867364946863          1.895733421084          4.125793580221
      0.1612777588D+00  0.1000000000D+01
 Atom C3       Shell     7 S   6     bf   18 -    18          0.613998042103          5.104648152171          3.703217992365
      0.3047524880D+04  0.1834737132D-02
      0.4573695180D+03  0.1403732281D-01
      0.1039486850D+03  0.6884262226D-01
      0.2921015530D+02  0.2321844432D+00
      0.9286662960D+01  0.4679413484D+00
      0.3163926960D+01  0.3623119853D+00
 Atom C3       Shell     8 SP   3    bf   19 -    22          0.613998042103          5.104648152171          3.703217992365
      0.7868272350D+01 -0.1193324198D+00  0.6899906659D-01
      0.1881288540D+01 -0.1608541517D+00  0.3164239610D+00
      0.5442492580D+00  0.1143456438D+01  0.7443082909D+00
 Atom C3       Shell     9 SP   1    bf   23 -    26          0.613998042103          5.104648152171          3.703217992365
      0.1687144782D+00  0.1000000000D+01  0.1000000000D+01
 Atom C3       Shell    10 D   1     bf   27 -    32          0.613998042103          5.104648152171          3.703217992365
      0.8000000000D+00  0.1000000000D+01
 Atom H4       Shell    11 S   3     bf   33 -    33          0.909988926551          5.284864001327          5.742451641288
      0.1873113696D+02  0.3349460434D-01
      0.2825394365D+01  0.2347269535D+00
      0.6401216923D+00  0.8137573261D+00
 Atom H4       Shell    12 S   1     bf   34 -    34          0.909988926551          5.284864001327          5.742451641288
      0.1612777588D+00  0.1000000000D+01
 Atom H5       Shell    13 S   3     bf   35 -    35          0.444963003277          7.039143068775          2.950013709320
      0.1873113696D+02  0.3349460434D-01
      0.2825394365D+01  0.2347269535D+00
      0.6401216923D+00  0.8137573261D+00
 Atom H5       Shell    14 S   1     bf   36 -    36          0.444963003277          7.039143068775          2.950013709320
      0.1612777588D+00  0.1000000000D+01
 Atom C6       Shell    15 S   6     bf   37 -    37          2.856083076645          3.799849761780          2.484231706620
      0.3047524880D+04  0.1834737132D-02
      0.4573695180D+03  0.1403732281D-01
      0.1039486850D+03  0.6884262226D-01
      0.2921015530D+02  0.2321844432D+00
      0.9286662960D+01  0.4679413484D+00
      0.3163926960D+01  0.3623119853D+00
 Atom C6       Shell    16 SP   3    bf   38 -    41          2.856083076645          3.799849761780          2.484231706620
      0.7868272350D+01 -0.1193324198D+00  0.6899906659D-01
      0.1881288540D+01 -0.1608541517D+00  0.3164239610D+00
      0.5442492580D+00  0.1143456438D+01  0.7443082909D+00
 Atom C6       Shell    17 SP   1    bf   42 -    45          2.856083076645          3.799849761780          2.484231706620
      0.1687144782D+00  0.1000000000D+01  0.1000000000D+01
 Atom C6       Shell    18 D   1     bf   46 -    51          2.856083076645          3.799849761780          2.484231706620
      0.8000000000D+00  0.1000000000D+01
 Atom C7       Shell    19 S   6     bf   52 -    52          2.640710120006          3.125854313355         -0.324520911355
      0.3047524880D+04  0.1834737132D-02
      0.4573695180D+03  0.1403732281D-01
      0.1039486850D+03  0.6884262226D-01
      0.2921015530D+02  0.2321844432D+00
      0.9286662960D+01  0.4679413484D+00
      0.3163926960D+01  0.3623119853D+00
 Atom C7       Shell    20 SP   3    bf   53 -    56          2.640710120006          3.125854313355         -0.324520911355
      0.7868272350D+01 -0.1193324198D+00  0.6899906659D-01
      0.1881288540D+01 -0.1608541517D+00  0.3164239610D+00
      0.5442492580D+00  0.1143456438D+01  0.7443082909D+00
 Atom C7       Shell    21 SP   1    bf   57 -    60          2.640710120006          3.125854313355         -0.324520911355
      0.1687144782D+00  0.1000000000D+01  0.1000000000D+01
 Atom C7       Shell    22 D   1     bf   61 -    66          2.640710120006          3.125854313355         -0.324520911355
      0.8000000000D+00  0.1000000000D+01
 Atom C8       Shell    23 S   6     bf   67 -    67         -0.008195402088          1.917819274009         -0.796394918676
      0.3047524880D+04  0.1834737132D-02
      0.4573695180D+03  0.1403732281D-01
      0.1039486850D+03  0.6884262226D-01
      0.2921015530D+02  0.2321844432D+00
      0.9286662960D+01  0.4679413484D+00
      0.3163926960D+01  0.3623119853D+00
 Atom C8       Shell    24 SP   3    bf   68 -    71         -0.008195402088          1.917819274009         -0.796394918676
      0.7868272350D+01 -0.1193324198D+00  0.6899906659D-01
      0.1881288540D+01 -0.1608541517D+00  0.3164239610D+00
      0.5442492580D+00  0.1143456438D+01  0.7443082909D+00
 Atom C8       Shell    25 SP   1    bf   72 -    75         -0.008195402088          1.917819274009         -0.796394918676
      0.1687144782D+00  0.1000000000D+01  0.1000000000D+01
 Atom C8       Shell    26 D   1     bf   76 -    81         -0.008195402088          1.917819274009         -0.796394918676
      0.8000000000D+00  0.1000000000D+01
 Atom H9       Shell    27 S   3     bf   82 -    82          0.000000000000          0.000000000000          0.000000000000
      0.1873113696D+02  0.3349460434D-01
      0.2825394365D+01  0.2347269535D+00
      0.6401216923D+00  0.8137573261D+00
 Atom H9       Shell    28 S   1     bf   83 -    83          0.000000000000          0.000000000000          0.000000000000
      0.1612777588D+00  0.1000000000D+01
 Atom H10      Shell    29 S   3     bf   84 -    84         -0.312727130560          1.704802144453         -2.831816555352
      0.1873113696D+02  0.3349460434D-01
      0.2825394365D+01  0.2347269535D+00
      0.6401216923D+00  0.8137573261D+00
 Atom H10      Shell    30 S   1     bf   85 -    85         -0.312727130560          1.704802144453         -2.831816555352
      0.1612777588D+00  0.1000000000D+01
 Atom C11      Shell    31 S   6     bf   86 -    86         -2.247502501419          3.367218449842          0.350077435295
      0.3047524880D+04  0.1834737132D-02
      0.4573695180D+03  0.1403732281D-01
      0.1039486850D+03  0.6884262226D-01
      0.2921015530D+02  0.2321844432D+00
      0.9286662960D+01  0.4679413484D+00
      0.3163926960D+01  0.3623119853D+00
 Atom C11      Shell    32 SP   3    bf   87 -    90         -2.247502501419          3.367218449842          0.350077435295
      0.7868272350D+01 -0.1193324198D+00  0.6899906659D-01
      0.1881288540D+01 -0.1608541517D+00  0.3164239610D+00
      0.5442492580D+00  0.1143456438D+01  0.7443082909D+00
 Atom C11      Shell    33 SP   1    bf   91 -    94         -2.247502501419          3.367218449842          0.350077435295
      0.1687144782D+00  0.1000000000D+01  0.1000000000D+01
 Atom C11      Shell    34 D   1     bf   95 -   100         -2.247502501419          3.367218449842          0.350077435295
      0.8000000000D+00  0.1000000000D+01
 Atom H12      Shell    35 S   3     bf  101 -   101         -2.454136457351          5.225308186208         -0.559493162581
      0.1873113696D+02  0.3349460434D-01
      0.2825394365D+01  0.2347269535D+00
      0.6401216923D+00  0.8137573261D+00
 Atom H12      Shell    36 S   1     bf  102 -   102         -2.454136457351          5.225308186208         -0.559493162581
      0.1612777588D+00  0.1000000000D+01
 Atom H13      Shell    37 S   3     bf  103 -   103         -4.009379874189          2.336564500377          0.000000000000
      0.1873113696D+02  0.3349460434D-01
      0.2825394365D+01  0.2347269535D+00
      0.6401216923D+00  0.8137573261D+00
 Atom H13      Shell    38 S   1     bf  104 -   104         -4.009379874189          2.336564500377          0.000000000000
      0.1612777588D+00  0.1000000000D+01
 Atom C14      Shell    39 S   6     bf  105 -   105          4.930653772773          3.295880003312          3.845362795238
      0.3047524880D+04  0.1834737132D-02
      0.4573695180D+03  0.1403732281D-01
      0.1039486850D+03  0.6884262226D-01
      0.2921015530D+02  0.2321844432D+00
      0.9286662960D+01  0.4679413484D+00
      0.3163926960D+01  0.3623119853D+00
 Atom C14      Shell    40 SP   3    bf  106 -   109          4.930653772773          3.295880003312          3.845362795238
      0.7868272350D+01 -0.1193324198D+00  0.6899906659D-01
      0.1881288540D+01 -0.1608541517D+00  0.3164239610D+00
      0.5442492580D+00  0.1143456438D+01  0.7443082909D+00
 Atom C14      Shell    41 SP   1    bf  110 -   113          4.930653772773          3.295880003312          3.845362795238
      0.1687144782D+00  0.1000000000D+01  0.1000000000D+01
 Atom C14      Shell    42 D   1     bf  114 -   119          4.930653772773          3.295880003312          3.845362795238
      0.8000000000D+00  0.1000000000D+01
 Atom H15      Shell    43 S   3     bf  120 -   120          4.968769775641          3.766815667121          5.851309863194
      0.1873113696D+02  0.3349460434D-01
      0.2825394365D+01  0.2347269535D+00
      0.6401216923D+00  0.8137573261D+00
 Atom H15      Shell    44 S   1     bf  121 -   121          4.968769775641          3.766815667121          5.851309863194
      0.1612777588D+00  0.1000000000D+01
 Atom C16      Shell    45 S   6     bf  122 -   122          7.312554522729          2.125403667699          2.847903245900
      0.3047524880D+04  0.1834737132D-02
      0.4573695180D+03  0.1403732281D-01
      0.1039486850D+03  0.6884262226D-01
      0.2921015530D+02  0.2321844432D+00
      0.9286662960D+01  0.4679413484D+00
      0.3163926960D+01  0.3623119853D+00
 Atom C16      Shell    46 SP   3    bf  123 -   126          7.312554522729          2.125403667699          2.847903245900
      0.7868272350D+01 -0.1193324198D+00  0.6899906659D-01
      0.1881288540D+01 -0.1608541517D+00  0.3164239610D+00
      0.5442492580D+00  0.1143456438D+01  0.7443082909D+00
 Atom C16      Shell    47 SP   1    bf  127 -   130          7.312554522729          2.125403667699          2.847903245900
      0.1687144782D+00  0.1000000000D+01  0.1000000000D+01
 Atom C16      Shell    48 D   1     bf  131 -   136          7.312554522729          2.125403667699          2.847903245900
      0.8000000000D+00  0.1000000000D+01
 Atom H17      Shell    49 S   3     bf  137 -   137          7.598213915360          0.268284154524          3.746851107369
      0.1873113696D+02  0.3349460434D-01
      0.2825394365D+01  0.2347269535D+00
      0.6401216923D+00  0.8137573261D+00
 Atom H17      Shell    50 S   1     bf  138 -   138          7.598213915360          0.268284154524          3.746851107369
      0.1612777588D+00  0.1000000000D+01
 Atom C18      Shell    51 S   6     bf  139 -   139          7.394495636776          1.839828783621         -0.039871029322
      0.3047524880D+04  0.1834737132D-02
      0.4573695180D+03  0.1403732281D-01
      0.1039486850D+03  0.6884262226D-01
      0.2921015530D+02  0.2321844432D+00
      0.9286662960D+01  0.4679413484D+00
      0.3163926960D+01  0.3623119853D+00
 Atom C18      Shell    52 SP   3    bf  140 -   143          7.394495636776          1.839828783621         -0.039871029322
      0.7868272350D+01 -0.1193324198D+00  0.6899906659D-01
      0.1881288540D+01 -0.1608541517D+00  0.3164239610D+00
      0.5442492580D+00  0.1143456438D+01  0.7443082909D+00
 Atom C18      Shell    53 SP   1    bf  144 -   147          7.394495636776          1.839828783621         -0.039871029322
      0.1687144782D+00  0.1000000000D+01  0.1000000000D+01
 Atom C18      Shell    54 D   1     bf  148 -   153          7.394495636776          1.839828783621         -0.039871029322
      0.8000000000D+00  0.1000000000D+01
 Atom H19      Shell    55 S   3     bf  154 -   154          7.962126923846          3.678071161050         -0.804157478992
      0.1873113696D+02  0.3349460434D-01
      0.2825394365D+01  0.2347269535D+00
      0.6401216923D+00  0.8137573261D+00
 Atom H19      Shell    56 S   1     bf  155 -   155          7.962126923846          3.678071161050         -0.804157478992
      0.1612777588D+00  0.1000000000D+01
 Atom C20      Shell    57 S   6     bf  156 -   156          4.723229117633          1.141207180122         -1.042092858590
      0.3047524880D+04  0.1834737132D-02
      0.4573695180D+03  0.1403732281D-01
      0.1039486850D+03  0.6884262226D-01
      0.2921015530D+02  0.2321844432D+00
      0.9286662960D+01  0.4679413484D+00
      0.3163926960D+01  0.3623119853D+00
 Atom C20      Shell    58 SP   3    bf  157 -   160          4.723229117633          1.141207180122         -1.042092858590
      0.7868272350D+01 -0.1193324198D+00  0.6899906659D-01
      0.1881288540D+01 -0.1608541517D+00  0.3164239610D+00
      0.5442492580D+00  0.1143456438D+01  0.7443082909D+00
 Atom C20      Shell    59 SP   1    bf  161 -   164          4.723229117633          1.141207180122         -1.042092858590
      0.1687144782D+00  0.1000000000D+01  0.1000000000D+01
 Atom C20      Shell    60 D   1     bf  165 -   170          4.723229117633          1.141207180122         -1.042092858590
      0.8000000000D+00  0.1000000000D+01
 Atom H21      Shell    61 S   3     bf  171 -   171          4.182370941290         -0.611695675372         -0.053422879030
      0.1873113696D+02  0.3349460434D-01
      0.2825394365D+01  0.2347269535D+00
      0.6401216923D+00  0.8137573261D+00
 Atom H21      Shell    62 S   1     bf  172 -   172          4.182370941290         -0.611695675372         -0.053422879030
      0.1612777588D+00  0.1000000000D+01
 Atom C22      Shell    63 S   6     bf  173 -   173          4.783853213832          0.508413903004         -3.893489168760
      0.3047524880D+04  0.1834737132D-02
      0.4573695180D+03  0.1403732281D-01
      0.1039486850D+03  0.6884262226D-01
      0.2921015530D+02  0.2321844432D+00
      0.9286662960D+01  0.4679413484D+00
      0.3163926960D+01  0.3623119853D+00
 Atom C22      Shell    64 SP   3    bf  174 -   177          4.783853213832          0.508413903004         -3.893489168760
      0.7868272350D+01 -0.1193324198D+00  0.6899906659D-01
      0.1881288540D+01 -0.1608541517D+00  0.3164239610D+00
      0.5442492580D+00  0.1143456438D+01  0.7443082909D+00
 Atom C22      Shell    65 SP   1    bf  178 -   181          4.783853213832          0.508413903004         -3.893489168760
      0.1687144782D+00  0.1000000000D+01  0.1000000000D+01
 Atom C22      Shell    66 D   1     bf  182 -   187          4.783853213832          0.508413903004         -3.893489168760
      0.8000000000D+00  0.1000000000D+01
 Atom H23      Shell    67 S   3     bf  188 -   188          5.097230844819          2.237897174664         -4.986938679826
      0.1873113696D+02  0.3349460434D-01
      0.2825394365D+01  0.2347269535D+00
      0.6401216923D+00  0.8137573261D+00
 Atom H23      Shell    68 S   1     bf  189 -   189          5.097230844819          2.237897174664         -4.986938679826
      0.1612777588D+00  0.1000000000D+01
 Atom H24      Shell    69 S   3     bf  190 -   190          2.935377024530         -0.212826626264         -4.483946419995
      0.1873113696D+02  0.3349460434D-01
      0.2825394365D+01  0.2347269535D+00
      0.6401216923D+00  0.8137573261D+00
 Atom H24      Shell    70 S   1     bf  191 -   191          2.935377024530         -0.212826626264         -4.483946419995
      0.1612777588D+00  0.1000000000D+01
 Atom C25      Shell    71 S   6     bf  192 -   192          6.810070429152         -1.447374806713         -4.636257420340
      0.3047524880D+04  0.1834737132D-02
      0.4573695180D+03  0.1403732281D-01
      0.1039486850D+03  0.6884262226D-01
      0.2921015530D+02  0.2321844432D+00
      0.9286662960D+01  0.4679413484D+00
      0.3163926960D+01  0.3623119853D+00
 Atom C25      Shell    72 SP   3    bf  193 -   196          6.810070429152         -1.447374806713         -4.636257420340
      0.7868272350D+01 -0.1193324198D+00  0.6899906659D-01
      0.1881288540D+01 -0.1608541517D+00  0.3164239610D+00
      0.5442492580D+00  0.1143456438D+01  0.7443082909D+00
 Atom C25      Shell    73 SP   1    bf  197 -   200          6.810070429152         -1.447374806713         -4.636257420340
      0.1687144782D+00  0.1000000000D+01  0.1000000000D+01
 Atom C25      Shell    74 D   1     bf  201 -   206          6.810070429152         -1.447374806713         -4.636257420340
      0.8000000000D+00  0.1000000000D+01
 Atom H26      Shell    75 S   3     bf  207 -   207          6.346342861115         -3.281000488714         -3.775106386994
      0.1873113696D+02  0.3349460434D-01
      0.2825394365D+01  0.2347269535D+00
      0.6401216923D+00  0.8137573261D+00
 Atom H26      Shell    76 S   1     bf  208 -   208          6.346342861115         -3.281000488714         -3.775106386994
      0.1612777588D+00  0.1000000000D+01
 Atom H27      Shell    77 S   3     bf  209 -   209          6.732962497560         -1.724691795461         -6.684832514661
      0.1873113696D+02  0.3349460434D-01
      0.2825394365D+01  0.2347269535D+00
      0.6401216923D+00  0.8137573261D+00
 Atom H27      Shell    78 S   1     bf  210 -   210          6.732962497560         -1.724691795461         -6.684832514661
      0.1612777588D+00  0.1000000000D+01
 Atom C28      Shell    79 S   6     bf  211 -   211          9.468359991071         -0.647687059148         -3.755302264992
      0.3047524880D+04  0.1834737132D-02
      0.4573695180D+03  0.1403732281D-01
      0.1039486850D+03  0.6884262226D-01
      0.2921015530D+02  0.2321844432D+00
      0.9286662960D+01  0.4679413484D+00
      0.3163926960D+01  0.3623119853D+00
 Atom C28      Shell    80 SP   3    bf  212 -   215          9.468359991071         -0.647687059148         -3.755302264992
      0.7868272350D+01 -0.1193324198D+00  0.6899906659D-01
      0.1881288540D+01 -0.1608541517D+00  0.3164239610D+00
      0.5442492580D+00  0.1143456438D+01  0.7443082909D+00
 Atom C28      Shell    81 SP   1    bf  216 -   219          9.468359991071         -0.647687059148         -3.755302264992
      0.1687144782D+00  0.1000000000D+01  0.1000000000D+01
 Atom C28      Shell    82 D   1     bf  220 -   225          9.468359991071         -0.647687059148         -3.755302264992
      0.8000000000D+00  0.1000000000D+01
 Atom C29      Shell    83 S   6     bf  226 -   226          9.300343268966         -0.200710023553         -0.853204678265
      0.3047524880D+04  0.1834737132D-02
      0.4573695180D+03  0.1403732281D-01
      0.1039486850D+03  0.6884262226D-01
      0.2921015530D+02  0.2321844432D+00
      0.9286662960D+01  0.4679413484D+00
      0.3163926960D+01  0.3623119853D+00
 Atom C29      Shell    84 SP   3    bf  227 -   230          9.300343268966         -0.200710023553         -0.853204678265
      0.7868272350D+01 -0.1193324198D+00  0.6899906659D-01
      0.1881288540D+01 -0.1608541517D+00  0.3164239610D+00
      0.5442492580D+00  0.1143456438D+01  0.7443082909D+00
 Atom C29      Shell    85 SP   1    bf  231 -   234          9.300343268966         -0.200710023553         -0.853204678265
      0.1687144782D+00  0.1000000000D+01  0.1000000000D+01
 Atom C29      Shell    86 D   1     bf  235 -   240          9.300343268966         -0.200710023553         -0.853204678265
      0.8000000000D+00  0.1000000000D+01
 Atom H30      Shell    87 S   3     bf  241 -   241          8.570565996379         -1.994069345525         -0.074087544519
      0.1873113696D+02  0.3349460434D-01
      0.2825394365D+01  0.2347269535D+00
      0.6401216923D+00  0.8137573261D+00
 Atom H30      Shell    88 S   1     bf  242 -   242          8.570565996379         -1.994069345525         -0.074087544519
      0.1612777588D+00  0.1000000000D+01
 Atom C31      Shell    89 S   6     bf  243 -   243         12.071785190865          0.000000000000          0.000000000000
      0.3047524880D+04  0.1834737132D-02
      0.4573695180D+03  0.1403732281D-01
      0.1039486850D+03  0.6884262226D-01
      0.2921015530D+02  0.2321844432D+00
      0.9286662960D+01  0.4679413484D+00
      0.3163926960D+01  0.3623119853D+00
 Atom C31      Shell    90 SP   3    bf  244 -   247         12.071785190865          0.000000000000          0.000000000000
      0.7868272350D+01 -0.1193324198D+00  0.6899906659D-01
      0.1881288540D+01 -0.1608541517D+00  0.3164239610D+00
      0.5442492580D+00  0.1143456438D+01  0.7443082909D+00
 Atom C31      Shell    91 SP   1    bf  248 -   251         12.071785190865          0.000000000000          0.000000000000
      0.1687144782D+00  0.1000000000D+01  0.1000000000D+01
 Atom C31      Shell    92 D   1     bf  252 -   257         12.071785190865          0.000000000000          0.000000000000
      0.8000000000D+00  0.1000000000D+01
 Atom H32      Shell    93 S   3     bf  258 -   258         12.316984129696         -0.464398628684          1.997711811544
      0.1873113696D+02  0.3349460434D-01
      0.2825394365D+01  0.2347269535D+00
      0.6401216923D+00  0.8137573261D+00
 Atom H32      Shell    94 S   1     bf  259 -   259         12.316984129696         -0.464398628684          1.997711811544
      0.1612777588D+00  0.1000000000D+01
 Atom H33      Shell    95 S   3     bf  260 -   260         12.770066001153          1.933610959411         -0.230482753263
      0.1873113696D+02  0.3349460434D-01
      0.2825394365D+01  0.2347269535D+00
      0.6401216923D+00  0.8137573261D+00
 Atom H33      Shell    96 S   1     bf  261 -   261         12.770066001153          1.933610959411         -0.230482753263
      0.1612777588D+00  0.1000000000D+01
 Atom C34      Shell    97 S   6     bf  262 -   262         13.483416829329         -1.866682264401         -1.771497080341
      0.3047524880D+04  0.1834737132D-02
      0.4573695180D+03  0.1403732281D-01
      0.1039486850D+03  0.6884262226D-01
      0.2921015530D+02  0.2321844432D+00
      0.9286662960D+01  0.4679413484D+00
      0.3163926960D+01  0.3623119853D+00
 Atom C34      Shell    98 SP   3    bf  263 -   266         13.483416829329         -1.866682264401         -1.771497080341
      0.7868272350D+01 -0.1193324198D+00  0.6899906659D-01
      0.1881288540D+01 -0.1608541517D+00  0.3164239610D+00
      0.5442492580D+00  0.1143456438D+01  0.7443082909D+00
 Atom C34      Shell    99 SP   1    bf  267 -   270         13.483416829329         -1.866682264401         -1.771497080341
      0.1687144782D+00  0.1000000000D+01  0.1000000000D+01
 Atom C34      Shell   100 D   1     bf  271 -   276         13.483416829329         -1.866682264401         -1.771497080341
      0.8000000000D+00  0.1000000000D+01
 Atom H35      Shell   101 S   3     bf  277 -   277         15.109400575479         -0.939852627677         -2.660502374528
      0.1873113696D+02  0.3349460434D-01
      0.2825394365D+01  0.2347269535D+00
      0.6401216923D+00  0.8137573261D+00
 Atom H35      Shell   102 S   1     bf  278 -   278         15.109400575479         -0.939852627677         -2.660502374528
      0.1612777588D+00  0.1000000000D+01
 Atom H36      Shell   103 S   3     bf  279 -   279         14.240293284888         -3.484057382049         -0.726567799517
      0.1873113696D+02  0.3349460434D-01
      0.2825394365D+01  0.2347269535D+00
      0.6401216923D+00  0.8137573261D+00
 Atom H36      Shell   104 S   1     bf  280 -   280         14.240293284888         -3.484057382049         -0.726567799517
      0.1612777588D+00  0.1000000000D+01
 Atom C37      Shell   105 S   6     bf  281 -   281         11.555243065537         -2.749863743900         -3.828604514919
      0.3047524880D+04  0.1834737132D-02
      0.4573695180D+03  0.1403732281D-01
      0.1039486850D+03  0.6884262226D-01
      0.2921015530D+02  0.2321844432D+00
      0.9286662960D+01  0.4679413484D+00
      0.3163926960D+01  0.3623119853D+00
 Atom C37      Shell   106 SP   3    bf  282 -   285         11.555243065537         -2.749863743900         -3.828604514919
      0.7868272350D+01 -0.1193324198D+00  0.6899906659D-01
      0.1881288540D+01 -0.1608541517D+00  0.3164239610D+00
      0.5442492580D+00  0.1143456438D+01  0.7443082909D+00
[...]
 1626 Fit      -0.003130
 1627 Fit      -0.002783
 1628 Fit       0.002394
 1629 Fit       0.002454
 1630 Fit       0.000233
 1631 Fit       0.002790
 1632 Fit       0.000855
 1633 Fit      -0.001732
 1634 Fit       0.001890
 1635 Fit      -0.000083
 1636 Fit      -0.000216
 1637 Fit      -0.001078
 1638 Fit      -0.001591
 1639 Fit       0.000787
 1640 Fit       0.002123
 1641 Fit       0.002046
 1642 Fit       0.000971
 1643 Fit      -0.002417
 1644 Fit      -0.000370
 1645 Fit       0.001092
 1646 Fit       0.001402
 1647 Fit       0.000618
 1648 Fit      -0.000575
 1649 Fit      -0.001482
 1650 Fit      -0.000525
 1651 Fit      -0.000953
 1652 Fit       0.001332
 1653 Fit      -0.000175
 1654 Fit      -0.002054
 1655 Fit      -0.000939
 1656 Fit       0.000307
 1657 Fit       0.002056
 1658 Fit       0.001976
 1659 Fit       0.000592
 1660 Fit      -0.000400
 1661 Fit      -0.000169
 1662 Fit       0.000988
 1663 Fit       0.001466
 1664 Fit      -0.007490
 1665 Fit      -0.005852
 1666 Fit      -0.001026
 1667 Fit      -0.005687
 1668 Fit      -0.000043
 1669 Fit       0.001868
 1670 Fit       0.000721
 1671 Fit      -0.011937
 1672 Fit      -0.002470
 1673 Fit       0.002197
 1674 Fit       0.004283
 1675 Fit       0.003296
 1676 Fit       0.000979
 1677 Fit       0.005034
 1678 Fit       0.011106
 1679 Fit       0.007811
 1680 Fit       0.006510
 1681 Fit       0.004209
 1682 Fit       0.002724
 1683 Fit       0.008075
 1684 Fit       0.005875
 1685 Fit       0.000396
 1686 Fit      -0.005175
 1687 Fit      -0.001012
 1688 Fit       0.004697
 1689 Fit       0.007503
 1690 Fit       0.003480
 1691 Fit      -0.004122
 1692 Fit       0.000486
 1693 Fit       0.008348
 1694 Fit       0.008678
 1695 Fit       0.009295
 1696 Fit       0.010482
 1697 Fit       0.013298
 1698 Fit       0.008565
 1699 Fit       0.011903
 1700 Fit       0.015956
 1701 Fit       0.024380
 1702 Fit       0.023365
 1703 Fit       0.005313
 1704 Fit       0.006137
 1705 Fit       0.005681
 1706 Fit       0.004890
 1707 Fit       0.005943
 1708 Fit       0.006362
 1709 Fit       0.006736
 1710 Fit       0.005497
 1711 Fit       0.006204
 1712 Fit       0.007076
 1713 Fit       0.005336
 1714 Fit       0.005856
 1715 Fit       0.006584
 1716 Fit       0.005797
 1717 Fit       0.006563
 1718 Fit       0.008639
 1719 Fit       0.007725
 1720 Fit       0.007293
 1721 Fit       0.007154
 1722 Fit       0.009054
 1723 Fit       0.008326
 1724 Fit       0.008377
 1725 Fit       0.008709
 1726 Fit       0.006832
 1727 Fit       0.005760
 1728 Fit       0.007232
 1729 Fit       0.016914
 1730 Fit       0.014791
 1731 Fit       0.009793
 1732 Fit       0.012152
 1733 Fit       0.010509
 1734 Fit       0.007403
 1735 Fit       0.009131
 1736 Fit       0.007413
 1737 Fit       0.008913
 1738 Fit      -0.004893
 1739 Fit      -0.005454
 1740 Fit      -0.002184
 1741 Fit       0.000795
 1742 Fit       0.003465
 1743 Fit       0.001385
 1744 Fit       0.001024
 1745 Fit       0.002211
 1746 Fit       0.003599
 1747 Fit       0.004873
 1748 Fit       0.003932
 1749 Fit       0.004193
 1750 Fit       0.005029
 1751 Fit       0.005843
 1752 Fit       0.005517
 1753 Fit       0.006350
 1754 Fit       0.001134
 1755 Fit       0.002077
 1756 Fit       0.002880
 1757 Fit       0.000006
 1758 Fit       0.002711
 1759 Fit       0.002860
 1760 Fit       0.006577
 1761 Fit       0.004613
 1762 Fit       0.008945
 1763 Fit       0.008967
 1764 Fit       0.006639
 1765 Fit       0.004598
 1766 Fit       0.003911
 1767 Fit       0.009663
 1768 Fit       0.014893
 1769 Fit       0.011984
 1770 Fit       0.002256
 1771 Fit       0.002585
 1772 Fit       0.002545
 1773 Fit      -0.002133
 1774 Fit       0.000529
 1775 Fit       0.003270
 1776 Fit       0.000691
 1777 Fit       0.004418
 1778 Fit       0.004680
 1779 Fit       0.002566
 1780 Fit      -0.002629
 1781 Fit       0.006031
 1782 Fit       0.006308
 1783 Fit       0.004843
 1784 Fit       0.004220
 1785 Fit       0.006713
 1786 Fit       0.006504
 1787 Fit       0.006541
 1788 Fit       0.006750
 1789 Fit       0.004205
 1790 Fit       0.003812
 1791 Fit       0.005339
 1792 Fit       0.004739
 1793 Fit       0.004128
 1794 Fit       0.005856
 1795 Fit       0.004906
 1796 Fit       0.007288
 1797 Fit       0.005584
 1798 Fit       0.003812
 1799 Fit       0.008587
 1800 Fit       0.008557
 1801 Fit       0.007035
 1802 Fit       0.005278
 1803 Fit       0.005587
 1804 Fit       0.004350
 1805 Fit       0.002319
 1806 Fit       0.000809
 1807 Fit       0.005585
 1808 Fit       0.005105
 1809 Fit       0.004946
 1810 Fit       0.004363
 1811 Fit       0.004145
 1812 Fit       0.004140
 1813 Fit       0.003556
 1814 Fit       0.002969
 1815 Fit       0.002934
 1816 Fit       0.003975
 1817 Fit       0.004031
 1818 Fit       0.003232
 1819 Fit       0.001703
 1820 Fit       0.004550
 1821 Fit       0.003799
 1822 Fit       0.006577
 1823 Fit       0.004498
 1824 Fit       0.002344
 1825 Fit       0.006073
 1826 Fit       0.004738
 1827 Fit       0.003476
 1828 Fit      -0.009968
 1829 Fit      -0.014092
 1830 Fit       0.000331
 1831 Fit      -0.010176
 1832 Fit      -0.010962
 1833 Fit      -0.010265
 1834 Fit      -0.002661
 1835 Fit      -0.005040
 1836 Fit      -0.009543
 1837 Fit      -0.016684
 1838 Fit      -0.000570
 1839 Fit      -0.002696
 1840 Fit      -0.005435
 1841 Fit       0.000518
 1842 Fit      -0.019124
 1843 Fit      -0.011596
 1844 Fit      -0.016321
 1845 Fit      -0.006909
 1846 Fit      -0.009741
 1847 Fit      -0.015392
 1848 Fit      -0.006828
 1849 Fit      -0.005812
 1850 Fit      -0.007993
 1851 Fit      -0.007239
 1852 Fit      -0.003258
 1853 Fit      -0.003763
 1854 Fit      -0.004752
 1855 Fit      -0.001559
 1856 Fit      -0.001649
 1857 Fit      -0.001836
 1858 Fit      -0.000539
 1859 Fit      -0.003959
 1860 Fit      -0.000730
 1861 Fit      -0.001412
 1862 Fit      -0.003846
 1863 Fit       0.000974
 1864 Fit       0.000363
 1865 Fit       0.000050
 1866 Fit      -0.001192
 1867 Fit      -0.003453
 1868 Fit       0.000483
 1869 Fit      -0.000917
 1870 Fit       0.004371
 1871 Fit       0.004032
 1872 Fit       0.003248
 1873 Fit      -0.013583
 1874 Fit      -0.004260
 1875 Fit      -0.002909
 1876 Fit      -0.002849
 1877 Fit      -0.001239
 1878 Fit      -0.001674
 1879 Fit      -0.000649
 1880 Fit       0.001256
 1881 Fit      -0.004731
 1882 Fit      -0.002008
 1883 Fit       0.001368
 1884 Fit       0.000534
 1885 Fit       0.003476
 1886 Fit      -0.002696
 1887 Fit      -0.005024
 1888 Fit      -0.007579
 1889 Fit      -0.000061
 1890 Fit      -0.001470
 1891 Fit      -0.003056
 1892 Fit      -0.004582
 1893 Fit      -0.001838
 1894 Fit      -0.000789
 1895 Fit      -0.000950
 1896 Fit      -0.000069
 1897 Fit       0.001632
 1898 Fit       0.003400
 1899 Fit       0.001072
 1900 Fit       0.001084
 1901 Fit       0.002123
 1902 Fit       0.003931
 1903 Fit       0.002603
 1904 Fit      -0.000840
 1905 Fit      -0.000404
 1906 Fit      -0.001085
 1907 Fit      -0.000432
 1908 Fit      -0.000246
 1909 Fit      -0.000436
 1910 Fit      -0.000238
 1911 Fit       0.000297
 1912 Fit       0.000572
 1913 Fit      -0.000322
 1914 Fit      -0.000900
 1915 Fit      -0.000999
 1916 Fit      -0.000887
 1917 Fit      -0.000581
 1918 Fit      -0.001055
 1919 Fit      -0.001422
 1920 Fit      -0.000624
 1921 Fit      -0.001015
 1922 Fit       0.003150
 1923 Fit       0.002119
 1924 Fit       0.002806
 1925 Fit       0.000420
 1926 Fit       0.001198
 1927 Fit       0.001623
 1928 Fit       0.001730
 1929 Fit      -0.000392
 1930 Fit      -0.000144
 1931 Fit      -0.000460
 1932 Fit      -0.000706
 1933 Fit       0.000125
 1934 Fit       0.001568
 1935 Fit       0.000476
 1936 Fit      -0.000541
 1937 Fit      -0.001036
 1938 Fit       0.000088
 1939 Fit       0.001180
 1940 Fit       0.001842
 1941 Fit       0.001256
 1942 Fit       0.000231
 1943 Fit      -0.000555
 1944 Fit      -0.000667
 1945 Fit       0.000157
 1946 Fit       0.001224
 1947 Fit       0.000495
 1948 Fit       0.001464
 1949 Fit       0.003277
 1950 Fit       0.003856
 1951 Fit       0.003154
 1952 Fit       0.000855
 1953 Fit       0.000074
 1954 Fit       0.001551
 1955 Fit       0.000641
 1956 Fit       0.004713
 1957 Fit       0.004048
 1958 Fit       0.002553
 1959 Fit       0.004248
 1960 Fit       0.006451
 1961 Fit       0.008308
 1962 Fit       0.003295
 1963 Fit       0.003098
 1964 Fit       0.004357
 1965 Fit       0.004088
 1966 Fit       0.003835
 1967 Fit       0.004980
 1968 Fit       0.006515
 1969 Fit       0.007855
 1970 Fit       0.009276
 1971 Fit       0.005638
 1972 Fit       0.006537
 1973 Fit       0.007777
 1974 Fit       0.007709
 1975 Fit       0.007040
 1976 Fit       0.007949
 1977 Fit       0.012410
 1978 Fit       0.018039
 1979 Fit       0.005860
 1980 Fit       0.009272
 1981 Fit       0.012740
 1982 Fit       0.006315
 1983 Fit       0.008829
 1984 Fit       0.010383
 1985 Fit      -0.003125
 1986 Fit       0.001854
 1987 Fit      -0.004192
 1988 Fit      -0.000657
 1989 Fit       0.001750
 1990 Fit       0.001098
 1991 Fit       0.001681
 1992 Fit      -0.006960
 1993 Fit      -0.013496
 1994 Fit      -0.004390
 1995 Fit       0.004416
 1996 Fit      -0.004528
 1997 Fit      -0.011565
 1998 Fit      -0.018619
 1999 Fit      -0.013496
 2000 Fit      -0.011801
 2001 Fit      -0.017437
 2002 Fit      -0.022899
 2003 Fit      -0.021098
 2004 Fit      -0.020403
 2005 Fit      -0.026176
 2006 Fit      -0.015490
 2007 Fit      -0.003908
 2008 Fit      -0.022062
 2009 Fit      -0.014048
 2010 Fit      -0.003697
 2011 Fit      -0.024584
 2012 Fit      -0.019756
 2013 Fit      -0.012745
 2014 Fit      -0.004090
 2015 Fit       0.004251
 2016 Fit      -0.020535
 2017 Fit      -0.014892
 2018 Fit      -0.007891
 2019 Fit      -0.002136
 2020 Fit       0.000408
 2021 Fit      -0.018775
 2022 Fit      -0.014463
 2023 Fit      -0.009312
 2024 Fit      -0.013642
 2025 Fit       0.012065
 2026 Fit       0.004684
 2027 Fit       0.013748
 2028 Fit       0.018261
 2029 Fit       0.005496
 2030 Fit       0.013638
 2031 Fit       0.018422
 2032 Fit       0.019787
 2033 Fit       0.005492
 2034 Fit       0.012842
 2035 Fit       0.016777
 2036 Fit       0.017522
 2037 Fit       0.014448
 2038 Fit       0.006801
 2039 Fit       0.011328
 2040 Fit       0.011783
 2041 Fit      -0.020102
 2042 Fit      -0.014736
 2043 Fit      -0.018200
 2044 Fit      -0.022759
 2045 Fit      -0.022109
 2046 Fit      -0.016473
 2047 Fit      -0.006149
 2048 Fit      -0.007223
 2049 Fit      -0.010765
 2050 Fit      -0.016849
 2051 Fit      -0.022392
 2052 Fit      -0.024329
 2053 Fit      -0.021434
 2054 Fit      -0.007784
 2055 Fit      -0.016543
 2056 Fit      -0.022212
 2057 Fit      -0.023096
 2058 Fit      -0.018840
 2059 Fit      -0.001270
 2060 Fit      -0.011770
 2061 Fit      -0.018403
 2062 Fit      -0.020109
 2063 Fit      -0.016697
 2064 Fit      -0.004965
 2065 Fit      -0.012744
 2066 Fit      -0.013398
 2067 Fit      -0.002400
 2068 Fit       0.006589
 2069 Fit       0.006299
 2070 Fit       0.001204
 2071 Fit       0.016580
 2072 Fit       0.014850
 2073 Fit       0.010476
 2074 Fit       0.002592
 2075 Fit       0.022313
 2076 Fit       0.019980
 2077 Fit       0.015707
 2078 Fit       0.008653
 2079 Fit       0.025914
 2080 Fit       0.022704
 2081 Fit       0.017881
 2082 Fit       0.010265
 2083 Fit      -0.003731
 2084 Fit      -0.003272
 2085 Fit      -0.002473
 2086 Fit      -0.001942
 2087 Fit      -0.002113
 2088 Fit      -0.002324
 2089 Fit      -0.002163
 2090 Fit      -0.000231
 2091 Fit      -0.000600
 2092 Fit      -0.000600
 2093 Fit       0.000603
 2094 Fit       0.000957
 2095 Fit       0.000696
 2096 Fit       0.001500
 2097 Fit       0.001883
 2098 Fit      -0.001008
 2099 Fit      -0.002296
 2100 Fit      -0.001610
 2101 Fit      -0.001635
 2102 Fit      -0.002982
 2103 Fit      -0.002391
 2104 Fit      -0.001741
 2105 Fit       0.002479
 2106 Fit       0.002558
 2107 Fit      -0.000200
 2108 Fit      -0.000022
 2109 Fit      -0.002641
 2110 Fit      -0.001555
 2111 Fit       0.000476
 2112 Fit       0.000132
 2113 Fit      -0.000008
 2114 Fit      -0.000330
 2115 Fit       0.000036
 2116 Fit      -0.000825
 2117 Fit      -0.000835
 2118 Fit      -0.000861
 2119 Fit      -0.000856
 2120 Fit      -0.002185
 2121 Fit      -0.002280
 2122 Fit      -0.001610
 2123 Fit      -0.002443
 2124 Fit      -0.000806
 2125 Fit      -0.000102
 2126 Fit      -0.000590
 2127 Fit       0.000464
 2128 Fit       0.001005
 2129 Fit       0.001141
 2130 Fit       0.000955
 2131 Fit       0.001526
 2132 Fit       0.001449
 2133 Fit      -0.000429
 2134 Fit      -0.000279
 2135 Fit      -0.000297
 2136 Fit      -0.000138
 2137 Fit      -0.000877
 2138 Fit       0.000277
 2139 Fit       0.000332
 2140 Fit       0.000299
 2141 Fit      -0.000233
 2142 Fit      -0.000199
 2143 Fit       0.000266
 2144 Fit       0.000327
 2145 Fit      -0.000382
 2146 Fit      -0.000630
 2147 Fit      -0.000016
 2148 Fit      -0.002441
 2149 Fit      -0.002165
 2150 Fit      -0.002485
 2151 Fit      -0.002387
 2152 Fit      -0.002377
 2153 Fit      -0.001314
 2154 Fit      -0.002063
 2155 Fit      -0.002091
 2156 Fit      -0.001733
 2157 Fit      -0.001594
 2158 Fit      -0.000869
 2159 Fit      -0.001100
 2160 Fit      -0.001004
 2161 Fit      -0.001107
 2162 Fit       0.000428
 2163 Fit       0.001635
 2164 Fit       0.001351
 2165 Fit      -0.000138
 2166 Fit       0.003209
 2167 Fit       0.001880
 2168 Fit      -0.000028
 2169 Fit       0.003281
 2170 Fit       0.002276
 2171 Fit       0.000201
 2172 Fit      -0.000836
 2173 Fit      -0.001010
 2174 Fit      -0.001439
 2175 Fit      -0.000005
 2176 Fit       0.000713
 2177 Fit       0.000287
 2178 Fit      -0.001078
 2179 Fit      -0.000960
 2180 Fit       0.000527
 2181 Fit       0.001426
 2182 Fit       0.001338
 2183 Fit       0.000390
 2184 Fit      -0.001004
 2185 Fit       0.000614
 2186 Fit       0.001977
 2187 Fit       0.001745
 2188 Fit       0.000683
 2189 Fit      -0.001376
 2190 Fit      -0.000454
 2191 Fit      -0.000236
 2192 Fit      -0.001197
 2193 Fit      -0.001793
 2194 Fit       0.000025
 2195 Fit       0.000565
 2196 Fit       0.000278
 2197 Fit      -0.000370
 2198 Fit      -0.001209
 2199 Fit       0.000058
 2200 Fit       0.000783
 2201 Fit       0.000838
 2202 Fit       0.000421
 2203 Fit      -0.001042
 2204 Fit      -0.000199
 2205 Fit      -0.001653
 2206 Fit      -0.001930
 2207 Fit      -0.001135
 2208 Fit      -0.002284
 2209 Fit      -0.002160
 2210 Fit      -0.001769
 2211 Fit      -0.001415
 2212 Fit      -0.000538
 2213 Fit      -0.001167
 2214 Fit      -0.001937
 2215 Fit      -0.002180
 2216 Fit       0.002063
 2217 Fit      -0.000007
 2218 Fit       0.002786
 2219 Fit       0.001611
 2220 Fit      -0.000193
 2221 Fit       0.002721
 2222 Fit       0.001414
 2223 Fit      -0.000318
 2224 Fit       0.001058
 2225 Fit      -0.000415
 2226 Fit      -0.001084
 2227 Fit      -0.001242
 2228 Fit       0.000586
 2229 Fit       0.001688
 2230 Fit       0.001801
 2231 Fit      -0.000983
 2232 Fit       0.000395
 2233 Fit       0.001244
 2234 Fit       0.001329
 2235 Fit       0.000761
 2236 Fit      -0.001659
 2237 Fit      -0.000410
 2238 Fit       0.000334
 2239 Fit       0.000326
 2240 Fit      -0.000319
 2241 Fit      -0.001766
 2242 Fit      -0.001108
 2243 Fit      -0.001338
 2244 Fit       0.000327
 2245 Fit      -0.001256
 2246 Fit      -0.000361
 2247 Fit       0.001233
 2248 Fit       0.000292
 2249 Fit      -0.000513
 2250 Fit      -0.001774
 2251 Fit      -0.001199
 2252 Fit      -0.000389
 2253 Fit       0.000487
 2254 Fit       0.001526
 2255 Fit       0.001523
 2256 Fit       0.000582
 2257 Fit      -0.000152
 2258 Fit      -0.000043
 2259 Fit       0.000755
 2260 Fit       0.001044
 -----------------------------------------------------------------
 Leave Link  602 at Thu Apr 27 15:40:22 2017, MaxMem=    33554432 cpu:         4.2
 (Enter /home/michal/g09/l9999.exe)

 Test job not archived.
 1\1\GINC-LINUX\SP\RHF\6-31G(d)\C27H46O3\MICHAL\27-Apr-2017\0\\#P HF/6-
 31G* SCF(Conver=6) NoSymm Test Pop=mk IOp(6/33=2) GFInput GFPrint\\MEP
  - Input generated by R.E.D.-III.x MOLECULE\\0,1\C,0,-1.00417322,1.982
 04247,1.68859227\H,0,-0.98816697,1.00317892,2.18327593\C,0,0.32491377,
 2.70126346,1.95965856\H,0,0.4815454,2.79662958,3.03877453\H,0,0.235464
 28,3.72495408,1.56108002\C,0,1.51137407,2.01079389,1.3145988\C,0,1.397
 40361,1.65413086,-0.17172907\C,0,-0.00433682,1.01486625,-0.42143404\H,
 0,0.,0.,0.\H,0,-0.16548807,0.90214244,-1.49853278\C,0,-1.1893271,1.781
 85526,0.185253\H,0,-1.29867308,2.765114,-0.29607103\H,0,-2.12167245,1.
 23645668,0.\C,0,2.6091896,1.74410458,2.03487835\H,0,2.62935972,1.99331
 3,3.09637982\C,0,3.86963719,1.12471518,1.50704549\H,0,4.02080163,0.141
 96986,1.98274821\C,0,3.91299856,0.97359546,-0.02109884\H,0,4.2133761,1
 .94635143,-0.42554181\C,0,2.4994252,0.60390083,-0.55145179\H,0,2.21321
 538,-0.32369541,-0.02827017\C,0,2.53150609,0.26904105,-2.06034573\H,0,
 2.69733839,1.18424418,-2.63897429\H,0,1.55333462,-0.112623,-2.37280225
 \C,0,3.60373406,-0.76591776,-2.45340176\H,0,3.35834,-1.73623068,-1.997
 70026\H,0,3.5629303,-0.91266759,-3.53746101\C,0,5.01044031,-0.34274123
 ,-1.98722037\C,0,4.92152969,-0.10621117,-0.45149647\H,0,4.53534819,-1.
 05521605,-0.03920544\C,0,6.38811359,0.,0.\H,0,6.51786728,-0.24574917,1
 .05714356\H,0,6.75762788,1.02322285,-0.12196622\C,0,7.13511688,-0.9878
 0571,-0.93743588\H,0,7.99555042,-0.49734859,-1.40787722\H,0,7.53563865
 ,-1.84368376,-0.38448312\C,0,6.11477127,-1.45516522,-2.02601025\H,0,5.
 62468202,-2.37087869,-1.66305274\C,0,5.48358661,0.91425,-2.75217234\H,
 0,4.83532803,1.77673813,-2.57831827\H,0,6.49617345,1.21153039,-2.46446
 438\H,0,5.49097279,0.72806951,-3.83145879\C,0,6.80071668,-1.80279304,-
 3.37077839\H,0,7.29831171,-0.88976098,-3.72904056\C,0,5.82239215,-2.25
 139621,-4.47285666\H,0,5.1609953,-3.05546123,-4.13116081\H,0,6.3731466
 1,-2.62349161,-5.34498375\H,0,5.18906706,-1.42978615,-4.81704692\C,0,1
 .53224007,2.95871336,-1.00147745\H,0,1.31438141,2.78148122,-2.05916976
 \H,0,0.83647175,3.72748886,-0.6542794\H,0,2.54035593,3.37528421,-0.920
 79938\O,0,5.02962821,1.81769385,2.03372405\O,0,5.06190801,3.17271953,1
 .4958435\H,0,4.73140031,3.68101934,2.25459665\O,0,-2.10758111,2.661392
 35,2.29349421\H,0,-2.20175806,3.53047255,1.87873164\C,0,7.93372112,-2.
 84971452,-3.19660687\H,0,8.42970928,-2.96579809,-4.17103336\H,0,8.6987
 367,-2.44855341,-2.5202582\C,0,7.51516468,-4.24209814,-2.69512122\H,0,
 7.04616915,-4.15274682,-1.7076295\H,0,6.75330541,-4.66123941,-3.363445
 44\C,0,8.71178383,-5.20408462,-2.6105152\H,0,9.47327747,-4.76032031,-1
 .95279533\H,0,9.17618229,-5.27431287,-3.60489929\C,0,8.41563023,-6.637
 55805,-2.1112528\H,0,9.38079466,-7.16545131,-2.12179179\C,0,7.90213963
 ,-6.66685583,-0.66205099\H,0,6.90790972,-6.21341374,-0.57580206\H,0,7.
 82326795,-7.6973552,-0.29714639\H,0,8.57656653,-6.12493049,0.01141039\
 C,0,7.47015145,-7.4081305,-3.04773832\H,0,6.46127658,-6.97953357,-3.04
 588498\H,0,7.38048348,-8.45510897,-2.73612989\H,0,7.83606453,-7.397517
 85,-4.08123696\\Version=EM64L-G09RevD.01\HF=-1273.683092\RMSD=5.310e-0
 7\Dipole=-0.4152236,0.2880931,-0.4601714\Quadrupole=-11.9069669,10.109
 8923,1.7970746,-3.0310094,2.4073182,0.101686\PG=C01 [X(C27H46O3)]\\@


 ACTORS ARE SO FORTUNATE.  THEY CAN CHOOSE WHETHER
 THEY WILL APPEAR IN A TRAGEDY OR IN COMEDY,
 WHETHER THEY WILL SUFFER OF MAKE MERRY,
 LAUGH OR SHED TEARS.  BUT IN REAL LIFE IT IS DIFFERENT.
 MOST MEN AND WOMEN ARE FORCED TO PERFORM
 PARTS FOR WHICH THEY HAVE NO QUALIFICATIONS.
 THE WORLD IS A STAGE, BUT THE PLAY IS BADLY CAST.

                                   -- OSCAR WILDE
 Job cpu time:       0 days  0 hours 12 minutes 46.1 seconds.
 File lengths (MBytes):  RWF=    159 Int=      0 D2E=      0 Chk=     11 Scr=      1
 Normal termination of Gaussian 09 at Thu Apr 27 15:40:22 2017.
