 Entering Gaussian System, Link 0=/home/michal/g09/g09
 Input=JOB2-gau_m1-25-2.com
 Output=JOB2-gau_m1-25-2.log
 Initial command:
 /home/michal/g09/l1.exe "/home/michal/gauss_scratch/Gau-6832.inp" -scrdir="/home/michal/gauss_scratch/"
 Entering Link 1 = /home/michal/g09/l1.exe PID=      6833.
  
 Copyright (c) 1988,1990,1992,1993,1995,1998,2003,2009,2013,
            Gaussian, Inc.  All Rights Reserved.
  
 This is part of the Gaussian(R) 09 program.  It is based on
 the Gaussian(R) 03 system (copyright 2003, Gaussian, Inc.),
 the Gaussian(R) 98 system (copyright 1998, Gaussian, Inc.),
 the Gaussian(R) 94 system (copyright 1995, Gaussian, Inc.),
 the Gaussian 92(TM) system (copyright 1992, Gaussian, Inc.),
 the Gaussian 90(TM) system (copyright 1990, Gaussian, Inc.),
 the Gaussian 88(TM) system (copyright 1988, Gaussian, Inc.),
 the Gaussian 86(TM) system (copyright 1986, Carnegie Mellon
 University), and the Gaussian 82(TM) system (copyright 1983,
 Carnegie Mellon University). Gaussian is a federally registered
 trademark of Gaussian, Inc.
  
 This software contains proprietary and confidential information,
 including trade secrets, belonging to Gaussian, Inc.
  
 This software is provided under written license and may be
 used, copied, transmitted, or stored only in accord with that
 written license.
  
 The following legend is applicable only to US Government
 contracts under FAR:
  
                    RESTRICTED RIGHTS LEGEND
  
 Use, reproduction and disclosure by the US Government is
 subject to restrictions as set forth in subparagraphs (a)
 and (c) of the Commercial Computer Software - Restricted
 Rights clause in FAR 52.227-19.
  
 Gaussian, Inc.
 340 Quinnipiac St., Bldg. 40, Wallingford CT 06492
  
  
 ---------------------------------------------------------------
 Warning -- This program may not be used in any manner that
 competes with the business of Gaussian, Inc. or will provide
 assistance to any competitor of Gaussian, Inc.  The licensee
 of this program is prohibited from giving any competitor of
 Gaussian, Inc. access to this program.  By using this program,
 the user acknowledges that Gaussian, Inc. is engaged in the
 business of creating and licensing software in the field of
 computational chemistry and represents and warrants to the
 licensee that it is not a competitor of Gaussian, Inc. and that
 it will not use this program in any manner prohibited above.
 ---------------------------------------------------------------
  

 Cite this work as:
 Gaussian 09, Revision D.01,
 M. J. Frisch, G. W. Trucks, H. B. Schlegel, G. E. Scuseria, 
 M. A. Robb, J. R. Cheeseman, G. Scalmani, V. Barone, B. Mennucci, 
 G. A. Petersson, H. Nakatsuji, M. Caricato, X. Li, H. P. Hratchian, 
 A. F. Izmaylov, J. Bloino, G. Zheng, J. L. Sonnenberg, M. Hada, 
 M. Ehara, K. Toyota, R. Fukuda, J. Hasegawa, M. Ishida, T. Nakajima, 
 Y. Honda, O. Kitao, H. Nakai, T. Vreven, J. A. Montgomery, Jr., 
 J. E. Peralta, F. Ogliaro, M. Bearpark, J. J. Heyd, E. Brothers, 
 K. N. Kudin, V. N. Staroverov, T. Keith, R. Kobayashi, J. Normand, 
 K. Raghavachari, A. Rendell, J. C. Burant, S. S. Iyengar, J. Tomasi, 
 M. Cossi, N. Rega, J. M. Millam, M. Klene, J. E. Knox, J. B. Cross, 
 V. Bakken, C. Adamo, J. Jaramillo, R. Gomperts, R. E. Stratmann, 
 O. Yazyev, A. J. Austin, R. Cammi, C. Pomelli, J. W. Ochterski, 
 R. L. Martin, K. Morokuma, V. G. Zakrzewski, G. A. Voth, 
 P. Salvador, J. J. Dannenberg, S. Dapprich, A. D. Daniels, 
 O. Farkas, J. B. Foresman, J. V. Ortiz, J. Cioslowski, 
 and D. J. Fox, Gaussian, Inc., Wallingford CT, 2013.
 
 ******************************************
 Gaussian 09:  EM64L-G09RevD.01 24-Apr-2013
                27-Apr-2017 
 ******************************************
 %Mem=256MB
 %NProc=12
 Will use up to   12 processors via shared memory.
 ----------------------------------------------------------------------
 #P HF/6-31G* SCF(Conver=6) NoSymm Test Pop=mk IOp(6/33=2) GFInput GFPr
 int
 ----------------------------------------------------------------------
 1/38=1/1;
 2/12=2,15=1,17=6,18=5,40=1/2;
 3/5=1,6=6,7=1,11=9,16=1,24=110,25=1,30=1/1,2,3;
 4//1;
 5/5=2,6=6,38=5/2;
 6/7=2,8=2,9=2,10=2,15=8,20=1,28=1,33=2/1,2;
 99/5=1,9=1/99;
 Leave Link    1 at Thu Apr 27 16:38:20 2017, MaxMem=    33554432 cpu:         0.7
 (Enter /home/michal/g09/l101.exe)
 ----------------------------------------------
 MEP - Input generated by R.E.D.-III.x MOLECULE
 ----------------------------------------------
 Symbolic Z-matrix:
 Charge =  0 Multiplicity = 1
 C                     7.51574   2.21795   0.07342 
 H                     7.35132   2.18885   1.15752 
 C                     6.82247   1.00878  -0.5703 
 H                     7.20516   0.08331  -0.12851 
 H                     7.106     0.99196  -1.63527 
 C                     5.31132   1.06299  -0.45175 
 C                     4.616     2.36055  -0.87858 
 C                     5.40854   3.56645  -0.28415 
 H                     5.20839   3.61156   0.79543 
 H                     5.02375   4.49903  -0.70957 
 C                     6.93023   3.5124   -0.48864 
 H                     7.17789   3.58262  -1.55831 
 H                     7.40368   4.37154   0. 
 C                     4.6322    0.        0. 
 H                     5.17625  -0.89047   0.31684 
 C                     3.13895  -0.10072   0.10608 
 H                     2.85389  -0.19726   1.16641 
 C                     2.37456   1.06887  -0.53254 
 H                     2.31602   0.858    -1.60587 
 C                     3.1559    2.3929   -0.30568 
 H                     3.27138   2.49329   0.78642 
 C                     2.33932   3.61692  -0.77876 
 H                     2.28967   3.62802  -1.873 
 H                     2.85693   4.53833  -0.49025 
 C                     0.90492   3.67117  -0.21805 
 H                     0.94464   3.8114    0.87196 
 H                     0.40694   4.55589  -0.62658 
 C                     0.11851   2.38014  -0.52096 
 C                     0.95736   1.20114   0.05284 
 H                     1.09721   1.44342   1.12133 
 C                     0.        0.        0. 
 H                     0.27615  -0.7879    0.70537 
 H                     0.01352  -0.46151  -0.99264 
 C                    -1.38531   0.62361   0.31879 
 H                    -2.13661   0.29894  -0.41118 
 H                    -1.74752   0.29729   1.29847 
 C                    -1.21846   2.18093   0.27559 
 H                    -1.01617   2.52998   1.30102 
 C                    -0.13461   2.23563  -2.03943 
 H                     0.79358   2.15969  -2.61138 
 H                    -0.72788   1.34659  -2.27186 
 H                    -0.6813    3.10269  -2.42436 
 C                    -2.50617   2.90646  -0.19488 
 H                    -2.76362   2.51757  -1.19189 
 C                    -2.33782   4.43263  -0.30641 
 H                    -1.96145   4.85349   0.63439 
 H                    -3.29108   4.92197  -0.52824 
 H                    -1.64341   4.71669  -1.10043 
 C                     4.63035   2.4384   -2.42857 
 H                     4.27398   3.41125  -2.78098 
 H                     5.63959   2.30207  -2.82679 
 H                     4.00142   1.6592   -2.86872 
 O                     2.68662  -1.39253  -0.37376 
 O                     2.93619  -1.48393  -1.80754 
 H                     3.73127  -2.04156  -1.82195 
 O                     8.93729   2.15043  -0.0664 
 H                     9.15928   2.20325  -1.00668 
 C                    -3.69069   2.56984   0.74764 
 H                    -3.66286   1.50481   0.99642 
 H                    -3.54769   3.10778   1.69793 
 C                    -5.08181   2.89899   0.18134 
 H                    -5.12172   3.95134  -0.12477 
 H                    -5.24205   2.31614  -0.73591 
 C                    -6.24217   2.66007   1.16575 
 H                    -7.17453   3.01208   0.69959 
 H                    -6.0864    3.29776   2.04804 
 C                    -6.46529   1.21028   1.64688 
 H                    -5.54236   0.86078   2.13126 
 C                    -7.58147   1.16934   2.70301 
 H                    -8.5359    1.50425   2.27658 
 H                    -7.72831   0.15384   3.08828 
 H                    -7.35073   1.82087   3.55375 
 C                    -6.78347   0.25048   0.48951 
 H                    -7.68867   0.57005  -0.04326 
 H                    -6.95843  -0.76576   0.86068 
 H                    -5.96889   0.19804  -0.24007 
 
 NAtoms=     76 NQM=       76 NQMF=       0 NMMI=      0 NMMIF=      0
                NMic=       0 NMicF=      0.
                    Isotopes and Nuclear Properties:
 (Nuclear quadrupole moments (NQMom) in fm**2, nuclear magnetic moments (NMagM)
  in nuclear magnetons)

  Atom         1           2           3           4           5           6           7           8           9          10
 IAtWgt=          12           1          12           1           1          12          12          12           1           1
 AtmWgt=  12.0000000   1.0078250  12.0000000   1.0078250   1.0078250  12.0000000  12.0000000  12.0000000   1.0078250   1.0078250
 NucSpn=           0           1           0           1           1           0           0           0           1           1
 AtZEff=   0.0000000   0.0000000   0.0000000   0.0000000   0.0000000   0.0000000   0.0000000   0.0000000   0.0000000   0.0000000
 NQMom=    0.0000000   0.0000000   0.0000000   0.0000000   0.0000000   0.0000000   0.0000000   0.0000000   0.0000000   0.0000000
 NMagM=    0.0000000   2.7928460   0.0000000   2.7928460   2.7928460   0.0000000   0.0000000   0.0000000   2.7928460   2.7928460
 AtZNuc=   6.0000000   1.0000000   6.0000000   1.0000000   1.0000000   6.0000000   6.0000000   6.0000000   1.0000000   1.0000000

  Atom        11          12          13          14          15          16          17          18          19          20
 IAtWgt=          12           1           1          12           1          12           1          12           1          12
 AtmWgt=  12.0000000   1.0078250   1.0078250  12.0000000   1.0078250  12.0000000   1.0078250  12.0000000   1.0078250  12.0000000
 NucSpn=           0           1           1           0           1           0           1           0           1           0
 AtZEff=   0.0000000   0.0000000   0.0000000   0.0000000   0.0000000   0.0000000   0.0000000   0.0000000   0.0000000   0.0000000
 NQMom=    0.0000000   0.0000000   0.0000000   0.0000000   0.0000000   0.0000000   0.0000000   0.0000000   0.0000000   0.0000000
 NMagM=    0.0000000   2.7928460   2.7928460   0.0000000   2.7928460   0.0000000   2.7928460   0.0000000   2.7928460   0.0000000
 AtZNuc=   6.0000000   1.0000000   1.0000000   6.0000000   1.0000000   6.0000000   1.0000000   6.0000000   1.0000000   6.0000000

  Atom        21          22          23          24          25          26          27          28          29          30
 IAtWgt=           1          12           1           1          12           1           1          12          12           1
 AtmWgt=   1.0078250  12.0000000   1.0078250   1.0078250  12.0000000   1.0078250   1.0078250  12.0000000  12.0000000   1.0078250
 NucSpn=           1           0           1           1           0           1           1           0           0           1
 AtZEff=   0.0000000   0.0000000   0.0000000   0.0000000   0.0000000   0.0000000   0.0000000   0.0000000   0.0000000   0.0000000
 NQMom=    0.0000000   0.0000000   0.0000000   0.0000000   0.0000000   0.0000000   0.0000000   0.0000000   0.0000000   0.0000000
 NMagM=    2.7928460   0.0000000   2.7928460   2.7928460   0.0000000   2.7928460   2.7928460   0.0000000   0.0000000   2.7928460
 AtZNuc=   1.0000000   6.0000000   1.0000000   1.0000000   6.0000000   1.0000000   1.0000000   6.0000000   6.0000000   1.0000000

  Atom        31          32          33          34          35          36          37          38          39          40
 IAtWgt=          12           1           1          12           1           1          12           1          12           1
 AtmWgt=  12.0000000   1.0078250   1.0078250  12.0000000   1.0078250   1.0078250  12.0000000   1.0078250  12.0000000   1.0078250
 NucSpn=           0           1           1           0           1           1           0           1           0           1
 AtZEff=   0.0000000   0.0000000   0.0000000   0.0000000   0.0000000   0.0000000   0.0000000   0.0000000   0.0000000   0.0000000
 NQMom=    0.0000000   0.0000000   0.0000000   0.0000000   0.0000000   0.0000000   0.0000000   0.0000000   0.0000000   0.0000000
 NMagM=    0.0000000   2.7928460   2.7928460   0.0000000   2.7928460   2.7928460   0.0000000   2.7928460   0.0000000   2.7928460
 AtZNuc=   6.0000000   1.0000000   1.0000000   6.0000000   1.0000000   1.0000000   6.0000000   1.0000000   6.0000000   1.0000000

  Atom        41          42          43          44          45          46          47          48          49          50
 IAtWgt=           1           1          12           1          12           1           1           1          12           1
 AtmWgt=   1.0078250   1.0078250  12.0000000   1.0078250  12.0000000   1.0078250   1.0078250   1.0078250  12.0000000   1.0078250
 NucSpn=           1           1           0           1           0           1           1           1           0           1
 AtZEff=   0.0000000   0.0000000   0.0000000   0.0000000   0.0000000   0.0000000   0.0000000   0.0000000   0.0000000   0.0000000
 NQMom=    0.0000000   0.0000000   0.0000000   0.0000000   0.0000000   0.0000000   0.0000000   0.0000000   0.0000000   0.0000000
 NMagM=    2.7928460   2.7928460   0.0000000   2.7928460   0.0000000   2.7928460   2.7928460   2.7928460   0.0000000   2.7928460
 AtZNuc=   1.0000000   1.0000000   6.0000000   1.0000000   6.0000000   1.0000000   1.0000000   1.0000000   6.0000000   1.0000000

  Atom        51          52          53          54          55          56          57          58          59          60
 IAtWgt=           1           1          16          16           1          16           1          12           1           1
 AtmWgt=   1.0078250   1.0078250  15.9949146  15.9949146   1.0078250  15.9949146   1.0078250  12.0000000   1.0078250   1.0078250
 NucSpn=           1           1           0           0           1           0           1           0           1           1
 AtZEff=   0.0000000   0.0000000   0.0000000   0.0000000   0.0000000   0.0000000   0.0000000   0.0000000   0.0000000   0.0000000
 NQMom=    0.0000000   0.0000000   0.0000000   0.0000000   0.0000000   0.0000000   0.0000000   0.0000000   0.0000000   0.0000000
 NMagM=    2.7928460   2.7928460   0.0000000   0.0000000   2.7928460   0.0000000   2.7928460   0.0000000   2.7928460   2.7928460
 AtZNuc=   1.0000000   1.0000000   8.0000000   8.0000000   1.0000000   8.0000000   1.0000000   6.0000000   1.0000000   1.0000000

  Atom        61          62          63          64          65          66          67          68          69          70
 IAtWgt=          12           1           1          12           1           1          12           1          12           1
 AtmWgt=  12.0000000   1.0078250   1.0078250  12.0000000   1.0078250   1.0078250  12.0000000   1.0078250  12.0000000   1.0078250
 NucSpn=           0           1           1           0           1           1           0           1           0           1
 AtZEff=   0.0000000   0.0000000   0.0000000   0.0000000   0.0000000   0.0000000   0.0000000   0.0000000   0.0000000   0.0000000
 NQMom=    0.0000000   0.0000000   0.0000000   0.0000000   0.0000000   0.0000000   0.0000000   0.0000000   0.0000000   0.0000000
 NMagM=    0.0000000   2.7928460   2.7928460   0.0000000   2.7928460   2.7928460   0.0000000   2.7928460   0.0000000   2.7928460
 AtZNuc=   6.0000000   1.0000000   1.0000000   6.0000000   1.0000000   1.0000000   6.0000000   1.0000000   6.0000000   1.0000000

  Atom        71          72          73          74          75          76
 IAtWgt=           1           1          12           1           1           1
 AtmWgt=   1.0078250   1.0078250  12.0000000   1.0078250   1.0078250   1.0078250
 NucSpn=           1           1           0           1           1           1
 AtZEff=   0.0000000   0.0000000   0.0000000   0.0000000   0.0000000   0.0000000
 NQMom=    0.0000000   0.0000000   0.0000000   0.0000000   0.0000000   0.0000000
 NMagM=    2.7928460   2.7928460   0.0000000   2.7928460   2.7928460   2.7928460
 AtZNuc=   1.0000000   1.0000000   6.0000000   1.0000000   1.0000000   1.0000000
 Leave Link  101 at Thu Apr 27 16:38:20 2017, MaxMem=    33554432 cpu:         1.0
 (Enter /home/michal/g09/l202.exe)
 Symmetry turned off by external request.
 Stoichiometry    C27H46O3
 Framework group  C1[X(C27H46O3)]
 Deg. of freedom   222
 Full point group                 C1      NOp   1
                          Input orientation:                          
 ---------------------------------------------------------------------
 Center     Atomic      Atomic             Coordinates (Angstroms)
 Number     Number       Type             X           Y           Z
 ---------------------------------------------------------------------
      1          6           0        7.515743    2.217948    0.073423
      2          1           0        7.351319    2.188853    1.157516
      3          6           0        6.822474    1.008779   -0.570296
      4          1           0        7.205162    0.083312   -0.128506
      5          1           0        7.106002    0.991965   -1.635268
      6          6           0        5.311317    1.062985   -0.451747
      7          6           0        4.616005    2.360546   -0.878585
      8          6           0        5.408537    3.566447   -0.284155
      9          1           0        5.208385    3.611563    0.795429
     10          1           0        5.023751    4.499033   -0.709575
     11          6           0        6.930226    3.512396   -0.488636
     12          1           0        7.177891    3.582618   -1.558307
     13          1           0        7.403681    4.371539    0.000000
     14          6           0        4.632200    0.000000    0.000000
     15          1           0        5.176245   -0.890465    0.316835
     16          6           0        3.138954   -0.100722    0.106084
     17          1           0        2.853894   -0.197258    1.166413
     18          6           0        2.374564    1.068869   -0.532545
     19          1           0        2.316024    0.857999   -1.605875
     20          6           0        3.155905    2.392901   -0.305685
     21          1           0        3.271381    2.493285    0.786417
     22          6           0        2.339321    3.616921   -0.778761
     23          1           0        2.289666    3.628021   -1.873004
     24          1           0        2.856934    4.538330   -0.490253
     25          6           0        0.904920    3.671166   -0.218047
     26          1           0        0.944642    3.811405    0.871964
     27          1           0        0.406937    4.555890   -0.626578
     28          6           0        0.118507    2.380136   -0.520959
     29          6           0        0.957358    1.201137    0.052836
     30          1           0        1.097208    1.443419    1.121329
     31          6           0        0.000000    0.000000    0.000000
     32          1           0        0.276145   -0.787895    0.705369
     33          1           0        0.013521   -0.461506   -0.992638
     34          6           0       -1.385307    0.623614    0.318794
     35          1           0       -2.136606    0.298938   -0.411175
     36          1           0       -1.747515    0.297289    1.298470
     37          6           0       -1.218460    2.180926    0.275585
     38          1           0       -1.016170    2.529976    1.301025
     39          6           0       -0.134612    2.235631   -2.039434
     40          1           0        0.793581    2.159691   -2.611376
     41          1           0       -0.727883    1.346594   -2.271864
     42          1           0       -0.681302    3.102688   -2.424361
     43          6           0       -2.506174    2.906460   -0.194879
     44          1           0       -2.763618    2.517573   -1.191892
     45          6           0       -2.337823    4.432627   -0.306413
     46          1           0       -1.961447    4.853492    0.634392
     47          1           0       -3.291079    4.921969   -0.528238
     48          1           0       -1.643411    4.716688   -1.100426
     49          6           0        4.630349    2.438396   -2.428566
     50          1           0        4.273985    3.411254   -2.780981
     51          1           0        5.639587    2.302072   -2.826785
     52          1           0        4.001420    1.659196   -2.868715
     53          8           0        2.686623   -1.392533   -0.373765
     54          8           0        2.936188   -1.483931   -1.807544
     55          1           0        3.731271   -2.041564   -1.821952
     56          8           0        8.937288    2.150430   -0.066401
     57          1           0        9.159279    2.203252   -1.006681
     58          6           0       -3.690686    2.569842    0.747635
     59          1           0       -3.662855    1.504808    0.996423
     60          1           0       -3.547688    3.107782    1.697932
     61          6           0       -5.081805    2.898989    0.181345
     62          1           0       -5.121717    3.951342   -0.124768
     63          1           0       -5.242052    2.316137   -0.735912
     64          6           0       -6.242171    2.660070    1.165749
     65          1           0       -7.174532    3.012078    0.699589
     66          1           0       -6.086397    3.297764    2.048039
     67          6           0       -6.465287    1.210283    1.646879
     68          1           0       -5.542361    0.860782    2.131256
     69          6           0       -7.581469    1.169339    2.703012
     70          1           0       -8.535895    1.504248    2.276578
     71          1           0       -7.728313    0.153836    3.088278
     72          1           0       -7.350725    1.820873    3.553749
     73          6           0       -6.783474    0.250476    0.489515
     74          1           0       -7.688670    0.570052   -0.043257
     75          1           0       -6.958427   -0.765758    0.860681
     76          1           0       -5.968895    0.198038   -0.240065
 ---------------------------------------------------------------------
 Rotational constants (GHZ):      0.3858676      0.0547522      0.0510286
 Leave Link  202 at Thu Apr 27 16:38:20 2017, MaxMem=    33554432 cpu:         0.1
 (Enter /home/michal/g09/l301.exe)
 Standard basis: 6-31G(d) (6D, 7F)
 Ernie: Thresh=  0.10000D-02 Tol=  0.10000D-05 Strict=F.
 AO basis set in the form of general basis input (Overlap normalization):
      1 0
 S   6 1.00       0.000000000000
      0.3047524880D+04  0.1834737132D-02
      0.4573695180D+03  0.1403732281D-01
      0.1039486850D+03  0.6884262226D-01
      0.2921015530D+02  0.2321844432D+00
      0.9286662960D+01  0.4679413484D+00
      0.3163926960D+01  0.3623119853D+00
 SP   3 1.00       0.000000000000
      0.7868272350D+01 -0.1193324198D+00  0.6899906659D-01
      0.1881288540D+01 -0.1608541517D+00  0.3164239610D+00
      0.5442492580D+00  0.1143456438D+01  0.7443082909D+00
 SP   1 1.00       0.000000000000
      0.1687144782D+00  0.1000000000D+01  0.1000000000D+01
 D   1 1.00       0.000000000000
      0.8000000000D+00  0.1000000000D+01
 ****
      2 0
 S   3 1.00       0.000000000000
      0.1873113696D+02  0.3349460434D-01
      0.2825394365D+01  0.2347269535D+00
      0.6401216923D+00  0.8137573261D+00
 S   1 1.00       0.000000000000
      0.1612777588D+00  0.1000000000D+01
 ****
      3 0
 S   6 1.00       0.000000000000
      0.3047524880D+04  0.1834737132D-02
      0.4573695180D+03  0.1403732281D-01
      0.1039486850D+03  0.6884262226D-01
      0.2921015530D+02  0.2321844432D+00
      0.9286662960D+01  0.4679413484D+00
      0.3163926960D+01  0.3623119853D+00
 SP   3 1.00       0.000000000000
      0.7868272350D+01 -0.1193324198D+00  0.6899906659D-01
      0.1881288540D+01 -0.1608541517D+00  0.3164239610D+00
      0.5442492580D+00  0.1143456438D+01  0.7443082909D+00
 SP   1 1.00       0.000000000000
      0.1687144782D+00  0.1000000000D+01  0.1000000000D+01
 D   1 1.00       0.000000000000
      0.8000000000D+00  0.1000000000D+01
 ****
      4 0
 S   3 1.00       0.000000000000
      0.1873113696D+02  0.3349460434D-01
      0.2825394365D+01  0.2347269535D+00
      0.6401216923D+00  0.8137573261D+00
 S   1 1.00       0.000000000000
      0.1612777588D+00  0.1000000000D+01
 ****
      5 0
 S   3 1.00       0.000000000000
      0.1873113696D+02  0.3349460434D-01
      0.2825394365D+01  0.2347269535D+00
      0.6401216923D+00  0.8137573261D+00
 S   1 1.00       0.000000000000
      0.1612777588D+00  0.1000000000D+01
 ****
      6 0
 S   6 1.00       0.000000000000
      0.3047524880D+04  0.1834737132D-02
      0.4573695180D+03  0.1403732281D-01
      0.1039486850D+03  0.6884262226D-01
      0.2921015530D+02  0.2321844432D+00
      0.9286662960D+01  0.4679413484D+00
      0.3163926960D+01  0.3623119853D+00
 SP   3 1.00       0.000000000000
      0.7868272350D+01 -0.1193324198D+00  0.6899906659D-01
      0.1881288540D+01 -0.1608541517D+00  0.3164239610D+00
      0.5442492580D+00  0.1143456438D+01  0.7443082909D+00
 SP   1 1.00       0.000000000000
      0.1687144782D+00  0.1000000000D+01  0.1000000000D+01
 D   1 1.00       0.000000000000
      0.8000000000D+00  0.1000000000D+01
 ****
      7 0
 S   6 1.00       0.000000000000
      0.3047524880D+04  0.1834737132D-02
      0.4573695180D+03  0.1403732281D-01
      0.1039486850D+03  0.6884262226D-01
      0.2921015530D+02  0.2321844432D+00
      0.9286662960D+01  0.4679413484D+00
      0.3163926960D+01  0.3623119853D+00
 SP   3 1.00       0.000000000000
      0.7868272350D+01 -0.1193324198D+00  0.6899906659D-01
      0.1881288540D+01 -0.1608541517D+00  0.3164239610D+00
      0.5442492580D+00  0.1143456438D+01  0.7443082909D+00
 SP   1 1.00       0.000000000000
      0.1687144782D+00  0.1000000000D+01  0.1000000000D+01
 D   1 1.00       0.000000000000
      0.8000000000D+00  0.1000000000D+01
 ****
      8 0
 S   6 1.00       0.000000000000
      0.3047524880D+04  0.1834737132D-02
      0.4573695180D+03  0.1403732281D-01
      0.1039486850D+03  0.6884262226D-01
      0.2921015530D+02  0.2321844432D+00
      0.9286662960D+01  0.4679413484D+00
      0.3163926960D+01  0.3623119853D+00
 SP   3 1.00       0.000000000000
      0.7868272350D+01 -0.1193324198D+00  0.6899906659D-01
      0.1881288540D+01 -0.1608541517D+00  0.3164239610D+00
      0.5442492580D+00  0.1143456438D+01  0.7443082909D+00
 SP   1 1.00       0.000000000000
      0.1687144782D+00  0.1000000000D+01  0.1000000000D+01
 D   1 1.00       0.000000000000
      0.8000000000D+00  0.1000000000D+01
 ****
      9 0
 S   3 1.00       0.000000000000
      0.1873113696D+02  0.3349460434D-01
      0.2825394365D+01  0.2347269535D+00
      0.6401216923D+00  0.8137573261D+00
 S   1 1.00       0.000000000000
      0.1612777588D+00  0.1000000000D+01
 ****
     10 0
 S   3 1.00       0.000000000000
      0.1873113696D+02  0.3349460434D-01
      0.2825394365D+01  0.2347269535D+00
      0.6401216923D+00  0.8137573261D+00
 S   1 1.00       0.000000000000
      0.1612777588D+00  0.1000000000D+01
 ****
     11 0
 S   6 1.00       0.000000000000
      0.3047524880D+04  0.1834737132D-02
      0.4573695180D+03  0.1403732281D-01
      0.1039486850D+03  0.6884262226D-01
      0.2921015530D+02  0.2321844432D+00
      0.9286662960D+01  0.4679413484D+00
      0.3163926960D+01  0.3623119853D+00
 SP   3 1.00       0.000000000000
      0.7868272350D+01 -0.1193324198D+00  0.6899906659D-01
      0.1881288540D+01 -0.1608541517D+00  0.3164239610D+00
      0.5442492580D+00  0.1143456438D+01  0.7443082909D+00
 SP   1 1.00       0.000000000000
      0.1687144782D+00  0.1000000000D+01  0.1000000000D+01
 D   1 1.00       0.000000000000
      0.8000000000D+00  0.1000000000D+01
 ****
     12 0
 S   3 1.00       0.000000000000
      0.1873113696D+02  0.3349460434D-01
      0.2825394365D+01  0.2347269535D+00
      0.6401216923D+00  0.8137573261D+00
 S   1 1.00       0.000000000000
      0.1612777588D+00  0.1000000000D+01
 ****
     13 0
 S   3 1.00       0.000000000000
      0.1873113696D+02  0.3349460434D-01
      0.2825394365D+01  0.2347269535D+00
      0.6401216923D+00  0.8137573261D+00
 S   1 1.00       0.000000000000
      0.1612777588D+00  0.1000000000D+01
 ****
     14 0
 S   6 1.00       0.000000000000
      0.3047524880D+04  0.1834737132D-02
      0.4573695180D+03  0.1403732281D-01
      0.1039486850D+03  0.6884262226D-01
      0.2921015530D+02  0.2321844432D+00
      0.9286662960D+01  0.4679413484D+00
      0.3163926960D+01  0.3623119853D+00
 SP   3 1.00       0.000000000000
      0.7868272350D+01 -0.1193324198D+00  0.6899906659D-01
      0.1881288540D+01 -0.1608541517D+00  0.3164239610D+00
      0.5442492580D+00  0.1143456438D+01  0.7443082909D+00
 SP   1 1.00       0.000000000000
      0.1687144782D+00  0.1000000000D+01  0.1000000000D+01
 D   1 1.00       0.000000000000
      0.8000000000D+00  0.1000000000D+01
 ****
     15 0
 S   3 1.00       0.000000000000
      0.1873113696D+02  0.3349460434D-01
      0.2825394365D+01  0.2347269535D+00
      0.6401216923D+00  0.8137573261D+00
 S   1 1.00       0.000000000000
      0.1612777588D+00  0.1000000000D+01
 ****
     16 0
 S   6 1.00       0.000000000000
      0.3047524880D+04  0.1834737132D-02
      0.4573695180D+03  0.1403732281D-01
      0.1039486850D+03  0.6884262226D-01
      0.2921015530D+02  0.2321844432D+00
      0.9286662960D+01  0.4679413484D+00
      0.3163926960D+01  0.3623119853D+00
 SP   3 1.00       0.000000000000
      0.7868272350D+01 -0.1193324198D+00  0.6899906659D-01
      0.1881288540D+01 -0.1608541517D+00  0.3164239610D+00
      0.5442492580D+00  0.1143456438D+01  0.7443082909D+00
 SP   1 1.00       0.000000000000
      0.1687144782D+00  0.1000000000D+01  0.1000000000D+01
 D   1 1.00       0.000000000000
      0.8000000000D+00  0.1000000000D+01
 ****
     17 0
 S   3 1.00       0.000000000000
      0.1873113696D+02  0.3349460434D-01
      0.2825394365D+01  0.2347269535D+00
      0.6401216923D+00  0.8137573261D+00
 S   1 1.00       0.000000000000
      0.1612777588D+00  0.1000000000D+01
 ****
     18 0
 S   6 1.00       0.000000000000
      0.3047524880D+04  0.1834737132D-02
      0.4573695180D+03  0.1403732281D-01
      0.1039486850D+03  0.6884262226D-01
      0.2921015530D+02  0.2321844432D+00
      0.9286662960D+01  0.4679413484D+00
      0.3163926960D+01  0.3623119853D+00
 SP   3 1.00       0.000000000000
      0.7868272350D+01 -0.1193324198D+00  0.6899906659D-01
      0.1881288540D+01 -0.1608541517D+00  0.3164239610D+00
      0.5442492580D+00  0.1143456438D+01  0.7443082909D+00
 SP   1 1.00       0.000000000000
      0.1687144782D+00  0.1000000000D+01  0.1000000000D+01
 D   1 1.00       0.000000000000
      0.8000000000D+00  0.1000000000D+01
 ****
     19 0
 S   3 1.00       0.000000000000
      0.1873113696D+02  0.3349460434D-01
      0.2825394365D+01  0.2347269535D+00
      0.6401216923D+00  0.8137573261D+00
 S   1 1.00       0.000000000000
      0.1612777588D+00  0.1000000000D+01
 ****
     20 0
 S   6 1.00       0.000000000000
      0.3047524880D+04  0.1834737132D-02
      0.4573695180D+03  0.1403732281D-01
      0.1039486850D+03  0.6884262226D-01
      0.2921015530D+02  0.2321844432D+00
      0.9286662960D+01  0.4679413484D+00
      0.3163926960D+01  0.3623119853D+00
 SP   3 1.00       0.000000000000
      0.7868272350D+01 -0.1193324198D+00  0.6899906659D-01
      0.1881288540D+01 -0.1608541517D+00  0.3164239610D+00
      0.5442492580D+00  0.1143456438D+01  0.7443082909D+00
 SP   1 1.00       0.000000000000
      0.1687144782D+00  0.1000000000D+01  0.1000000000D+01
 D   1 1.00       0.000000000000
      0.8000000000D+00  0.1000000000D+01
 ****
     21 0
 S   3 1.00       0.000000000000
      0.1873113696D+02  0.3349460434D-01
      0.2825394365D+01  0.2347269535D+00
      0.6401216923D+00  0.8137573261D+00
 S   1 1.00       0.000000000000
      0.1612777588D+00  0.1000000000D+01
 ****
     22 0
 S   6 1.00       0.000000000000
      0.3047524880D+04  0.1834737132D-02
      0.4573695180D+03  0.1403732281D-01
      0.1039486850D+03  0.6884262226D-01
      0.2921015530D+02  0.2321844432D+00
      0.9286662960D+01  0.4679413484D+00
      0.3163926960D+01  0.3623119853D+00
 SP   3 1.00       0.000000000000
      0.7868272350D+01 -0.1193324198D+00  0.6899906659D-01
      0.1881288540D+01 -0.1608541517D+00  0.3164239610D+00
      0.5442492580D+00  0.1143456438D+01  0.7443082909D+00
 SP   1 1.00       0.000000000000
      0.1687144782D+00  0.1000000000D+01  0.1000000000D+01
 D   1 1.00       0.000000000000
      0.8000000000D+00  0.1000000000D+01
 ****
     23 0
 S   3 1.00       0.000000000000
      0.1873113696D+02  0.3349460434D-01
      0.2825394365D+01  0.2347269535D+00
      0.6401216923D+00  0.8137573261D+00
 S   1 1.00       0.000000000000
      0.1612777588D+00  0.1000000000D+01
 ****
     24 0
 S   3 1.00       0.000000000000
      0.1873113696D+02  0.3349460434D-01
      0.2825394365D+01  0.2347269535D+00
      0.6401216923D+00  0.8137573261D+00
 S   1 1.00       0.000000000000
      0.1612777588D+00  0.1000000000D+01
 ****
     25 0
 S   6 1.00       0.000000000000
      0.3047524880D+04  0.1834737132D-02
      0.4573695180D+03  0.1403732281D-01
      0.1039486850D+03  0.6884262226D-01
      0.2921015530D+02  0.2321844432D+00
      0.9286662960D+01  0.4679413484D+00
      0.3163926960D+01  0.3623119853D+00
 SP   3 1.00       0.000000000000
      0.7868272350D+01 -0.1193324198D+00  0.6899906659D-01
      0.1881288540D+01 -0.1608541517D+00  0.3164239610D+00
      0.5442492580D+00  0.1143456438D+01  0.7443082909D+00
 SP   1 1.00       0.000000000000
      0.1687144782D+00  0.1000000000D+01  0.1000000000D+01
 D   1 1.00       0.000000000000
      0.8000000000D+00  0.1000000000D+01
 ****
     26 0
 S   3 1.00       0.000000000000
      0.1873113696D+02  0.3349460434D-01
      0.2825394365D+01  0.2347269535D+00
      0.6401216923D+00  0.8137573261D+00
 S   1 1.00       0.000000000000
      0.1612777588D+00  0.1000000000D+01
 ****
     27 0
 S   3 1.00       0.000000000000
      0.1873113696D+02  0.3349460434D-01
      0.2825394365D+01  0.2347269535D+00
      0.6401216923D+00  0.8137573261D+00
 S   1 1.00       0.000000000000
      0.1612777588D+00  0.1000000000D+01
 ****
     28 0
 S   6 1.00       0.000000000000
      0.3047524880D+04  0.1834737132D-02
      0.4573695180D+03  0.1403732281D-01
      0.1039486850D+03  0.6884262226D-01
      0.2921015530D+02  0.2321844432D+00
      0.9286662960D+01  0.4679413484D+00
      0.3163926960D+01  0.3623119853D+00
 SP   3 1.00       0.000000000000
      0.7868272350D+01 -0.1193324198D+00  0.6899906659D-01
      0.1881288540D+01 -0.1608541517D+00  0.3164239610D+00
      0.5442492580D+00  0.1143456438D+01  0.7443082909D+00
 SP   1 1.00       0.000000000000
      0.1687144782D+00  0.1000000000D+01  0.1000000000D+01
 D   1 1.00       0.000000000000
      0.8000000000D+00  0.1000000000D+01
 ****
     29 0
 S   6 1.00       0.000000000000
      0.3047524880D+04  0.1834737132D-02
      0.4573695180D+03  0.1403732281D-01
      0.1039486850D+03  0.6884262226D-01
      0.2921015530D+02  0.2321844432D+00
      0.9286662960D+01  0.4679413484D+00
      0.3163926960D+01  0.3623119853D+00
 SP   3 1.00       0.000000000000
      0.7868272350D+01 -0.1193324198D+00  0.6899906659D-01
      0.1881288540D+01 -0.1608541517D+00  0.3164239610D+00
      0.5442492580D+00  0.1143456438D+01  0.7443082909D+00
 SP   1 1.00       0.000000000000
      0.1687144782D+00  0.1000000000D+01  0.1000000000D+01
 D   1 1.00       0.000000000000
      0.8000000000D+00  0.1000000000D+01
 ****
     30 0
 S   3 1.00       0.000000000000
      0.1873113696D+02  0.3349460434D-01
      0.2825394365D+01  0.2347269535D+00
      0.6401216923D+00  0.8137573261D+00
 S   1 1.00       0.000000000000
      0.1612777588D+00  0.1000000000D+01
 ****
     31 0
 S   6 1.00       0.000000000000
      0.3047524880D+04  0.1834737132D-02
      0.4573695180D+03  0.1403732281D-01
      0.1039486850D+03  0.6884262226D-01
      0.2921015530D+02  0.2321844432D+00
      0.9286662960D+01  0.4679413484D+00
      0.3163926960D+01  0.3623119853D+00
 SP   3 1.00       0.000000000000
      0.7868272350D+01 -0.1193324198D+00  0.6899906659D-01
      0.1881288540D+01 -0.1608541517D+00  0.3164239610D+00
      0.5442492580D+00  0.1143456438D+01  0.7443082909D+00
 SP   1 1.00       0.000000000000
      0.1687144782D+00  0.1000000000D+01  0.1000000000D+01
 D   1 1.00       0.000000000000
      0.8000000000D+00  0.1000000000D+01
 ****
     32 0
 S   3 1.00       0.000000000000
      0.1873113696D+02  0.3349460434D-01
      0.2825394365D+01  0.2347269535D+00
      0.6401216923D+00  0.8137573261D+00
 S   1 1.00       0.000000000000
      0.1612777588D+00  0.1000000000D+01
 ****
     33 0
 S   3 1.00       0.000000000000
      0.1873113696D+02  0.3349460434D-01
      0.2825394365D+01  0.2347269535D+00
      0.6401216923D+00  0.8137573261D+00
 S   1 1.00       0.000000000000
      0.1612777588D+00  0.1000000000D+01
 ****
     34 0
 S   6 1.00       0.000000000000
      0.3047524880D+04  0.1834737132D-02
      0.4573695180D+03  0.1403732281D-01
      0.1039486850D+03  0.6884262226D-01
      0.2921015530D+02  0.2321844432D+00
      0.9286662960D+01  0.4679413484D+00
      0.3163926960D+01  0.3623119853D+00
 SP   3 1.00       0.000000000000
      0.7868272350D+01 -0.1193324198D+00  0.6899906659D-01
      0.1881288540D+01 -0.1608541517D+00  0.3164239610D+00
      0.5442492580D+00  0.1143456438D+01  0.7443082909D+00
 SP   1 1.00       0.000000000000
      0.1687144782D+00  0.1000000000D+01  0.1000000000D+01
 D   1 1.00       0.000000000000
      0.8000000000D+00  0.1000000000D+01
 ****
     35 0
 S   3 1.00       0.000000000000
      0.1873113696D+02  0.3349460434D-01
      0.2825394365D+01  0.2347269535D+00
      0.6401216923D+00  0.8137573261D+00
 S   1 1.00       0.000000000000
      0.1612777588D+00  0.1000000000D+01
 ****
     36 0
 S   3 1.00       0.000000000000
      0.1873113696D+02  0.3349460434D-01
      0.2825394365D+01  0.2347269535D+00
      0.6401216923D+00  0.8137573261D+00
 S   1 1.00       0.000000000000
      0.1612777588D+00  0.1000000000D+01
 ****
     37 0
 S   6 1.00       0.000000000000
      0.3047524880D+04  0.1834737132D-02
      0.4573695180D+03  0.1403732281D-01
      0.1039486850D+03  0.6884262226D-01
      0.2921015530D+02  0.2321844432D+00
      0.9286662960D+01  0.4679413484D+00
      0.3163926960D+01  0.3623119853D+00
 SP   3 1.00       0.000000000000
      0.7868272350D+01 -0.1193324198D+00  0.6899906659D-01
      0.1881288540D+01 -0.1608541517D+00  0.3164239610D+00
      0.5442492580D+00  0.1143456438D+01  0.7443082909D+00
 SP   1 1.00       0.000000000000
      0.1687144782D+00  0.1000000000D+01  0.1000000000D+01
 D   1 1.00       0.000000000000
      0.8000000000D+00  0.1000000000D+01
 ****
     38 0
 S   3 1.00       0.000000000000
      0.1873113696D+02  0.3349460434D-01
      0.2825394365D+01  0.2347269535D+00
      0.6401216923D+00  0.8137573261D+00
 S   1 1.00       0.000000000000
      0.1612777588D+00  0.1000000000D+01
 ****
     39 0
 S   6 1.00       0.000000000000
      0.3047524880D+04  0.1834737132D-02
      0.4573695180D+03  0.1403732281D-01
      0.1039486850D+03  0.6884262226D-01
      0.2921015530D+02  0.2321844432D+00
      0.9286662960D+01  0.4679413484D+00
      0.3163926960D+01  0.3623119853D+00
 SP   3 1.00       0.000000000000
      0.7868272350D+01 -0.1193324198D+00  0.6899906659D-01
      0.1881288540D+01 -0.1608541517D+00  0.3164239610D+00
      0.5442492580D+00  0.1143456438D+01  0.7443082909D+00
 SP   1 1.00       0.000000000000
      0.1687144782D+00  0.1000000000D+01  0.1000000000D+01
 D   1 1.00       0.000000000000
      0.8000000000D+00  0.1000000000D+01
 ****
     40 0
 S   3 1.00       0.000000000000
      0.1873113696D+02  0.3349460434D-01
      0.2825394365D+01  0.2347269535D+00
      0.6401216923D+00  0.8137573261D+00
 S   1 1.00       0.000000000000
      0.1612777588D+00  0.1000000000D+01
 ****
     41 0
 S   3 1.00       0.000000000000
      0.1873113696D+02  0.3349460434D-01
      0.2825394365D+01  0.2347269535D+00
      0.6401216923D+00  0.8137573261D+00
 S   1 1.00       0.000000000000
      0.1612777588D+00  0.1000000000D+01
 ****
     42 0
 S   3 1.00       0.000000000000
      0.1873113696D+02  0.3349460434D-01
      0.2825394365D+01  0.2347269535D+00
      0.6401216923D+00  0.8137573261D+00
 S   1 1.00       0.000000000000
      0.1612777588D+00  0.1000000000D+01
 ****
     43 0
 S   6 1.00       0.000000000000
      0.3047524880D+04  0.1834737132D-02
      0.4573695180D+03  0.1403732281D-01
      0.1039486850D+03  0.6884262226D-01
      0.2921015530D+02  0.2321844432D+00
      0.9286662960D+01  0.4679413484D+00
      0.3163926960D+01  0.3623119853D+00
 SP   3 1.00       0.000000000000
      0.7868272350D+01 -0.1193324198D+00  0.6899906659D-01
      0.1881288540D+01 -0.1608541517D+00  0.3164239610D+00
      0.5442492580D+00  0.1143456438D+01  0.7443082909D+00
 SP   1 1.00       0.000000000000
      0.1687144782D+00  0.1000000000D+01  0.1000000000D+01
 D   1 1.00       0.000000000000
      0.8000000000D+00  0.1000000000D+01
 ****
     44 0
 S   3 1.00       0.000000000000
      0.1873113696D+02  0.3349460434D-01
      0.2825394365D+01  0.2347269535D+00
      0.6401216923D+00  0.8137573261D+00
 S   1 1.00       0.000000000000
      0.1612777588D+00  0.1000000000D+01
 ****
     45 0
 S   6 1.00       0.000000000000
      0.3047524880D+04  0.1834737132D-02
      0.4573695180D+03  0.1403732281D-01
      0.1039486850D+03  0.6884262226D-01
      0.2921015530D+02  0.2321844432D+00
      0.9286662960D+01  0.4679413484D+00
      0.3163926960D+01  0.3623119853D+00
 SP   3 1.00       0.000000000000
      0.7868272350D+01 -0.1193324198D+00  0.6899906659D-01
      0.1881288540D+01 -0.1608541517D+00  0.3164239610D+00
      0.5442492580D+00  0.1143456438D+01  0.7443082909D+00
 SP   1 1.00       0.000000000000
      0.1687144782D+00  0.1000000000D+01  0.1000000000D+01
 D   1 1.00       0.000000000000
      0.8000000000D+00  0.1000000000D+01
 ****
     46 0
 S   3 1.00       0.000000000000
      0.1873113696D+02  0.3349460434D-01
      0.2825394365D+01  0.2347269535D+00
      0.6401216923D+00  0.8137573261D+00
 S   1 1.00       0.000000000000
      0.1612777588D+00  0.1000000000D+01
 ****
     47 0
 S   3 1.00       0.000000000000
      0.1873113696D+02  0.3349460434D-01
      0.2825394365D+01  0.2347269535D+00
      0.6401216923D+00  0.8137573261D+00
 S   1 1.00       0.000000000000
      0.1612777588D+00  0.1000000000D+01
 ****
     48 0
 S   3 1.00       0.000000000000
      0.1873113696D+02  0.3349460434D-01
      0.2825394365D+01  0.2347269535D+00
      0.6401216923D+00  0.8137573261D+00
 S   1 1.00       0.000000000000
      0.1612777588D+00  0.1000000000D+01
 ****
     49 0
 S   6 1.00       0.000000000000
      0.3047524880D+04  0.1834737132D-02
      0.4573695180D+03  0.1403732281D-01
      0.1039486850D+03  0.6884262226D-01
      0.2921015530D+02  0.2321844432D+00
      0.9286662960D+01  0.4679413484D+00
      0.3163926960D+01  0.3623119853D+00
 SP   3 1.00       0.000000000000
      0.7868272350D+01 -0.1193324198D+00  0.6899906659D-01
      0.1881288540D+01 -0.1608541517D+00  0.3164239610D+00
      0.5442492580D+00  0.1143456438D+01  0.7443082909D+00
 SP   1 1.00       0.000000000000
      0.1687144782D+00  0.1000000000D+01  0.1000000000D+01
 D   1 1.00       0.000000000000
      0.8000000000D+00  0.1000000000D+01
 ****
     50 0
 S   3 1.00       0.000000000000
      0.1873113696D+02  0.3349460434D-01
      0.2825394365D+01  0.2347269535D+00
      0.6401216923D+00  0.8137573261D+00
 S   1 1.00       0.000000000000
      0.1612777588D+00  0.1000000000D+01
 ****
     51 0
 S   3 1.00       0.000000000000
      0.1873113696D+02  0.3349460434D-01
      0.2825394365D+01  0.2347269535D+00
      0.6401216923D+00  0.8137573261D+00
 S   1 1.00       0.000000000000
      0.1612777588D+00  0.1000000000D+01
 ****
     52 0
 S   3 1.00       0.000000000000
      0.1873113696D+02  0.3349460434D-01
      0.2825394365D+01  0.2347269535D+00
      0.6401216923D+00  0.8137573261D+00
 S   1 1.00       0.000000000000
      0.1612777588D+00  0.1000000000D+01
 ****
     53 0
 S   6 1.00       0.000000000000
      0.5484671660D+04  0.1831074430D-02
      0.8252349460D+03  0.1395017220D-01
      0.1880469580D+03  0.6844507810D-01
      0.5296450000D+02  0.2327143360D+00
      0.1689757040D+02  0.4701928980D+00
      0.5799635340D+01  0.3585208530D+00
 SP   3 1.00       0.000000000000
      0.1553961625D+02 -0.1107775495D+00  0.7087426823D-01
      0.3599933586D+01 -0.1480262627D+00  0.3397528391D+00
      0.1013761750D+01  0.1130767015D+01  0.7271585773D+00
 SP   1 1.00       0.000000000000
      0.2700058226D+00  0.1000000000D+01  0.1000000000D+01
 D   1 1.00       0.000000000000
      0.8000000000D+00  0.1000000000D+01
 ****
     54 0
 S   6 1.00       0.000000000000
      0.5484671660D+04  0.1831074430D-02
      0.8252349460D+03  0.1395017220D-01
      0.1880469580D+03  0.6844507810D-01
      0.5296450000D+02  0.2327143360D+00
      0.1689757040D+02  0.4701928980D+00
      0.5799635340D+01  0.3585208530D+00
 SP   3 1.00       0.000000000000
      0.1553961625D+02 -0.1107775495D+00  0.7087426823D-01
      0.3599933586D+01 -0.1480262627D+00  0.3397528391D+00
      0.1013761750D+01  0.1130767015D+01  0.7271585773D+00
 SP   1 1.00       0.000000000000
      0.2700058226D+00  0.1000000000D+01  0.1000000000D+01
 D   1 1.00       0.000000000000
      0.8000000000D+00  0.1000000000D+01
 ****
     55 0
 S   3 1.00       0.000000000000
      0.1873113696D+02  0.3349460434D-01
      0.2825394365D+01  0.2347269535D+00
      0.6401216923D+00  0.8137573261D+00
 S   1 1.00       0.000000000000
      0.1612777588D+00  0.1000000000D+01
 ****
     56 0
 S   6 1.00       0.000000000000
      0.5484671660D+04  0.1831074430D-02
      0.8252349460D+03  0.1395017220D-01
      0.1880469580D+03  0.6844507810D-01
      0.5296450000D+02  0.2327143360D+00
      0.1689757040D+02  0.4701928980D+00
      0.5799635340D+01  0.3585208530D+00
 SP   3 1.00       0.000000000000
      0.1553961625D+02 -0.1107775495D+00  0.7087426823D-01
      0.3599933586D+01 -0.1480262627D+00  0.3397528391D+00
      0.1013761750D+01  0.1130767015D+01  0.7271585773D+00
 SP   1 1.00       0.000000000000
      0.2700058226D+00  0.1000000000D+01  0.1000000000D+01
 D   1 1.00       0.000000000000
      0.8000000000D+00  0.1000000000D+01
 ****
     57 0
 S   3 1.00       0.000000000000
      0.1873113696D+02  0.3349460434D-01
      0.2825394365D+01  0.2347269535D+00
      0.6401216923D+00  0.8137573261D+00
 S   1 1.00       0.000000000000
      0.1612777588D+00  0.1000000000D+01
 ****
     58 0
 S   6 1.00       0.000000000000
      0.3047524880D+04  0.1834737132D-02
      0.4573695180D+03  0.1403732281D-01
      0.1039486850D+03  0.6884262226D-01
      0.2921015530D+02  0.2321844432D+00
      0.9286662960D+01  0.4679413484D+00
      0.3163926960D+01  0.3623119853D+00
 SP   3 1.00       0.000000000000
      0.7868272350D+01 -0.1193324198D+00  0.6899906659D-01
      0.1881288540D+01 -0.1608541517D+00  0.3164239610D+00
      0.5442492580D+00  0.1143456438D+01  0.7443082909D+00
 SP   1 1.00       0.000000000000
      0.1687144782D+00  0.1000000000D+01  0.1000000000D+01
 D   1 1.00       0.000000000000
      0.8000000000D+00  0.1000000000D+01
 ****
     59 0
 S   3 1.00       0.000000000000
      0.1873113696D+02  0.3349460434D-01
      0.2825394365D+01  0.2347269535D+00
      0.6401216923D+00  0.8137573261D+00
 S   1 1.00       0.000000000000
      0.1612777588D+00  0.1000000000D+01
 ****
     60 0
 S   3 1.00       0.000000000000
      0.1873113696D+02  0.3349460434D-01
      0.2825394365D+01  0.2347269535D+00
      0.6401216923D+00  0.8137573261D+00
 S   1 1.00       0.000000000000
      0.1612777588D+00  0.1000000000D+01
 ****
     61 0
 S   6 1.00       0.000000000000
      0.3047524880D+04  0.1834737132D-02
      0.4573695180D+03  0.1403732281D-01
      0.1039486850D+03  0.6884262226D-01
      0.2921015530D+02  0.2321844432D+00
      0.9286662960D+01  0.4679413484D+00
      0.3163926960D+01  0.3623119853D+00
 SP   3 1.00       0.000000000000
      0.7868272350D+01 -0.1193324198D+00  0.6899906659D-01
      0.1881288540D+01 -0.1608541517D+00  0.3164239610D+00
      0.5442492580D+00  0.1143456438D+01  0.7443082909D+00
 SP   1 1.00       0.000000000000
      0.1687144782D+00  0.1000000000D+01  0.1000000000D+01
 D   1 1.00       0.000000000000
      0.8000000000D+00  0.1000000000D+01
 ****
     62 0
 S   3 1.00       0.000000000000
      0.1873113696D+02  0.3349460434D-01
      0.2825394365D+01  0.2347269535D+00
      0.6401216923D+00  0.8137573261D+00
 S   1 1.00       0.000000000000
      0.1612777588D+00  0.1000000000D+01
 ****
     63 0
 S   3 1.00       0.000000000000
      0.1873113696D+02  0.3349460434D-01
      0.2825394365D+01  0.2347269535D+00
      0.6401216923D+00  0.8137573261D+00
 S   1 1.00       0.000000000000
      0.1612777588D+00  0.1000000000D+01
 ****
     64 0
 S   6 1.00       0.000000000000
      0.3047524880D+04  0.1834737132D-02
      0.4573695180D+03  0.1403732281D-01
      0.1039486850D+03  0.6884262226D-01
      0.2921015530D+02  0.2321844432D+00
      0.9286662960D+01  0.4679413484D+00
      0.3163926960D+01  0.3623119853D+00
 SP   3 1.00       0.000000000000
      0.7868272350D+01 -0.1193324198D+00  0.6899906659D-01
      0.1881288540D+01 -0.1608541517D+00  0.3164239610D+00
      0.5442492580D+00  0.1143456438D+01  0.7443082909D+00
 SP   1 1.00       0.000000000000
      0.1687144782D+00  0.1000000000D+01  0.1000000000D+01
 D   1 1.00       0.000000000000
      0.8000000000D+00  0.1000000000D+01
 ****
     65 0
 S   3 1.00       0.000000000000
      0.1873113696D+02  0.3349460434D-01
      0.2825394365D+01  0.2347269535D+00
      0.6401216923D+00  0.8137573261D+00
 S   1 1.00       0.000000000000
      0.1612777588D+00  0.1000000000D+01
 ****
     66 0
 S   3 1.00       0.000000000000
      0.1873113696D+02  0.3349460434D-01
      0.2825394365D+01  0.2347269535D+00
      0.6401216923D+00  0.8137573261D+00
 S   1 1.00       0.000000000000
      0.1612777588D+00  0.1000000000D+01
 ****
     67 0
 S   6 1.00       0.000000000000
      0.3047524880D+04  0.1834737132D-02
      0.4573695180D+03  0.1403732281D-01
      0.1039486850D+03  0.6884262226D-01
      0.2921015530D+02  0.2321844432D+00
      0.9286662960D+01  0.4679413484D+00
      0.3163926960D+01  0.3623119853D+00
 SP   3 1.00       0.000000000000
      0.7868272350D+01 -0.1193324198D+00  0.6899906659D-01
      0.1881288540D+01 -0.1608541517D+00  0.3164239610D+00
      0.5442492580D+00  0.1143456438D+01  0.7443082909D+00
 SP   1 1.00       0.000000000000
      0.1687144782D+00  0.1000000000D+01  0.1000000000D+01
 D   1 1.00       0.000000000000
      0.8000000000D+00  0.1000000000D+01
 ****
     68 0
 S   3 1.00       0.000000000000
      0.1873113696D+02  0.3349460434D-01
      0.2825394365D+01  0.2347269535D+00
      0.6401216923D+00  0.8137573261D+00
 S   1 1.00       0.000000000000
      0.1612777588D+00  0.1000000000D+01
 ****
     69 0
 S   6 1.00       0.000000000000
      0.3047524880D+04  0.1834737132D-02
      0.4573695180D+03  0.1403732281D-01
      0.1039486850D+03  0.6884262226D-01
      0.2921015530D+02  0.2321844432D+00
      0.9286662960D+01  0.4679413484D+00
      0.3163926960D+01  0.3623119853D+00
 SP   3 1.00       0.000000000000
      0.7868272350D+01 -0.1193324198D+00  0.6899906659D-01
      0.1881288540D+01 -0.1608541517D+00  0.3164239610D+00
      0.5442492580D+00  0.1143456438D+01  0.7443082909D+00
 SP   1 1.00       0.000000000000
      0.1687144782D+00  0.1000000000D+01  0.1000000000D+01
 D   1 1.00       0.000000000000
      0.8000000000D+00  0.1000000000D+01
 ****
     70 0
 S   3 1.00       0.000000000000
      0.1873113696D+02  0.3349460434D-01
      0.2825394365D+01  0.2347269535D+00
      0.6401216923D+00  0.8137573261D+00
 S   1 1.00       0.000000000000
      0.1612777588D+00  0.1000000000D+01
 ****
     71 0
 S   3 1.00       0.000000000000
      0.1873113696D+02  0.3349460434D-01
      0.2825394365D+01  0.2347269535D+00
      0.6401216923D+00  0.8137573261D+00
 S   1 1.00       0.000000000000
      0.1612777588D+00  0.1000000000D+01
 ****
     72 0
 S   3 1.00       0.000000000000
      0.1873113696D+02  0.3349460434D-01
      0.2825394365D+01  0.2347269535D+00
      0.6401216923D+00  0.8137573261D+00
 S   1 1.00       0.000000000000
      0.1612777588D+00  0.1000000000D+01
 ****
     73 0
 S   6 1.00       0.000000000000
      0.3047524880D+04  0.1834737132D-02
      0.4573695180D+03  0.1403732281D-01
      0.1039486850D+03  0.6884262226D-01
      0.2921015530D+02  0.2321844432D+00
      0.9286662960D+01  0.4679413484D+00
      0.3163926960D+01  0.3623119853D+00
 SP   3 1.00       0.000000000000
      0.7868272350D+01 -0.1193324198D+00  0.6899906659D-01
      0.1881288540D+01 -0.1608541517D+00  0.3164239610D+00
      0.5442492580D+00  0.1143456438D+01  0.7443082909D+00
 SP   1 1.00       0.000000000000
      0.1687144782D+00  0.1000000000D+01  0.1000000000D+01
 D   1 1.00       0.000000000000
      0.8000000000D+00  0.1000000000D+01
 ****
     74 0
 S   3 1.00       0.000000000000
      0.1873113696D+02  0.3349460434D-01
      0.2825394365D+01  0.2347269535D+00
      0.6401216923D+00  0.8137573261D+00
 S   1 1.00       0.000000000000
      0.1612777588D+00  0.1000000000D+01
 ****
     75 0
 S   3 1.00       0.000000000000
      0.1873113696D+02  0.3349460434D-01
      0.2825394365D+01  0.2347269535D+00
      0.6401216923D+00  0.8137573261D+00
 S   1 1.00       0.000000000000
      0.1612777588D+00  0.1000000000D+01
 ****
     76 0
 S   3 1.00       0.000000000000
      0.1873113696D+02  0.3349460434D-01
      0.2825394365D+01  0.2347269535D+00
      0.6401216923D+00  0.8137573261D+00
 S   1 1.00       0.000000000000
      0.1612777588D+00  0.1000000000D+01
 ****

 AO basis set (Overlap normalization):
 Atom C1       Shell     1 S   6     bf    1 -     1         14.202696635454          4.191313673372          0.138748435889
      0.3047524880D+04  0.1834737132D-02
      0.4573695180D+03  0.1403732281D-01
      0.1039486850D+03  0.6884262226D-01
      0.2921015530D+02  0.2321844432D+00
      0.9286662960D+01  0.4679413484D+00
      0.3163926960D+01  0.3623119853D+00
 Atom C1       Shell     2 SP   3    bf    2 -     5         14.202696635454          4.191313673372          0.138748435889
      0.7868272350D+01 -0.1193324198D+00  0.6899906659D-01
      0.1881288540D+01 -0.1608541517D+00  0.3164239610D+00
      0.5442492580D+00  0.1143456438D+01  0.7443082909D+00
 Atom C1       Shell     3 SP   1    bf    6 -     9         14.202696635454          4.191313673372          0.138748435889
      0.1687144782D+00  0.1000000000D+01  0.1000000000D+01
 Atom C1       Shell     4 D   1     bf   10 -    15         14.202696635454          4.191313673372          0.138748435889
      0.8000000000D+00  0.1000000000D+01
 Atom H2       Shell     5 S   3     bf   16 -    16         13.891979171944          4.136333168679          2.187388687968
      0.1873113696D+02  0.3349460434D-01
      0.2825394365D+01  0.2347269535D+00
      0.6401216923D+00  0.8137573261D+00
 Atom H2       Shell     6 S   1     bf   17 -    17         13.891979171944          4.136333168679          2.187388687968
      0.1612777588D+00  0.1000000000D+01
 Atom C3       Shell     7 S   6     bf   18 -    18         12.892607068582          1.906316888983         -1.077703424756
      0.3047524880D+04  0.1834737132D-02
      0.4573695180D+03  0.1403732281D-01
      0.1039486850D+03  0.6884262226D-01
      0.2921015530D+02  0.2321844432D+00
      0.9286662960D+01  0.4679413484D+00
      0.3163926960D+01  0.3623119853D+00
 Atom C3       Shell     8 SP   3    bf   19 -    22         12.892607068582          1.906316888983         -1.077703424756
      0.7868272350D+01 -0.1193324198D+00  0.6899906659D-01
      0.1881288540D+01 -0.1608541517D+00  0.3164239610D+00
      0.5442492580D+00  0.1143456438D+01  0.7443082909D+00
 Atom C3       Shell     9 SP   1    bf   23 -    26         12.892607068582          1.906316888983         -1.077703424756
      0.1687144782D+00  0.1000000000D+01  0.1000000000D+01
 Atom C3       Shell    10 D   1     bf   27 -    32         12.892607068582          1.906316888983         -1.077703424756
      0.8000000000D+00  0.1000000000D+01
 Atom H4       Shell    11 S   3     bf   33 -    33         13.615783811246          0.157437298220         -0.242841864529
      0.1873113696D+02  0.3349460434D-01
      0.2825394365D+01  0.2347269535D+00
      0.6401216923D+00  0.8137573261D+00
 Atom H4       Shell    12 S   1     bf   34 -    34         13.615783811246          0.157437298220         -0.242841864529
      0.1612777588D+00  0.1000000000D+01
 Atom H5       Shell    13 S   3     bf   35 -    35         13.428398567909          1.874541748771         -3.090208144748
      0.1873113696D+02  0.3349460434D-01
      0.2825394365D+01  0.2347269535D+00
      0.6401216923D+00  0.8137573261D+00
 Atom H5       Shell    14 S   1     bf   36 -    36         13.428398567909          1.874541748771         -3.090208144748
      0.1612777588D+00  0.1000000000D+01
 Atom C6       Shell    15 S   6     bf   37 -    37         10.036934100303          2.008750873516         -0.853678357017
      0.3047524880D+04  0.1834737132D-02
      0.4573695180D+03  0.1403732281D-01
      0.1039486850D+03  0.6884262226D-01
      0.2921015530D+02  0.2321844432D+00
      0.9286662960D+01  0.4679413484D+00
      0.3163926960D+01  0.3623119853D+00
 Atom C6       Shell    16 SP   3    bf   38 -    41         10.036934100303          2.008750873516         -0.853678357017
      0.7868272350D+01 -0.1193324198D+00  0.6899906659D-01
      0.1881288540D+01 -0.1608541517D+00  0.3164239610D+00
      0.5442492580D+00  0.1143456438D+01  0.7443082909D+00
 Atom C6       Shell    17 SP   1    bf   42 -    45         10.036934100303          2.008750873516         -0.853678357017
      0.1687144782D+00  0.1000000000D+01  0.1000000000D+01
 Atom C6       Shell    18 D   1     bf   46 -    51         10.036934100303          2.008750873516         -0.853678357017
      0.8000000000D+00  0.1000000000D+01
 Atom C7       Shell    19 S   6     bf   52 -    52          8.722984711113          4.460785294003         -1.660284826591
      0.3047524880D+04  0.1834737132D-02
      0.4573695180D+03  0.1403732281D-01
      0.1039486850D+03  0.6884262226D-01
      0.2921015530D+02  0.2321844432D+00
      0.9286662960D+01  0.4679413484D+00
      0.3163926960D+01  0.3623119853D+00
 Atom C7       Shell    20 SP   3    bf   53 -    56          8.722984711113          4.460785294003         -1.660284826591
      0.7868272350D+01 -0.1193324198D+00  0.6899906659D-01
      0.1881288540D+01 -0.1608541517D+00  0.3164239610D+00
      0.5442492580D+00  0.1143456438D+01  0.7443082909D+00
 Atom C7       Shell    21 SP   1    bf   57 -    60          8.722984711113          4.460785294003         -1.660284826591
      0.1687144782D+00  0.1000000000D+01  0.1000000000D+01
 Atom C7       Shell    22 D   1     bf   61 -    66          8.722984711113          4.460785294003         -1.660284826591
      0.8000000000D+00  0.1000000000D+01
 Atom C8       Shell    23 S   6     bf   67 -    67         10.220653804065          6.739607662815         -0.536974808037
      0.3047524880D+04  0.1834737132D-02
      0.4573695180D+03  0.1403732281D-01
      0.1039486850D+03  0.6884262226D-01
      0.2921015530D+02  0.2321844432D+00
      0.9286662960D+01  0.4679413484D+00
      0.3163926960D+01  0.3623119853D+00
 Atom C8       Shell    24 SP   3    bf   68 -    71         10.220653804065          6.739607662815         -0.536974808037
      0.7868272350D+01 -0.1193324198D+00  0.6899906659D-01
      0.1881288540D+01 -0.1608541517D+00  0.3164239610D+00
      0.5442492580D+00  0.1143456438D+01  0.7443082909D+00
 Atom C8       Shell    25 SP   1    bf   72 -    75         10.220653804065          6.739607662815         -0.536974808037
      0.1687144782D+00  0.1000000000D+01  0.1000000000D+01
 Atom C8       Shell    26 D   1     bf   76 -    81         10.220653804065          6.739607662815         -0.536974808037
      0.8000000000D+00  0.1000000000D+01
 Atom H9       Shell    27 S   3     bf   82 -    82          9.842421641472          6.824864225772          1.503143553970
      0.1873113696D+02  0.3349460434D-01
      0.2825394365D+01  0.2347269535D+00
      0.6401216923D+00  0.8137573261D+00
 Atom H9       Shell    28 S   1     bf   83 -    83          9.842421641472          6.824864225772          1.503143553970
      0.1612777588D+00  0.1000000000D+01
 Atom H10      Shell    29 S   3     bf   84 -    84          9.493513039584          8.501939609205         -1.340902288462
      0.1873113696D+02  0.3349460434D-01
      0.2825394365D+01  0.2347269535D+00
      0.6401216923D+00  0.8137573261D+00
 Atom H10      Shell    30 S   1     bf   85 -    85          9.493513039584          8.501939609205         -1.340902288462
      0.1612777588D+00  0.1000000000D+01
 Atom C11      Shell    31 S   6     bf   86 -    86         13.096228328627          6.637467228339         -0.923388161977
      0.3047524880D+04  0.1834737132D-02
      0.4573695180D+03  0.1403732281D-01
      0.1039486850D+03  0.6884262226D-01
      0.2921015530D+02  0.2321844432D+00
      0.9286662960D+01  0.4679413484D+00
      0.3163926960D+01  0.3623119853D+00
 Atom C11      Shell    32 SP   3    bf   87 -    90         13.096228328627          6.637467228339         -0.923388161977
      0.7868272350D+01 -0.1193324198D+00  0.6899906659D-01
      0.1881288540D+01 -0.1608541517D+00  0.3164239610D+00
      0.5442492580D+00  0.1143456438D+01  0.7443082909D+00
 Atom C11      Shell    33 SP   1    bf   91 -    94         13.096228328627          6.637467228339         -0.923388161977
      0.1687144782D+00  0.1000000000D+01  0.1000000000D+01
 Atom C11      Shell    34 D   1     bf   95 -   100         13.096228328627          6.637467228339         -0.923388161977
      0.8000000000D+00  0.1000000000D+01
 Atom H12      Shell    35 S   3     bf  101 -   101         13.564247502506          6.770167671329         -2.944772648376
      0.1873113696D+02  0.3349460434D-01
      0.2825394365D+01  0.2347269535D+00
      0.6401216923D+00  0.8137573261D+00
 Atom H12      Shell    36 S   1     bf  102 -   102         13.564247502506          6.770167671329         -2.944772648376
      0.1612777588D+00  0.1000000000D+01
 Atom H13      Shell    37 S   3     bf  103 -   103         13.990929616427          8.261011262462          0.000000000000
      0.1873113696D+02  0.3349460434D-01
      0.2825394365D+01  0.2347269535D+00
      0.6401216923D+00  0.8137573261D+00
 Atom H13      Shell    38 S   1     bf  104 -   104         13.990929616427          8.261011262462          0.000000000000
      0.1612777588D+00  0.1000000000D+01
 Atom C14      Shell    39 S   6     bf  105 -   105          8.753590054157          0.000000000000          0.000000000000
      0.3047524880D+04  0.1834737132D-02
      0.4573695180D+03  0.1403732281D-01
      0.1039486850D+03  0.6884262226D-01
      0.2921015530D+02  0.2321844432D+00
      0.9286662960D+01  0.4679413484D+00
      0.3163926960D+01  0.3623119853D+00
 Atom C14      Shell    40 SP   3    bf  106 -   109          8.753590054157          0.000000000000          0.000000000000
      0.7868272350D+01 -0.1193324198D+00  0.6899906659D-01
      0.1881288540D+01 -0.1608541517D+00  0.3164239610D+00
      0.5442492580D+00  0.1143456438D+01  0.7443082909D+00
 Atom C14      Shell    41 SP   1    bf  110 -   113          8.753590054157          0.000000000000          0.000000000000
      0.1687144782D+00  0.1000000000D+01  0.1000000000D+01
 Atom C14      Shell    42 D   1     bf  114 -   119          8.753590054157          0.000000000000          0.000000000000
      0.8000000000D+00  0.1000000000D+01
 Atom H15      Shell    43 S   3     bf  120 -   120          9.781686372684         -1.682735585632          0.598732002922
      0.1873113696D+02  0.3349460434D-01
      0.2825394365D+01  0.2347269535D+00
      0.6401216923D+00  0.8137573261D+00
 Atom H15      Shell    44 S   1     bf  121 -   121          9.781686372684         -1.682735585632          0.598732002922
      0.1612777588D+00  0.1000000000D+01
 Atom C16      Shell    45 S   6     bf  122 -   122          5.931763214753         -0.190336371947          0.200468988985
      0.3047524880D+04  0.1834737132D-02
      0.4573695180D+03  0.1403732281D-01
      0.1039486850D+03  0.6884262226D-01
      0.2921015530D+02  0.2321844432D+00
      0.9286662960D+01  0.4679413484D+00
      0.3163926960D+01  0.3623119853D+00
 Atom C16      Shell    46 SP   3    bf  123 -   126          5.931763214753         -0.190336371947          0.200468988985
      0.7868272350D+01 -0.1193324198D+00  0.6899906659D-01
      0.1881288540D+01 -0.1608541517D+00  0.3164239610D+00
      0.5442492580D+00  0.1143456438D+01  0.7443082909D+00
 Atom C16      Shell    47 SP   1    bf  127 -   130          5.931763214753         -0.190336371947          0.200468988985
      0.1687144782D+00  0.1000000000D+01  0.1000000000D+01
 Atom C16      Shell    48 D   1     bf  131 -   136          5.931763214753         -0.190336371947          0.200468988985
      0.8000000000D+00  0.1000000000D+01
 Atom H17      Shell    49 S   3     bf  137 -   137          5.393078960457         -0.372763087295          2.204201751447
      0.1873113696D+02  0.3349460434D-01
      0.2825394365D+01  0.2347269535D+00
      0.6401216923D+00  0.8137573261D+00
 Atom H17      Shell    50 S   1     bf  138 -   138          5.393078960457         -0.372763087295          2.204201751447
      0.1612777588D+00  0.1000000000D+01
 Atom C18      Shell    51 S   6     bf  139 -   139          4.487275229270          2.019870286644         -1.006363334164
      0.3047524880D+04  0.1834737132D-02
      0.4573695180D+03  0.1403732281D-01
      0.1039486850D+03  0.6884262226D-01
      0.2921015530D+02  0.2321844432D+00
      0.9286662960D+01  0.4679413484D+00
      0.3163926960D+01  0.3623119853D+00
 Atom C18      Shell    52 SP   3    bf  140 -   143          4.487275229270          2.019870286644         -1.006363334164
      0.7868272350D+01 -0.1193324198D+00  0.6899906659D-01
      0.1881288540D+01 -0.1608541517D+00  0.3164239610D+00
      0.5442492580D+00  0.1143456438D+01  0.7443082909D+00
 Atom C18      Shell    53 SP   1    bf  144 -   147          4.487275229270          2.019870286644         -1.006363334164
      0.1687144782D+00  0.1000000000D+01  0.1000000000D+01
 Atom C18      Shell    54 D   1     bf  148 -   153          4.487275229270          2.019870286644         -1.006363334164
      0.8000000000D+00  0.1000000000D+01
 Atom H19      Shell    55 S   3     bf  154 -   154          4.376652003156          1.621382773242         -3.034663821367
      0.1873113696D+02  0.3349460434D-01
      0.2825394365D+01  0.2347269535D+00
      0.6401216923D+00  0.8137573261D+00
 Atom H19      Shell    56 S   1     bf  155 -   155          4.376652003156          1.621382773242         -3.034663821367
      0.1612777588D+00  0.1000000000D+01
 Atom C20      Shell    57 S   6     bf  156 -   156          5.963796094713          4.521928327896         -0.577660838445
      0.3047524880D+04  0.1834737132D-02
      0.4573695180D+03  0.1403732281D-01
      0.1039486850D+03  0.6884262226D-01
      0.2921015530D+02  0.2321844432D+00
      0.9286662960D+01  0.4679413484D+00
      0.3163926960D+01  0.3623119853D+00
 Atom C20      Shell    58 SP   3    bf  157 -   160          5.963796094713          4.521928327896         -0.577660838445
      0.7868272350D+01 -0.1193324198D+00  0.6899906659D-01
      0.1881288540D+01 -0.1608541517D+00  0.3164239610D+00
      0.5442492580D+00  0.1143456438D+01  0.7443082909D+00
 Atom C20      Shell    59 SP   1    bf  161 -   164          5.963796094713          4.521928327896         -0.577660838445
      0.1687144782D+00  0.1000000000D+01  0.1000000000D+01
 Atom C20      Shell    60 D   1     bf  165 -   170          5.963796094713          4.521928327896         -0.577660838445
      0.8000000000D+00  0.1000000000D+01
 Atom H21      Shell    61 S   3     bf  171 -   171          6.182014865524          4.711626369252          1.486112434992
      0.1873113696D+02  0.3349460434D-01
      0.2825394365D+01  0.2347269535D+00
      0.6401216923D+00  0.8137573261D+00
 Atom H21      Shell    62 S   1     bf  172 -   172          6.182014865524          4.711626369252          1.486112434992
      0.1612777588D+00  0.1000000000D+01
 Atom C22      Shell    63 S   6     bf  173 -   173          4.420676858388          6.834989737440         -1.471644332671
      0.3047524880D+04  0.1834737132D-02
      0.4573695180D+03  0.1403732281D-01
      0.1039486850D+03  0.6884262226D-01
      0.2921015530D+02  0.2321844432D+00
      0.9286662960D+01  0.4679413484D+00
      0.3163926960D+01  0.3623119853D+00
 Atom C22      Shell    64 SP   3    bf  174 -   177          4.420676858388          6.834989737440         -1.471644332671
      0.7868272350D+01 -0.1193324198D+00  0.6899906659D-01
      0.1881288540D+01 -0.1608541517D+00  0.3164239610D+00
      0.5442492580D+00  0.1143456438D+01  0.7443082909D+00
 Atom C22      Shell    65 SP   1    bf  178 -   181          4.420676858388          6.834989737440         -1.471644332671
      0.1687144782D+00  0.1000000000D+01  0.1000000000D+01
 Atom C22      Shell    66 D   1     bf  182 -   187          4.420676858388          6.834989737440         -1.471644332671
      0.8000000000D+00  0.1000000000D+01
 Atom H23      Shell    67 S   3     bf  188 -   188          4.326841959239          6.855966547892         -3.539465248306
      0.1873113696D+02  0.3349460434D-01
      0.2825394365D+01  0.2347269535D+00
      0.6401216923D+00  0.8137573261D+00
 Atom H23      Shell    68 S   1     bf  189 -   189          4.326841959239          6.855966547892         -3.539465248306
      0.1612777588D+00  0.1000000000D+01
 Atom H24      Shell    69 S   3     bf  190 -   190          5.398823406647          8.576200460508         -0.926443811339
      0.1873113696D+02  0.3349460434D-01
      0.2825394365D+01  0.2347269535D+00
      0.6401216923D+00  0.8137573261D+00
 Atom H24      Shell    70 S   1     bf  191 -   191          5.398823406647          8.576200460508         -0.926443811339
      0.1612777588D+00  0.1000000000D+01
 Atom C25      Shell    71 S   6     bf  192 -   192          1.710051123349          6.937498517334         -0.412048263721
      0.3047524880D+04  0.1834737132D-02
      0.4573695180D+03  0.1403732281D-01
      0.1039486850D+03  0.6884262226D-01
      0.2921015530D+02  0.2321844432D+00
      0.9286662960D+01  0.4679413484D+00
      0.3163926960D+01  0.3623119853D+00
 Atom C25      Shell    72 SP   3    bf  193 -   196          1.710051123349          6.937498517334         -0.412048263721
      0.7868272350D+01 -0.1193324198D+00  0.6899906659D-01
      0.1881288540D+01 -0.1608541517D+00  0.3164239610D+00
      0.5442492580D+00  0.1143456438D+01  0.7443082909D+00
 Atom C25      Shell    73 SP   1    bf  197 -   200          1.710051123349          6.937498517334         -0.412048263721
      0.1687144782D+00  0.1000000000D+01  0.1000000000D+01
 Atom C25      Shell    74 D   1     bf  201 -   206          1.710051123349          6.937498517334         -0.412048263721
      0.8000000000D+00  0.1000000000D+01
 Atom H26      Shell    75 S   3     bf  207 -   207          1.785114068909          7.202511612614          1.647772930968
      0.1873113696D+02  0.3349460434D-01
      0.2825394365D+01  0.2347269535D+00
      0.6401216923D+00  0.8137573261D+00
 Atom H26      Shell    76 S   1     bf  208 -   208          1.785114068909          7.202511612614          1.647772930968
      0.1612777588D+00  0.1000000000D+01
 Atom H27      Shell    77 S   3     bf  209 -   209          0.768999162085          8.609384656114         -1.184061746857
      0.1873113696D+02  0.3349460434D-01
      0.2825394365D+01  0.2347269535D+00
      0.6401216923D+00  0.8137573261D+00
 Atom H27      Shell    78 S   1     bf  210 -   210          0.768999162085          8.609384656114         -1.184061746857
      0.1612777588D+00  0.1000000000D+01
 Atom C28      Shell    79 S   6     bf  211 -   211          0.223945396885          4.497805293508         -0.984470460072
      0.3047524880D+04  0.1834737132D-02
      0.4573695180D+03  0.1403732281D-01
      0.1039486850D+03  0.6884262226D-01
      0.2921015530D+02  0.2321844432D+00
      0.9286662960D+01  0.4679413484D+00
      0.3163926960D+01  0.3623119853D+00
 Atom C28      Shell    80 SP   3    bf  212 -   215          0.223945396885          4.497805293508         -0.984470460072
      0.7868272350D+01 -0.1193324198D+00  0.6899906659D-01
      0.1881288540D+01 -0.1608541517D+00  0.3164239610D+00
      0.5442492580D+00  0.1143456438D+01  0.7443082909D+00
 Atom C28      Shell    81 SP   1    bf  216 -   219          0.223945396885          4.497805293508         -0.984470460072
      0.1687144782D+00  0.1000000000D+01  0.1000000000D+01
 Atom C28      Shell    82 D   1     bf  220 -   225          0.223945396885          4.497805293508         -0.984470460072
      0.8000000000D+00  0.1000000000D+01
 Atom C29      Shell    83 S   6     bf  226 -   226          1.809145073634          2.269820771761          0.099845437676
      0.3047524880D+04  0.1834737132D-02
      0.4573695180D+03  0.1403732281D-01
      0.1039486850D+03  0.6884262226D-01
      0.2921015530D+02  0.2321844432D+00
      0.9286662960D+01  0.4679413484D+00
      0.3163926960D+01  0.3623119853D+00
 Atom C29      Shell    84 SP   3    bf  227 -   230          1.809145073634          2.269820771761          0.099845437676
      0.7868272350D+01 -0.1193324198D+00  0.6899906659D-01
      0.1881288540D+01 -0.1608541517D+00  0.3164239610D+00
      0.5442492580D+00  0.1143456438D+01  0.7443082909D+00
 Atom C29      Shell    85 SP   1    bf  231 -   234          1.809145073634          2.269820771761          0.099845437676
      0.1687144782D+00  0.1000000000D+01  0.1000000000D+01
 Atom C29      Shell    86 D   1     bf  235 -   240          1.809145073634          2.269820771761          0.099845437676
      0.8000000000D+00  0.1000000000D+01
 Atom H30      Shell    87 S   3     bf  241 -   241          2.073422177277          2.727666926257          2.119004960527
      0.1873113696D+02  0.3349460434D-01
      0.2825394365D+01  0.2347269535D+00
      0.6401216923D+00  0.8137573261D+00
 Atom H30      Shell    88 S   1     bf  242 -   242          2.073422177277          2.727666926257          2.119004960527
      0.1612777588D+00  0.1000000000D+01
 Atom C31      Shell    89 S   6     bf  243 -   243          0.000000000000          0.000000000000          0.000000000000
      0.3047524880D+04  0.1834737132D-02
      0.4573695180D+03  0.1403732281D-01
      0.1039486850D+03  0.6884262226D-01
      0.2921015530D+02  0.2321844432D+00
      0.9286662960D+01  0.4679413484D+00
      0.3163926960D+01  0.3623119853D+00
 Atom C31      Shell    90 SP   3    bf  244 -   247          0.000000000000          0.000000000000          0.000000000000
      0.7868272350D+01 -0.1193324198D+00  0.6899906659D-01
      0.1881288540D+01 -0.1608541517D+00  0.3164239610D+00
      0.5442492580D+00  0.1143456438D+01  0.7443082909D+00
 Atom C31      Shell    91 SP   1    bf  248 -   251          0.000000000000          0.000000000000          0.000000000000
      0.1687144782D+00  0.1000000000D+01  0.1000000000D+01
 Atom C31      Shell    92 D   1     bf  252 -   257          0.000000000000          0.000000000000          0.000000000000
      0.8000000000D+00  0.1000000000D+01
 Atom H32      Shell    93 S   3     bf  258 -   258          0.521838460760         -1.488905771470          1.332955120799
      0.1873113696D+02  0.3349460434D-01
      0.2825394365D+01  0.2347269535D+00
      0.6401216923D+00  0.8137573261D+00
 Atom H32      Shell    94 S   1     bf  259 -   259          0.521838460760         -1.488905771470          1.332955120799
      0.1612777588D+00  0.1000000000D+01
 Atom H33      Shell    95 S   3     bf  260 -   260          0.025550363433         -0.872119986478         -1.875814895061
      0.1873113696D+02  0.3349460434D-01
      0.2825394365D+01  0.2347269535D+00
      0.6401216923D+00  0.8137573261D+00
 Atom H33      Shell    96 S   1     bf  261 -   261          0.025550363433         -0.872119986478         -1.875814895061
      0.1612777588D+00  0.1000000000D+01
 Atom C34      Shell    97 S   6     bf  262 -   262         -2.617850443127          1.178459200202          0.602434278773
      0.3047524880D+04  0.1834737132D-02
      0.4573695180D+03  0.1403732281D-01
      0.1039486850D+03  0.6884262226D-01
      0.2921015530D+02  0.2321844432D+00
      0.9286662960D+01  0.4679413484D+00
      0.3163926960D+01  0.3623119853D+00
 Atom C34      Shell    98 SP   3    bf  263 -   266         -2.617850443127          1.178459200202          0.602434278773
      0.7868272350D+01 -0.1193324198D+00  0.6899906659D-01
      0.1881288540D+01 -0.1608541517D+00  0.3164239610D+00
      0.5442492580D+00  0.1143456438D+01  0.7443082909D+00
 Atom C34      Shell    99 SP   1    bf  267 -   270         -2.617850443127          1.178459200202          0.602434278773
      0.1687144782D+00  0.1000000000D+01  0.1000000000D+01
 Atom C34      Shell   100 D   1     bf  271 -   276         -2.617850443127          1.178459200202          0.602434278773
      0.8000000000D+00  0.1000000000D+01
 Atom H35      Shell   101 S   3     bf  277 -   277         -4.037599570271          0.564910742843         -0.777008577326
      0.1873113696D+02  0.3349460434D-01
      0.2825394365D+01  0.2347269535D+00
      0.6401216923D+00  0.8137573261D+00
 Atom H35      Shell   102 S   1     bf  278 -   278         -4.037599570271          0.564910742843         -0.777008577326
      0.1612777588D+00  0.1000000000D+01
 Atom H36      Shell   103 S   3     bf  279 -   279         -3.302324933185          0.561794678936          2.453752011467
      0.1873113696D+02  0.3349460434D-01
      0.2825394365D+01  0.2347269535D+00
      0.6401216923D+00  0.8137573261D+00
 Atom H36      Shell   104 S   1     bf  280 -   280         -3.302324933185          0.561794678936          2.453752011467
      0.1612777588D+00  0.1000000000D+01
 Atom C37      Shell   105 S   6     bf  281 -   281         -2.302556403075          4.121353763158          0.520780743249
      0.3047524880D+04  0.1834737132D-02
      0.4573695180D+03  0.1403732281D-01
      0.1039486850D+03  0.6884262226D-01
      0.2921015530D+02  0.2321844432D+00
      0.9286662960D+01  0.4679413484D+00
      0.3163926960D+01  0.3623119853D+00
 Atom C37      Shell   106 SP   3    bf  282 -   285         -2.302556403075          4.121353763158          0.520780743249
      0.7868272350D+01 -0.1193324198D+00  0.6899906659D-01
      0.1881288540D+01 -0.1608541517D+00  0.3164239610D+00
      0.5442492580D+00  0.1143456438D+01  0.7443082909D+00
[...]
 1640 Fit       0.001374
 1641 Fit       0.000224
 1642 Fit      -0.001891
 1643 Fit      -0.002941
 1644 Fit      -0.002025
 1645 Fit      -0.000028
 1646 Fit       0.001569
 1647 Fit       0.001853
 1648 Fit       0.000560
 1649 Fit      -0.001297
 1650 Fit      -0.003215
 1651 Fit      -0.002231
 1652 Fit      -0.003906
 1653 Fit      -0.003901
 1654 Fit      -0.003998
 1655 Fit      -0.004241
 1656 Fit      -0.004445
 1657 Fit      -0.003959
 1658 Fit       0.002037
 1659 Fit       0.001020
 1660 Fit      -0.000895
 1661 Fit      -0.003127
 1662 Fit       0.001259
 1663 Fit       0.001089
 1664 Fit      -0.000390
 1665 Fit      -0.002705
 1666 Fit      -0.002039
 1667 Fit      -0.000377
 1668 Fit      -0.000418
 1669 Fit      -0.002670
 1670 Fit      -0.002239
 1671 Fit       0.000847
 1672 Fit       0.000581
 1673 Fit       0.001098
 1674 Fit       0.000161
 1675 Fit      -0.001354
 1676 Fit      -0.003295
 1677 Fit      -0.001183
 1678 Fit      -0.000085
 1679 Fit      -0.000370
 1680 Fit      -0.001831
 1681 Fit      -0.002708
 1682 Fit      -0.002143
 1683 Fit      -0.003084
 1684 Fit      -0.003248
 1685 Fit      -0.001318
 1686 Fit       0.002699
 1687 Fit      -0.002140
 1688 Fit       0.000191
 1689 Fit       0.001768
 1690 Fit      -0.001215
 1691 Fit      -0.002895
 1692 Fit      -0.000590
 1693 Fit      -0.000486
 1694 Fit       0.000959
 1695 Fit      -0.004946
 1696 Fit      -0.001078
 1697 Fit       0.003657
 1698 Fit       0.004142
 1699 Fit       0.001779
 1700 Fit      -0.002103
 1701 Fit      -0.011662
 1702 Fit      -0.002702
 1703 Fit       0.003839
 1704 Fit       0.003248
 1705 Fit       0.000892
 1706 Fit       0.000533
 1707 Fit      -0.004549
 1708 Fit      -0.012812
 1709 Fit       0.011374
 1710 Fit       0.008199
 1711 Fit       0.006943
 1712 Fit       0.000940
 1713 Fit       0.003281
 1714 Fit      -0.003862
 1715 Fit       0.007051
 1716 Fit       0.002117
 1717 Fit      -0.006177
 1718 Fit       0.008081
 1719 Fit       0.003893
 1720 Fit      -0.001772
 1721 Fit       0.007154
 1722 Fit       0.007431
 1723 Fit       0.010598
 1724 Fit       0.021128
 1725 Fit       0.006406
 1726 Fit       0.009413
 1727 Fit       0.009950
 1728 Fit       0.012833
 1729 Fit       0.016520
 1730 Fit       0.009646
 1731 Fit       0.012054
 1732 Fit       0.005481
 1733 Fit       0.006135
 1734 Fit       0.006428
 1735 Fit       0.006097
 1736 Fit       0.005753
 1737 Fit       0.006283
 1738 Fit       0.007176
 1739 Fit       0.006689
 1740 Fit       0.006504
 1741 Fit       0.005338
 1742 Fit       0.005516
 1743 Fit       0.006064
 1744 Fit       0.006187
 1745 Fit       0.006862
 1746 Fit       0.007539
 1747 Fit       0.007718
 1748 Fit       0.008320
 1749 Fit       0.008323
 1750 Fit       0.008806
 1751 Fit       0.006029
 1752 Fit       0.005914
 1753 Fit       0.007180
 1754 Fit       0.009931
 1755 Fit       0.006446
 1756 Fit       0.020519
 1757 Fit       0.012050
 1758 Fit       0.008930
 1759 Fit       0.008506
 1760 Fit       0.016303
 1761 Fit       0.011656
 1762 Fit       0.010043
 1763 Fit       0.002615
 1764 Fit      -0.004527
 1765 Fit       0.001235
 1766 Fit       0.004469
 1767 Fit      -0.002913
 1768 Fit       0.002229
 1769 Fit       0.004545
 1770 Fit      -0.004538
 1771 Fit       0.001326
 1772 Fit       0.004051
 1773 Fit       0.005493
 1774 Fit      -0.001116
 1775 Fit       0.002558
 1776 Fit       0.004554
 1777 Fit       0.006000
 1778 Fit       0.004781
 1779 Fit       0.002409
 1780 Fit       0.000258
 1781 Fit       0.000643
 1782 Fit       0.002180
 1783 Fit       0.000907
 1784 Fit       0.014280
 1785 Fit       0.002431
 1786 Fit       0.002849
 1787 Fit       0.003792
 1788 Fit       0.002530
 1789 Fit       0.005640
 1790 Fit       0.005901
 1791 Fit       0.001284
 1792 Fit       0.007307
 1793 Fit       0.008583
 1794 Fit       0.012972
 1795 Fit       0.011565
 1796 Fit       0.005306
 1797 Fit       0.004591
 1798 Fit       0.006199
 1799 Fit       0.006651
 1800 Fit       0.004695
 1801 Fit       0.003001
 1802 Fit       0.003593
 1803 Fit      -0.001118
 1804 Fit      -0.002080
 1805 Fit       0.000802
 1806 Fit       0.006553
 1807 Fit       0.006519
 1808 Fit       0.007102
 1809 Fit       0.006409
 1810 Fit       0.007770
 1811 Fit       0.006083
 1812 Fit       0.006226
 1813 Fit       0.004350
 1814 Fit       0.005028
 1815 Fit       0.003936
 1816 Fit       0.004812
 1817 Fit       0.005244
 1818 Fit       0.005687
 1819 Fit       0.006220
 1820 Fit       0.004718
 1821 Fit       0.006588
 1822 Fit       0.004722
 1823 Fit       0.006980
 1824 Fit       0.004936
 1825 Fit       0.007909
 1826 Fit       0.005146
 1827 Fit       0.002663
 1828 Fit       0.000961
 1829 Fit       0.004532
 1830 Fit       0.005469
 1831 Fit       0.004277
 1832 Fit       0.003521
 1833 Fit       0.005663
 1834 Fit       0.005073
 1835 Fit       0.003541
 1836 Fit       0.002431
 1837 Fit       0.002464
 1838 Fit       0.000533
 1839 Fit       0.002474
 1840 Fit       0.001295
 1841 Fit       0.003582
 1842 Fit       0.002924
 1843 Fit       0.004167
 1844 Fit       0.004337
 1845 Fit       0.004225
 1846 Fit       0.004203
 1847 Fit       0.006335
 1848 Fit       0.005484
 1849 Fit       0.004173
 1850 Fit       0.002585
 1851 Fit       0.002489
 1852 Fit       0.005224
 1853 Fit       0.000508
 1854 Fit      -0.008687
 1855 Fit      -0.009557
 1856 Fit      -0.014431
 1857 Fit      -0.024401
 1858 Fit      -0.000106
 1859 Fit      -0.002363
 1860 Fit      -0.001912
 1861 Fit      -0.004673
 1862 Fit      -0.006105
 1863 Fit      -0.007525
 1864 Fit      -0.007966
 1865 Fit      -0.010407
 1866 Fit      -0.015422
 1867 Fit      -0.015999
 1868 Fit      -0.009950
 1869 Fit      -0.016150
 1870 Fit      -0.003593
 1871 Fit      -0.008583
 1872 Fit      -0.016022
 1873 Fit      -0.010043
 1874 Fit      -0.002645
 1875 Fit      -0.004797
 1876 Fit      -0.006958
 1877 Fit      -0.008002
 1878 Fit      -0.003969
 1879 Fit      -0.002788
 1880 Fit      -0.005675
 1881 Fit       0.000941
 1882 Fit      -0.001527
 1883 Fit      -0.004409
 1884 Fit       0.000797
 1885 Fit      -0.001094
 1886 Fit       0.000762
 1887 Fit       0.000730
 1888 Fit       0.000937
 1889 Fit       0.000242
 1890 Fit       0.000735
 1891 Fit       0.000305
 1892 Fit      -0.000030
 1893 Fit      -0.000514
 1894 Fit      -0.001713
 1895 Fit      -0.002047
 1896 Fit      -0.002572
 1897 Fit      -0.004217
 1898 Fit       0.002031
 1899 Fit       0.003366
 1900 Fit       0.003105
 1901 Fit       0.002125
 1902 Fit       0.000765
 1903 Fit       0.001934
 1904 Fit      -0.012781
 1905 Fit       0.001395
 1906 Fit      -0.002307
 1907 Fit      -0.006403
 1908 Fit      -0.000489
 1909 Fit      -0.001237
 1910 Fit      -0.002522
 1911 Fit      -0.003571
 1912 Fit      -0.003353
 1913 Fit      -0.002319
 1914 Fit      -0.006670
 1915 Fit       0.001594
 1916 Fit       0.001680
 1917 Fit      -0.001933
 1918 Fit      -0.000943
 1919 Fit       0.000568
 1920 Fit      -0.001257
 1921 Fit      -0.000928
 1922 Fit      -0.001910
 1923 Fit      -0.004837
 1924 Fit      -0.009081
 1925 Fit      -0.002526
 1926 Fit      -0.003274
 1927 Fit       0.004834
 1928 Fit       0.002633
 1929 Fit       0.002843
 1930 Fit       0.001813
 1931 Fit       0.000314
 1932 Fit      -0.001180
 1933 Fit       0.000669
 1934 Fit       0.000776
 1935 Fit      -0.000858
 1936 Fit       0.001039
 1937 Fit       0.000990
 1938 Fit      -0.000305
 1939 Fit      -0.000102
 1940 Fit       0.000023
 1941 Fit      -0.000760
 1942 Fit      -0.001095
 1943 Fit      -0.000350
 1944 Fit      -0.001182
 1945 Fit      -0.001205
 1946 Fit       0.000372
 1947 Fit      -0.000944
 1948 Fit      -0.000641
 1949 Fit      -0.000158
 1950 Fit      -0.001489
 1951 Fit      -0.000107
 1952 Fit      -0.000694
 1953 Fit       0.002334
 1954 Fit       0.002826
 1955 Fit       0.002275
 1956 Fit       0.001472
 1957 Fit       0.001923
 1958 Fit       0.001572
 1959 Fit       0.000752
 1960 Fit      -0.000096
 1961 Fit       0.000726
 1962 Fit       0.000167
 1963 Fit      -0.000736
 1964 Fit       0.000072
 1965 Fit      -0.000241
 1966 Fit       0.001211
 1967 Fit       0.000246
 1968 Fit       0.001592
 1969 Fit      -0.000001
 1970 Fit       0.001094
 1971 Fit       0.001251
 1972 Fit      -0.000141
 1973 Fit      -0.000381
 1974 Fit       0.001362
 1975 Fit       0.003256
 1976 Fit       0.001038
 1977 Fit       0.003553
 1978 Fit       0.001348
 1979 Fit       0.009028
 1980 Fit       0.004230
 1981 Fit       0.003385
 1982 Fit       0.004286
 1983 Fit       0.005426
 1984 Fit       0.004632
 1985 Fit       0.003647
 1986 Fit       0.002341
 1987 Fit       0.003686
 1988 Fit       0.003159
 1989 Fit       0.008540
 1990 Fit       0.008491
 1991 Fit       0.007979
 1992 Fit       0.007131
 1993 Fit       0.007054
 1994 Fit       0.006536
 1995 Fit       0.005730
 1996 Fit       0.005623
 1997 Fit       0.005347
 1998 Fit       0.003827
 1999 Fit       0.014759
 2000 Fit       0.012578
 2001 Fit       0.008814
 2002 Fit       0.008754
 2003 Fit       0.013081
 2004 Fit       0.009262
 2005 Fit       0.007311
 2006 Fit       0.007123
 2007 Fit      -0.000350
 2008 Fit      -0.005075
 2009 Fit      -0.003033
 2010 Fit       0.002014
 2011 Fit       0.001448
 2012 Fit       0.000329
 2013 Fit       0.002112
 2014 Fit       0.002035
 2015 Fit      -0.007375
 2016 Fit      -0.015169
 2017 Fit      -0.013148
 2018 Fit      -0.007695
 2019 Fit      -0.019967
 2020 Fit      -0.016239
 2021 Fit      -0.009688
 2022 Fit      -0.001105
 2023 Fit      -0.023356
 2024 Fit      -0.018423
 2025 Fit      -0.009750
 2026 Fit      -0.026114
 2027 Fit      -0.021673
 2028 Fit      -0.012137
 2029 Fit      -0.022201
 2030 Fit      -0.022086
 2031 Fit      -0.015964
 2032 Fit      -0.004286
 2033 Fit       0.001096
 2034 Fit      -0.016308
 2035 Fit      -0.019278
 2036 Fit      -0.018762
 2037 Fit      -0.012925
 2038 Fit      -0.002129
 2039 Fit       0.001057
 2040 Fit      -0.005439
 2041 Fit      -0.011417
 2042 Fit      -0.014622
 2043 Fit      -0.009869
 2044 Fit       0.000050
 2045 Fit      -0.007431
 2046 Fit       0.008036
 2047 Fit      -0.000265
 2048 Fit       0.010450
 2049 Fit       0.016785
 2050 Fit       0.019405
 2051 Fit       0.017332
 2052 Fit       0.002754
 2053 Fit       0.012511
 2054 Fit       0.018011
 2055 Fit       0.019761
 2056 Fit       0.015764
 2057 Fit       0.008654
 2058 Fit       0.005483
 2059 Fit       0.014049
 2060 Fit       0.017416
 2061 Fit       0.010897
 2062 Fit       0.010235
 2063 Fit      -0.021534
 2064 Fit      -0.017625
 2065 Fit      -0.018285
 2066 Fit      -0.024284
 2067 Fit      -0.023135
 2068 Fit      -0.019401
 2069 Fit      -0.011728
 2070 Fit      -0.013471
 2071 Fit      -0.020497
 2072 Fit      -0.023662
 2073 Fit      -0.021386
 2074 Fit      -0.020840
 2075 Fit      -0.019183
 2076 Fit      -0.014570
 2077 Fit      -0.016426
 2078 Fit      -0.020466
 2079 Fit      -0.021503
 2080 Fit      -0.013103
 2081 Fit      -0.012791
 2082 Fit      -0.012352
 2083 Fit      -0.010452
 2084 Fit      -0.012650
 2085 Fit      -0.014098
 2086 Fit      -0.013746
 2087 Fit       0.000156
 2088 Fit       0.000981
 2089 Fit      -0.001838
 2090 Fit      -0.002598
 2091 Fit      -0.001314
 2092 Fit       0.004683
 2093 Fit       0.004999
 2094 Fit       0.005178
 2095 Fit       0.006029
 2096 Fit       0.002997
 2097 Fit       0.003853
 2098 Fit       0.014122
 2099 Fit       0.014572
 2100 Fit       0.015400
 2101 Fit       0.014063
 2102 Fit       0.013731
 2103 Fit       0.020124
 2104 Fit       0.021161
 2105 Fit       0.020613
 2106 Fit       0.023965
 2107 Fit       0.000739
 2108 Fit       0.001088
 2109 Fit       0.001573
 2110 Fit       0.001334
 2111 Fit      -0.000436
 2112 Fit      -0.000164
 2113 Fit       0.002246
 2114 Fit       0.001788
 2115 Fit       0.001194
 2116 Fit      -0.000128
 2117 Fit      -0.000877
 2118 Fit      -0.001683
 2119 Fit      -0.001614
 2120 Fit      -0.001793
 2121 Fit      -0.000004
 2122 Fit       0.001086
 2123 Fit      -0.000117
 2124 Fit       0.001936
 2125 Fit       0.000663
 2126 Fit       0.001806
 2127 Fit       0.000379
 2128 Fit      -0.001011
 2129 Fit      -0.000323
 2130 Fit      -0.001381
 2131 Fit      -0.001324
 2132 Fit       0.001707
 2133 Fit      -0.001158
 2134 Fit      -0.001295
 2135 Fit      -0.000649
 2136 Fit       0.000150
 2137 Fit       0.000726
 2138 Fit      -0.000229
 2139 Fit      -0.003116
 2140 Fit      -0.001809
 2141 Fit      -0.001168
 2142 Fit      -0.001970
 2143 Fit      -0.001271
 2144 Fit      -0.000452
 2145 Fit      -0.000751
 2146 Fit      -0.000159
 2147 Fit       0.000540
 2148 Fit       0.001226
 2149 Fit      -0.000372
 2150 Fit       0.000210
 2151 Fit       0.000774
 2152 Fit       0.001255
 2153 Fit      -0.000577
 2154 Fit      -0.000053
 2155 Fit       0.001105
 2156 Fit       0.001422
 2157 Fit       0.001063
 2158 Fit       0.001462
 2159 Fit       0.001119
 2160 Fit       0.000485
 2161 Fit      -0.000565
 2162 Fit       0.000532
 2163 Fit       0.000200
 2164 Fit      -0.000605
 2165 Fit      -0.001808
 2166 Fit      -0.000257
 2167 Fit      -0.000305
 2168 Fit      -0.000746
 2169 Fit       0.000114
 2170 Fit      -0.000352
 2171 Fit       0.000371
 2172 Fit      -0.000862
 2173 Fit      -0.000249
 2174 Fit      -0.001397
 2175 Fit      -0.002640
 2176 Fit      -0.002559
 2177 Fit      -0.002284
 2178 Fit      -0.003044
 2179 Fit      -0.003142
 2180 Fit      -0.001886
 2181 Fit      -0.002899
 2182 Fit      -0.003116
 2183 Fit      -0.003238
 2184 Fit      -0.002719
 2185 Fit      -0.002807
 2186 Fit      -0.002848
 2187 Fit      -0.003070
 2188 Fit      -0.002495
 2189 Fit      -0.002642
 2190 Fit      -0.001393
 2191 Fit      -0.000878
 2192 Fit      -0.001184
 2193 Fit      -0.002184
 2194 Fit      -0.000098
 2195 Fit       0.000325
 2196 Fit      -0.000072
 2197 Fit      -0.001227
 2198 Fit       0.001081
 2199 Fit       0.000957
 2200 Fit       0.000030
 2201 Fit      -0.001192
 2202 Fit      -0.001198
 2203 Fit      -0.002166
 2204 Fit      -0.000599
 2205 Fit       0.000195
 2206 Fit      -0.000055
 2207 Fit      -0.001068
 2208 Fit      -0.001870
 2209 Fit      -0.000363
 2210 Fit       0.000612
 2211 Fit       0.000764
 2212 Fit       0.000069
 2213 Fit      -0.002510
 2214 Fit      -0.000929
 2215 Fit       0.000594
 2216 Fit      -0.000514
 2217 Fit      -0.000017
 2218 Fit       0.000760
 2219 Fit      -0.000072
 2220 Fit      -0.001552
 2221 Fit      -0.002219
 2222 Fit      -0.001542
 2223 Fit      -0.000002
 2224 Fit       0.001135
 2225 Fit       0.001321
 2226 Fit       0.000433
 2227 Fit      -0.000923
 2228 Fit      -0.002348
 2229 Fit      -0.000704
 2230 Fit      -0.002015
 2231 Fit      -0.001628
 2232 Fit      -0.002863
 2233 Fit      -0.002843
 2234 Fit      -0.003111
 2235 Fit      -0.003000
 2236 Fit      -0.003071
 2237 Fit      -0.003435
 2238 Fit      -0.003434
 2239 Fit      -0.003564
 2240 Fit      -0.003401
 2241 Fit      -0.003623
 2242 Fit      -0.003094
 2243 Fit      -0.002101
 2244 Fit      -0.000445
 2245 Fit      -0.002276
 2246 Fit       0.001466
 2247 Fit       0.001074
 2248 Fit       0.000091
 2249 Fit      -0.001386
 2250 Fit      -0.002977
 2251 Fit      -0.000486
 2252 Fit       0.000550
 2253 Fit       0.000432
 2254 Fit      -0.000646
 2255 Fit      -0.002319
 2256 Fit      -0.000691
 2257 Fit      -0.000800
 2258 Fit      -0.002359
 2259 Fit      -0.001960
 2260 Fit       0.000587
 2261 Fit       0.000745
 2262 Fit       0.000000
 2263 Fit      -0.000968
 2264 Fit      -0.001707
 2265 Fit      -0.000375
 2266 Fit       0.000050
 2267 Fit      -0.000447
 2268 Fit      -0.001592
 2269 Fit      -0.002626
 2270 Fit      -0.001514
 2271 Fit      -0.001118
 2272 Fit      -0.001634
 2273 Fit      -0.002820
 2274 Fit      -0.003038
 2275 Fit      -0.002736
 2276 Fit      -0.003356
 2277 Fit      -0.002528
 2278 Fit      -0.001926
 2279 Fit      -0.000129
 2280 Fit       0.000946
 2281 Fit      -0.000975
 2282 Fit      -0.002392
 2283 Fit      -0.000850
 2284 Fit      -0.000665
 -----------------------------------------------------------------
 Leave Link  602 at Thu Apr 27 16:39:22 2017, MaxMem=    33554432 cpu:         3.5
 (Enter /home/michal/g09/l9999.exe)

 Test job not archived.
 1\1\GINC-LINUX\SP\RHF\6-31G(d)\C27H46O3\MICHAL\27-Apr-2017\0\\#P HF/6-
 31G* SCF(Conver=6) NoSymm Test Pop=mk IOp(6/33=2) GFInput GFPrint\\MEP
  - Input generated by R.E.D.-III.x MOLECULE\\0,1\C,0,7.51574336,2.2179
 4767,0.07342251\H,0,7.35131876,2.18885324,1.15751624\C,0,6.82247382,1.
 00877945,-0.57029609\H,0,7.20516247,0.08331223,-0.12850638\H,0,7.10600
 247,0.99196477,-1.63526772\C,0,5.31131677,1.06298518,-0.45174713\C,0,4
 .6160047,2.36054591,-0.87858489\C,0,5.40853705,3.56644677,-0.28415483\
 H,0,5.20838521,3.6115626,0.79542931\H,0,5.02375073,4.49903267,-0.70957
 493\C,0,6.93022555,3.51239638,-0.48863597\H,0,7.17789063,3.58261843,-1
 .55830657\H,0,7.40368108,4.37153888,0.\C,0,4.63220035,0.,0.\H,0,5.1762
 4549,-0.89046532,0.31683533\C,0,3.1389539,-0.10072167,0.10608362\H,0,2
 .85389447,-0.19725773,1.16641333\C,0,2.37456378,1.06886932,-0.53254454
 \H,0,2.31602449,0.85799881,-1.60587493\C,0,3.15590497,2.39290141,-0.30
 568495\H,0,3.27138137,2.49328529,0.78641683\C,0,2.33932144,3.61692079,
 -0.77876064\H,0,2.28966615,3.62802124,-1.87300434\H,0,2.8569343,4.5383
 2982,-0.49025295\C,0,0.90492008,3.6711661,-0.21804655\H,0,0.94464168,3
 .81140499,0.87196388\H,0,0.40693683,4.55589014,-0.62657849\C,0,0.11850
 68,2.38013605,-0.52095933\C,0,0.95735834,1.20113742,0.05283593\H,0,1.0
 9720776,1.44341917,1.12132913\C,0,0.,0.,0.\H,0,0.27614502,-0.787895,0.
 70536947\H,0,0.01352067,-0.46150602,-0.99263849\C,0,-1.38530679,0.6236
 1375,0.31879449\H,0,-2.13660567,0.29893789,-0.41117523\H,0,-1.74751509
 ,0.29728894,1.29846964\C,0,-1.21846037,2.18092648,0.2755853\H,0,-1.016
 17032,2.5299756,1.30102492\C,0,-0.13461213,2.23563141,-2.03943364\H,0,
 0.79358135,2.15969075,-2.61137581\H,0,-0.72788286,1.34659418,-2.271863
 7\H,0,-0.68130226,3.1026878,-2.42436105\C,0,-2.50617394,2.90645982,-0.
 19487866\H,0,-2.76361765,2.51757309,-1.19189216\C,0,-2.3378231,4.43262
 688,-0.30641254\H,0,-1.96144749,4.85349171,0.63439151\H,0,-3.29107868,
 4.92196865,-0.52823783\H,0,-1.64341058,4.7166883,-1.10042557\C,0,4.630
 34935,2.4383956,-2.42856603\H,0,4.2739848,3.41125391,-2.78098065\H,0,5
 .6395874,2.30207155,-2.82678526\H,0,4.00141982,1.65919567,-2.86871527\
 O,0,2.68662301,-1.39253289,-0.37376471\O,0,2.93618771,-1.48393108,-1.8
 0754399\H,0,3.73127085,-2.04156374,-1.82195214\O,0,8.93728757,2.150430
 47,-0.06640126\H,0,9.15927889,2.20325219,-1.00668111\C,0,-3.69068601,2
 .56984234,0.74763507\H,0,-3.66285509,1.50480803,0.99642282\H,0,-3.5476
 8825,3.10778197,1.69793218\C,0,-5.0818052,2.89898883,0.18134473\H,0,-5
 .12171707,3.95134159,-0.1247682\H,0,-5.2420519,2.31613659,-0.7359121\C
 ,0,-6.24217096,2.66007027,1.16574945\H,0,-7.17453229,3.01207769,0.6995
 8911\H,0,-6.08639709,3.29776387,2.04803944\C,0,-6.46528692,1.21028309,
 1.64687938\H,0,-5.54236132,0.86078229,2.13125569\C,0,-7.58146938,1.169
 33887,2.70301241\H,0,-8.53589534,1.50424783,2.27657786\H,0,-7.72831319
 ,0.15383577,3.08827756\H,0,-7.35072522,1.8208731,3.55374875\C,0,-6.783
 47351,0.25047589,0.4895147\H,0,-7.68866994,0.57005176,-0.04325671\H,0,
 -6.95842699,-0.76575835,0.86068081\H,0,-5.9688947,0.19803813,-0.240065
 26\\Version=EM64L-G09RevD.01\HF=-1273.6832187\RMSD=5.123e-07\Dipole=0.
 3074087,0.4860625,-0.4097879\Quadrupole=-5.7023548,3.1158165,2.5865383
 ,-0.5045937,-10.5533707,-2.4691631\PG=C01 [X(C27H46O3)]\\@


 HE WHO LOVES TO READ, AND KNOWS HOW TO REFLECT,
 HAS LAID BY A PERPETUAL FEAST FOR HIS OLD AGE.
 -- UNCLE ESEK, "SCRIBNER'S MONTHLY", SEPT. 1880
 Job cpu time:       0 days  0 hours 11 minutes 46.0 seconds.
 File lengths (MBytes):  RWF=    159 Int=      0 D2E=      0 Chk=     11 Scr=      1
 Normal termination of Gaussian 09 at Thu Apr 27 16:39:22 2017.
