 Entering Gaussian System, Link 0=/home/michal/g09/g09
 Input=JOB2-gau_m1-24-2.com
 Output=JOB2-gau_m1-24-2.log
 Initial command:
 /home/michal/g09/l1.exe "/home/michal/gauss_scratch/Gau-6333.inp" -scrdir="/home/michal/gauss_scratch/"
 Entering Link 1 = /home/michal/g09/l1.exe PID=      6334.
  
 Copyright (c) 1988,1990,1992,1993,1995,1998,2003,2009,2013,
            Gaussian, Inc.  All Rights Reserved.
  
 This is part of the Gaussian(R) 09 program.  It is based on
 the Gaussian(R) 03 system (copyright 2003, Gaussian, Inc.),
 the Gaussian(R) 98 system (copyright 1998, Gaussian, Inc.),
 the Gaussian(R) 94 system (copyright 1995, Gaussian, Inc.),
 the Gaussian 92(TM) system (copyright 1992, Gaussian, Inc.),
 the Gaussian 90(TM) system (copyright 1990, Gaussian, Inc.),
 the Gaussian 88(TM) system (copyright 1988, Gaussian, Inc.),
 the Gaussian 86(TM) system (copyright 1986, Carnegie Mellon
 University), and the Gaussian 82(TM) system (copyright 1983,
 Carnegie Mellon University). Gaussian is a federally registered
 trademark of Gaussian, Inc.
  
 This software contains proprietary and confidential information,
 including trade secrets, belonging to Gaussian, Inc.
  
 This software is provided under written license and may be
 used, copied, transmitted, or stored only in accord with that
 written license.
  
 The following legend is applicable only to US Government
 contracts under FAR:
  
                    RESTRICTED RIGHTS LEGEND
  
 Use, reproduction and disclosure by the US Government is
 subject to restrictions as set forth in subparagraphs (a)
 and (c) of the Commercial Computer Software - Restricted
 Rights clause in FAR 52.227-19.
  
 Gaussian, Inc.
 340 Quinnipiac St., Bldg. 40, Wallingford CT 06492
  
  
 ---------------------------------------------------------------
 Warning -- This program may not be used in any manner that
 competes with the business of Gaussian, Inc. or will provide
 assistance to any competitor of Gaussian, Inc.  The licensee
 of this program is prohibited from giving any competitor of
 Gaussian, Inc. access to this program.  By using this program,
 the user acknowledges that Gaussian, Inc. is engaged in the
 business of creating and licensing software in the field of
 computational chemistry and represents and warrants to the
 licensee that it is not a competitor of Gaussian, Inc. and that
 it will not use this program in any manner prohibited above.
 ---------------------------------------------------------------
  

 Cite this work as:
 Gaussian 09, Revision D.01,
 M. J. Frisch, G. W. Trucks, H. B. Schlegel, G. E. Scuseria, 
 M. A. Robb, J. R. Cheeseman, G. Scalmani, V. Barone, B. Mennucci, 
 G. A. Petersson, H. Nakatsuji, M. Caricato, X. Li, H. P. Hratchian, 
 A. F. Izmaylov, J. Bloino, G. Zheng, J. L. Sonnenberg, M. Hada, 
 M. Ehara, K. Toyota, R. Fukuda, J. Hasegawa, M. Ishida, T. Nakajima, 
 Y. Honda, O. Kitao, H. Nakai, T. Vreven, J. A. Montgomery, Jr., 
 J. E. Peralta, F. Ogliaro, M. Bearpark, J. J. Heyd, E. Brothers, 
 K. N. Kudin, V. N. Staroverov, T. Keith, R. Kobayashi, J. Normand, 
 K. Raghavachari, A. Rendell, J. C. Burant, S. S. Iyengar, J. Tomasi, 
 M. Cossi, N. Rega, J. M. Millam, M. Klene, J. E. Knox, J. B. Cross, 
 V. Bakken, C. Adamo, J. Jaramillo, R. Gomperts, R. E. Stratmann, 
 O. Yazyev, A. J. Austin, R. Cammi, C. Pomelli, J. W. Ochterski, 
 R. L. Martin, K. Morokuma, V. G. Zakrzewski, G. A. Voth, 
 P. Salvador, J. J. Dannenberg, S. Dapprich, A. D. Daniels, 
 O. Farkas, J. B. Foresman, J. V. Ortiz, J. Cioslowski, 
 and D. J. Fox, Gaussian, Inc., Wallingford CT, 2013.
 
 ******************************************
 Gaussian 09:  EM64L-G09RevD.01 24-Apr-2013
                27-Apr-2017 
 ******************************************
 %Mem=256MB
 %NProc=12
 Will use up to   12 processors via shared memory.
 ----------------------------------------------------------------------
 #P HF/6-31G* SCF(Conver=6) NoSymm Test Pop=mk IOp(6/33=2) GFInput GFPr
 int
 ----------------------------------------------------------------------
 1/38=1/1;
 2/12=2,15=1,17=6,18=5,40=1/2;
 3/5=1,6=6,7=1,11=9,16=1,24=110,25=1,30=1/1,2,3;
 4//1;
 5/5=2,6=6,38=5/2;
 6/7=2,8=2,9=2,10=2,15=8,20=1,28=1,33=2/1,2;
 99/5=1,9=1/99;
 Leave Link    1 at Thu Apr 27 16:34:03 2017, MaxMem=    33554432 cpu:         0.6
 (Enter /home/michal/g09/l101.exe)
 ----------------------------------------------
 MEP - Input generated by R.E.D.-III.x MOLECULE
 ----------------------------------------------
 Symbolic Z-matrix:
 Charge =  0 Multiplicity = 1
 C                     7.51712   2.2162    0.0705 
 H                     7.35527   2.18606   1.15496 
 C                     6.82171   1.00806  -0.57285 
 H                     7.20456   0.08195  -0.13252 
 H                     7.10329   0.99181  -1.63835 
 C                     5.31078   1.06302  -0.45169 
 C                     4.61558   2.36142  -0.87597 
 C                     5.40964   3.56588  -0.28079 
 H                     5.21193   3.60876   0.79933 
 H                     5.02405   4.49947  -0.70338 
 C                     6.93095   3.5116   -0.48872 
 H                     7.17626   3.58311  -1.55884 
 H                     7.40581   4.36992   0. 
 C                     4.63172   0.        0. 
 H                     5.17569  -0.89109   0.31517 
 C                     3.13853  -0.10021   0.10744 
 H                     2.85409  -0.19663   1.16794 
 C                     2.37426   1.06988  -0.53059 
 H                     2.31626   0.86003  -1.60418 
 C                     3.15599   2.39334  -0.30164 
 H                     3.27243   2.4913    0.79058 
 C                     2.33986   3.619    -0.77133 
 H                     2.29176   3.63419  -1.86561 
 H                     2.8572    4.5393   -0.47876 
 C                     0.90443   3.67148  -0.21275 
 H                     0.94194   3.80909   0.87767 
 H                     0.40807   4.55772  -0.61993 
 C                     0.11831   2.38129  -0.52017 
 C                     0.95665   1.20176   0.05375 
 H                     1.09557   1.44389   1.12235 
 C                     0.        0.        0. 
 H                     0.27351  -0.78511   0.70954 
 H                     0.01887  -0.46516  -0.99086 
 C                    -1.3878    0.62293   0.30907 
 H                    -2.13108   0.30276  -0.43094 
 H                    -1.76252   0.29321   1.28288 
 C                    -1.2199    2.17984   0.27363 
 H                    -1.01805   2.52389   1.30089 
 C                    -0.13188   2.24021  -2.03931 
 H                     0.79734   2.16667  -2.60989 
 H                    -0.72384   1.35111  -2.2749 
 H                    -0.67877   3.10794  -2.42276 
 C                    -2.50905   2.90632  -0.19329 
 H                    -2.75724   2.52498  -1.19373 
 C                    -2.3498    4.43303  -0.29295 
 H                    -2.02569   4.85834   0.66547 
 H                    -3.29494   4.9134   -0.56366 
 H                    -1.6189    4.72294  -1.05084 
 C                     4.62825   2.44133  -2.42586 
 H                     4.27291   3.41516  -2.77662 
 H                     5.6368    2.30402  -2.8254 
 H                     3.99775   1.66358  -2.8663 
 O                     2.68558  -1.39184  -0.3721 
 O                     2.93511  -1.48341  -1.80596 
 H                     3.72723  -2.04521  -1.82028 
 O                     8.9383    2.14807  -0.07283 
 H                     9.15793   2.20129  -1.01365 
 C                    -3.68167   2.54851   0.75607 
 H                    -3.74983   1.45835   0.84748 
 H                    -3.43256   2.92247   1.76057 
 C                    -5.0805    3.07234   0.37305 
 H                    -5.76809   2.77774   1.17594 
 H                    -5.08548   4.1686    0.36537 
 C                    -5.60487   2.53509  -0.96888 
 H                    -5.51384   1.43884  -0.96729 
 H                    -4.9569    2.8906   -1.78119 
 C                    -7.06459   2.89963  -1.33032 
 H                    -7.25125   2.45053  -2.31711 
 C                    -8.08931   2.29031  -0.35895 
 H                    -8.01501   2.73337   0.6408 
 H                    -9.11172   2.46074  -0.71521 
 H                    -7.94751   1.20795  -0.25684 
 C                    -7.2769    4.41566  -1.47718 
 H                    -7.16883   4.93346  -0.51712 
 H                    -8.28247   4.6339   -1.85457 
 H                    -6.55558   4.8539   -2.17707 
 
 NAtoms=     76 NQM=       76 NQMF=       0 NMMI=      0 NMMIF=      0
                NMic=       0 NMicF=      0.
                    Isotopes and Nuclear Properties:
 (Nuclear quadrupole moments (NQMom) in fm**2, nuclear magnetic moments (NMagM)
  in nuclear magnetons)

  Atom         1           2           3           4           5           6           7           8           9          10
 IAtWgt=          12           1          12           1           1          12          12          12           1           1
 AtmWgt=  12.0000000   1.0078250  12.0000000   1.0078250   1.0078250  12.0000000  12.0000000  12.0000000   1.0078250   1.0078250
 NucSpn=           0           1           0           1           1           0           0           0           1           1
 AtZEff=   0.0000000   0.0000000   0.0000000   0.0000000   0.0000000   0.0000000   0.0000000   0.0000000   0.0000000   0.0000000
 NQMom=    0.0000000   0.0000000   0.0000000   0.0000000   0.0000000   0.0000000   0.0000000   0.0000000   0.0000000   0.0000000
 NMagM=    0.0000000   2.7928460   0.0000000   2.7928460   2.7928460   0.0000000   0.0000000   0.0000000   2.7928460   2.7928460
 AtZNuc=   6.0000000   1.0000000   6.0000000   1.0000000   1.0000000   6.0000000   6.0000000   6.0000000   1.0000000   1.0000000

  Atom        11          12          13          14          15          16          17          18          19          20
 IAtWgt=          12           1           1          12           1          12           1          12           1          12
 AtmWgt=  12.0000000   1.0078250   1.0078250  12.0000000   1.0078250  12.0000000   1.0078250  12.0000000   1.0078250  12.0000000
 NucSpn=           0           1           1           0           1           0           1           0           1           0
 AtZEff=   0.0000000   0.0000000   0.0000000   0.0000000   0.0000000   0.0000000   0.0000000   0.0000000   0.0000000   0.0000000
 NQMom=    0.0000000   0.0000000   0.0000000   0.0000000   0.0000000   0.0000000   0.0000000   0.0000000   0.0000000   0.0000000
 NMagM=    0.0000000   2.7928460   2.7928460   0.0000000   2.7928460   0.0000000   2.7928460   0.0000000   2.7928460   0.0000000
 AtZNuc=   6.0000000   1.0000000   1.0000000   6.0000000   1.0000000   6.0000000   1.0000000   6.0000000   1.0000000   6.0000000

  Atom        21          22          23          24          25          26          27          28          29          30
 IAtWgt=           1          12           1           1          12           1           1          12          12           1
 AtmWgt=   1.0078250  12.0000000   1.0078250   1.0078250  12.0000000   1.0078250   1.0078250  12.0000000  12.0000000   1.0078250
 NucSpn=           1           0           1           1           0           1           1           0           0           1
 AtZEff=   0.0000000   0.0000000   0.0000000   0.0000000   0.0000000   0.0000000   0.0000000   0.0000000   0.0000000   0.0000000
 NQMom=    0.0000000   0.0000000   0.0000000   0.0000000   0.0000000   0.0000000   0.0000000   0.0000000   0.0000000   0.0000000
 NMagM=    2.7928460   0.0000000   2.7928460   2.7928460   0.0000000   2.7928460   2.7928460   0.0000000   0.0000000   2.7928460
 AtZNuc=   1.0000000   6.0000000   1.0000000   1.0000000   6.0000000   1.0000000   1.0000000   6.0000000   6.0000000   1.0000000

  Atom        31          32          33          34          35          36          37          38          39          40
 IAtWgt=          12           1           1          12           1           1          12           1          12           1
 AtmWgt=  12.0000000   1.0078250   1.0078250  12.0000000   1.0078250   1.0078250  12.0000000   1.0078250  12.0000000   1.0078250
 NucSpn=           0           1           1           0           1           1           0           1           0           1
 AtZEff=   0.0000000   0.0000000   0.0000000   0.0000000   0.0000000   0.0000000   0.0000000   0.0000000   0.0000000   0.0000000
 NQMom=    0.0000000   0.0000000   0.0000000   0.0000000   0.0000000   0.0000000   0.0000000   0.0000000   0.0000000   0.0000000
 NMagM=    0.0000000   2.7928460   2.7928460   0.0000000   2.7928460   2.7928460   0.0000000   2.7928460   0.0000000   2.7928460
 AtZNuc=   6.0000000   1.0000000   1.0000000   6.0000000   1.0000000   1.0000000   6.0000000   1.0000000   6.0000000   1.0000000

  Atom        41          42          43          44          45          46          47          48          49          50
 IAtWgt=           1           1          12           1          12           1           1           1          12           1
 AtmWgt=   1.0078250   1.0078250  12.0000000   1.0078250  12.0000000   1.0078250   1.0078250   1.0078250  12.0000000   1.0078250
 NucSpn=           1           1           0           1           0           1           1           1           0           1
 AtZEff=   0.0000000   0.0000000   0.0000000   0.0000000   0.0000000   0.0000000   0.0000000   0.0000000   0.0000000   0.0000000
 NQMom=    0.0000000   0.0000000   0.0000000   0.0000000   0.0000000   0.0000000   0.0000000   0.0000000   0.0000000   0.0000000
 NMagM=    2.7928460   2.7928460   0.0000000   2.7928460   0.0000000   2.7928460   2.7928460   2.7928460   0.0000000   2.7928460
 AtZNuc=   1.0000000   1.0000000   6.0000000   1.0000000   6.0000000   1.0000000   1.0000000   1.0000000   6.0000000   1.0000000

  Atom        51          52          53          54          55          56          57          58          59          60
 IAtWgt=           1           1          16          16           1          16           1          12           1           1
 AtmWgt=   1.0078250   1.0078250  15.9949146  15.9949146   1.0078250  15.9949146   1.0078250  12.0000000   1.0078250   1.0078250
 NucSpn=           1           1           0           0           1           0           1           0           1           1
 AtZEff=   0.0000000   0.0000000   0.0000000   0.0000000   0.0000000   0.0000000   0.0000000   0.0000000   0.0000000   0.0000000
 NQMom=    0.0000000   0.0000000   0.0000000   0.0000000   0.0000000   0.0000000   0.0000000   0.0000000   0.0000000   0.0000000
 NMagM=    2.7928460   2.7928460   0.0000000   0.0000000   2.7928460   0.0000000   2.7928460   0.0000000   2.7928460   2.7928460
 AtZNuc=   1.0000000   1.0000000   8.0000000   8.0000000   1.0000000   8.0000000   1.0000000   6.0000000   1.0000000   1.0000000

  Atom        61          62          63          64          65          66          67          68          69          70
 IAtWgt=          12           1           1          12           1           1          12           1          12           1
 AtmWgt=  12.0000000   1.0078250   1.0078250  12.0000000   1.0078250   1.0078250  12.0000000   1.0078250  12.0000000   1.0078250
 NucSpn=           0           1           1           0           1           1           0           1           0           1
 AtZEff=   0.0000000   0.0000000   0.0000000   0.0000000   0.0000000   0.0000000   0.0000000   0.0000000   0.0000000   0.0000000
 NQMom=    0.0000000   0.0000000   0.0000000   0.0000000   0.0000000   0.0000000   0.0000000   0.0000000   0.0000000   0.0000000
 NMagM=    0.0000000   2.7928460   2.7928460   0.0000000   2.7928460   2.7928460   0.0000000   2.7928460   0.0000000   2.7928460
 AtZNuc=   6.0000000   1.0000000   1.0000000   6.0000000   1.0000000   1.0000000   6.0000000   1.0000000   6.0000000   1.0000000

  Atom        71          72          73          74          75          76
 IAtWgt=           1           1          12           1           1           1
 AtmWgt=   1.0078250   1.0078250  12.0000000   1.0078250   1.0078250   1.0078250
 NucSpn=           1           1           0           1           1           1
 AtZEff=   0.0000000   0.0000000   0.0000000   0.0000000   0.0000000   0.0000000
 NQMom=    0.0000000   0.0000000   0.0000000   0.0000000   0.0000000   0.0000000
 NMagM=    2.7928460   2.7928460   0.0000000   2.7928460   2.7928460   2.7928460
 AtZNuc=   1.0000000   1.0000000   6.0000000   1.0000000   1.0000000   1.0000000
 Leave Link  101 at Thu Apr 27 16:34:03 2017, MaxMem=    33554432 cpu:         1.0
 (Enter /home/michal/g09/l202.exe)
 Symmetry turned off by external request.
 Stoichiometry    C27H46O3
 Framework group  C1[X(C27H46O3)]
 Deg. of freedom   222
 Full point group                 C1      NOp   1
                          Input orientation:                          
 ---------------------------------------------------------------------
 Center     Atomic      Atomic             Coordinates (Angstroms)
 Number     Number       Type             X           Y           Z
 ---------------------------------------------------------------------
      1          6           0        7.517115    2.216196    0.070504
      2          1           0        7.355274    2.186064    1.154961
      3          6           0        6.821710    1.008057   -0.572849
      4          1           0        7.204556    0.081955   -0.132516
      5          1           0        7.103285    0.991811   -1.638353
      6          6           0        5.310779    1.063025   -0.451688
      7          6           0        4.615579    2.361423   -0.875974
      8          6           0        5.409642    3.565883   -0.280794
      9          1           0        5.211930    3.608763    0.799331
     10          1           0        5.024047    4.499465   -0.703383
     11          6           0        6.930950    3.511596   -0.488717
     12          1           0        7.176262    3.583115   -1.558842
     13          1           0        7.405809    4.369919    0.000000
     14          6           0        4.631716    0.000000    0.000000
     15          1           0        5.175691   -0.891094    0.315170
     16          6           0        3.138527   -0.100214    0.107435
     17          1           0        2.854089   -0.196631    1.167945
     18          6           0        2.374260    1.069876   -0.530592
     19          1           0        2.316261    0.860025   -1.604179
     20          6           0        3.155989    2.393338   -0.301636
     21          1           0        3.272428    2.491301    0.790577
     22          6           0        2.339862    3.619001   -0.771333
     23          1           0        2.291763    3.634186   -1.865612
     24          1           0        2.857196    4.539297   -0.478763
     25          6           0        0.904434    3.671478   -0.212747
     26          1           0        0.941940    3.809090    0.877667
     27          1           0        0.408070    4.557721   -0.619931
     28          6           0        0.118307    2.381295   -0.520173
     29          6           0        0.956648    1.201760    0.053751
     30          1           0        1.095572    1.443890    1.122351
     31          6           0        0.000000    0.000000    0.000000
     32          1           0        0.273506   -0.785111    0.709538
     33          1           0        0.018872   -0.465156   -0.990863
     34          6           0       -1.387800    0.622930    0.309072
     35          1           0       -2.131079    0.302757   -0.430943
     36          1           0       -1.762520    0.293206    1.282876
     37          6           0       -1.219895    2.179836    0.273629
     38          1           0       -1.018050    2.523888    1.300889
     39          6           0       -0.131879    2.240215   -2.039312
     40          1           0        0.797344    2.166672   -2.609895
     41          1           0       -0.723837    1.351113   -2.274905
     42          1           0       -0.678774    3.107937   -2.422764
     43          6           0       -2.509051    2.906323   -0.193292
     44          1           0       -2.757244    2.524978   -1.193727
     45          6           0       -2.349798    4.433027   -0.292948
     46          1           0       -2.025687    4.858336    0.665467
     47          1           0       -3.294936    4.913405   -0.563659
     48          1           0       -1.618899    4.722935   -1.050841
     49          6           0        4.628245    2.441335   -2.425856
     50          1           0        4.272911    3.415161   -2.776616
     51          1           0        5.636805    2.304021   -2.825397
     52          1           0        3.997747    1.663578   -2.866303
     53          8           0        2.685580   -1.391836   -0.372096
     54          8           0        2.935106   -1.483408   -1.805962
     55          1           0        3.727226   -2.045209   -1.820279
     56          8           0        8.938302    2.148069   -0.072834
     57          1           0        9.157930    2.201290   -1.013646
     58          6           0       -3.681668    2.548506    0.756068
     59          1           0       -3.749834    1.458346    0.847477
     60          1           0       -3.432560    2.922473    1.760575
     61          6           0       -5.080501    3.072336    0.373051
     62          1           0       -5.768087    2.777735    1.175944
     63          1           0       -5.085475    4.168599    0.365365
     64          6           0       -5.604867    2.535092   -0.968882
     65          1           0       -5.513843    1.438836   -0.967292
     66          1           0       -4.956896    2.890602   -1.781186
     67          6           0       -7.064594    2.899633   -1.330320
     68          1           0       -7.251248    2.450525   -2.317109
     69          6           0       -8.089307    2.290308   -0.358946
     70          1           0       -8.015008    2.733366    0.640805
     71          1           0       -9.111722    2.460735   -0.715208
     72          1           0       -7.947511    1.207949   -0.256842
     73          6           0       -7.276897    4.415664   -1.477176
     74          1           0       -7.168827    4.933462   -0.517124
     75          1           0       -8.282474    4.633904   -1.854573
     76          1           0       -6.555576    4.853895   -2.177070
 ---------------------------------------------------------------------
 Rotational constants (GHZ):      0.4085164      0.0538373      0.0501667
 Leave Link  202 at Thu Apr 27 16:34:03 2017, MaxMem=    33554432 cpu:         0.0
 (Enter /home/michal/g09/l301.exe)
 Standard basis: 6-31G(d) (6D, 7F)
 Ernie: Thresh=  0.10000D-02 Tol=  0.10000D-05 Strict=F.
 AO basis set in the form of general basis input (Overlap normalization):
      1 0
 S   6 1.00       0.000000000000
      0.3047524880D+04  0.1834737132D-02
      0.4573695180D+03  0.1403732281D-01
      0.1039486850D+03  0.6884262226D-01
      0.2921015530D+02  0.2321844432D+00
      0.9286662960D+01  0.4679413484D+00
      0.3163926960D+01  0.3623119853D+00
 SP   3 1.00       0.000000000000
      0.7868272350D+01 -0.1193324198D+00  0.6899906659D-01
      0.1881288540D+01 -0.1608541517D+00  0.3164239610D+00
      0.5442492580D+00  0.1143456438D+01  0.7443082909D+00
 SP   1 1.00       0.000000000000
      0.1687144782D+00  0.1000000000D+01  0.1000000000D+01
 D   1 1.00       0.000000000000
      0.8000000000D+00  0.1000000000D+01
 ****
      2 0
 S   3 1.00       0.000000000000
      0.1873113696D+02  0.3349460434D-01
      0.2825394365D+01  0.2347269535D+00
      0.6401216923D+00  0.8137573261D+00
 S   1 1.00       0.000000000000
      0.1612777588D+00  0.1000000000D+01
 ****
      3 0
 S   6 1.00       0.000000000000
      0.3047524880D+04  0.1834737132D-02
      0.4573695180D+03  0.1403732281D-01
      0.1039486850D+03  0.6884262226D-01
      0.2921015530D+02  0.2321844432D+00
      0.9286662960D+01  0.4679413484D+00
      0.3163926960D+01  0.3623119853D+00
 SP   3 1.00       0.000000000000
      0.7868272350D+01 -0.1193324198D+00  0.6899906659D-01
      0.1881288540D+01 -0.1608541517D+00  0.3164239610D+00
      0.5442492580D+00  0.1143456438D+01  0.7443082909D+00
 SP   1 1.00       0.000000000000
      0.1687144782D+00  0.1000000000D+01  0.1000000000D+01
 D   1 1.00       0.000000000000
      0.8000000000D+00  0.1000000000D+01
 ****
      4 0
 S   3 1.00       0.000000000000
      0.1873113696D+02  0.3349460434D-01
      0.2825394365D+01  0.2347269535D+00
      0.6401216923D+00  0.8137573261D+00
 S   1 1.00       0.000000000000
      0.1612777588D+00  0.1000000000D+01
 ****
      5 0
 S   3 1.00       0.000000000000
      0.1873113696D+02  0.3349460434D-01
      0.2825394365D+01  0.2347269535D+00
      0.6401216923D+00  0.8137573261D+00
 S   1 1.00       0.000000000000
      0.1612777588D+00  0.1000000000D+01
 ****
      6 0
 S   6 1.00       0.000000000000
      0.3047524880D+04  0.1834737132D-02
      0.4573695180D+03  0.1403732281D-01
      0.1039486850D+03  0.6884262226D-01
      0.2921015530D+02  0.2321844432D+00
      0.9286662960D+01  0.4679413484D+00
      0.3163926960D+01  0.3623119853D+00
 SP   3 1.00       0.000000000000
      0.7868272350D+01 -0.1193324198D+00  0.6899906659D-01
      0.1881288540D+01 -0.1608541517D+00  0.3164239610D+00
      0.5442492580D+00  0.1143456438D+01  0.7443082909D+00
 SP   1 1.00       0.000000000000
      0.1687144782D+00  0.1000000000D+01  0.1000000000D+01
 D   1 1.00       0.000000000000
      0.8000000000D+00  0.1000000000D+01
 ****
      7 0
 S   6 1.00       0.000000000000
      0.3047524880D+04  0.1834737132D-02
      0.4573695180D+03  0.1403732281D-01
      0.1039486850D+03  0.6884262226D-01
      0.2921015530D+02  0.2321844432D+00
      0.9286662960D+01  0.4679413484D+00
      0.3163926960D+01  0.3623119853D+00
 SP   3 1.00       0.000000000000
      0.7868272350D+01 -0.1193324198D+00  0.6899906659D-01
      0.1881288540D+01 -0.1608541517D+00  0.3164239610D+00
      0.5442492580D+00  0.1143456438D+01  0.7443082909D+00
 SP   1 1.00       0.000000000000
      0.1687144782D+00  0.1000000000D+01  0.1000000000D+01
 D   1 1.00       0.000000000000
      0.8000000000D+00  0.1000000000D+01
 ****
      8 0
 S   6 1.00       0.000000000000
      0.3047524880D+04  0.1834737132D-02
      0.4573695180D+03  0.1403732281D-01
      0.1039486850D+03  0.6884262226D-01
      0.2921015530D+02  0.2321844432D+00
      0.9286662960D+01  0.4679413484D+00
      0.3163926960D+01  0.3623119853D+00
 SP   3 1.00       0.000000000000
      0.7868272350D+01 -0.1193324198D+00  0.6899906659D-01
      0.1881288540D+01 -0.1608541517D+00  0.3164239610D+00
      0.5442492580D+00  0.1143456438D+01  0.7443082909D+00
 SP   1 1.00       0.000000000000
      0.1687144782D+00  0.1000000000D+01  0.1000000000D+01
 D   1 1.00       0.000000000000
      0.8000000000D+00  0.1000000000D+01
 ****
      9 0
 S   3 1.00       0.000000000000
      0.1873113696D+02  0.3349460434D-01
      0.2825394365D+01  0.2347269535D+00
      0.6401216923D+00  0.8137573261D+00
 S   1 1.00       0.000000000000
      0.1612777588D+00  0.1000000000D+01
 ****
     10 0
 S   3 1.00       0.000000000000
      0.1873113696D+02  0.3349460434D-01
      0.2825394365D+01  0.2347269535D+00
      0.6401216923D+00  0.8137573261D+00
 S   1 1.00       0.000000000000
      0.1612777588D+00  0.1000000000D+01
 ****
     11 0
 S   6 1.00       0.000000000000
      0.3047524880D+04  0.1834737132D-02
      0.4573695180D+03  0.1403732281D-01
      0.1039486850D+03  0.6884262226D-01
      0.2921015530D+02  0.2321844432D+00
      0.9286662960D+01  0.4679413484D+00
      0.3163926960D+01  0.3623119853D+00
 SP   3 1.00       0.000000000000
      0.7868272350D+01 -0.1193324198D+00  0.6899906659D-01
      0.1881288540D+01 -0.1608541517D+00  0.3164239610D+00
      0.5442492580D+00  0.1143456438D+01  0.7443082909D+00
 SP   1 1.00       0.000000000000
      0.1687144782D+00  0.1000000000D+01  0.1000000000D+01
 D   1 1.00       0.000000000000
      0.8000000000D+00  0.1000000000D+01
 ****
     12 0
 S   3 1.00       0.000000000000
      0.1873113696D+02  0.3349460434D-01
      0.2825394365D+01  0.2347269535D+00
      0.6401216923D+00  0.8137573261D+00
 S   1 1.00       0.000000000000
      0.1612777588D+00  0.1000000000D+01
 ****
     13 0
 S   3 1.00       0.000000000000
      0.1873113696D+02  0.3349460434D-01
      0.2825394365D+01  0.2347269535D+00
      0.6401216923D+00  0.8137573261D+00
 S   1 1.00       0.000000000000
      0.1612777588D+00  0.1000000000D+01
 ****
     14 0
 S   6 1.00       0.000000000000
      0.3047524880D+04  0.1834737132D-02
      0.4573695180D+03  0.1403732281D-01
      0.1039486850D+03  0.6884262226D-01
      0.2921015530D+02  0.2321844432D+00
      0.9286662960D+01  0.4679413484D+00
      0.3163926960D+01  0.3623119853D+00
 SP   3 1.00       0.000000000000
      0.7868272350D+01 -0.1193324198D+00  0.6899906659D-01
      0.1881288540D+01 -0.1608541517D+00  0.3164239610D+00
      0.5442492580D+00  0.1143456438D+01  0.7443082909D+00
 SP   1 1.00       0.000000000000
      0.1687144782D+00  0.1000000000D+01  0.1000000000D+01
 D   1 1.00       0.000000000000
      0.8000000000D+00  0.1000000000D+01
 ****
     15 0
 S   3 1.00       0.000000000000
      0.1873113696D+02  0.3349460434D-01
      0.2825394365D+01  0.2347269535D+00
      0.6401216923D+00  0.8137573261D+00
 S   1 1.00       0.000000000000
      0.1612777588D+00  0.1000000000D+01
 ****
     16 0
 S   6 1.00       0.000000000000
      0.3047524880D+04  0.1834737132D-02
      0.4573695180D+03  0.1403732281D-01
      0.1039486850D+03  0.6884262226D-01
      0.2921015530D+02  0.2321844432D+00
      0.9286662960D+01  0.4679413484D+00
      0.3163926960D+01  0.3623119853D+00
 SP   3 1.00       0.000000000000
      0.7868272350D+01 -0.1193324198D+00  0.6899906659D-01
      0.1881288540D+01 -0.1608541517D+00  0.3164239610D+00
      0.5442492580D+00  0.1143456438D+01  0.7443082909D+00
 SP   1 1.00       0.000000000000
      0.1687144782D+00  0.1000000000D+01  0.1000000000D+01
 D   1 1.00       0.000000000000
      0.8000000000D+00  0.1000000000D+01
 ****
     17 0
 S   3 1.00       0.000000000000
      0.1873113696D+02  0.3349460434D-01
      0.2825394365D+01  0.2347269535D+00
      0.6401216923D+00  0.8137573261D+00
 S   1 1.00       0.000000000000
      0.1612777588D+00  0.1000000000D+01
 ****
     18 0
 S   6 1.00       0.000000000000
      0.3047524880D+04  0.1834737132D-02
      0.4573695180D+03  0.1403732281D-01
      0.1039486850D+03  0.6884262226D-01
      0.2921015530D+02  0.2321844432D+00
      0.9286662960D+01  0.4679413484D+00
      0.3163926960D+01  0.3623119853D+00
 SP   3 1.00       0.000000000000
      0.7868272350D+01 -0.1193324198D+00  0.6899906659D-01
      0.1881288540D+01 -0.1608541517D+00  0.3164239610D+00
      0.5442492580D+00  0.1143456438D+01  0.7443082909D+00
 SP   1 1.00       0.000000000000
      0.1687144782D+00  0.1000000000D+01  0.1000000000D+01
 D   1 1.00       0.000000000000
      0.8000000000D+00  0.1000000000D+01
 ****
     19 0
 S   3 1.00       0.000000000000
      0.1873113696D+02  0.3349460434D-01
      0.2825394365D+01  0.2347269535D+00
      0.6401216923D+00  0.8137573261D+00
 S   1 1.00       0.000000000000
      0.1612777588D+00  0.1000000000D+01
 ****
     20 0
 S   6 1.00       0.000000000000
      0.3047524880D+04  0.1834737132D-02
      0.4573695180D+03  0.1403732281D-01
      0.1039486850D+03  0.6884262226D-01
      0.2921015530D+02  0.2321844432D+00
      0.9286662960D+01  0.4679413484D+00
      0.3163926960D+01  0.3623119853D+00
 SP   3 1.00       0.000000000000
      0.7868272350D+01 -0.1193324198D+00  0.6899906659D-01
      0.1881288540D+01 -0.1608541517D+00  0.3164239610D+00
      0.5442492580D+00  0.1143456438D+01  0.7443082909D+00
 SP   1 1.00       0.000000000000
      0.1687144782D+00  0.1000000000D+01  0.1000000000D+01
 D   1 1.00       0.000000000000
      0.8000000000D+00  0.1000000000D+01
 ****
     21 0
 S   3 1.00       0.000000000000
      0.1873113696D+02  0.3349460434D-01
      0.2825394365D+01  0.2347269535D+00
      0.6401216923D+00  0.8137573261D+00
 S   1 1.00       0.000000000000
      0.1612777588D+00  0.1000000000D+01
 ****
     22 0
 S   6 1.00       0.000000000000
      0.3047524880D+04  0.1834737132D-02
      0.4573695180D+03  0.1403732281D-01
      0.1039486850D+03  0.6884262226D-01
      0.2921015530D+02  0.2321844432D+00
      0.9286662960D+01  0.4679413484D+00
      0.3163926960D+01  0.3623119853D+00
 SP   3 1.00       0.000000000000
      0.7868272350D+01 -0.1193324198D+00  0.6899906659D-01
      0.1881288540D+01 -0.1608541517D+00  0.3164239610D+00
      0.5442492580D+00  0.1143456438D+01  0.7443082909D+00
 SP   1 1.00       0.000000000000
      0.1687144782D+00  0.1000000000D+01  0.1000000000D+01
 D   1 1.00       0.000000000000
      0.8000000000D+00  0.1000000000D+01
 ****
     23 0
 S   3 1.00       0.000000000000
      0.1873113696D+02  0.3349460434D-01
      0.2825394365D+01  0.2347269535D+00
      0.6401216923D+00  0.8137573261D+00
 S   1 1.00       0.000000000000
      0.1612777588D+00  0.1000000000D+01
 ****
     24 0
 S   3 1.00       0.000000000000
      0.1873113696D+02  0.3349460434D-01
      0.2825394365D+01  0.2347269535D+00
      0.6401216923D+00  0.8137573261D+00
 S   1 1.00       0.000000000000
      0.1612777588D+00  0.1000000000D+01
 ****
     25 0
 S   6 1.00       0.000000000000
      0.3047524880D+04  0.1834737132D-02
      0.4573695180D+03  0.1403732281D-01
      0.1039486850D+03  0.6884262226D-01
      0.2921015530D+02  0.2321844432D+00
      0.9286662960D+01  0.4679413484D+00
      0.3163926960D+01  0.3623119853D+00
 SP   3 1.00       0.000000000000
      0.7868272350D+01 -0.1193324198D+00  0.6899906659D-01
      0.1881288540D+01 -0.1608541517D+00  0.3164239610D+00
      0.5442492580D+00  0.1143456438D+01  0.7443082909D+00
 SP   1 1.00       0.000000000000
      0.1687144782D+00  0.1000000000D+01  0.1000000000D+01
 D   1 1.00       0.000000000000
      0.8000000000D+00  0.1000000000D+01
 ****
     26 0
 S   3 1.00       0.000000000000
      0.1873113696D+02  0.3349460434D-01
      0.2825394365D+01  0.2347269535D+00
      0.6401216923D+00  0.8137573261D+00
 S   1 1.00       0.000000000000
      0.1612777588D+00  0.1000000000D+01
 ****
     27 0
 S   3 1.00       0.000000000000
      0.1873113696D+02  0.3349460434D-01
      0.2825394365D+01  0.2347269535D+00
      0.6401216923D+00  0.8137573261D+00
 S   1 1.00       0.000000000000
      0.1612777588D+00  0.1000000000D+01
 ****
     28 0
 S   6 1.00       0.000000000000
      0.3047524880D+04  0.1834737132D-02
      0.4573695180D+03  0.1403732281D-01
      0.1039486850D+03  0.6884262226D-01
      0.2921015530D+02  0.2321844432D+00
      0.9286662960D+01  0.4679413484D+00
      0.3163926960D+01  0.3623119853D+00
 SP   3 1.00       0.000000000000
      0.7868272350D+01 -0.1193324198D+00  0.6899906659D-01
      0.1881288540D+01 -0.1608541517D+00  0.3164239610D+00
      0.5442492580D+00  0.1143456438D+01  0.7443082909D+00
 SP   1 1.00       0.000000000000
      0.1687144782D+00  0.1000000000D+01  0.1000000000D+01
 D   1 1.00       0.000000000000
      0.8000000000D+00  0.1000000000D+01
 ****
     29 0
 S   6 1.00       0.000000000000
      0.3047524880D+04  0.1834737132D-02
      0.4573695180D+03  0.1403732281D-01
      0.1039486850D+03  0.6884262226D-01
      0.2921015530D+02  0.2321844432D+00
      0.9286662960D+01  0.4679413484D+00
      0.3163926960D+01  0.3623119853D+00
 SP   3 1.00       0.000000000000
      0.7868272350D+01 -0.1193324198D+00  0.6899906659D-01
      0.1881288540D+01 -0.1608541517D+00  0.3164239610D+00
      0.5442492580D+00  0.1143456438D+01  0.7443082909D+00
 SP   1 1.00       0.000000000000
      0.1687144782D+00  0.1000000000D+01  0.1000000000D+01
 D   1 1.00       0.000000000000
      0.8000000000D+00  0.1000000000D+01
 ****
     30 0
 S   3 1.00       0.000000000000
      0.1873113696D+02  0.3349460434D-01
      0.2825394365D+01  0.2347269535D+00
      0.6401216923D+00  0.8137573261D+00
 S   1 1.00       0.000000000000
      0.1612777588D+00  0.1000000000D+01
 ****
     31 0
 S   6 1.00       0.000000000000
      0.3047524880D+04  0.1834737132D-02
      0.4573695180D+03  0.1403732281D-01
      0.1039486850D+03  0.6884262226D-01
      0.2921015530D+02  0.2321844432D+00
      0.9286662960D+01  0.4679413484D+00
      0.3163926960D+01  0.3623119853D+00
 SP   3 1.00       0.000000000000
      0.7868272350D+01 -0.1193324198D+00  0.6899906659D-01
      0.1881288540D+01 -0.1608541517D+00  0.3164239610D+00
      0.5442492580D+00  0.1143456438D+01  0.7443082909D+00
 SP   1 1.00       0.000000000000
      0.1687144782D+00  0.1000000000D+01  0.1000000000D+01
 D   1 1.00       0.000000000000
      0.8000000000D+00  0.1000000000D+01
 ****
     32 0
 S   3 1.00       0.000000000000
      0.1873113696D+02  0.3349460434D-01
      0.2825394365D+01  0.2347269535D+00
      0.6401216923D+00  0.8137573261D+00
 S   1 1.00       0.000000000000
      0.1612777588D+00  0.1000000000D+01
 ****
     33 0
 S   3 1.00       0.000000000000
      0.1873113696D+02  0.3349460434D-01
      0.2825394365D+01  0.2347269535D+00
      0.6401216923D+00  0.8137573261D+00
 S   1 1.00       0.000000000000
      0.1612777588D+00  0.1000000000D+01
 ****
     34 0
 S   6 1.00       0.000000000000
      0.3047524880D+04  0.1834737132D-02
      0.4573695180D+03  0.1403732281D-01
      0.1039486850D+03  0.6884262226D-01
      0.2921015530D+02  0.2321844432D+00
      0.9286662960D+01  0.4679413484D+00
      0.3163926960D+01  0.3623119853D+00
 SP   3 1.00       0.000000000000
      0.7868272350D+01 -0.1193324198D+00  0.6899906659D-01
      0.1881288540D+01 -0.1608541517D+00  0.3164239610D+00
      0.5442492580D+00  0.1143456438D+01  0.7443082909D+00
 SP   1 1.00       0.000000000000
      0.1687144782D+00  0.1000000000D+01  0.1000000000D+01
 D   1 1.00       0.000000000000
      0.8000000000D+00  0.1000000000D+01
 ****
     35 0
 S   3 1.00       0.000000000000
      0.1873113696D+02  0.3349460434D-01
      0.2825394365D+01  0.2347269535D+00
      0.6401216923D+00  0.8137573261D+00
 S   1 1.00       0.000000000000
      0.1612777588D+00  0.1000000000D+01
 ****
     36 0
 S   3 1.00       0.000000000000
      0.1873113696D+02  0.3349460434D-01
      0.2825394365D+01  0.2347269535D+00
      0.6401216923D+00  0.8137573261D+00
 S   1 1.00       0.000000000000
      0.1612777588D+00  0.1000000000D+01
 ****
     37 0
 S   6 1.00       0.000000000000
      0.3047524880D+04  0.1834737132D-02
      0.4573695180D+03  0.1403732281D-01
      0.1039486850D+03  0.6884262226D-01
      0.2921015530D+02  0.2321844432D+00
      0.9286662960D+01  0.4679413484D+00
      0.3163926960D+01  0.3623119853D+00
 SP   3 1.00       0.000000000000
      0.7868272350D+01 -0.1193324198D+00  0.6899906659D-01
      0.1881288540D+01 -0.1608541517D+00  0.3164239610D+00
      0.5442492580D+00  0.1143456438D+01  0.7443082909D+00
 SP   1 1.00       0.000000000000
      0.1687144782D+00  0.1000000000D+01  0.1000000000D+01
 D   1 1.00       0.000000000000
      0.8000000000D+00  0.1000000000D+01
 ****
     38 0
 S   3 1.00       0.000000000000
      0.1873113696D+02  0.3349460434D-01
      0.2825394365D+01  0.2347269535D+00
      0.6401216923D+00  0.8137573261D+00
 S   1 1.00       0.000000000000
      0.1612777588D+00  0.1000000000D+01
 ****
     39 0
 S   6 1.00       0.000000000000
      0.3047524880D+04  0.1834737132D-02
      0.4573695180D+03  0.1403732281D-01
      0.1039486850D+03  0.6884262226D-01
      0.2921015530D+02  0.2321844432D+00
      0.9286662960D+01  0.4679413484D+00
      0.3163926960D+01  0.3623119853D+00
 SP   3 1.00       0.000000000000
      0.7868272350D+01 -0.1193324198D+00  0.6899906659D-01
      0.1881288540D+01 -0.1608541517D+00  0.3164239610D+00
      0.5442492580D+00  0.1143456438D+01  0.7443082909D+00
 SP   1 1.00       0.000000000000
      0.1687144782D+00  0.1000000000D+01  0.1000000000D+01
 D   1 1.00       0.000000000000
      0.8000000000D+00  0.1000000000D+01
 ****
     40 0
 S   3 1.00       0.000000000000
      0.1873113696D+02  0.3349460434D-01
      0.2825394365D+01  0.2347269535D+00
      0.6401216923D+00  0.8137573261D+00
 S   1 1.00       0.000000000000
      0.1612777588D+00  0.1000000000D+01
 ****
     41 0
 S   3 1.00       0.000000000000
      0.1873113696D+02  0.3349460434D-01
      0.2825394365D+01  0.2347269535D+00
      0.6401216923D+00  0.8137573261D+00
 S   1 1.00       0.000000000000
      0.1612777588D+00  0.1000000000D+01
 ****
     42 0
 S   3 1.00       0.000000000000
      0.1873113696D+02  0.3349460434D-01
      0.2825394365D+01  0.2347269535D+00
      0.6401216923D+00  0.8137573261D+00
 S   1 1.00       0.000000000000
      0.1612777588D+00  0.1000000000D+01
 ****
     43 0
 S   6 1.00       0.000000000000
      0.3047524880D+04  0.1834737132D-02
      0.4573695180D+03  0.1403732281D-01
      0.1039486850D+03  0.6884262226D-01
      0.2921015530D+02  0.2321844432D+00
      0.9286662960D+01  0.4679413484D+00
      0.3163926960D+01  0.3623119853D+00
 SP   3 1.00       0.000000000000
      0.7868272350D+01 -0.1193324198D+00  0.6899906659D-01
      0.1881288540D+01 -0.1608541517D+00  0.3164239610D+00
      0.5442492580D+00  0.1143456438D+01  0.7443082909D+00
 SP   1 1.00       0.000000000000
      0.1687144782D+00  0.1000000000D+01  0.1000000000D+01
 D   1 1.00       0.000000000000
      0.8000000000D+00  0.1000000000D+01
 ****
     44 0
 S   3 1.00       0.000000000000
      0.1873113696D+02  0.3349460434D-01
      0.2825394365D+01  0.2347269535D+00
      0.6401216923D+00  0.8137573261D+00
 S   1 1.00       0.000000000000
      0.1612777588D+00  0.1000000000D+01
 ****
     45 0
 S   6 1.00       0.000000000000
      0.3047524880D+04  0.1834737132D-02
      0.4573695180D+03  0.1403732281D-01
      0.1039486850D+03  0.6884262226D-01
      0.2921015530D+02  0.2321844432D+00
      0.9286662960D+01  0.4679413484D+00
      0.3163926960D+01  0.3623119853D+00
 SP   3 1.00       0.000000000000
      0.7868272350D+01 -0.1193324198D+00  0.6899906659D-01
      0.1881288540D+01 -0.1608541517D+00  0.3164239610D+00
      0.5442492580D+00  0.1143456438D+01  0.7443082909D+00
 SP   1 1.00       0.000000000000
      0.1687144782D+00  0.1000000000D+01  0.1000000000D+01
 D   1 1.00       0.000000000000
      0.8000000000D+00  0.1000000000D+01
 ****
     46 0
 S   3 1.00       0.000000000000
      0.1873113696D+02  0.3349460434D-01
      0.2825394365D+01  0.2347269535D+00
      0.6401216923D+00  0.8137573261D+00
 S   1 1.00       0.000000000000
      0.1612777588D+00  0.1000000000D+01
 ****
     47 0
 S   3 1.00       0.000000000000
      0.1873113696D+02  0.3349460434D-01
      0.2825394365D+01  0.2347269535D+00
      0.6401216923D+00  0.8137573261D+00
 S   1 1.00       0.000000000000
      0.1612777588D+00  0.1000000000D+01
 ****
     48 0
 S   3 1.00       0.000000000000
      0.1873113696D+02  0.3349460434D-01
      0.2825394365D+01  0.2347269535D+00
      0.6401216923D+00  0.8137573261D+00
 S   1 1.00       0.000000000000
      0.1612777588D+00  0.1000000000D+01
 ****
     49 0
 S   6 1.00       0.000000000000
      0.3047524880D+04  0.1834737132D-02
      0.4573695180D+03  0.1403732281D-01
      0.1039486850D+03  0.6884262226D-01
      0.2921015530D+02  0.2321844432D+00
      0.9286662960D+01  0.4679413484D+00
      0.3163926960D+01  0.3623119853D+00
 SP   3 1.00       0.000000000000
      0.7868272350D+01 -0.1193324198D+00  0.6899906659D-01
      0.1881288540D+01 -0.1608541517D+00  0.3164239610D+00
      0.5442492580D+00  0.1143456438D+01  0.7443082909D+00
 SP   1 1.00       0.000000000000
      0.1687144782D+00  0.1000000000D+01  0.1000000000D+01
 D   1 1.00       0.000000000000
      0.8000000000D+00  0.1000000000D+01
 ****
     50 0
 S   3 1.00       0.000000000000
      0.1873113696D+02  0.3349460434D-01
      0.2825394365D+01  0.2347269535D+00
      0.6401216923D+00  0.8137573261D+00
 S   1 1.00       0.000000000000
      0.1612777588D+00  0.1000000000D+01
 ****
     51 0
 S   3 1.00       0.000000000000
      0.1873113696D+02  0.3349460434D-01
      0.2825394365D+01  0.2347269535D+00
      0.6401216923D+00  0.8137573261D+00
 S   1 1.00       0.000000000000
      0.1612777588D+00  0.1000000000D+01
 ****
     52 0
 S   3 1.00       0.000000000000
      0.1873113696D+02  0.3349460434D-01
      0.2825394365D+01  0.2347269535D+00
      0.6401216923D+00  0.8137573261D+00
 S   1 1.00       0.000000000000
      0.1612777588D+00  0.1000000000D+01
 ****
     53 0
 S   6 1.00       0.000000000000
      0.5484671660D+04  0.1831074430D-02
      0.8252349460D+03  0.1395017220D-01
      0.1880469580D+03  0.6844507810D-01
      0.5296450000D+02  0.2327143360D+00
      0.1689757040D+02  0.4701928980D+00
      0.5799635340D+01  0.3585208530D+00
 SP   3 1.00       0.000000000000
      0.1553961625D+02 -0.1107775495D+00  0.7087426823D-01
      0.3599933586D+01 -0.1480262627D+00  0.3397528391D+00
      0.1013761750D+01  0.1130767015D+01  0.7271585773D+00
 SP   1 1.00       0.000000000000
      0.2700058226D+00  0.1000000000D+01  0.1000000000D+01
 D   1 1.00       0.000000000000
      0.8000000000D+00  0.1000000000D+01
 ****
     54 0
 S   6 1.00       0.000000000000
      0.5484671660D+04  0.1831074430D-02
      0.8252349460D+03  0.1395017220D-01
      0.1880469580D+03  0.6844507810D-01
      0.5296450000D+02  0.2327143360D+00
      0.1689757040D+02  0.4701928980D+00
      0.5799635340D+01  0.3585208530D+00
 SP   3 1.00       0.000000000000
      0.1553961625D+02 -0.1107775495D+00  0.7087426823D-01
      0.3599933586D+01 -0.1480262627D+00  0.3397528391D+00
      0.1013761750D+01  0.1130767015D+01  0.7271585773D+00
 SP   1 1.00       0.000000000000
      0.2700058226D+00  0.1000000000D+01  0.1000000000D+01
 D   1 1.00       0.000000000000
      0.8000000000D+00  0.1000000000D+01
 ****
     55 0
 S   3 1.00       0.000000000000
      0.1873113696D+02  0.3349460434D-01
      0.2825394365D+01  0.2347269535D+00
      0.6401216923D+00  0.8137573261D+00
 S   1 1.00       0.000000000000
      0.1612777588D+00  0.1000000000D+01
 ****
     56 0
 S   6 1.00       0.000000000000
      0.5484671660D+04  0.1831074430D-02
      0.8252349460D+03  0.1395017220D-01
      0.1880469580D+03  0.6844507810D-01
      0.5296450000D+02  0.2327143360D+00
      0.1689757040D+02  0.4701928980D+00
      0.5799635340D+01  0.3585208530D+00
 SP   3 1.00       0.000000000000
      0.1553961625D+02 -0.1107775495D+00  0.7087426823D-01
      0.3599933586D+01 -0.1480262627D+00  0.3397528391D+00
      0.1013761750D+01  0.1130767015D+01  0.7271585773D+00
 SP   1 1.00       0.000000000000
      0.2700058226D+00  0.1000000000D+01  0.1000000000D+01
 D   1 1.00       0.000000000000
      0.8000000000D+00  0.1000000000D+01
 ****
     57 0
 S   3 1.00       0.000000000000
      0.1873113696D+02  0.3349460434D-01
      0.2825394365D+01  0.2347269535D+00
      0.6401216923D+00  0.8137573261D+00
 S   1 1.00       0.000000000000
      0.1612777588D+00  0.1000000000D+01
 ****
     58 0
 S   6 1.00       0.000000000000
      0.3047524880D+04  0.1834737132D-02
      0.4573695180D+03  0.1403732281D-01
      0.1039486850D+03  0.6884262226D-01
      0.2921015530D+02  0.2321844432D+00
      0.9286662960D+01  0.4679413484D+00
      0.3163926960D+01  0.3623119853D+00
 SP   3 1.00       0.000000000000
      0.7868272350D+01 -0.1193324198D+00  0.6899906659D-01
      0.1881288540D+01 -0.1608541517D+00  0.3164239610D+00
      0.5442492580D+00  0.1143456438D+01  0.7443082909D+00
 SP   1 1.00       0.000000000000
      0.1687144782D+00  0.1000000000D+01  0.1000000000D+01
 D   1 1.00       0.000000000000
      0.8000000000D+00  0.1000000000D+01
 ****
     59 0
 S   3 1.00       0.000000000000
      0.1873113696D+02  0.3349460434D-01
      0.2825394365D+01  0.2347269535D+00
      0.6401216923D+00  0.8137573261D+00
 S   1 1.00       0.000000000000
      0.1612777588D+00  0.1000000000D+01
 ****
     60 0
 S   3 1.00       0.000000000000
      0.1873113696D+02  0.3349460434D-01
      0.2825394365D+01  0.2347269535D+00
      0.6401216923D+00  0.8137573261D+00
 S   1 1.00       0.000000000000
      0.1612777588D+00  0.1000000000D+01
 ****
     61 0
 S   6 1.00       0.000000000000
      0.3047524880D+04  0.1834737132D-02
      0.4573695180D+03  0.1403732281D-01
      0.1039486850D+03  0.6884262226D-01
      0.2921015530D+02  0.2321844432D+00
      0.9286662960D+01  0.4679413484D+00
      0.3163926960D+01  0.3623119853D+00
 SP   3 1.00       0.000000000000
      0.7868272350D+01 -0.1193324198D+00  0.6899906659D-01
      0.1881288540D+01 -0.1608541517D+00  0.3164239610D+00
      0.5442492580D+00  0.1143456438D+01  0.7443082909D+00
 SP   1 1.00       0.000000000000
      0.1687144782D+00  0.1000000000D+01  0.1000000000D+01
 D   1 1.00       0.000000000000
      0.8000000000D+00  0.1000000000D+01
 ****
     62 0
 S   3 1.00       0.000000000000
      0.1873113696D+02  0.3349460434D-01
      0.2825394365D+01  0.2347269535D+00
      0.6401216923D+00  0.8137573261D+00
 S   1 1.00       0.000000000000
      0.1612777588D+00  0.1000000000D+01
 ****
     63 0
 S   3 1.00       0.000000000000
      0.1873113696D+02  0.3349460434D-01
      0.2825394365D+01  0.2347269535D+00
      0.6401216923D+00  0.8137573261D+00
 S   1 1.00       0.000000000000
      0.1612777588D+00  0.1000000000D+01
 ****
     64 0
 S   6 1.00       0.000000000000
      0.3047524880D+04  0.1834737132D-02
      0.4573695180D+03  0.1403732281D-01
      0.1039486850D+03  0.6884262226D-01
      0.2921015530D+02  0.2321844432D+00
      0.9286662960D+01  0.4679413484D+00
      0.3163926960D+01  0.3623119853D+00
 SP   3 1.00       0.000000000000
      0.7868272350D+01 -0.1193324198D+00  0.6899906659D-01
      0.1881288540D+01 -0.1608541517D+00  0.3164239610D+00
      0.5442492580D+00  0.1143456438D+01  0.7443082909D+00
 SP   1 1.00       0.000000000000
      0.1687144782D+00  0.1000000000D+01  0.1000000000D+01
 D   1 1.00       0.000000000000
      0.8000000000D+00  0.1000000000D+01
 ****
     65 0
 S   3 1.00       0.000000000000
      0.1873113696D+02  0.3349460434D-01
      0.2825394365D+01  0.2347269535D+00
      0.6401216923D+00  0.8137573261D+00
 S   1 1.00       0.000000000000
      0.1612777588D+00  0.1000000000D+01
 ****
     66 0
 S   3 1.00       0.000000000000
      0.1873113696D+02  0.3349460434D-01
      0.2825394365D+01  0.2347269535D+00
      0.6401216923D+00  0.8137573261D+00
 S   1 1.00       0.000000000000
      0.1612777588D+00  0.1000000000D+01
 ****
     67 0
 S   6 1.00       0.000000000000
      0.3047524880D+04  0.1834737132D-02
      0.4573695180D+03  0.1403732281D-01
      0.1039486850D+03  0.6884262226D-01
      0.2921015530D+02  0.2321844432D+00
      0.9286662960D+01  0.4679413484D+00
      0.3163926960D+01  0.3623119853D+00
 SP   3 1.00       0.000000000000
      0.7868272350D+01 -0.1193324198D+00  0.6899906659D-01
      0.1881288540D+01 -0.1608541517D+00  0.3164239610D+00
      0.5442492580D+00  0.1143456438D+01  0.7443082909D+00
 SP   1 1.00       0.000000000000
      0.1687144782D+00  0.1000000000D+01  0.1000000000D+01
 D   1 1.00       0.000000000000
      0.8000000000D+00  0.1000000000D+01
 ****
     68 0
 S   3 1.00       0.000000000000
      0.1873113696D+02  0.3349460434D-01
      0.2825394365D+01  0.2347269535D+00
      0.6401216923D+00  0.8137573261D+00
 S   1 1.00       0.000000000000
      0.1612777588D+00  0.1000000000D+01
 ****
     69 0
 S   6 1.00       0.000000000000
      0.3047524880D+04  0.1834737132D-02
      0.4573695180D+03  0.1403732281D-01
      0.1039486850D+03  0.6884262226D-01
      0.2921015530D+02  0.2321844432D+00
      0.9286662960D+01  0.4679413484D+00
      0.3163926960D+01  0.3623119853D+00
 SP   3 1.00       0.000000000000
      0.7868272350D+01 -0.1193324198D+00  0.6899906659D-01
      0.1881288540D+01 -0.1608541517D+00  0.3164239610D+00
      0.5442492580D+00  0.1143456438D+01  0.7443082909D+00
 SP   1 1.00       0.000000000000
      0.1687144782D+00  0.1000000000D+01  0.1000000000D+01
 D   1 1.00       0.000000000000
      0.8000000000D+00  0.1000000000D+01
 ****
     70 0
 S   3 1.00       0.000000000000
      0.1873113696D+02  0.3349460434D-01
      0.2825394365D+01  0.2347269535D+00
      0.6401216923D+00  0.8137573261D+00
 S   1 1.00       0.000000000000
      0.1612777588D+00  0.1000000000D+01
 ****
     71 0
 S   3 1.00       0.000000000000
      0.1873113696D+02  0.3349460434D-01
      0.2825394365D+01  0.2347269535D+00
      0.6401216923D+00  0.8137573261D+00
 S   1 1.00       0.000000000000
      0.1612777588D+00  0.1000000000D+01
 ****
     72 0
 S   3 1.00       0.000000000000
      0.1873113696D+02  0.3349460434D-01
      0.2825394365D+01  0.2347269535D+00
      0.6401216923D+00  0.8137573261D+00
 S   1 1.00       0.000000000000
      0.1612777588D+00  0.1000000000D+01
 ****
     73 0
 S   6 1.00       0.000000000000
      0.3047524880D+04  0.1834737132D-02
      0.4573695180D+03  0.1403732281D-01
      0.1039486850D+03  0.6884262226D-01
      0.2921015530D+02  0.2321844432D+00
      0.9286662960D+01  0.4679413484D+00
      0.3163926960D+01  0.3623119853D+00
 SP   3 1.00       0.000000000000
      0.7868272350D+01 -0.1193324198D+00  0.6899906659D-01
      0.1881288540D+01 -0.1608541517D+00  0.3164239610D+00
      0.5442492580D+00  0.1143456438D+01  0.7443082909D+00
 SP   1 1.00       0.000000000000
      0.1687144782D+00  0.1000000000D+01  0.1000000000D+01
 D   1 1.00       0.000000000000
      0.8000000000D+00  0.1000000000D+01
 ****
     74 0
 S   3 1.00       0.000000000000
      0.1873113696D+02  0.3349460434D-01
      0.2825394365D+01  0.2347269535D+00
      0.6401216923D+00  0.8137573261D+00
 S   1 1.00       0.000000000000
      0.1612777588D+00  0.1000000000D+01
 ****
     75 0
 S   3 1.00       0.000000000000
      0.1873113696D+02  0.3349460434D-01
      0.2825394365D+01  0.2347269535D+00
      0.6401216923D+00  0.8137573261D+00
 S   1 1.00       0.000000000000
      0.1612777588D+00  0.1000000000D+01
 ****
     76 0
 S   3 1.00       0.000000000000
      0.1873113696D+02  0.3349460434D-01
      0.2825394365D+01  0.2347269535D+00
      0.6401216923D+00  0.8137573261D+00
 S   1 1.00       0.000000000000
      0.1612777588D+00  0.1000000000D+01
 ****

 AO basis set (Overlap normalization):
 Atom C1       Shell     1 S   6     bf    1 -     1         14.205288734996          4.188004044817          0.133232400896
      0.3047524880D+04  0.1834737132D-02
      0.4573695180D+03  0.1403732281D-01
      0.1039486850D+03  0.6884262226D-01
      0.2921015530D+02  0.2321844432D+00
      0.9286662960D+01  0.4679413484D+00
      0.3163926960D+01  0.3623119853D+00
 Atom C1       Shell     2 SP   3    bf    2 -     5         14.205288734996          4.188004044817          0.133232400896
      0.7868272350D+01 -0.1193324198D+00  0.6899906659D-01
      0.1881288540D+01 -0.1608541517D+00  0.3164239610D+00
      0.5442492580D+00  0.1143456438D+01  0.7443082909D+00
 Atom C1       Shell     3 SP   1    bf    6 -     9         14.205288734996          4.188004044817          0.133232400896
      0.1687144782D+00  0.1000000000D+01  0.1000000000D+01
 Atom C1       Shell     4 D   1     bf   10 -    15         14.205288734996          4.188004044817          0.133232400896
      0.8000000000D+00  0.1000000000D+01
 Atom H2       Shell     5 S   3     bf   16 -    16         13.899452982108          4.131063176029          2.182560097547
      0.1873113696D+02  0.3349460434D-01
      0.2825394365D+01  0.2347269535D+00
      0.6401216923D+00  0.8137573261D+00
 Atom H2       Shell     6 S   1     bf   17 -    17         13.899452982108          4.131063176029          2.182560097547
      0.1612777588D+00  0.1000000000D+01
 Atom C3       Shell     7 S   6     bf   18 -    18         12.891163752454          1.904950919345         -1.082527819984
      0.3047524880D+04  0.1834737132D-02
      0.4573695180D+03  0.1403732281D-01
      0.1039486850D+03  0.6884262226D-01
      0.2921015530D+02  0.2321844432D+00
      0.9286662960D+01  0.4679413484D+00
      0.3163926960D+01  0.3623119853D+00
 Atom C3       Shell     8 SP   3    bf   19 -    22         12.891163752454          1.904950919345         -1.082527819984
      0.7868272350D+01 -0.1193324198D+00  0.6899906659D-01
      0.1881288540D+01 -0.1608541517D+00  0.3164239610D+00
      0.5442492580D+00  0.1143456438D+01  0.7443082909D+00
 Atom C3       Shell     9 SP   1    bf   23 -    26         12.891163752454          1.904950919345         -1.082527819984
      0.1687144782D+00  0.1000000000D+01  0.1000000000D+01
 Atom C3       Shell    10 D   1     bf   27 -    32         12.891163752454          1.904950919345         -1.082527819984
      0.8000000000D+00  0.1000000000D+01
 Atom H4       Shell    11 S   3     bf   33 -    33         13.614637862422          0.154872372940         -0.250419023815
      0.1873113696D+02  0.3349460434D-01
      0.2825394365D+01  0.2347269535D+00
      0.6401216923D+00  0.8137573261D+00
 Atom H4       Shell    12 S   1     bf   34 -    34         13.614637862422          0.154872372940         -0.250419023815
      0.1612777588D+00  0.1000000000D+01
 Atom H5       Shell    13 S   3     bf   35 -    35         13.423263652883          1.874250617563         -3.096037590820
      0.1873113696D+02  0.3349460434D-01
      0.2825394365D+01  0.2347269535D+00
      0.6401216923D+00  0.8137573261D+00
 Atom H5       Shell    14 S   1     bf   36 -    36         13.423263652883          1.874250617563         -3.096037590820
      0.1612777588D+00  0.1000000000D+01
 Atom C6       Shell    15 S   6     bf   37 -    37         10.035918372506          2.008825290931         -0.853567316710
      0.3047524880D+04  0.1834737132D-02
      0.4573695180D+03  0.1403732281D-01
      0.1039486850D+03  0.6884262226D-01
      0.2921015530D+02  0.2321844432D+00
      0.9286662960D+01  0.4679413484D+00
      0.3163926960D+01  0.3623119853D+00
 Atom C6       Shell    16 SP   3    bf   38 -    41         10.035918372506          2.008825290931         -0.853567316710
      0.7868272350D+01 -0.1193324198D+00  0.6899906659D-01
      0.1881288540D+01 -0.1608541517D+00  0.3164239610D+00
      0.5442492580D+00  0.1143456438D+01  0.7443082909D+00
 Atom C6       Shell    17 SP   1    bf   42 -    45         10.035918372506          2.008825290931         -0.853567316710
      0.1687144782D+00  0.1000000000D+01  0.1000000000D+01
 Atom C6       Shell    18 D   1     bf   46 -    51         10.035918372506          2.008825290931         -0.853567316710
      0.8000000000D+00  0.1000000000D+01
 Atom C7       Shell    19 S   6     bf   52 -    52          8.722180216904          4.462442923973         -1.655351129604
      0.3047524880D+04  0.1834737132D-02
      0.4573695180D+03  0.1403732281D-01
      0.1039486850D+03  0.6884262226D-01
      0.2921015530D+02  0.2321844432D+00
      0.9286662960D+01  0.4679413484D+00
      0.3163926960D+01  0.3623119853D+00
 Atom C7       Shell    20 SP   3    bf   53 -    56          8.722180216904          4.462442923973         -1.655351129604
      0.7868272350D+01 -0.1193324198D+00  0.6899906659D-01
      0.1881288540D+01 -0.1608541517D+00  0.3164239610D+00
      0.5442492580D+00  0.1143456438D+01  0.7443082909D+00
 Atom C7       Shell    21 SP   1    bf   57 -    60          8.722180216904          4.462442923973         -1.655351129604
      0.1687144782D+00  0.1000000000D+01  0.1000000000D+01
 Atom C7       Shell    22 D   1     bf   61 -    66          8.722180216904          4.462442923973         -1.655351129604
      0.8000000000D+00  0.1000000000D+01
 Atom C8       Shell    23 S   6     bf   67 -    67         10.222742782922          6.738542084043         -0.530623060559
      0.3047524880D+04  0.1834737132D-02
      0.4573695180D+03  0.1403732281D-01
      0.1039486850D+03  0.6884262226D-01
      0.2921015530D+02  0.2321844432D+00
      0.9286662960D+01  0.4679413484D+00
      0.3163926960D+01  0.3623119853D+00
 Atom C8       Shell    24 SP   3    bf   68 -    71         10.222742782922          6.738542084043         -0.530623060559
      0.7868272350D+01 -0.1193324198D+00  0.6899906659D-01
      0.1881288540D+01 -0.1608541517D+00  0.3164239610D+00
      0.5442492580D+00  0.1143456438D+01  0.7443082909D+00
 Atom C8       Shell    25 SP   1    bf   72 -    75         10.222742782922          6.738542084043         -0.530623060559
      0.1687144782D+00  0.1000000000D+01  0.1000000000D+01
 Atom C8       Shell    26 D   1     bf   76 -    81         10.222742782922          6.738542084043         -0.530623060559
      0.8000000000D+00  0.1000000000D+01
 Atom H9       Shell    27 S   3     bf   82 -    82          9.849120550538          6.819574277614          1.510516981882
      0.1873113696D+02  0.3349460434D-01
      0.2825394365D+01  0.2347269535D+00
      0.6401216923D+00  0.8137573261D+00
 Atom H9       Shell    28 S   1     bf   83 -    83          9.849120550538          6.819574277614          1.510516981882
      0.1612777588D+00  0.1000000000D+01
 Atom H10      Shell    29 S   3     bf   84 -    84          9.494072266239          8.502757274806         -1.329201047555
      0.1873113696D+02  0.3349460434D-01
      0.2825394365D+01  0.2347269535D+00
      0.6401216923D+00  0.8137573261D+00
 Atom H10      Shell    30 S   1     bf   85 -    85          9.494072266239          8.502757274806         -1.329201047555
      0.1612777588D+00  0.1000000000D+01
 Atom C11      Shell    31 S   6     bf   86 -    86         13.097598039922          6.635954426981         -0.923541645533
      0.3047524880D+04  0.1834737132D-02
      0.4573695180D+03  0.1403732281D-01
      0.1039486850D+03  0.6884262226D-01
      0.2921015530D+02  0.2321844432D+00
      0.9286662960D+01  0.4679413484D+00
      0.3163926960D+01  0.3623119853D+00
 Atom C11      Shell    32 SP   3    bf   87 -    90         13.097598039922          6.635954426981         -0.923541645533
      0.7868272350D+01 -0.1193324198D+00  0.6899906659D-01
      0.1881288540D+01 -0.1608541517D+00  0.3164239610D+00
      0.5442492580D+00  0.1143456438D+01  0.7443082909D+00
 Atom C11      Shell    33 SP   1    bf   91 -    94         13.097598039922          6.635954426981         -0.923541645533
      0.1687144782D+00  0.1000000000D+01  0.1000000000D+01
 Atom C11      Shell    34 D   1     bf   95 -   100         13.097598039922          6.635954426981         -0.923541645533
      0.8000000000D+00  0.1000000000D+01
 Atom H12      Shell    35 S   3     bf  101 -   101         13.561169214225          6.771105693587         -2.945784294364
      0.1873113696D+02  0.3349460434D-01
      0.2825394365D+01  0.2347269535D+00
      0.6401216923D+00  0.8137573261D+00
 Atom H12      Shell    36 S   1     bf  102 -   102         13.561169214225          6.771105693587         -2.945784294364
      0.1612777588D+00  0.1000000000D+01
 Atom H13      Shell    37 S   3     bf  103 -   103         13.994951369378          8.257949811640          0.000000000000
      0.1873113696D+02  0.3349460434D-01
      0.2825394365D+01  0.2347269535D+00
      0.6401216923D+00  0.8137573261D+00
 Atom H13      Shell    38 S   1     bf  104 -   104         13.994951369378          8.257949811640          0.000000000000
      0.1612777588D+00  0.1000000000D+01
 Atom C14      Shell    39 S   6     bf  105 -   105          8.752675351120          0.000000000000          0.000000000000
      0.3047524880D+04  0.1834737132D-02
      0.4573695180D+03  0.1403732281D-01
      0.1039486850D+03  0.6884262226D-01
      0.2921015530D+02  0.2321844432D+00
      0.9286662960D+01  0.4679413484D+00
      0.3163926960D+01  0.3623119853D+00
 Atom C14      Shell    40 SP   3    bf  106 -   109          8.752675351120          0.000000000000          0.000000000000
      0.7868272350D+01 -0.1193324198D+00  0.6899906659D-01
      0.1881288540D+01 -0.1608541517D+00  0.3164239610D+00
      0.5442492580D+00  0.1143456438D+01  0.7443082909D+00
 Atom C14      Shell    41 SP   1    bf  110 -   113          8.752675351120          0.000000000000          0.000000000000
      0.1687144782D+00  0.1000000000D+01  0.1000000000D+01
 Atom C14      Shell    42 D   1     bf  114 -   119          8.752675351120          0.000000000000          0.000000000000
      0.8000000000D+00  0.1000000000D+01
 Atom H15      Shell    43 S   3     bf  120 -   120          9.780638198290         -1.683923543069          0.595585287658
      0.1873113696D+02  0.3349460434D-01
      0.2825394365D+01  0.2347269535D+00
      0.6401216923D+00  0.8137573261D+00
 Atom H15      Shell    44 S   1     bf  121 -   121          9.780638198290         -1.683923543069          0.595585287658
      0.1612777588D+00  0.1000000000D+01
 Atom C16      Shell    45 S   6     bf  122 -   122          5.930956604051         -0.189376769017          0.203023312902
      0.3047524880D+04  0.1834737132D-02
      0.4573695180D+03  0.1403732281D-01
      0.1039486850D+03  0.6884262226D-01
      0.2921015530D+02  0.2321844432D+00
      0.9286662960D+01  0.4679413484D+00
      0.3163926960D+01  0.3623119853D+00
 Atom C16      Shell    46 SP   3    bf  123 -   126          5.930956604051         -0.189376769017          0.203023312902
      0.7868272350D+01 -0.1193324198D+00  0.6899906659D-01
      0.1881288540D+01 -0.1608541517D+00  0.3164239610D+00
      0.5442492580D+00  0.1143456438D+01  0.7443082909D+00
 Atom C16      Shell    47 SP   1    bf  127 -   130          5.930956604051         -0.189376769017          0.203023312902
      0.1687144782D+00  0.1000000000D+01  0.1000000000D+01
 Atom C16      Shell    48 D   1     bf  131 -   136          5.930956604051         -0.189376769017          0.203023312902
      0.8000000000D+00  0.1000000000D+01
 Atom H17      Shell    49 S   3     bf  137 -   137          5.393446077553         -0.371578399085          2.207095318999
      0.1873113696D+02  0.3349460434D-01
      0.2825394365D+01  0.2347269535D+00
      0.6401216923D+00  0.8137573261D+00
 Atom H17      Shell    50 S   1     bf  138 -   138          5.393446077553         -0.371578399085          2.207095318999
      0.1612777588D+00  0.1000000000D+01
 Atom C18      Shell    51 S   6     bf  139 -   139          4.486701432827          2.021772900709         -1.002673757273
      0.3047524880D+04  0.1834737132D-02
      0.4573695180D+03  0.1403732281D-01
      0.1039486850D+03  0.6884262226D-01
      0.2921015530D+02  0.2321844432D+00
      0.9286662960D+01  0.4679413484D+00
      0.3163926960D+01  0.3623119853D+00
 Atom C18      Shell    52 SP   3    bf  140 -   143          4.486701432827          2.021772900709         -1.002673757273
      0.7868272350D+01 -0.1193324198D+00  0.6899906659D-01
      0.1881288540D+01 -0.1608541517D+00  0.3164239610D+00
      0.5442492580D+00  0.1143456438D+01  0.7443082909D+00
 Atom C18      Shell    53 SP   1    bf  144 -   147          4.486701432827          2.021772900709         -1.002673757273
      0.1687144782D+00  0.1000000000D+01  0.1000000000D+01
 Atom C18      Shell    54 D   1     bf  148 -   153          4.486701432827          2.021772900709         -1.002673757273
      0.8000000000D+00  0.1000000000D+01
 Atom H19      Shell    55 S   3     bf  154 -   154          4.377098432058          1.625212378839         -3.031458581284
      0.1873113696D+02  0.3349460434D-01
      0.2825394365D+01  0.2347269535D+00
      0.6401216923D+00  0.8137573261D+00
 Atom H19      Shell    56 S   1     bf  155 -   155          4.377098432058          1.625212378839         -3.031458581284
      0.1612777588D+00  0.1000000000D+01
 Atom C20      Shell    57 S   6     bf  156 -   156          5.963954378174          4.522753514606         -0.570009809764
      0.3047524880D+04  0.1834737132D-02
      0.4573695180D+03  0.1403732281D-01
      0.1039486850D+03  0.6884262226D-01
      0.2921015530D+02  0.2321844432D+00
      0.9286662960D+01  0.4679413484D+00
      0.3163926960D+01  0.3623119853D+00
 Atom C20      Shell    58 SP   3    bf  157 -   160          5.963954378174          4.522753514606         -0.570009809764
      0.7868272350D+01 -0.1193324198D+00  0.6899906659D-01
      0.1881288540D+01 -0.1608541517D+00  0.3164239610D+00
      0.5442492580D+00  0.1143456438D+01  0.7443082909D+00
 Atom C20      Shell    59 SP   1    bf  161 -   164          5.963954378174          4.522753514606         -0.570009809764
      0.1687144782D+00  0.1000000000D+01  0.1000000000D+01
 Atom C20      Shell    60 D   1     bf  165 -   170          5.963954378174          4.522753514606         -0.570009809764
      0.8000000000D+00  0.1000000000D+01
 Atom H21      Shell    61 S   3     bf  171 -   171          6.183992615100          4.707876680173          1.493973185479
      0.1873113696D+02  0.3349460434D-01
      0.2825394365D+01  0.2347269535D+00
      0.6401216923D+00  0.8137573261D+00
 Atom H21      Shell    62 S   1     bf  172 -   172          6.183992615100          4.707876680173          1.493973185479
      0.1612777588D+00  0.1000000000D+01
 Atom C22      Shell    63 S   6     bf  173 -   173          4.421698160876          6.838921633913         -1.457608788661
      0.3047524880D+04  0.1834737132D-02
      0.4573695180D+03  0.1403732281D-01
      0.1039486850D+03  0.6884262226D-01
      0.2921015530D+02  0.2321844432D+00
      0.9286662960D+01  0.4679413484D+00
      0.3163926960D+01  0.3623119853D+00
 Atom C22      Shell    64 SP   3    bf  174 -   177          4.421698160876          6.838921633913         -1.457608788661
      0.7868272350D+01 -0.1193324198D+00  0.6899906659D-01
      0.1881288540D+01 -0.1608541517D+00  0.3164239610D+00
      0.5442492580D+00  0.1143456438D+01  0.7443082909D+00
 Atom C22      Shell    65 SP   1    bf  178 -   181          4.421698160876          6.838921633913         -1.457608788661
      0.1687144782D+00  0.1000000000D+01  0.1000000000D+01
 Atom C22      Shell    66 D   1     bf  182 -   187          4.421698160876          6.838921633913         -1.457608788661
      0.8000000000D+00  0.1000000000D+01
 Atom H23      Shell    67 S   3     bf  188 -   188          4.330804053535          6.867616596118         -3.525495901403
      0.1873113696D+02  0.3349460434D-01
      0.2825394365D+01  0.2347269535D+00
      0.6401216923D+00  0.8137573261D+00
 Atom H23      Shell    68 S   1     bf  189 -   189          4.330804053535          6.867616596118         -3.525495901403
      0.1612777588D+00  0.1000000000D+01
 Atom H24      Shell    69 S   3     bf  190 -   190          5.399317853490          8.578027485528         -0.904730385641
      0.1873113696D+02  0.3349460434D-01
      0.2825394365D+01  0.2347269535D+00
      0.6401216923D+00  0.8137573261D+00
 Atom H24      Shell    70 S   1     bf  191 -   191          5.399317853490          8.578027485528         -0.904730385641
      0.1612777588D+00  0.1000000000D+01
 Atom C25      Shell    71 S   6     bf  192 -   192          1.709132092839          6.938087488278         -0.402034415970
      0.3047524880D+04  0.1834737132D-02
      0.4573695180D+03  0.1403732281D-01
      0.1039486850D+03  0.6884262226D-01
      0.2921015530D+02  0.2321844432D+00
      0.9286662960D+01  0.4679413484D+00
      0.3163926960D+01  0.3623119853D+00
 Atom C25      Shell    72 SP   3    bf  193 -   196          1.709132092839          6.938087488278         -0.402034415970
      0.7868272350D+01 -0.1193324198D+00  0.6899906659D-01
      0.1881288540D+01 -0.1608541517D+00  0.3164239610D+00
      0.5442492580D+00  0.1143456438D+01  0.7443082909D+00
 Atom C25      Shell    73 SP   1    bf  197 -   200          1.709132092839          6.938087488278         -0.402034415970
      0.1687144782D+00  0.1000000000D+01  0.1000000000D+01
 Atom C25      Shell    74 D   1     bf  201 -   206          1.709132092839          6.938087488278         -0.402034415970
      0.8000000000D+00  0.1000000000D+01
 Atom H26      Shell    75 S   3     bf  207 -   207          1.780007821028          7.198136896616          1.658550643817
      0.1873113696D+02  0.3349460434D-01
      0.2825394365D+01  0.2347269535D+00
      0.6401216923D+00  0.8137573261D+00
 Atom H26      Shell    76 S   1     bf  208 -   208          1.780007821028          7.198136896616          1.658550643817
      0.1612777588D+00  0.1000000000D+01
 Atom H27      Shell    77 S   3     bf  209 -   209          0.771139598184          8.612843780903         -1.171499263265
      0.1873113696D+02  0.3349460434D-01
      0.2825394365D+01  0.2347269535D+00
      0.6401216923D+00  0.8137573261D+00
 Atom H27      Shell    78 S   1     bf  210 -   210          0.771139598184          8.612843780903         -1.171499263265
      0.1612777588D+00  0.1000000000D+01
 Atom C28      Shell    79 S   6     bf  211 -   211          0.223568396521          4.499995089254         -0.982984549516
      0.3047524880D+04  0.1834737132D-02
      0.4573695180D+03  0.1403732281D-01
      0.1039486850D+03  0.6884262226D-01
      0.2921015530D+02  0.2321844432D+00
      0.9286662960D+01  0.4679413484D+00
      0.3163926960D+01  0.3623119853D+00
 Atom C28      Shell    80 SP   3    bf  212 -   215          0.223568396521          4.499995089254         -0.982984549516
      0.7868272350D+01 -0.1193324198D+00  0.6899906659D-01
      0.1881288540D+01 -0.1608541517D+00  0.3164239610D+00
      0.5442492580D+00  0.1143456438D+01  0.7443082909D+00
 Atom C28      Shell    81 SP   1    bf  216 -   219          0.223568396521          4.499995089254         -0.982984549516
      0.1687144782D+00  0.1000000000D+01  0.1000000000D+01
 Atom C28      Shell    82 D   1     bf  220 -   225          0.223568396521          4.499995089254         -0.982984549516
      0.8000000000D+00  0.1000000000D+01
 Atom C29      Shell    83 S   6     bf  226 -   226          1.807803141313          2.270996805025          0.101574215834
      0.3047524880D+04  0.1834737132D-02
      0.4573695180D+03  0.1403732281D-01
      0.1039486850D+03  0.6884262226D-01
      0.2921015530D+02  0.2321844432D+00
      0.9286662960D+01  0.4679413484D+00
      0.3163926960D+01  0.3623119853D+00
 Atom C29      Shell    84 SP   3    bf  227 -   230          1.807803141313          2.270996805025          0.101574215834
      0.7868272350D+01 -0.1193324198D+00  0.6899906659D-01
      0.1881288540D+01 -0.1608541517D+00  0.3164239610D+00
      0.5442492580D+00  0.1143456438D+01  0.7443082909D+00
 Atom C29      Shell    85 SP   1    bf  231 -   234          1.807803141313          2.270996805025          0.101574215834
      0.1687144782D+00  0.1000000000D+01  0.1000000000D+01
 Atom C29      Shell    86 D   1     bf  235 -   240          1.807803141313          2.270996805025          0.101574215834
      0.8000000000D+00  0.1000000000D+01
 Atom H30      Shell    87 S   3     bf  241 -   241          2.070330774296          2.728555947916          2.120935089005
      0.1873113696D+02  0.3349460434D-01
      0.2825394365D+01  0.2347269535D+00
      0.6401216923D+00  0.8137573261D+00
 Atom H30      Shell    88 S   1     bf  242 -   242          2.070330774296          2.728555947916          2.120935089005
      0.1612777588D+00  0.1000000000D+01
 Atom C31      Shell    89 S   6     bf  243 -   243          0.000000000000          0.000000000000          0.000000000000
      0.3047524880D+04  0.1834737132D-02
      0.4573695180D+03  0.1403732281D-01
      0.1039486850D+03  0.6884262226D-01
      0.2921015530D+02  0.2321844432D+00
      0.9286662960D+01  0.4679413484D+00
      0.3163926960D+01  0.3623119853D+00
 Atom C31      Shell    90 SP   3    bf  244 -   247          0.000000000000          0.000000000000          0.000000000000
      0.7868272350D+01 -0.1193324198D+00  0.6899906659D-01
      0.1881288540D+01 -0.1608541517D+00  0.3164239610D+00
      0.5442492580D+00  0.1143456438D+01  0.7443082909D+00
 Atom C31      Shell    91 SP   1    bf  248 -   251          0.000000000000          0.000000000000          0.000000000000
      0.1687144782D+00  0.1000000000D+01  0.1000000000D+01
 Atom C31      Shell    92 D   1     bf  252 -   257          0.000000000000          0.000000000000          0.000000000000
      0.8000000000D+00  0.1000000000D+01
 Atom H32      Shell    93 S   3     bf  258 -   258          0.516852229386         -1.483644018026          1.340832992204
      0.1873113696D+02  0.3349460434D-01
      0.2825394365D+01  0.2347269535D+00
      0.6401216923D+00  0.8137573261D+00
 Atom H32      Shell    94 S   1     bf  259 -   259          0.516852229386         -1.483644018026          1.340832992204
      0.1612777588D+00  0.1000000000D+01
 Atom H33      Shell    95 S   3     bf  260 -   260          0.035663724162         -0.879017071123         -1.872459572929
      0.1873113696D+02  0.3349460434D-01
      0.2825394365D+01  0.2347269535D+00
      0.6401216923D+00  0.8137573261D+00
 Atom H33      Shell    96 S   1     bf  261 -   261          0.035663724162         -0.879017071123         -1.872459572929
      0.1612777588D+00  0.1000000000D+01
 Atom C34      Shell    97 S   6     bf  262 -   262         -2.622562607520          1.177166778705          0.584061435343
      0.3047524880D+04  0.1834737132D-02
      0.4573695180D+03  0.1403732281D-01
      0.1039486850D+03  0.6884262226D-01
      0.2921015530D+02  0.2321844432D+00
      0.9286662960D+01  0.4679413484D+00
      0.3163926960D+01  0.3623119853D+00
 Atom C34      Shell    98 SP   3    bf  263 -   266         -2.622562607520          1.177166778705          0.584061435343
      0.7868272350D+01 -0.1193324198D+00  0.6899906659D-01
      0.1881288540D+01 -0.1608541517D+00  0.3164239610D+00
      0.5442492580D+00  0.1143456438D+01  0.7443082909D+00
 Atom C34      Shell    99 SP   1    bf  267 -   270         -2.622562607520          1.177166778705          0.584061435343
      0.1687144782D+00  0.1000000000D+01  0.1000000000D+01
 Atom C34      Shell   100 D   1     bf  271 -   276         -2.622562607520          1.177166778705          0.584061435343
      0.8000000000D+00  0.1000000000D+01
 Atom H35      Shell   101 S   3     bf  277 -   277         -4.027155677544          0.572128325040         -0.814364022117
      0.1873113696D+02  0.3349460434D-01
      0.2825394365D+01  0.2347269535D+00
      0.6401216923D+00  0.8137573261D+00
 Atom H35      Shell   102 S   1     bf  278 -   278         -4.027155677544          0.572128325040         -0.814364022117
      0.1612777588D+00  0.1000000000D+01
 Atom H36      Shell   103 S   3     bf  279 -   279         -3.330679631302          0.554078738163          2.424283527664
      0.1873113696D+02  0.3349460434D-01
      0.2825394365D+01  0.2347269535D+00
      0.6401216923D+00  0.8137573261D+00
 Atom H36      Shell   104 S   1     bf  280 -   280         -3.330679631302          0.554078738163          2.424283527664
      0.1612777588D+00  0.1000000000D+01
 Atom C37      Shell   105 S   6     bf  281 -   281         -2.305267630952          4.119292242023          0.517084722392
      0.3047524880D+04  0.1834737132D-02
      0.4573695180D+03  0.1403732281D-01
      0.1039486850D+03  0.6884262226D-01
      0.2921015530D+02  0.2321844432D+00
      0.9286662960D+01  0.4679413484D+00
      0.3163926960D+01  0.3623119853D+00
 Atom C37      Shell   106 SP   3    bf  282 -   285         -2.305267630952          4.119292242023          0.517084722392
      0.7868272350D+01 -0.1193324198D+00  0.6899906659D-01
      0.1881288540D+01 -0.1608541517D+00  0.3164239610D+00
      0.5442492580D+00  0.1143456438D+01  0.7443082909D+00
[...]
 1678 Fit       0.002013
 1679 Fit       0.001345
 1680 Fit      -0.000929
 1681 Fit       0.000651
 1682 Fit       0.000107
 1683 Fit       0.000876
 1684 Fit      -0.004998
 1685 Fit      -0.001146
 1686 Fit       0.003566
 1687 Fit       0.004032
 1688 Fit       0.001676
 1689 Fit      -0.002176
 1690 Fit      -0.011684
 1691 Fit      -0.002764
 1692 Fit       0.003752
 1693 Fit       0.003099
 1694 Fit       0.000757
 1695 Fit       0.000425
 1696 Fit      -0.004626
 1697 Fit      -0.012839
 1698 Fit       0.011210
 1699 Fit       0.008077
 1700 Fit       0.006822
 1701 Fit       0.000847
 1702 Fit       0.003186
 1703 Fit      -0.003950
 1704 Fit       0.006953
 1705 Fit       0.002018
 1706 Fit      -0.006290
 1707 Fit       0.007977
 1708 Fit       0.003787
 1709 Fit      -0.001903
 1710 Fit       0.007041
 1711 Fit       0.010482
 1712 Fit       0.021070
 1713 Fit       0.006222
 1714 Fit       0.009273
 1715 Fit       0.009840
 1716 Fit       0.012740
 1717 Fit       0.016436
 1718 Fit       0.009521
 1719 Fit       0.011952
 1720 Fit       0.005368
 1721 Fit       0.006018
 1722 Fit       0.006290
 1723 Fit       0.005972
 1724 Fit       0.005629
 1725 Fit       0.006142
 1726 Fit       0.007014
 1727 Fit       0.006532
 1728 Fit       0.006361
 1729 Fit       0.005220
 1730 Fit       0.005386
 1731 Fit       0.005915
 1732 Fit       0.006077
 1733 Fit       0.006761
 1734 Fit       0.007435
 1735 Fit       0.007621
 1736 Fit       0.008220
 1737 Fit       0.008226
 1738 Fit       0.008711
 1739 Fit       0.005931
 1740 Fit       0.005823
 1741 Fit       0.007082
 1742 Fit       0.009808
 1743 Fit       0.006349
 1744 Fit       0.020461
 1745 Fit       0.011965
 1746 Fit       0.008847
 1747 Fit       0.008419
 1748 Fit       0.016239
 1749 Fit       0.011580
 1750 Fit       0.009957
 1751 Fit       0.002536
 1752 Fit      -0.004562
 1753 Fit       0.001164
 1754 Fit       0.004373
 1755 Fit      -0.002970
 1756 Fit       0.002153
 1757 Fit       0.004454
 1758 Fit      -0.004616
 1759 Fit       0.001246
 1760 Fit       0.003967
 1761 Fit       0.005399
 1762 Fit      -0.001227
 1763 Fit       0.002468
 1764 Fit       0.004464
 1765 Fit       0.005904
 1766 Fit       0.004687
 1767 Fit       0.002261
 1768 Fit       0.000117
 1769 Fit       0.000499
 1770 Fit       0.002035
 1771 Fit       0.000772
 1772 Fit       0.014119
 1773 Fit       0.002298
 1774 Fit       0.002705
 1775 Fit       0.003665
 1776 Fit       0.002415
 1777 Fit       0.005533
 1778 Fit       0.005787
 1779 Fit       0.001212
 1780 Fit       0.007224
 1781 Fit       0.008485
 1782 Fit       0.012906
 1783 Fit       0.011468
 1784 Fit       0.005113
 1785 Fit       0.004428
 1786 Fit       0.006020
 1787 Fit       0.006428
 1788 Fit       0.004449
 1789 Fit       0.002795
 1790 Fit       0.003424
 1791 Fit      -0.001357
 1792 Fit      -0.002260
 1793 Fit       0.000649
 1794 Fit       0.006366
 1795 Fit       0.006357
 1796 Fit       0.006928
 1797 Fit       0.006210
 1798 Fit       0.007557
 1799 Fit       0.005909
 1800 Fit       0.006037
 1801 Fit       0.004286
 1802 Fit       0.004983
 1803 Fit       0.003899
 1804 Fit       0.004765
 1805 Fit       0.005176
 1806 Fit       0.005531
 1807 Fit       0.006089
 1808 Fit       0.004576
 1809 Fit       0.006470
 1810 Fit       0.004603
 1811 Fit       0.006875
 1812 Fit       0.004840
 1813 Fit       0.007812
 1814 Fit       0.005061
 1815 Fit       0.002485
 1816 Fit       0.000711
 1817 Fit       0.004278
 1818 Fit       0.005248
 1819 Fit       0.004050
 1820 Fit       0.003245
 1821 Fit       0.005408
 1822 Fit       0.004878
 1823 Fit       0.003331
 1824 Fit       0.002159
 1825 Fit       0.002066
 1826 Fit       0.000270
 1827 Fit       0.002371
 1828 Fit       0.001192
 1829 Fit       0.003537
 1830 Fit       0.002937
 1831 Fit       0.004134
 1832 Fit       0.004354
 1833 Fit       0.004194
 1834 Fit       0.005139
 1835 Fit       0.003917
 1836 Fit       0.006103
 1837 Fit       0.005238
 1838 Fit       0.003875
 1839 Fit       0.002204
 1840 Fit       0.002132
 1841 Fit       0.004956
 1842 Fit       0.000061
 1843 Fit      -0.008956
 1844 Fit      -0.009780
 1845 Fit      -0.014621
 1846 Fit      -0.024573
 1847 Fit      -0.000467
 1848 Fit      -0.002710
 1849 Fit      -0.002182
 1850 Fit      -0.005009
 1851 Fit      -0.006356
 1852 Fit      -0.007735
 1853 Fit      -0.008231
 1854 Fit      -0.010619
 1855 Fit      -0.015600
 1856 Fit      -0.016183
 1857 Fit      -0.010181
 1858 Fit      -0.016336
 1859 Fit      -0.003946
 1860 Fit      -0.008812
 1861 Fit      -0.016207
 1862 Fit      -0.010258
 1863 Fit      -0.004968
 1864 Fit      -0.007245
 1865 Fit      -0.008219
 1866 Fit      -0.003891
 1867 Fit      -0.000736
 1868 Fit      -0.002945
 1869 Fit      -0.005878
 1870 Fit      -0.000734
 1871 Fit      -0.002056
 1872 Fit      -0.004702
 1873 Fit      -0.000383
 1874 Fit      -0.001632
 1875 Fit       0.000019
 1876 Fit       0.000173
 1877 Fit       0.000354
 1878 Fit      -0.000612
 1879 Fit      -0.000581
 1880 Fit      -0.000525
 1881 Fit      -0.000624
 1882 Fit      -0.001042
 1883 Fit      -0.001425
 1884 Fit      -0.002290
 1885 Fit      -0.002546
 1886 Fit      -0.003087
 1887 Fit      -0.004639
 1888 Fit       0.001772
 1889 Fit       0.003062
 1890 Fit       0.002851
 1891 Fit       0.002049
 1892 Fit       0.000290
 1893 Fit       0.001527
 1894 Fit      -0.012910
 1895 Fit       0.001365
 1896 Fit      -0.002254
 1897 Fit      -0.006495
 1898 Fit      -0.000502
 1899 Fit      -0.001169
 1900 Fit      -0.002453
 1901 Fit      -0.003591
 1902 Fit      -0.003410
 1903 Fit      -0.002321
 1904 Fit      -0.006749
 1905 Fit       0.001523
 1906 Fit       0.001630
 1907 Fit      -0.002002
 1908 Fit      -0.000985
 1909 Fit      -0.000210
 1910 Fit      -0.001654
 1911 Fit      -0.001199
 1912 Fit      -0.002141
 1913 Fit      -0.004995
 1914 Fit      -0.009206
 1915 Fit      -0.002535
 1916 Fit      -0.003359
 1917 Fit       0.004786
 1918 Fit       0.002628
 1919 Fit       0.002929
 1920 Fit       0.002181
 1921 Fit       0.001030
 1922 Fit      -0.000741
 1923 Fit       0.000703
 1924 Fit       0.000952
 1925 Fit      -0.000612
 1926 Fit      -0.000052
 1927 Fit      -0.000317
 1928 Fit      -0.000161
 1929 Fit      -0.001073
 1930 Fit      -0.000534
 1931 Fit      -0.001314
 1932 Fit      -0.001329
 1933 Fit       0.000306
 1934 Fit      -0.001032
 1935 Fit      -0.000603
 1936 Fit       0.000078
 1937 Fit       0.000611
 1938 Fit       0.001138
 1939 Fit       0.002015
 1940 Fit       0.002498
 1941 Fit       0.002002
 1942 Fit       0.001172
 1943 Fit       0.001599
 1944 Fit       0.001329
 1945 Fit       0.000605
 1946 Fit      -0.000209
 1947 Fit      -0.000937
 1948 Fit       0.000422
 1949 Fit      -0.000039
 1950 Fit      -0.000812
 1951 Fit      -0.000398
 1952 Fit       0.001056
 1953 Fit       0.000099
 1954 Fit       0.000938
 1955 Fit       0.000225
 1956 Fit       0.001418
 1957 Fit       0.000945
 1958 Fit       0.001366
 1959 Fit       0.003315
 1960 Fit       0.001115
 1961 Fit       0.003680
 1962 Fit       0.001653
 1963 Fit       0.008944
 1964 Fit       0.004072
 1965 Fit       0.003299
 1966 Fit       0.004182
 1967 Fit       0.005354
 1968 Fit       0.004558
 1969 Fit       0.003570
 1970 Fit       0.002262
 1971 Fit       0.003603
 1972 Fit       0.003083
 1973 Fit       0.008447
 1974 Fit       0.008401
 1975 Fit       0.007899
 1976 Fit       0.007054
 1977 Fit       0.006983
 1978 Fit       0.006470
 1979 Fit       0.005651
 1980 Fit       0.005550
 1981 Fit       0.005278
 1982 Fit       0.003750
 1983 Fit       0.014702
 1984 Fit       0.012509
 1985 Fit       0.008733
 1986 Fit       0.008661
 1987 Fit       0.013016
 1988 Fit       0.009194
 1989 Fit       0.007237
 1990 Fit       0.007045
 1991 Fit      -0.000453
 1992 Fit      -0.005188
 1993 Fit      -0.003190
 1994 Fit       0.001857
 1995 Fit       0.001365
 1996 Fit       0.000231
 1997 Fit       0.002006
 1998 Fit       0.001950
 1999 Fit      -0.007568
 2000 Fit      -0.015338
 2001 Fit      -0.013268
 2002 Fit      -0.007806
 2003 Fit      -0.020091
 2004 Fit      -0.016310
 2005 Fit      -0.009740
 2006 Fit      -0.001175
 2007 Fit      -0.023446
 2008 Fit      -0.018446
 2009 Fit      -0.009724
 2010 Fit      -0.026191
 2011 Fit      -0.021673
 2012 Fit      -0.012062
 2013 Fit      -0.022305
 2014 Fit      -0.022121
 2015 Fit      -0.015929
 2016 Fit      -0.004190
 2017 Fit       0.000888
 2018 Fit      -0.016434
 2019 Fit      -0.019369
 2020 Fit      -0.018801
 2021 Fit      -0.012911
 2022 Fit      -0.002082
 2023 Fit       0.000937
 2024 Fit      -0.005578
 2025 Fit      -0.011529
 2026 Fit      -0.014693
 2027 Fit      -0.009897
 2028 Fit       0.000008
 2029 Fit      -0.007512
 2030 Fit       0.007988
 2031 Fit      -0.000215
 2032 Fit       0.010445
 2033 Fit       0.016735
 2034 Fit       0.019316
 2035 Fit       0.017198
 2036 Fit       0.002810
 2037 Fit       0.012513
 2038 Fit       0.017968
 2039 Fit       0.019675
 2040 Fit       0.015635
 2041 Fit       0.008456
 2042 Fit       0.005508
 2043 Fit       0.014024
 2044 Fit       0.017341
 2045 Fit       0.010784
 2046 Fit       0.010183
 2047 Fit      -0.021582
 2048 Fit      -0.017661
 2049 Fit      -0.018331
 2050 Fit      -0.024361
 2051 Fit      -0.023203
 2052 Fit      -0.019453
 2053 Fit      -0.011762
 2054 Fit      -0.013538
 2055 Fit      -0.020568
 2056 Fit      -0.023737
 2057 Fit      -0.021493
 2058 Fit      -0.020940
 2059 Fit      -0.019266
 2060 Fit      -0.014633
 2061 Fit      -0.016521
 2062 Fit      -0.020566
 2063 Fit      -0.021610
 2064 Fit      -0.013242
 2065 Fit      -0.012921
 2066 Fit      -0.012464
 2067 Fit      -0.010543
 2068 Fit      -0.012771
 2069 Fit      -0.014227
 2070 Fit      -0.013883
 2071 Fit       0.000032
 2072 Fit       0.000885
 2073 Fit      -0.001973
 2074 Fit      -0.002747
 2075 Fit      -0.001479
 2076 Fit       0.004549
 2077 Fit       0.004875
 2078 Fit       0.005072
 2079 Fit       0.005945
 2080 Fit       0.002860
 2081 Fit       0.003714
 2082 Fit       0.014010
 2083 Fit       0.014469
 2084 Fit       0.015312
 2085 Fit       0.013946
 2086 Fit       0.013614
 2087 Fit       0.020023
 2088 Fit       0.021069
 2089 Fit       0.020506
 2090 Fit       0.023863
 2091 Fit      -0.001877
 2092 Fit      -0.001965
 2093 Fit      -0.001158
 2094 Fit      -0.001177
 2095 Fit      -0.000547
 2096 Fit      -0.001391
 2097 Fit      -0.001427
 2098 Fit       0.000297
 2099 Fit       0.000980
 2100 Fit       0.001200
 2101 Fit       0.000367
 2102 Fit      -0.000451
 2103 Fit      -0.001059
 2104 Fit      -0.000413
 2105 Fit       0.002129
 2106 Fit       0.001481
 2107 Fit       0.000332
 2108 Fit      -0.000631
 2109 Fit      -0.000921
 2110 Fit      -0.001156
 2111 Fit      -0.000215
 2112 Fit      -0.000853
 2113 Fit      -0.000048
 2114 Fit       0.000726
 2115 Fit       0.000085
 2116 Fit      -0.001136
 2117 Fit       0.000425
 2118 Fit      -0.000190
 2119 Fit      -0.000705
 2120 Fit      -0.000968
 2121 Fit      -0.000499
 2122 Fit       0.000314
 2123 Fit       0.000429
 2124 Fit       0.000575
 2125 Fit       0.001336
 2126 Fit      -0.001375
 2127 Fit      -0.002021
 2128 Fit       0.000121
 2129 Fit       0.000489
 2130 Fit      -0.000219
 2131 Fit       0.000116
 2132 Fit      -0.000451
 2133 Fit      -0.000522
 2134 Fit      -0.000704
 2135 Fit      -0.001212
 2136 Fit      -0.001404
 2137 Fit      -0.001964
 2138 Fit       0.001625
 2139 Fit       0.002082
 2140 Fit      -0.001577
 2141 Fit       0.000935
 2142 Fit       0.001649
 2143 Fit      -0.000607
 2144 Fit      -0.000380
 2145 Fit       0.000553
 2146 Fit      -0.001062
 2147 Fit      -0.000645
 2148 Fit      -0.000675
 2149 Fit       0.000169
 2150 Fit       0.000149
 2151 Fit       0.000021
 2152 Fit      -0.000070
 2153 Fit      -0.000475
 2154 Fit      -0.000994
 2155 Fit       0.000067
 2156 Fit      -0.000129
 2157 Fit      -0.000344
 2158 Fit       0.000281
 2159 Fit       0.000392
 2160 Fit       0.000133
 2161 Fit       0.000266
 2162 Fit      -0.002725
 2163 Fit      -0.002768
 2164 Fit      -0.002213
 2165 Fit      -0.002341
 2166 Fit      -0.002716
 2167 Fit      -0.002977
 2168 Fit      -0.002299
 2169 Fit      -0.002557
 2170 Fit      -0.001943
 2171 Fit      -0.001382
 2172 Fit       0.000768
 2173 Fit       0.001355
 2174 Fit       0.000726
 2175 Fit      -0.000326
 2176 Fit      -0.000813
 2177 Fit       0.000185
 2178 Fit       0.000777
 2179 Fit       0.000705
 2180 Fit      -0.000311
 2181 Fit      -0.001313
 2182 Fit      -0.002203
 2183 Fit      -0.001691
 2184 Fit      -0.001655
 2185 Fit      -0.002115
 2186 Fit      -0.000795
 2187 Fit      -0.000087
 2188 Fit      -0.000198
 2189 Fit      -0.001081
 2190 Fit       0.001130
 2191 Fit       0.000815
 2192 Fit      -0.000162
 2193 Fit      -0.001613
 2194 Fit       0.001448
 2195 Fit       0.000588
 2196 Fit      -0.000832
 2197 Fit       0.000743
 2198 Fit      -0.000502
 2199 Fit      -0.002073
 2200 Fit      -0.001432
 2201 Fit      -0.001719
 2202 Fit      -0.000566
 2203 Fit      -0.000273
 2204 Fit      -0.000678
 2205 Fit      -0.001192
 2206 Fit      -0.000019
 2207 Fit       0.000502
 2208 Fit       0.000581
 2209 Fit      -0.001209
 2210 Fit      -0.000024
 2211 Fit       0.000586
 2212 Fit      -0.001607
 2213 Fit      -0.000438
 2214 Fit       0.000143
 2215 Fit      -0.002050
 2216 Fit      -0.002144
 2217 Fit      -0.000997
 2218 Fit      -0.001818
 2219 Fit      -0.002246
 2220 Fit      -0.002088
 2221 Fit      -0.002036
 2222 Fit      -0.002380
 2223 Fit      -0.002013
 2224 Fit      -0.001537
 2225 Fit      -0.001145
 2226 Fit      -0.001014
 2227 Fit       0.000740
 2228 Fit       0.001097
 2229 Fit       0.000854
 2230 Fit       0.000566
 2231 Fit       0.001128
 2232 Fit       0.000544
 2233 Fit      -0.000214
 2234 Fit      -0.001087
 2235 Fit       0.000625
 2236 Fit      -0.000221
 2237 Fit      -0.000847
 2238 Fit      -0.001541
 2239 Fit      -0.001300
 2240 Fit      -0.000929
 2241 Fit       0.000120
 2242 Fit       0.000837
 2243 Fit      -0.001664
 2244 Fit      -0.000176
 2245 Fit       0.000922
 2246 Fit       0.001537
 2247 Fit       0.001971
 2248 Fit      -0.001497
 2249 Fit       0.000019
 2250 Fit       0.001010
 2251 Fit       0.001218
 2252 Fit       0.000684
 2253 Fit      -0.000785
 2254 Fit       0.000131
 2255 Fit      -0.000316
 2256 Fit       0.000486
 2257 Fit       0.001838
 2258 Fit       0.001088
 2259 Fit      -0.000214
 2260 Fit       0.002199
 2261 Fit       0.001893
 2262 Fit       0.000942
 2263 Fit      -0.000570
 2264 Fit       0.001394
 2265 Fit       0.000891
 2266 Fit      -0.000650
 2267 Fit       0.000467
 2268 Fit       0.000040
 -----------------------------------------------------------------
 Leave Link  602 at Thu Apr 27 16:35:05 2017, MaxMem=    33554432 cpu:         4.9
 (Enter /home/michal/g09/l9999.exe)

 Test job not archived.
 1\1\GINC-LINUX\SP\RHF\6-31G(d)\C27H46O3\MICHAL\27-Apr-2017\0\\#P HF/6-
 31G* SCF(Conver=6) NoSymm Test Pop=mk IOp(6/33=2) GFInput GFPrint\\MEP
  - Input generated by R.E.D.-III.x MOLECULE\\0,1\C,0,7.51711504,2.2161
 9629,0.07050355\H,0,7.35527373,2.18606448,1.15496106\C,0,6.82171005,1.
 00805661,-0.57284905\H,0,7.20455606,0.08195493,-0.13251604\H,0,7.10328
 519,0.99181071,-1.63835253\C,0,5.31077927,1.06302456,-0.45168837\C,0,4
 .61557898,2.36142309,-0.87597409\C,0,5.40964249,3.56588289,-0.28079363
 \H,0,5.21193012,3.60876328,0.79933116\H,0,5.02404666,4.49946536,-0.703
 3829\C,0,6.93095037,3.51159584,-0.48871719\H,0,7.17626167,3.58311481,-
 1.55884191\H,0,7.4058093,4.36991883,0.\C,0,4.63171631,0.,0.\H,0,5.1756
 9082,-0.89109396,0.31517016\C,0,3.13852706,-0.10021387,0.10743531\H,0,
 2.85408874,-0.19663082,1.16794454\C,0,2.37426014,1.06987614,-0.5305921
 \H,0,2.31626073,0.86002535,-1.60417879\C,0,3.15598873,2.39333808,-0.30
 16362\H,0,3.27242795,2.49130104,0.79057656\C,0,2.33986189,3.61900146,-
 0.77133335\H,0,2.2917628,3.63418618,-1.86561208\H,0,2.85719595,4.53929
 664,-0.4787627\C,0,0.90443375,3.67147777,-0.21274745\H,0,0.94193957,3.
 80908999,0.8776672\H,0,0.4080695,4.55772063,-0.61993071\C,0,0.1183073,
 2.38129484,-0.52017302\C,0,0.95664822,1.20175975,0.05375076\H,0,1.0955
 7186,1.44388962,1.12235051\C,0,0.,0.,0.\H,0,0.27350642,-0.7851106,0.70
 953826\H,0,0.01887243,-0.4651558,-0.99086293\C,0,-1.38780036,0.6229298
 3,0.309072\H,0,-2.131079,0.30275727,-0.43094288\H,0,-1.76251975,0.2932
 0584,1.28287559\C,0,-1.21989509,2.17983557,0.27362945\H,0,-1.01804959,
 2.52388807,1.30088856\C,0,-0.13187906,2.24021469,-2.03931222\H,0,0.797
 34432,2.16667182,-2.60989492\H,0,-0.72383658,1.35111297,-2.27490491\H,
 0,-0.67877366,3.10793652,-2.42276448\C,0,-2.50905075,2.90632296,-0.193
 29158\H,0,-2.75724403,2.52497821,-1.19372713\C,0,-2.34979758,4.4330265
 ,-0.29294802\H,0,-2.02568716,4.85833607,0.66546717\H,0,-3.29493554,4.9
 1340459,-0.56365855\H,0,-1.61889909,4.72293503,-1.05084122\C,0,4.62824
 529,2.44133496,-2.42585623\H,0,4.27291145,3.41516083,-2.77661646\H,0,5
 .63680473,2.30402146,-2.82539693\H,0,3.99774684,1.66357819,-2.86630318
 \O,0,2.6855801,-1.3918361,-0.372096\O,0,2.93510593,-1.48340772,-1.8059
 6227\H,0,3.72722643,-2.04520938,-1.82027943\O,0,8.93830189,2.14806877,
 -0.07283366\H,0,9.15793012,2.20128984,-1.01364642\C,0,-3.68166817,2.54
 850563,0.75606846\H,0,-3.7498337,1.45834625,0.84747691\H,0,-3.43256012
 ,2.92247332,1.7605748\C,0,-5.08050093,3.07233614,0.3730511\H,0,-5.7680
 8678,2.77773532,1.17594434\H,0,-5.08547513,4.16859878,0.36536542\C,0,-
 5.60486673,2.53509214,-0.9688822\H,0,-5.51384301,1.43883635,-0.9672924
 1\H,0,-4.95689577,2.89060243,-1.78118557\C,0,-7.06459367,2.89963288,-1
 .33032035\H,0,-7.25124817,2.45052515,-2.31710921\C,0,-8.0893072,2.2903
 076,-0.35894576\H,0,-8.01500817,2.73336568,0.64080457\H,0,-9.11172156,
 2.46073545,-0.71520818\H,0,-7.94751112,1.20794869,-0.25684215\C,0,-7.2
 768965,4.41566399,-1.47717557\H,0,-7.16882707,4.93346246,-0.51712398\H
 ,0,-8.282474,4.63390441,-1.85457311\H,0,-6.55557584,4.8538952,-2.17706
 974\\Version=EM64L-G09RevD.01\HF=-1273.6818267\RMSD=5.177e-07\Dipole=0
 .2560203,0.4620903,-0.4277042\Quadrupole=-5.1695386,2.4946278,2.674910
 8,-0.2127249,-10.582155,-2.371464\PG=C01 [X(C27H46O3)]\\@


 THOUGH I SPEAK WITH THE TONGUES OF MEN AND OF ANGELS, 
 AND HAVE NOT LOVE,
 I AM BECOME AS SOUNDING BRASS, A TINKLING CYMBAL.
 AND THOUGH I HAVE THE GIFT OF PROPHECY,
 AND UNDERSTAND ALL MYSTERIES, AND ALL KNOWLEDGE.
 AND THOUGH I HAVE ALL FAITH, SO THAT I COULD REMOVE MOUNTAINS,
 AND HAVE NOT LOVE, I AM NOTHING.
 AND THOUGH I BESTOW ALL MY GOODS TO FEED THE POOR,
 AND THOUGH I GIVE MY BODY TO BE BURNED,
 AND HAVE NOT LOVE IT PROFITETH ME NOTHING.
 LOVE SUFFERETH LONG, AND IS KIND,
 LOVE ENVIETH NOT,
 LOVE VAUNTETH NOT ITSELF, IS NOT PUFFED UP,
 DOTH NOT BEHAVE ITSELF UNSEEMLY, SEEKETH NOT HER OWN,
 IS NOT EASILY PROVOKED, THINKETH NO EVIL,
 REJOICETH NOT IN INIQUITY, BUT REJOICETH IN THE TRUTH,
 BEARETH ALL THINGS, BELIEVETH ALL THINGS,
 HOPETH ALL THINGS, ENDURETH ALL THINGS.
 LOVE NEVER FAILETH, BUT WHETHER THERE BE PROPHECIES, THEY SHALL FAIL, 
 WHETHER THERE BE TONGUES, THEY SHALL CEASE,
 WHETHER THERE BE KNOWLEDGE, IT SHALL VANISH AWAY.
 FOR WE KNOW IN PART, AND WE PROPHESY IN PART.
 BUT WHEN THAT WHICH IS PERFECT IS COME, THEN THAT WHICH IS IN PART 
 SHALL BE DONE AWAY. 
 WHEN I WAS A CHILD, I SPAKE AS A CHILD, I UNDERSTOOD AS A CHILD, 
 I THOUGHT AS A CHILD.
 BUT WHEN I BECAME A MAN, I PUT AWAY CHILDISH THINGS.
 FOR NOW WE SEE THROUGH A GLASS, DARKLY, BUT THEN FACE TO FACE.
 NOW I KNOW IN PART. BUT THEN SHALL I KNOW EVEN AS ALSO I AM KNOWN.
 AND NOW ABIDETH FAITH, HOPE AND LOVE, THESE THREE.
 BUT THE GREATEST OF THESE IS LOVE.

                     I CORINTHIANS 13
 Job cpu time:       0 days  0 hours 11 minutes 49.5 seconds.
 File lengths (MBytes):  RWF=    159 Int=      0 D2E=      0 Chk=     11 Scr=      1
 Normal termination of Gaussian 09 at Thu Apr 27 16:35:05 2017.
