 Entering Gaussian System, Link 0=/home/michal/g09/g09
 Input=JOB2-gau_m1-11-2.com
 Output=JOB2-gau_m1-11-2.log
 Initial command:
 /home/michal/g09/l1.exe "/home/michal/gauss_scratch/Gau-32030.inp" -scrdir="/home/michal/gauss_scratch/"
 Entering Link 1 = /home/michal/g09/l1.exe PID=     32031.
  
 Copyright (c) 1988,1990,1992,1993,1995,1998,2003,2009,2013,
            Gaussian, Inc.  All Rights Reserved.
  
 This is part of the Gaussian(R) 09 program.  It is based on
 the Gaussian(R) 03 system (copyright 2003, Gaussian, Inc.),
 the Gaussian(R) 98 system (copyright 1998, Gaussian, Inc.),
 the Gaussian(R) 94 system (copyright 1995, Gaussian, Inc.),
 the Gaussian 92(TM) system (copyright 1992, Gaussian, Inc.),
 the Gaussian 90(TM) system (copyright 1990, Gaussian, Inc.),
 the Gaussian 88(TM) system (copyright 1988, Gaussian, Inc.),
 the Gaussian 86(TM) system (copyright 1986, Carnegie Mellon
 University), and the Gaussian 82(TM) system (copyright 1983,
 Carnegie Mellon University). Gaussian is a federally registered
 trademark of Gaussian, Inc.
  
 This software contains proprietary and confidential information,
 including trade secrets, belonging to Gaussian, Inc.
  
 This software is provided under written license and may be
 used, copied, transmitted, or stored only in accord with that
 written license.
  
 The following legend is applicable only to US Government
 contracts under FAR:
  
                    RESTRICTED RIGHTS LEGEND
  
 Use, reproduction and disclosure by the US Government is
 subject to restrictions as set forth in subparagraphs (a)
 and (c) of the Commercial Computer Software - Restricted
 Rights clause in FAR 52.227-19.
  
 Gaussian, Inc.
 340 Quinnipiac St., Bldg. 40, Wallingford CT 06492
  
  
 ---------------------------------------------------------------
 Warning -- This program may not be used in any manner that
 competes with the business of Gaussian, Inc. or will provide
 assistance to any competitor of Gaussian, Inc.  The licensee
 of this program is prohibited from giving any competitor of
 Gaussian, Inc. access to this program.  By using this program,
 the user acknowledges that Gaussian, Inc. is engaged in the
 business of creating and licensing software in the field of
 computational chemistry and represents and warrants to the
 licensee that it is not a competitor of Gaussian, Inc. and that
 it will not use this program in any manner prohibited above.
 ---------------------------------------------------------------
  

 Cite this work as:
 Gaussian 09, Revision D.01,
 M. J. Frisch, G. W. Trucks, H. B. Schlegel, G. E. Scuseria, 
 M. A. Robb, J. R. Cheeseman, G. Scalmani, V. Barone, B. Mennucci, 
 G. A. Petersson, H. Nakatsuji, M. Caricato, X. Li, H. P. Hratchian, 
 A. F. Izmaylov, J. Bloino, G. Zheng, J. L. Sonnenberg, M. Hada, 
 M. Ehara, K. Toyota, R. Fukuda, J. Hasegawa, M. Ishida, T. Nakajima, 
 Y. Honda, O. Kitao, H. Nakai, T. Vreven, J. A. Montgomery, Jr., 
 J. E. Peralta, F. Ogliaro, M. Bearpark, J. J. Heyd, E. Brothers, 
 K. N. Kudin, V. N. Staroverov, T. Keith, R. Kobayashi, J. Normand, 
 K. Raghavachari, A. Rendell, J. C. Burant, S. S. Iyengar, J. Tomasi, 
 M. Cossi, N. Rega, J. M. Millam, M. Klene, J. E. Knox, J. B. Cross, 
 V. Bakken, C. Adamo, J. Jaramillo, R. Gomperts, R. E. Stratmann, 
 O. Yazyev, A. J. Austin, R. Cammi, C. Pomelli, J. W. Ochterski, 
 R. L. Martin, K. Morokuma, V. G. Zakrzewski, G. A. Voth, 
 P. Salvador, J. J. Dannenberg, S. Dapprich, A. D. Daniels, 
 O. Farkas, J. B. Foresman, J. V. Ortiz, J. Cioslowski, 
 and D. J. Fox, Gaussian, Inc., Wallingford CT, 2013.
 
 ******************************************
 Gaussian 09:  EM64L-G09RevD.01 24-Apr-2013
                27-Apr-2017 
 ******************************************
 %Mem=256MB
 %NProc=12
 Will use up to   12 processors via shared memory.
 ----------------------------------------------------------------------
 #P HF/6-31G* SCF(Conver=6) NoSymm Test Pop=mk IOp(6/33=2) GFInput GFPr
 int
 ----------------------------------------------------------------------
 1/38=1/1;
 2/12=2,15=1,17=6,18=5,40=1/2;
 3/5=1,6=6,7=1,11=9,16=1,24=110,25=1,30=1/1,2,3;
 4//1;
 5/5=2,6=6,38=5/2;
 6/7=2,8=2,9=2,10=2,15=8,20=1,28=1,33=2/1,2;
 99/5=1,9=1/99;
 Leave Link    1 at Thu Apr 27 15:38:11 2017, MaxMem=    33554432 cpu:         1.3
 (Enter /home/michal/g09/l101.exe)
 ----------------------------------------------
 MEP - Input generated by R.E.D.-III.x MOLECULE
 ----------------------------------------------
 Symbolic Z-matrix:
 Charge =  0 Multiplicity = 1
 C                     7.51766   2.21482   0.07162 
 H                     7.35337   2.18513   1.15572 
 C                     6.82336   1.00654  -0.57277 
 H                     7.20549   0.08054  -0.13161 
 H                     7.10664   0.99023  -1.6378 
 C                     5.31231   1.0619   -0.45363 
 C                     4.61816   2.35988  -0.88114 
 C                     5.4112    3.56489  -0.28539 
 H                     5.21071   3.60913   0.79416 
 H                     5.02712   4.49811  -0.71013 
 C                     6.93301   3.51009  -0.48947 
 H                     7.18095   3.58101  -1.55901 
 H                     7.40682   4.36857   0. 
 C                     4.63281   0.        0. 
 H                     5.17642  -0.89044   0.31765 
 C                     3.13965  -0.099     0.10803 
 H                     2.85532  -0.18953   1.16911 
 C                     2.37618   1.06822  -0.53591 
 H                     2.31973   0.85412  -1.60878 
 C                     3.15709   2.39315  -0.31036 
 H                     3.27114   2.49477   0.78177 
 C                     2.3421    3.61767  -0.78602 
 H                     2.29723   3.62976  -1.88044 
 H                     2.85906   4.5386   -0.49487 
 C                     0.90523   3.67228  -0.2313 
 H                     0.94026   3.81627   0.85839 
 H                     0.40711   4.55478  -0.64539 
 C                     0.12187   2.38002  -0.53401 
 C                     0.95798   1.20255   0.04633 
 H                     1.0968    1.45084   1.11348 
 C                     0.        0.        0. 
 H                     0.26598  -0.77327   0.72532 
 H                     0.03023  -0.48145  -0.9827 
 C                    -1.39295   0.62701   0.28127 
 H                    -2.11679   0.31698  -0.48172 
 H                    -1.79899   0.29299   1.24162 
 C                    -1.21475   2.18018   0.26101 
 H                    -1.00031   2.51209   1.2878 
 C                    -0.12685   2.23581  -2.05269 
 H                     0.80299   2.16618  -2.62269 
 H                    -0.71451   1.34385  -2.28836 
 H                    -0.67702   3.10153  -2.43663 
 C                    -2.4958    2.9176   -0.20255 
 H                    -2.71532   2.57891  -1.22562 
 C                    -2.35075   4.45043  -0.25087 
 H                    -1.96388   4.85529   0.69101 
 H                    -3.32314   4.92094  -0.43919 
 H                    -1.67602   4.77268  -1.04806 
 C                     4.63486   2.43815  -2.43104 
 H                     4.28127   3.41188  -2.78378 
 H                     5.64431   2.29957  -2.82785 
 H                     4.00481   1.66052  -2.87225 
 O                     2.68568  -1.39277  -0.36445 
 O                     2.93322  -1.49183  -1.7981 
 H                     3.72744  -2.05073  -1.81066 
 O                     8.93914   2.1464   -0.06851 
 H                     9.16096   2.19973  -1.0088 
 C                    -3.73761   2.5197    0.63987 
 H                    -4.61389   3.00638   0.1879 
 H                    -3.91353   1.44128   0.54138 
 C                    -3.70012   2.87737   2.13522 
 H                    -2.85019   2.3752    2.61327 
 H                    -3.53003   3.95441   2.25273 
 C                    -5.00118   2.48006   2.85205 
 H                    -5.16637   1.40237   2.70819 
 H                    -5.84319   2.98316   2.35475 
 C                    -5.07998   2.78483   4.36623 
 H                    -6.07062   2.43492   4.69261 
 C                    -4.03563   2.00611   5.18332 
 H                    -3.01606   2.34251   4.96229 
 H                    -4.19896   2.14502   6.25818 
 H                    -4.08592   0.93102   4.9742 
 C                    -5.0102    4.29016   4.67251 
 H                    -4.0251    4.70651   4.43215 
 H                    -5.19434   4.48071   5.73604 
 H                    -5.75862   4.84932   4.09863 
 
 NAtoms=     76 NQM=       76 NQMF=       0 NMMI=      0 NMMIF=      0
                NMic=       0 NMicF=      0.
                    Isotopes and Nuclear Properties:
 (Nuclear quadrupole moments (NQMom) in fm**2, nuclear magnetic moments (NMagM)
  in nuclear magnetons)

  Atom         1           2           3           4           5           6           7           8           9          10
 IAtWgt=          12           1          12           1           1          12          12          12           1           1
 AtmWgt=  12.0000000   1.0078250  12.0000000   1.0078250   1.0078250  12.0000000  12.0000000  12.0000000   1.0078250   1.0078250
 NucSpn=           0           1           0           1           1           0           0           0           1           1
 AtZEff=   0.0000000   0.0000000   0.0000000   0.0000000   0.0000000   0.0000000   0.0000000   0.0000000   0.0000000   0.0000000
 NQMom=    0.0000000   0.0000000   0.0000000   0.0000000   0.0000000   0.0000000   0.0000000   0.0000000   0.0000000   0.0000000
 NMagM=    0.0000000   2.7928460   0.0000000   2.7928460   2.7928460   0.0000000   0.0000000   0.0000000   2.7928460   2.7928460
 AtZNuc=   6.0000000   1.0000000   6.0000000   1.0000000   1.0000000   6.0000000   6.0000000   6.0000000   1.0000000   1.0000000

  Atom        11          12          13          14          15          16          17          18          19          20
 IAtWgt=          12           1           1          12           1          12           1          12           1          12
 AtmWgt=  12.0000000   1.0078250   1.0078250  12.0000000   1.0078250  12.0000000   1.0078250  12.0000000   1.0078250  12.0000000
 NucSpn=           0           1           1           0           1           0           1           0           1           0
 AtZEff=   0.0000000   0.0000000   0.0000000   0.0000000   0.0000000   0.0000000   0.0000000   0.0000000   0.0000000   0.0000000
 NQMom=    0.0000000   0.0000000   0.0000000   0.0000000   0.0000000   0.0000000   0.0000000   0.0000000   0.0000000   0.0000000
 NMagM=    0.0000000   2.7928460   2.7928460   0.0000000   2.7928460   0.0000000   2.7928460   0.0000000   2.7928460   0.0000000
 AtZNuc=   6.0000000   1.0000000   1.0000000   6.0000000   1.0000000   6.0000000   1.0000000   6.0000000   1.0000000   6.0000000

  Atom        21          22          23          24          25          26          27          28          29          30
 IAtWgt=           1          12           1           1          12           1           1          12          12           1
 AtmWgt=   1.0078250  12.0000000   1.0078250   1.0078250  12.0000000   1.0078250   1.0078250  12.0000000  12.0000000   1.0078250
 NucSpn=           1           0           1           1           0           1           1           0           0           1
 AtZEff=   0.0000000   0.0000000   0.0000000   0.0000000   0.0000000   0.0000000   0.0000000   0.0000000   0.0000000   0.0000000
 NQMom=    0.0000000   0.0000000   0.0000000   0.0000000   0.0000000   0.0000000   0.0000000   0.0000000   0.0000000   0.0000000
 NMagM=    2.7928460   0.0000000   2.7928460   2.7928460   0.0000000   2.7928460   2.7928460   0.0000000   0.0000000   2.7928460
 AtZNuc=   1.0000000   6.0000000   1.0000000   1.0000000   6.0000000   1.0000000   1.0000000   6.0000000   6.0000000   1.0000000

  Atom        31          32          33          34          35          36          37          38          39          40
 IAtWgt=          12           1           1          12           1           1          12           1          12           1
 AtmWgt=  12.0000000   1.0078250   1.0078250  12.0000000   1.0078250   1.0078250  12.0000000   1.0078250  12.0000000   1.0078250
 NucSpn=           0           1           1           0           1           1           0           1           0           1
 AtZEff=   0.0000000   0.0000000   0.0000000   0.0000000   0.0000000   0.0000000   0.0000000   0.0000000   0.0000000   0.0000000
 NQMom=    0.0000000   0.0000000   0.0000000   0.0000000   0.0000000   0.0000000   0.0000000   0.0000000   0.0000000   0.0000000
 NMagM=    0.0000000   2.7928460   2.7928460   0.0000000   2.7928460   2.7928460   0.0000000   2.7928460   0.0000000   2.7928460
 AtZNuc=   6.0000000   1.0000000   1.0000000   6.0000000   1.0000000   1.0000000   6.0000000   1.0000000   6.0000000   1.0000000

  Atom        41          42          43          44          45          46          47          48          49          50
 IAtWgt=           1           1          12           1          12           1           1           1          12           1
 AtmWgt=   1.0078250   1.0078250  12.0000000   1.0078250  12.0000000   1.0078250   1.0078250   1.0078250  12.0000000   1.0078250
 NucSpn=           1           1           0           1           0           1           1           1           0           1
 AtZEff=   0.0000000   0.0000000   0.0000000   0.0000000   0.0000000   0.0000000   0.0000000   0.0000000   0.0000000   0.0000000
 NQMom=    0.0000000   0.0000000   0.0000000   0.0000000   0.0000000   0.0000000   0.0000000   0.0000000   0.0000000   0.0000000
 NMagM=    2.7928460   2.7928460   0.0000000   2.7928460   0.0000000   2.7928460   2.7928460   2.7928460   0.0000000   2.7928460
 AtZNuc=   1.0000000   1.0000000   6.0000000   1.0000000   6.0000000   1.0000000   1.0000000   1.0000000   6.0000000   1.0000000

  Atom        51          52          53          54          55          56          57          58          59          60
 IAtWgt=           1           1          16          16           1          16           1          12           1           1
 AtmWgt=   1.0078250   1.0078250  15.9949146  15.9949146   1.0078250  15.9949146   1.0078250  12.0000000   1.0078250   1.0078250
 NucSpn=           1           1           0           0           1           0           1           0           1           1
 AtZEff=   0.0000000   0.0000000   0.0000000   0.0000000   0.0000000   0.0000000   0.0000000   0.0000000   0.0000000   0.0000000
 NQMom=    0.0000000   0.0000000   0.0000000   0.0000000   0.0000000   0.0000000   0.0000000   0.0000000   0.0000000   0.0000000
 NMagM=    2.7928460   2.7928460   0.0000000   0.0000000   2.7928460   0.0000000   2.7928460   0.0000000   2.7928460   2.7928460
 AtZNuc=   1.0000000   1.0000000   8.0000000   8.0000000   1.0000000   8.0000000   1.0000000   6.0000000   1.0000000   1.0000000

  Atom        61          62          63          64          65          66          67          68          69          70
 IAtWgt=          12           1           1          12           1           1          12           1          12           1
 AtmWgt=  12.0000000   1.0078250   1.0078250  12.0000000   1.0078250   1.0078250  12.0000000   1.0078250  12.0000000   1.0078250
 NucSpn=           0           1           1           0           1           1           0           1           0           1
 AtZEff=   0.0000000   0.0000000   0.0000000   0.0000000   0.0000000   0.0000000   0.0000000   0.0000000   0.0000000   0.0000000
 NQMom=    0.0000000   0.0000000   0.0000000   0.0000000   0.0000000   0.0000000   0.0000000   0.0000000   0.0000000   0.0000000
 NMagM=    0.0000000   2.7928460   2.7928460   0.0000000   2.7928460   2.7928460   0.0000000   2.7928460   0.0000000   2.7928460
 AtZNuc=   6.0000000   1.0000000   1.0000000   6.0000000   1.0000000   1.0000000   6.0000000   1.0000000   6.0000000   1.0000000

  Atom        71          72          73          74          75          76
 IAtWgt=           1           1          12           1           1           1
 AtmWgt=   1.0078250   1.0078250  12.0000000   1.0078250   1.0078250   1.0078250
 NucSpn=           1           1           0           1           1           1
 AtZEff=   0.0000000   0.0000000   0.0000000   0.0000000   0.0000000   0.0000000
 NQMom=    0.0000000   0.0000000   0.0000000   0.0000000   0.0000000   0.0000000
 NMagM=    2.7928460   2.7928460   0.0000000   2.7928460   2.7928460   2.7928460
 AtZNuc=   1.0000000   1.0000000   6.0000000   1.0000000   1.0000000   1.0000000
 Leave Link  101 at Thu Apr 27 15:38:11 2017, MaxMem=    33554432 cpu:         1.4
 (Enter /home/michal/g09/l202.exe)
 Symmetry turned off by external request.
 Stoichiometry    C27H46O3
 Framework group  C1[X(C27H46O3)]
 Deg. of freedom   222
 Full point group                 C1      NOp   1
                          Input orientation:                          
 ---------------------------------------------------------------------
 Center     Atomic      Atomic             Coordinates (Angstroms)
 Number     Number       Type             X           Y           Z
 ---------------------------------------------------------------------
      1          6           0        7.517659    2.214818    0.071625
      2          1           0        7.353373    2.185129    1.155724
      3          6           0        6.823364    1.006539   -0.572771
      4          1           0        7.205486    0.080538   -0.131608
      5          1           0        7.106645    0.990226   -1.637803
      6          6           0        5.312311    1.061895   -0.453626
      7          6           0        4.618160    2.359876   -0.881139
      8          6           0        5.411201    3.564889   -0.285390
      9          1           0        5.210707    3.609134    0.794158
     10          1           0        5.027117    4.498108   -0.710125
     11          6           0        6.933007    3.510095   -0.489469
     12          1           0        7.180952    3.581007   -1.559012
     13          1           0        7.406816    4.368566    0.000000
     14          6           0        4.632807    0.000000    0.000000
     15          1           0        5.176419   -0.890440    0.317648
     16          6           0        3.139653   -0.098997    0.108034
     17          1           0        2.855322   -0.189532    1.169114
     18          6           0        2.376182    1.068215   -0.535915
     19          1           0        2.319735    0.854121   -1.608776
     20          6           0        3.157090    2.393147   -0.310359
     21          1           0        3.271135    2.494768    0.781766
     22          6           0        2.342103    3.617672   -0.786022
     23          1           0        2.297228    3.629757   -1.880439
     24          1           0        2.859060    4.538595   -0.494866
     25          6           0        0.905227    3.672280   -0.231304
     26          1           0        0.940259    3.816270    0.858388
     27          1           0        0.407110    4.554777   -0.645385
     28          6           0        0.121869    2.380017   -0.534010
     29          6           0        0.957978    1.202552    0.046332
     30          1           0        1.096803    1.450841    1.113482
     31          6           0        0.000000    0.000000    0.000000
     32          1           0        0.265976   -0.773268    0.725324
     33          1           0        0.030231   -0.481447   -0.982699
     34          6           0       -1.392951    0.627006    0.281267
     35          1           0       -2.116788    0.316984   -0.481724
     36          1           0       -1.798988    0.292990    1.241616
     37          6           0       -1.214751    2.180182    0.261008
     38          1           0       -1.000305    2.512089    1.287803
     39          6           0       -0.126845    2.235810   -2.052691
     40          1           0        0.802993    2.166183   -2.622694
     41          1           0       -0.714513    1.343851   -2.288362
     42          1           0       -0.677019    3.101534   -2.436628
     43          6           0       -2.495804    2.917599   -0.202550
     44          1           0       -2.715319    2.578908   -1.225624
     45          6           0       -2.350750    4.450428   -0.250867
     46          1           0       -1.963878    4.855289    0.691014
     47          1           0       -3.323142    4.920937   -0.439192
     48          1           0       -1.676024    4.772679   -1.048055
     49          6           0        4.634857    2.438153   -2.431040
     50          1           0        4.281267    3.411875   -2.783781
     51          1           0        5.644307    2.299569   -2.827854
     52          1           0        4.004812    1.660519   -2.872249
     53          8           0        2.685681   -1.392774   -0.364448
     54          8           0        2.933221   -1.491833   -1.798102
     55          1           0        3.727439   -2.050733   -1.810663
     56          8           0        8.939141    2.146395   -0.068509
     57          1           0        9.160964    2.199732   -1.008800
     58          6           0       -3.737613    2.519700    0.639867
     59          1           0       -4.613886    3.006383    0.187903
     60          1           0       -3.913529    1.441285    0.541375
     61          6           0       -3.700121    2.877371    2.135219
     62          1           0       -2.850191    2.375205    2.613265
     63          1           0       -3.530025    3.954415    2.252734
     64          6           0       -5.001185    2.480057    2.852052
     65          1           0       -5.166371    1.402369    2.708185
     66          1           0       -5.843193    2.983159    2.354752
     67          6           0       -5.079981    2.784826    4.366226
     68          1           0       -6.070618    2.434919    4.692611
     69          6           0       -4.035626    2.006110    5.183319
     70          1           0       -3.016055    2.342507    4.962290
     71          1           0       -4.198964    2.145017    6.258182
     72          1           0       -4.085924    0.931018    4.974199
     73          6           0       -5.010196    4.290162    4.672511
     74          1           0       -4.025102    4.706510    4.432153
     75          1           0       -5.194341    4.480714    5.736035
     76          1           0       -5.758618    4.849316    4.098632
 ---------------------------------------------------------------------
 Rotational constants (GHZ):      0.2882623      0.0599737      0.0582409
 Leave Link  202 at Thu Apr 27 15:38:11 2017, MaxMem=    33554432 cpu:         0.0
 (Enter /home/michal/g09/l301.exe)
 Standard basis: 6-31G(d) (6D, 7F)
 Ernie: Thresh=  0.10000D-02 Tol=  0.10000D-05 Strict=F.
 AO basis set in the form of general basis input (Overlap normalization):
      1 0
 S   6 1.00       0.000000000000
      0.3047524880D+04  0.1834737132D-02
      0.4573695180D+03  0.1403732281D-01
      0.1039486850D+03  0.6884262226D-01
      0.2921015530D+02  0.2321844432D+00
      0.9286662960D+01  0.4679413484D+00
      0.3163926960D+01  0.3623119853D+00
 SP   3 1.00       0.000000000000
      0.7868272350D+01 -0.1193324198D+00  0.6899906659D-01
      0.1881288540D+01 -0.1608541517D+00  0.3164239610D+00
      0.5442492580D+00  0.1143456438D+01  0.7443082909D+00
 SP   1 1.00       0.000000000000
      0.1687144782D+00  0.1000000000D+01  0.1000000000D+01
 D   1 1.00       0.000000000000
      0.8000000000D+00  0.1000000000D+01
 ****
      2 0
 S   3 1.00       0.000000000000
      0.1873113696D+02  0.3349460434D-01
      0.2825394365D+01  0.2347269535D+00
      0.6401216923D+00  0.8137573261D+00
 S   1 1.00       0.000000000000
      0.1612777588D+00  0.1000000000D+01
 ****
      3 0
 S   6 1.00       0.000000000000
      0.3047524880D+04  0.1834737132D-02
      0.4573695180D+03  0.1403732281D-01
      0.1039486850D+03  0.6884262226D-01
      0.2921015530D+02  0.2321844432D+00
      0.9286662960D+01  0.4679413484D+00
      0.3163926960D+01  0.3623119853D+00
 SP   3 1.00       0.000000000000
      0.7868272350D+01 -0.1193324198D+00  0.6899906659D-01
      0.1881288540D+01 -0.1608541517D+00  0.3164239610D+00
      0.5442492580D+00  0.1143456438D+01  0.7443082909D+00
 SP   1 1.00       0.000000000000
      0.1687144782D+00  0.1000000000D+01  0.1000000000D+01
 D   1 1.00       0.000000000000
      0.8000000000D+00  0.1000000000D+01
 ****
      4 0
 S   3 1.00       0.000000000000
      0.1873113696D+02  0.3349460434D-01
      0.2825394365D+01  0.2347269535D+00
      0.6401216923D+00  0.8137573261D+00
 S   1 1.00       0.000000000000
      0.1612777588D+00  0.1000000000D+01
 ****
      5 0
 S   3 1.00       0.000000000000
      0.1873113696D+02  0.3349460434D-01
      0.2825394365D+01  0.2347269535D+00
      0.6401216923D+00  0.8137573261D+00
 S   1 1.00       0.000000000000
      0.1612777588D+00  0.1000000000D+01
 ****
      6 0
 S   6 1.00       0.000000000000
      0.3047524880D+04  0.1834737132D-02
      0.4573695180D+03  0.1403732281D-01
      0.1039486850D+03  0.6884262226D-01
      0.2921015530D+02  0.2321844432D+00
      0.9286662960D+01  0.4679413484D+00
      0.3163926960D+01  0.3623119853D+00
 SP   3 1.00       0.000000000000
      0.7868272350D+01 -0.1193324198D+00  0.6899906659D-01
      0.1881288540D+01 -0.1608541517D+00  0.3164239610D+00
      0.5442492580D+00  0.1143456438D+01  0.7443082909D+00
 SP   1 1.00       0.000000000000
      0.1687144782D+00  0.1000000000D+01  0.1000000000D+01
 D   1 1.00       0.000000000000
      0.8000000000D+00  0.1000000000D+01
 ****
      7 0
 S   6 1.00       0.000000000000
      0.3047524880D+04  0.1834737132D-02
      0.4573695180D+03  0.1403732281D-01
      0.1039486850D+03  0.6884262226D-01
      0.2921015530D+02  0.2321844432D+00
      0.9286662960D+01  0.4679413484D+00
      0.3163926960D+01  0.3623119853D+00
 SP   3 1.00       0.000000000000
      0.7868272350D+01 -0.1193324198D+00  0.6899906659D-01
      0.1881288540D+01 -0.1608541517D+00  0.3164239610D+00
      0.5442492580D+00  0.1143456438D+01  0.7443082909D+00
 SP   1 1.00       0.000000000000
      0.1687144782D+00  0.1000000000D+01  0.1000000000D+01
 D   1 1.00       0.000000000000
      0.8000000000D+00  0.1000000000D+01
 ****
      8 0
 S   6 1.00       0.000000000000
      0.3047524880D+04  0.1834737132D-02
      0.4573695180D+03  0.1403732281D-01
      0.1039486850D+03  0.6884262226D-01
      0.2921015530D+02  0.2321844432D+00
      0.9286662960D+01  0.4679413484D+00
      0.3163926960D+01  0.3623119853D+00
 SP   3 1.00       0.000000000000
      0.7868272350D+01 -0.1193324198D+00  0.6899906659D-01
      0.1881288540D+01 -0.1608541517D+00  0.3164239610D+00
      0.5442492580D+00  0.1143456438D+01  0.7443082909D+00
 SP   1 1.00       0.000000000000
      0.1687144782D+00  0.1000000000D+01  0.1000000000D+01
 D   1 1.00       0.000000000000
      0.8000000000D+00  0.1000000000D+01
 ****
      9 0
 S   3 1.00       0.000000000000
      0.1873113696D+02  0.3349460434D-01
      0.2825394365D+01  0.2347269535D+00
      0.6401216923D+00  0.8137573261D+00
 S   1 1.00       0.000000000000
      0.1612777588D+00  0.1000000000D+01
 ****
     10 0
 S   3 1.00       0.000000000000
      0.1873113696D+02  0.3349460434D-01
      0.2825394365D+01  0.2347269535D+00
      0.6401216923D+00  0.8137573261D+00
 S   1 1.00       0.000000000000
      0.1612777588D+00  0.1000000000D+01
 ****
     11 0
 S   6 1.00       0.000000000000
      0.3047524880D+04  0.1834737132D-02
      0.4573695180D+03  0.1403732281D-01
      0.1039486850D+03  0.6884262226D-01
      0.2921015530D+02  0.2321844432D+00
      0.9286662960D+01  0.4679413484D+00
      0.3163926960D+01  0.3623119853D+00
 SP   3 1.00       0.000000000000
      0.7868272350D+01 -0.1193324198D+00  0.6899906659D-01
      0.1881288540D+01 -0.1608541517D+00  0.3164239610D+00
      0.5442492580D+00  0.1143456438D+01  0.7443082909D+00
 SP   1 1.00       0.000000000000
      0.1687144782D+00  0.1000000000D+01  0.1000000000D+01
 D   1 1.00       0.000000000000
      0.8000000000D+00  0.1000000000D+01
 ****
     12 0
 S   3 1.00       0.000000000000
      0.1873113696D+02  0.3349460434D-01
      0.2825394365D+01  0.2347269535D+00
      0.6401216923D+00  0.8137573261D+00
 S   1 1.00       0.000000000000
      0.1612777588D+00  0.1000000000D+01
 ****
     13 0
 S   3 1.00       0.000000000000
      0.1873113696D+02  0.3349460434D-01
      0.2825394365D+01  0.2347269535D+00
      0.6401216923D+00  0.8137573261D+00
 S   1 1.00       0.000000000000
      0.1612777588D+00  0.1000000000D+01
 ****
     14 0
 S   6 1.00       0.000000000000
      0.3047524880D+04  0.1834737132D-02
      0.4573695180D+03  0.1403732281D-01
      0.1039486850D+03  0.6884262226D-01
      0.2921015530D+02  0.2321844432D+00
      0.9286662960D+01  0.4679413484D+00
      0.3163926960D+01  0.3623119853D+00
 SP   3 1.00       0.000000000000
      0.7868272350D+01 -0.1193324198D+00  0.6899906659D-01
      0.1881288540D+01 -0.1608541517D+00  0.3164239610D+00
      0.5442492580D+00  0.1143456438D+01  0.7443082909D+00
 SP   1 1.00       0.000000000000
      0.1687144782D+00  0.1000000000D+01  0.1000000000D+01
 D   1 1.00       0.000000000000
      0.8000000000D+00  0.1000000000D+01
 ****
     15 0
 S   3 1.00       0.000000000000
      0.1873113696D+02  0.3349460434D-01
      0.2825394365D+01  0.2347269535D+00
      0.6401216923D+00  0.8137573261D+00
 S   1 1.00       0.000000000000
      0.1612777588D+00  0.1000000000D+01
 ****
     16 0
 S   6 1.00       0.000000000000
      0.3047524880D+04  0.1834737132D-02
      0.4573695180D+03  0.1403732281D-01
      0.1039486850D+03  0.6884262226D-01
      0.2921015530D+02  0.2321844432D+00
      0.9286662960D+01  0.4679413484D+00
      0.3163926960D+01  0.3623119853D+00
 SP   3 1.00       0.000000000000
      0.7868272350D+01 -0.1193324198D+00  0.6899906659D-01
      0.1881288540D+01 -0.1608541517D+00  0.3164239610D+00
      0.5442492580D+00  0.1143456438D+01  0.7443082909D+00
 SP   1 1.00       0.000000000000
      0.1687144782D+00  0.1000000000D+01  0.1000000000D+01
 D   1 1.00       0.000000000000
      0.8000000000D+00  0.1000000000D+01
 ****
     17 0
 S   3 1.00       0.000000000000
      0.1873113696D+02  0.3349460434D-01
      0.2825394365D+01  0.2347269535D+00
      0.6401216923D+00  0.8137573261D+00
 S   1 1.00       0.000000000000
      0.1612777588D+00  0.1000000000D+01
 ****
     18 0
 S   6 1.00       0.000000000000
      0.3047524880D+04  0.1834737132D-02
      0.4573695180D+03  0.1403732281D-01
      0.1039486850D+03  0.6884262226D-01
      0.2921015530D+02  0.2321844432D+00
      0.9286662960D+01  0.4679413484D+00
      0.3163926960D+01  0.3623119853D+00
 SP   3 1.00       0.000000000000
      0.7868272350D+01 -0.1193324198D+00  0.6899906659D-01
      0.1881288540D+01 -0.1608541517D+00  0.3164239610D+00
      0.5442492580D+00  0.1143456438D+01  0.7443082909D+00
 SP   1 1.00       0.000000000000
      0.1687144782D+00  0.1000000000D+01  0.1000000000D+01
 D   1 1.00       0.000000000000
      0.8000000000D+00  0.1000000000D+01
 ****
     19 0
 S   3 1.00       0.000000000000
      0.1873113696D+02  0.3349460434D-01
      0.2825394365D+01  0.2347269535D+00
      0.6401216923D+00  0.8137573261D+00
 S   1 1.00       0.000000000000
      0.1612777588D+00  0.1000000000D+01
 ****
     20 0
 S   6 1.00       0.000000000000
      0.3047524880D+04  0.1834737132D-02
      0.4573695180D+03  0.1403732281D-01
      0.1039486850D+03  0.6884262226D-01
      0.2921015530D+02  0.2321844432D+00
      0.9286662960D+01  0.4679413484D+00
      0.3163926960D+01  0.3623119853D+00
 SP   3 1.00       0.000000000000
      0.7868272350D+01 -0.1193324198D+00  0.6899906659D-01
      0.1881288540D+01 -0.1608541517D+00  0.3164239610D+00
      0.5442492580D+00  0.1143456438D+01  0.7443082909D+00
 SP   1 1.00       0.000000000000
      0.1687144782D+00  0.1000000000D+01  0.1000000000D+01
 D   1 1.00       0.000000000000
      0.8000000000D+00  0.1000000000D+01
 ****
     21 0
 S   3 1.00       0.000000000000
      0.1873113696D+02  0.3349460434D-01
      0.2825394365D+01  0.2347269535D+00
      0.6401216923D+00  0.8137573261D+00
 S   1 1.00       0.000000000000
      0.1612777588D+00  0.1000000000D+01
 ****
     22 0
 S   6 1.00       0.000000000000
      0.3047524880D+04  0.1834737132D-02
      0.4573695180D+03  0.1403732281D-01
      0.1039486850D+03  0.6884262226D-01
      0.2921015530D+02  0.2321844432D+00
      0.9286662960D+01  0.4679413484D+00
      0.3163926960D+01  0.3623119853D+00
 SP   3 1.00       0.000000000000
      0.7868272350D+01 -0.1193324198D+00  0.6899906659D-01
      0.1881288540D+01 -0.1608541517D+00  0.3164239610D+00
      0.5442492580D+00  0.1143456438D+01  0.7443082909D+00
 SP   1 1.00       0.000000000000
      0.1687144782D+00  0.1000000000D+01  0.1000000000D+01
 D   1 1.00       0.000000000000
      0.8000000000D+00  0.1000000000D+01
 ****
     23 0
 S   3 1.00       0.000000000000
      0.1873113696D+02  0.3349460434D-01
      0.2825394365D+01  0.2347269535D+00
      0.6401216923D+00  0.8137573261D+00
 S   1 1.00       0.000000000000
      0.1612777588D+00  0.1000000000D+01
 ****
     24 0
 S   3 1.00       0.000000000000
      0.1873113696D+02  0.3349460434D-01
      0.2825394365D+01  0.2347269535D+00
      0.6401216923D+00  0.8137573261D+00
 S   1 1.00       0.000000000000
      0.1612777588D+00  0.1000000000D+01
 ****
     25 0
 S   6 1.00       0.000000000000
      0.3047524880D+04  0.1834737132D-02
      0.4573695180D+03  0.1403732281D-01
      0.1039486850D+03  0.6884262226D-01
      0.2921015530D+02  0.2321844432D+00
      0.9286662960D+01  0.4679413484D+00
      0.3163926960D+01  0.3623119853D+00
 SP   3 1.00       0.000000000000
      0.7868272350D+01 -0.1193324198D+00  0.6899906659D-01
      0.1881288540D+01 -0.1608541517D+00  0.3164239610D+00
      0.5442492580D+00  0.1143456438D+01  0.7443082909D+00
 SP   1 1.00       0.000000000000
      0.1687144782D+00  0.1000000000D+01  0.1000000000D+01
 D   1 1.00       0.000000000000
      0.8000000000D+00  0.1000000000D+01
 ****
     26 0
 S   3 1.00       0.000000000000
      0.1873113696D+02  0.3349460434D-01
      0.2825394365D+01  0.2347269535D+00
      0.6401216923D+00  0.8137573261D+00
 S   1 1.00       0.000000000000
      0.1612777588D+00  0.1000000000D+01
 ****
     27 0
 S   3 1.00       0.000000000000
      0.1873113696D+02  0.3349460434D-01
      0.2825394365D+01  0.2347269535D+00
      0.6401216923D+00  0.8137573261D+00
 S   1 1.00       0.000000000000
      0.1612777588D+00  0.1000000000D+01
 ****
     28 0
 S   6 1.00       0.000000000000
      0.3047524880D+04  0.1834737132D-02
      0.4573695180D+03  0.1403732281D-01
      0.1039486850D+03  0.6884262226D-01
      0.2921015530D+02  0.2321844432D+00
      0.9286662960D+01  0.4679413484D+00
      0.3163926960D+01  0.3623119853D+00
 SP   3 1.00       0.000000000000
      0.7868272350D+01 -0.1193324198D+00  0.6899906659D-01
      0.1881288540D+01 -0.1608541517D+00  0.3164239610D+00
      0.5442492580D+00  0.1143456438D+01  0.7443082909D+00
 SP   1 1.00       0.000000000000
      0.1687144782D+00  0.1000000000D+01  0.1000000000D+01
 D   1 1.00       0.000000000000
      0.8000000000D+00  0.1000000000D+01
 ****
     29 0
 S   6 1.00       0.000000000000
      0.3047524880D+04  0.1834737132D-02
      0.4573695180D+03  0.1403732281D-01
      0.1039486850D+03  0.6884262226D-01
      0.2921015530D+02  0.2321844432D+00
      0.9286662960D+01  0.4679413484D+00
      0.3163926960D+01  0.3623119853D+00
 SP   3 1.00       0.000000000000
      0.7868272350D+01 -0.1193324198D+00  0.6899906659D-01
      0.1881288540D+01 -0.1608541517D+00  0.3164239610D+00
      0.5442492580D+00  0.1143456438D+01  0.7443082909D+00
 SP   1 1.00       0.000000000000
      0.1687144782D+00  0.1000000000D+01  0.1000000000D+01
 D   1 1.00       0.000000000000
      0.8000000000D+00  0.1000000000D+01
 ****
     30 0
 S   3 1.00       0.000000000000
      0.1873113696D+02  0.3349460434D-01
      0.2825394365D+01  0.2347269535D+00
      0.6401216923D+00  0.8137573261D+00
 S   1 1.00       0.000000000000
      0.1612777588D+00  0.1000000000D+01
 ****
     31 0
 S   6 1.00       0.000000000000
      0.3047524880D+04  0.1834737132D-02
      0.4573695180D+03  0.1403732281D-01
      0.1039486850D+03  0.6884262226D-01
      0.2921015530D+02  0.2321844432D+00
      0.9286662960D+01  0.4679413484D+00
      0.3163926960D+01  0.3623119853D+00
 SP   3 1.00       0.000000000000
      0.7868272350D+01 -0.1193324198D+00  0.6899906659D-01
      0.1881288540D+01 -0.1608541517D+00  0.3164239610D+00
      0.5442492580D+00  0.1143456438D+01  0.7443082909D+00
 SP   1 1.00       0.000000000000
      0.1687144782D+00  0.1000000000D+01  0.1000000000D+01
 D   1 1.00       0.000000000000
      0.8000000000D+00  0.1000000000D+01
 ****
     32 0
 S   3 1.00       0.000000000000
      0.1873113696D+02  0.3349460434D-01
      0.2825394365D+01  0.2347269535D+00
      0.6401216923D+00  0.8137573261D+00
 S   1 1.00       0.000000000000
      0.1612777588D+00  0.1000000000D+01
 ****
     33 0
 S   3 1.00       0.000000000000
      0.1873113696D+02  0.3349460434D-01
      0.2825394365D+01  0.2347269535D+00
      0.6401216923D+00  0.8137573261D+00
 S   1 1.00       0.000000000000
      0.1612777588D+00  0.1000000000D+01
 ****
     34 0
 S   6 1.00       0.000000000000
      0.3047524880D+04  0.1834737132D-02
      0.4573695180D+03  0.1403732281D-01
      0.1039486850D+03  0.6884262226D-01
      0.2921015530D+02  0.2321844432D+00
      0.9286662960D+01  0.4679413484D+00
      0.3163926960D+01  0.3623119853D+00
 SP   3 1.00       0.000000000000
      0.7868272350D+01 -0.1193324198D+00  0.6899906659D-01
      0.1881288540D+01 -0.1608541517D+00  0.3164239610D+00
      0.5442492580D+00  0.1143456438D+01  0.7443082909D+00
 SP   1 1.00       0.000000000000
      0.1687144782D+00  0.1000000000D+01  0.1000000000D+01
 D   1 1.00       0.000000000000
      0.8000000000D+00  0.1000000000D+01
 ****
     35 0
 S   3 1.00       0.000000000000
      0.1873113696D+02  0.3349460434D-01
      0.2825394365D+01  0.2347269535D+00
      0.6401216923D+00  0.8137573261D+00
 S   1 1.00       0.000000000000
      0.1612777588D+00  0.1000000000D+01
 ****
     36 0
 S   3 1.00       0.000000000000
      0.1873113696D+02  0.3349460434D-01
      0.2825394365D+01  0.2347269535D+00
      0.6401216923D+00  0.8137573261D+00
 S   1 1.00       0.000000000000
      0.1612777588D+00  0.1000000000D+01
 ****
     37 0
 S   6 1.00       0.000000000000
      0.3047524880D+04  0.1834737132D-02
      0.4573695180D+03  0.1403732281D-01
      0.1039486850D+03  0.6884262226D-01
      0.2921015530D+02  0.2321844432D+00
      0.9286662960D+01  0.4679413484D+00
      0.3163926960D+01  0.3623119853D+00
 SP   3 1.00       0.000000000000
      0.7868272350D+01 -0.1193324198D+00  0.6899906659D-01
      0.1881288540D+01 -0.1608541517D+00  0.3164239610D+00
      0.5442492580D+00  0.1143456438D+01  0.7443082909D+00
 SP   1 1.00       0.000000000000
      0.1687144782D+00  0.1000000000D+01  0.1000000000D+01
 D   1 1.00       0.000000000000
      0.8000000000D+00  0.1000000000D+01
 ****
     38 0
 S   3 1.00       0.000000000000
      0.1873113696D+02  0.3349460434D-01
      0.2825394365D+01  0.2347269535D+00
      0.6401216923D+00  0.8137573261D+00
 S   1 1.00       0.000000000000
      0.1612777588D+00  0.1000000000D+01
 ****
     39 0
 S   6 1.00       0.000000000000
      0.3047524880D+04  0.1834737132D-02
      0.4573695180D+03  0.1403732281D-01
      0.1039486850D+03  0.6884262226D-01
      0.2921015530D+02  0.2321844432D+00
      0.9286662960D+01  0.4679413484D+00
      0.3163926960D+01  0.3623119853D+00
 SP   3 1.00       0.000000000000
      0.7868272350D+01 -0.1193324198D+00  0.6899906659D-01
      0.1881288540D+01 -0.1608541517D+00  0.3164239610D+00
      0.5442492580D+00  0.1143456438D+01  0.7443082909D+00
 SP   1 1.00       0.000000000000
      0.1687144782D+00  0.1000000000D+01  0.1000000000D+01
 D   1 1.00       0.000000000000
      0.8000000000D+00  0.1000000000D+01
 ****
     40 0
 S   3 1.00       0.000000000000
      0.1873113696D+02  0.3349460434D-01
      0.2825394365D+01  0.2347269535D+00
      0.6401216923D+00  0.8137573261D+00
 S   1 1.00       0.000000000000
      0.1612777588D+00  0.1000000000D+01
 ****
     41 0
 S   3 1.00       0.000000000000
      0.1873113696D+02  0.3349460434D-01
      0.2825394365D+01  0.2347269535D+00
      0.6401216923D+00  0.8137573261D+00
 S   1 1.00       0.000000000000
      0.1612777588D+00  0.1000000000D+01
 ****
     42 0
 S   3 1.00       0.000000000000
      0.1873113696D+02  0.3349460434D-01
      0.2825394365D+01  0.2347269535D+00
      0.6401216923D+00  0.8137573261D+00
 S   1 1.00       0.000000000000
      0.1612777588D+00  0.1000000000D+01
 ****
     43 0
 S   6 1.00       0.000000000000
      0.3047524880D+04  0.1834737132D-02
      0.4573695180D+03  0.1403732281D-01
      0.1039486850D+03  0.6884262226D-01
      0.2921015530D+02  0.2321844432D+00
      0.9286662960D+01  0.4679413484D+00
      0.3163926960D+01  0.3623119853D+00
 SP   3 1.00       0.000000000000
      0.7868272350D+01 -0.1193324198D+00  0.6899906659D-01
      0.1881288540D+01 -0.1608541517D+00  0.3164239610D+00
      0.5442492580D+00  0.1143456438D+01  0.7443082909D+00
 SP   1 1.00       0.000000000000
      0.1687144782D+00  0.1000000000D+01  0.1000000000D+01
 D   1 1.00       0.000000000000
      0.8000000000D+00  0.1000000000D+01
 ****
     44 0
 S   3 1.00       0.000000000000
      0.1873113696D+02  0.3349460434D-01
      0.2825394365D+01  0.2347269535D+00
      0.6401216923D+00  0.8137573261D+00
 S   1 1.00       0.000000000000
      0.1612777588D+00  0.1000000000D+01
 ****
     45 0
 S   6 1.00       0.000000000000
      0.3047524880D+04  0.1834737132D-02
      0.4573695180D+03  0.1403732281D-01
      0.1039486850D+03  0.6884262226D-01
      0.2921015530D+02  0.2321844432D+00
      0.9286662960D+01  0.4679413484D+00
      0.3163926960D+01  0.3623119853D+00
 SP   3 1.00       0.000000000000
      0.7868272350D+01 -0.1193324198D+00  0.6899906659D-01
      0.1881288540D+01 -0.1608541517D+00  0.3164239610D+00
      0.5442492580D+00  0.1143456438D+01  0.7443082909D+00
 SP   1 1.00       0.000000000000
      0.1687144782D+00  0.1000000000D+01  0.1000000000D+01
 D   1 1.00       0.000000000000
      0.8000000000D+00  0.1000000000D+01
 ****
     46 0
 S   3 1.00       0.000000000000
      0.1873113696D+02  0.3349460434D-01
      0.2825394365D+01  0.2347269535D+00
      0.6401216923D+00  0.8137573261D+00
 S   1 1.00       0.000000000000
      0.1612777588D+00  0.1000000000D+01
 ****
     47 0
 S   3 1.00       0.000000000000
      0.1873113696D+02  0.3349460434D-01
      0.2825394365D+01  0.2347269535D+00
      0.6401216923D+00  0.8137573261D+00
 S   1 1.00       0.000000000000
      0.1612777588D+00  0.1000000000D+01
 ****
     48 0
 S   3 1.00       0.000000000000
      0.1873113696D+02  0.3349460434D-01
      0.2825394365D+01  0.2347269535D+00
      0.6401216923D+00  0.8137573261D+00
 S   1 1.00       0.000000000000
      0.1612777588D+00  0.1000000000D+01
 ****
     49 0
 S   6 1.00       0.000000000000
      0.3047524880D+04  0.1834737132D-02
      0.4573695180D+03  0.1403732281D-01
      0.1039486850D+03  0.6884262226D-01
      0.2921015530D+02  0.2321844432D+00
      0.9286662960D+01  0.4679413484D+00
      0.3163926960D+01  0.3623119853D+00
 SP   3 1.00       0.000000000000
      0.7868272350D+01 -0.1193324198D+00  0.6899906659D-01
      0.1881288540D+01 -0.1608541517D+00  0.3164239610D+00
      0.5442492580D+00  0.1143456438D+01  0.7443082909D+00
 SP   1 1.00       0.000000000000
      0.1687144782D+00  0.1000000000D+01  0.1000000000D+01
 D   1 1.00       0.000000000000
      0.8000000000D+00  0.1000000000D+01
 ****
     50 0
 S   3 1.00       0.000000000000
      0.1873113696D+02  0.3349460434D-01
      0.2825394365D+01  0.2347269535D+00
      0.6401216923D+00  0.8137573261D+00
 S   1 1.00       0.000000000000
      0.1612777588D+00  0.1000000000D+01
 ****
     51 0
 S   3 1.00       0.000000000000
      0.1873113696D+02  0.3349460434D-01
      0.2825394365D+01  0.2347269535D+00
      0.6401216923D+00  0.8137573261D+00
 S   1 1.00       0.000000000000
      0.1612777588D+00  0.1000000000D+01
 ****
     52 0
 S   3 1.00       0.000000000000
      0.1873113696D+02  0.3349460434D-01
      0.2825394365D+01  0.2347269535D+00
      0.6401216923D+00  0.8137573261D+00
 S   1 1.00       0.000000000000
      0.1612777588D+00  0.1000000000D+01
 ****
     53 0
 S   6 1.00       0.000000000000
      0.5484671660D+04  0.1831074430D-02
      0.8252349460D+03  0.1395017220D-01
      0.1880469580D+03  0.6844507810D-01
      0.5296450000D+02  0.2327143360D+00
      0.1689757040D+02  0.4701928980D+00
      0.5799635340D+01  0.3585208530D+00
 SP   3 1.00       0.000000000000
      0.1553961625D+02 -0.1107775495D+00  0.7087426823D-01
      0.3599933586D+01 -0.1480262627D+00  0.3397528391D+00
      0.1013761750D+01  0.1130767015D+01  0.7271585773D+00
 SP   1 1.00       0.000000000000
      0.2700058226D+00  0.1000000000D+01  0.1000000000D+01
 D   1 1.00       0.000000000000
      0.8000000000D+00  0.1000000000D+01
 ****
     54 0
 S   6 1.00       0.000000000000
      0.5484671660D+04  0.1831074430D-02
      0.8252349460D+03  0.1395017220D-01
      0.1880469580D+03  0.6844507810D-01
      0.5296450000D+02  0.2327143360D+00
      0.1689757040D+02  0.4701928980D+00
      0.5799635340D+01  0.3585208530D+00
 SP   3 1.00       0.000000000000
      0.1553961625D+02 -0.1107775495D+00  0.7087426823D-01
      0.3599933586D+01 -0.1480262627D+00  0.3397528391D+00
      0.1013761750D+01  0.1130767015D+01  0.7271585773D+00
 SP   1 1.00       0.000000000000
      0.2700058226D+00  0.1000000000D+01  0.1000000000D+01
 D   1 1.00       0.000000000000
      0.8000000000D+00  0.1000000000D+01
 ****
     55 0
 S   3 1.00       0.000000000000
      0.1873113696D+02  0.3349460434D-01
      0.2825394365D+01  0.2347269535D+00
      0.6401216923D+00  0.8137573261D+00
 S   1 1.00       0.000000000000
      0.1612777588D+00  0.1000000000D+01
 ****
     56 0
 S   6 1.00       0.000000000000
      0.5484671660D+04  0.1831074430D-02
      0.8252349460D+03  0.1395017220D-01
      0.1880469580D+03  0.6844507810D-01
      0.5296450000D+02  0.2327143360D+00
      0.1689757040D+02  0.4701928980D+00
      0.5799635340D+01  0.3585208530D+00
 SP   3 1.00       0.000000000000
      0.1553961625D+02 -0.1107775495D+00  0.7087426823D-01
      0.3599933586D+01 -0.1480262627D+00  0.3397528391D+00
      0.1013761750D+01  0.1130767015D+01  0.7271585773D+00
 SP   1 1.00       0.000000000000
      0.2700058226D+00  0.1000000000D+01  0.1000000000D+01
 D   1 1.00       0.000000000000
      0.8000000000D+00  0.1000000000D+01
 ****
     57 0
 S   3 1.00       0.000000000000
      0.1873113696D+02  0.3349460434D-01
      0.2825394365D+01  0.2347269535D+00
      0.6401216923D+00  0.8137573261D+00
 S   1 1.00       0.000000000000
      0.1612777588D+00  0.1000000000D+01
 ****
     58 0
 S   6 1.00       0.000000000000
      0.3047524880D+04  0.1834737132D-02
      0.4573695180D+03  0.1403732281D-01
      0.1039486850D+03  0.6884262226D-01
      0.2921015530D+02  0.2321844432D+00
      0.9286662960D+01  0.4679413484D+00
      0.3163926960D+01  0.3623119853D+00
 SP   3 1.00       0.000000000000
      0.7868272350D+01 -0.1193324198D+00  0.6899906659D-01
      0.1881288540D+01 -0.1608541517D+00  0.3164239610D+00
      0.5442492580D+00  0.1143456438D+01  0.7443082909D+00
 SP   1 1.00       0.000000000000
      0.1687144782D+00  0.1000000000D+01  0.1000000000D+01
 D   1 1.00       0.000000000000
      0.8000000000D+00  0.1000000000D+01
 ****
     59 0
 S   3 1.00       0.000000000000
      0.1873113696D+02  0.3349460434D-01
      0.2825394365D+01  0.2347269535D+00
      0.6401216923D+00  0.8137573261D+00
 S   1 1.00       0.000000000000
      0.1612777588D+00  0.1000000000D+01
 ****
     60 0
 S   3 1.00       0.000000000000
      0.1873113696D+02  0.3349460434D-01
      0.2825394365D+01  0.2347269535D+00
      0.6401216923D+00  0.8137573261D+00
 S   1 1.00       0.000000000000
      0.1612777588D+00  0.1000000000D+01
 ****
     61 0
 S   6 1.00       0.000000000000
      0.3047524880D+04  0.1834737132D-02
      0.4573695180D+03  0.1403732281D-01
      0.1039486850D+03  0.6884262226D-01
      0.2921015530D+02  0.2321844432D+00
      0.9286662960D+01  0.4679413484D+00
      0.3163926960D+01  0.3623119853D+00
 SP   3 1.00       0.000000000000
      0.7868272350D+01 -0.1193324198D+00  0.6899906659D-01
      0.1881288540D+01 -0.1608541517D+00  0.3164239610D+00
      0.5442492580D+00  0.1143456438D+01  0.7443082909D+00
 SP   1 1.00       0.000000000000
      0.1687144782D+00  0.1000000000D+01  0.1000000000D+01
 D   1 1.00       0.000000000000
      0.8000000000D+00  0.1000000000D+01
 ****
     62 0
 S   3 1.00       0.000000000000
      0.1873113696D+02  0.3349460434D-01
      0.2825394365D+01  0.2347269535D+00
      0.6401216923D+00  0.8137573261D+00
 S   1 1.00       0.000000000000
      0.1612777588D+00  0.1000000000D+01
 ****
     63 0
 S   3 1.00       0.000000000000
      0.1873113696D+02  0.3349460434D-01
      0.2825394365D+01  0.2347269535D+00
      0.6401216923D+00  0.8137573261D+00
 S   1 1.00       0.000000000000
      0.1612777588D+00  0.1000000000D+01
 ****
     64 0
 S   6 1.00       0.000000000000
      0.3047524880D+04  0.1834737132D-02
      0.4573695180D+03  0.1403732281D-01
      0.1039486850D+03  0.6884262226D-01
      0.2921015530D+02  0.2321844432D+00
      0.9286662960D+01  0.4679413484D+00
      0.3163926960D+01  0.3623119853D+00
 SP   3 1.00       0.000000000000
      0.7868272350D+01 -0.1193324198D+00  0.6899906659D-01
      0.1881288540D+01 -0.1608541517D+00  0.3164239610D+00
      0.5442492580D+00  0.1143456438D+01  0.7443082909D+00
 SP   1 1.00       0.000000000000
      0.1687144782D+00  0.1000000000D+01  0.1000000000D+01
 D   1 1.00       0.000000000000
      0.8000000000D+00  0.1000000000D+01
 ****
     65 0
 S   3 1.00       0.000000000000
      0.1873113696D+02  0.3349460434D-01
      0.2825394365D+01  0.2347269535D+00
      0.6401216923D+00  0.8137573261D+00
 S   1 1.00       0.000000000000
      0.1612777588D+00  0.1000000000D+01
 ****
     66 0
 S   3 1.00       0.000000000000
      0.1873113696D+02  0.3349460434D-01
      0.2825394365D+01  0.2347269535D+00
      0.6401216923D+00  0.8137573261D+00
 S   1 1.00       0.000000000000
      0.1612777588D+00  0.1000000000D+01
 ****
     67 0
 S   6 1.00       0.000000000000
      0.3047524880D+04  0.1834737132D-02
      0.4573695180D+03  0.1403732281D-01
      0.1039486850D+03  0.6884262226D-01
      0.2921015530D+02  0.2321844432D+00
      0.9286662960D+01  0.4679413484D+00
      0.3163926960D+01  0.3623119853D+00
 SP   3 1.00       0.000000000000
      0.7868272350D+01 -0.1193324198D+00  0.6899906659D-01
      0.1881288540D+01 -0.1608541517D+00  0.3164239610D+00
      0.5442492580D+00  0.1143456438D+01  0.7443082909D+00
 SP   1 1.00       0.000000000000
      0.1687144782D+00  0.1000000000D+01  0.1000000000D+01
 D   1 1.00       0.000000000000
      0.8000000000D+00  0.1000000000D+01
 ****
     68 0
 S   3 1.00       0.000000000000
      0.1873113696D+02  0.3349460434D-01
      0.2825394365D+01  0.2347269535D+00
      0.6401216923D+00  0.8137573261D+00
 S   1 1.00       0.000000000000
      0.1612777588D+00  0.1000000000D+01
 ****
     69 0
 S   6 1.00       0.000000000000
      0.3047524880D+04  0.1834737132D-02
      0.4573695180D+03  0.1403732281D-01
      0.1039486850D+03  0.6884262226D-01
      0.2921015530D+02  0.2321844432D+00
      0.9286662960D+01  0.4679413484D+00
      0.3163926960D+01  0.3623119853D+00
 SP   3 1.00       0.000000000000
      0.7868272350D+01 -0.1193324198D+00  0.6899906659D-01
      0.1881288540D+01 -0.1608541517D+00  0.3164239610D+00
      0.5442492580D+00  0.1143456438D+01  0.7443082909D+00
 SP   1 1.00       0.000000000000
      0.1687144782D+00  0.1000000000D+01  0.1000000000D+01
 D   1 1.00       0.000000000000
      0.8000000000D+00  0.1000000000D+01
 ****
     70 0
 S   3 1.00       0.000000000000
      0.1873113696D+02  0.3349460434D-01
      0.2825394365D+01  0.2347269535D+00
      0.6401216923D+00  0.8137573261D+00
 S   1 1.00       0.000000000000
      0.1612777588D+00  0.1000000000D+01
 ****
     71 0
 S   3 1.00       0.000000000000
      0.1873113696D+02  0.3349460434D-01
      0.2825394365D+01  0.2347269535D+00
      0.6401216923D+00  0.8137573261D+00
 S   1 1.00       0.000000000000
      0.1612777588D+00  0.1000000000D+01
 ****
     72 0
 S   3 1.00       0.000000000000
      0.1873113696D+02  0.3349460434D-01
      0.2825394365D+01  0.2347269535D+00
      0.6401216923D+00  0.8137573261D+00
 S   1 1.00       0.000000000000
      0.1612777588D+00  0.1000000000D+01
 ****
     73 0
 S   6 1.00       0.000000000000
      0.3047524880D+04  0.1834737132D-02
      0.4573695180D+03  0.1403732281D-01
      0.1039486850D+03  0.6884262226D-01
      0.2921015530D+02  0.2321844432D+00
      0.9286662960D+01  0.4679413484D+00
      0.3163926960D+01  0.3623119853D+00
 SP   3 1.00       0.000000000000
      0.7868272350D+01 -0.1193324198D+00  0.6899906659D-01
      0.1881288540D+01 -0.1608541517D+00  0.3164239610D+00
      0.5442492580D+00  0.1143456438D+01  0.7443082909D+00
 SP   1 1.00       0.000000000000
      0.1687144782D+00  0.1000000000D+01  0.1000000000D+01
 D   1 1.00       0.000000000000
      0.8000000000D+00  0.1000000000D+01
 ****
     74 0
 S   3 1.00       0.000000000000
      0.1873113696D+02  0.3349460434D-01
      0.2825394365D+01  0.2347269535D+00
      0.6401216923D+00  0.8137573261D+00
 S   1 1.00       0.000000000000
      0.1612777588D+00  0.1000000000D+01
 ****
     75 0
 S   3 1.00       0.000000000000
      0.1873113696D+02  0.3349460434D-01
      0.2825394365D+01  0.2347269535D+00
      0.6401216923D+00  0.8137573261D+00
 S   1 1.00       0.000000000000
      0.1612777588D+00  0.1000000000D+01
 ****
     76 0
 S   3 1.00       0.000000000000
      0.1873113696D+02  0.3349460434D-01
      0.2825394365D+01  0.2347269535D+00
      0.6401216923D+00  0.8137573261D+00
 S   1 1.00       0.000000000000
      0.1612777588D+00  0.1000000000D+01
 ****

 AO basis set (Overlap normalization):
 Atom C1       Shell     1 S   6     bf    1 -     1         14.206316160197          4.185398943959          0.135350764994
      0.3047524880D+04  0.1834737132D-02
      0.4573695180D+03  0.1403732281D-01
      0.1039486850D+03  0.6884262226D-01
      0.2921015530D+02  0.2321844432D+00
      0.9286662960D+01  0.4679413484D+00
      0.3163926960D+01  0.3623119853D+00
 Atom C1       Shell     2 SP   3    bf    2 -     5         14.206316160197          4.185398943959          0.135350764994
      0.7868272350D+01 -0.1193324198D+00  0.6899906659D-01
      0.1881288540D+01 -0.1608541517D+00  0.3164239610D+00
      0.5442492580D+00  0.1143456438D+01  0.7443082909D+00
 Atom C1       Shell     3 SP   1    bf    6 -     9         14.206316160197          4.185398943959          0.135350764994
      0.1687144782D+00  0.1000000000D+01  0.1000000000D+01
 Atom C1       Shell     4 D   1     bf   10 -    15         14.206316160197          4.185398943959          0.135350764994
      0.8000000000D+00  0.1000000000D+01
 Atom H2       Shell     5 S   3     bf   16 -    16         13.895860423757          4.129296187609          2.184000994826
      0.1873113696D+02  0.3349460434D-01
      0.2825394365D+01  0.2347269535D+00
      0.6401216923D+00  0.8137573261D+00
 Atom H2       Shell     6 S   1     bf   17 -    17         13.895860423757          4.129296187609          2.184000994826
      0.1612777588D+00  0.1000000000D+01
 Atom C3       Shell     7 S   6     bf   18 -    18         12.894288471306          1.902083411117         -1.082379722147
      0.3047524880D+04  0.1834737132D-02
      0.4573695180D+03  0.1403732281D-01
      0.1039486850D+03  0.6884262226D-01
      0.2921015530D+02  0.2321844432D+00
      0.9286662960D+01  0.4679413484D+00
      0.3163926960D+01  0.3623119853D+00
 Atom C3       Shell     8 SP   3    bf   19 -    22         12.894288471306          1.902083411117         -1.082379722147
      0.7868272350D+01 -0.1193324198D+00  0.6899906659D-01
      0.1881288540D+01 -0.1608541517D+00  0.3164239610D+00
      0.5442492580D+00  0.1143456438D+01  0.7443082909D+00
 Atom C3       Shell     9 SP   1    bf   23 -    26         12.894288471306          1.902083411117         -1.082379722147
      0.1687144782D+00  0.1000000000D+01  0.1000000000D+01
 Atom C3       Shell    10 D   1     bf   27 -    32         12.894288471306          1.902083411117         -1.082379722147
      0.8000000000D+00  0.1000000000D+01
 Atom H4       Shell    11 S   3     bf   33 -    33         13.616395175444          0.152195330208         -0.248703643815
      0.1873113696D+02  0.3349460434D-01
      0.2825394365D+01  0.2347269535D+00
      0.6401216923D+00  0.8137573261D+00
 Atom H4       Shell    12 S   1     bf   34 -    34         13.616395175444          0.152195330208         -0.248703643815
      0.1612777588D+00  0.1000000000D+01
 Atom H5       Shell    13 S   3     bf   35 -    35         13.429612546874          1.871255099286         -3.094999394180
      0.1873113696D+02  0.3349460434D-01
      0.2825394365D+01  0.2347269535D+00
      0.6401216923D+00  0.8137573261D+00
 Atom H5       Shell    14 S   1     bf   36 -    36         13.429612546874          1.871255099286         -3.094999394180
      0.1612777588D+00  0.1000000000D+01
 Atom C6       Shell    15 S   6     bf   37 -    37         10.038813678606          2.006690901956         -0.857229492571
      0.3047524880D+04  0.1834737132D-02
      0.4573695180D+03  0.1403732281D-01
      0.1039486850D+03  0.6884262226D-01
      0.2921015530D+02  0.2321844432D+00
      0.9286662960D+01  0.4679413484D+00
      0.3163926960D+01  0.3623119853D+00
 Atom C6       Shell    16 SP   3    bf   38 -    41         10.038813678606          2.006690901956         -0.857229492571
      0.7868272350D+01 -0.1193324198D+00  0.6899906659D-01
      0.1881288540D+01 -0.1608541517D+00  0.3164239610D+00
      0.5442492580D+00  0.1143456438D+01  0.7443082909D+00
 Atom C6       Shell    17 SP   1    bf   42 -    45         10.038813678606          2.006690901956         -0.857229492571
      0.1687144782D+00  0.1000000000D+01  0.1000000000D+01
 Atom C6       Shell    18 D   1     bf   46 -    51         10.038813678606          2.006690901956         -0.857229492571
      0.8000000000D+00  0.1000000000D+01
 Atom C7       Shell    19 S   6     bf   52 -    52          8.727057996895          4.459519782207         -1.665112037512
      0.3047524880D+04  0.1834737132D-02
      0.4573695180D+03  0.1403732281D-01
      0.1039486850D+03  0.6884262226D-01
      0.2921015530D+02  0.2321844432D+00
      0.9286662960D+01  0.4679413484D+00
      0.3163926960D+01  0.3623119853D+00
 Atom C7       Shell    20 SP   3    bf   53 -    56          8.727057996895          4.459519782207         -1.665112037512
      0.7868272350D+01 -0.1193324198D+00  0.6899906659D-01
      0.1881288540D+01 -0.1608541517D+00  0.3164239610D+00
      0.5442492580D+00  0.1143456438D+01  0.7443082909D+00
 Atom C7       Shell    21 SP   1    bf   57 -    60          8.727057996895          4.459519782207         -1.665112037512
      0.1687144782D+00  0.1000000000D+01  0.1000000000D+01
 Atom C7       Shell    22 D   1     bf   61 -    66          8.727057996895          4.459519782207         -1.665112037512
      0.8000000000D+00  0.1000000000D+01
 Atom C8       Shell    23 S   6     bf   67 -    67         10.225688865963          6.736663923034         -0.539308204071
      0.3047524880D+04  0.1834737132D-02
      0.4573695180D+03  0.1403732281D-01
      0.1039486850D+03  0.6884262226D-01
      0.2921015530D+02  0.2321844432D+00
      0.9286662960D+01  0.4679413484D+00
      0.3163926960D+01  0.3623119853D+00
 Atom C8       Shell    24 SP   3    bf   68 -    71         10.225688865963          6.736663923034         -0.539308204071
      0.7868272350D+01 -0.1193324198D+00  0.6899906659D-01
      0.1881288540D+01 -0.1608541517D+00  0.3164239610D+00
      0.5442492580D+00  0.1143456438D+01  0.7443082909D+00
 Atom C8       Shell    25 SP   1    bf   72 -    75         10.225688865963          6.736663923034         -0.539308204071
      0.1687144782D+00  0.1000000000D+01  0.1000000000D+01
 Atom C8       Shell    26 D   1     bf   76 -    81         10.225688865963          6.736663923034         -0.539308204071
      0.8000000000D+00  0.1000000000D+01
 Atom H9       Shell    27 S   3     bf   82 -    82          9.846808281642          6.820274194379          1.500741220727
      0.1873113696D+02  0.3349460434D-01
      0.2825394365D+01  0.2347269535D+00
      0.6401216923D+00  0.8137573261D+00
 Atom H9       Shell    28 S   1     bf   83 -    83          9.846808281642          6.820274194379          1.500741220727
      0.1612777588D+00  0.1000000000D+01
 Atom H10      Shell    29 S   3     bf   84 -    84          9.499874556946          8.500191499149         -1.341942072472
      0.1873113696D+02  0.3349460434D-01
      0.2825394365D+01  0.2347269535D+00
      0.6401216923D+00  0.8137573261D+00
 Atom H10      Shell    30 S   1     bf   85 -    85          9.499874556946          8.500191499149         -1.341942072472
      0.1612777588D+00  0.1000000000D+01
 Atom C11      Shell    31 S   6     bf   86 -    86         13.101484866427          6.633117985850         -0.924961699133
      0.3047524880D+04  0.1834737132D-02
      0.4573695180D+03  0.1403732281D-01
      0.1039486850D+03  0.6884262226D-01
      0.2921015530D+02  0.2321844432D+00
      0.9286662960D+01  0.4679413484D+00
      0.3163926960D+01  0.3623119853D+00
 Atom C11      Shell    32 SP   3    bf   87 -    90         13.101484866427          6.633117985850         -0.924961699133
      0.7868272350D+01 -0.1193324198D+00  0.6899906659D-01
      0.1881288540D+01 -0.1608541517D+00  0.3164239610D+00
      0.5442492580D+00  0.1143456438D+01  0.7443082909D+00
 Atom C11      Shell    33 SP   1    bf   91 -    94         13.101484866427          6.633117985850         -0.924961699133
      0.1687144782D+00  0.1000000000D+01  0.1000000000D+01
 Atom C11      Shell    34 D   1     bf   95 -   100         13.101484866427          6.633117985850         -0.924961699133
      0.8000000000D+00  0.1000000000D+01
 Atom H12      Shell    35 S   3     bf  101 -   101         13.570032672295          6.767123341426         -2.946104773019
      0.1873113696D+02  0.3349460434D-01
      0.2825394365D+01  0.2347269535D+00
      0.6401216923D+00  0.8137573261D+00
 Atom H12      Shell    36 S   1     bf  102 -   102         13.570032672295          6.767123341426         -2.946104773019
      0.1612777588D+00  0.1000000000D+01
 Atom H13      Shell    37 S   3     bf  103 -   103         13.996853000785          8.255392766518          0.000000000000
      0.1873113696D+02  0.3349460434D-01
      0.2825394365D+01  0.2347269535D+00
      0.6401216923D+00  0.8137573261D+00
 Atom H13      Shell    38 S   1     bf  104 -   104         13.996853000785          8.255392766518          0.000000000000
      0.1612777588D+00  0.1000000000D+01
 Atom C14      Shell    39 S   6     bf  105 -   105          8.754735738420          0.000000000000          0.000000000000
      0.3047524880D+04  0.1834737132D-02
      0.4573695180D+03  0.1403732281D-01
      0.1039486850D+03  0.6884262226D-01
      0.2921015530D+02  0.2321844432D+00
      0.9286662960D+01  0.4679413484D+00
      0.3163926960D+01  0.3623119853D+00
 Atom C14      Shell    40 SP   3    bf  106 -   109          8.754735738420          0.000000000000          0.000000000000
      0.7868272350D+01 -0.1193324198D+00  0.6899906659D-01
      0.1881288540D+01 -0.1608541517D+00  0.3164239610D+00
      0.5442492580D+00  0.1143456438D+01  0.7443082909D+00
 Atom C14      Shell    41 SP   1    bf  110 -   113          8.754735738420          0.000000000000          0.000000000000
      0.1687144782D+00  0.1000000000D+01  0.1000000000D+01
 Atom C14      Shell    42 D   1     bf  114 -   119          8.754735738420          0.000000000000          0.000000000000
      0.8000000000D+00  0.1000000000D+01
 Atom H15      Shell    43 S   3     bf  120 -   120          9.782014070093         -1.682686981876          0.600267140844
      0.1873113696D+02  0.3349460434D-01
      0.2825394365D+01  0.2347269535D+00
      0.6401216923D+00  0.8137573261D+00
 Atom H15      Shell    44 S   1     bf  121 -   121          9.782014070093         -1.682686981876          0.600267140844
      0.1612777588D+00  0.1000000000D+01
 Atom C16      Shell    45 S   6     bf  122 -   122          5.933084643546         -0.187077350258          0.204153784869
      0.3047524880D+04  0.1834737132D-02
      0.4573695180D+03  0.1403732281D-01
      0.1039486850D+03  0.6884262226D-01
      0.2921015530D+02  0.2321844432D+00
      0.9286662960D+01  0.4679413484D+00
      0.3163926960D+01  0.3623119853D+00
 Atom C16      Shell    46 SP   3    bf  123 -   126          5.933084643546         -0.187077350258          0.204153784869
      0.7868272350D+01 -0.1193324198D+00  0.6899906659D-01
      0.1881288540D+01 -0.1608541517D+00  0.3164239610D+00
      0.5442492580D+00  0.1143456438D+01  0.7443082909D+00
 Atom C16      Shell    47 SP   1    bf  127 -   130          5.933084643546         -0.187077350258          0.204153784869
      0.1687144782D+00  0.1000000000D+01  0.1000000000D+01
 Atom C16      Shell    48 D   1     bf  131 -   136          5.933084643546         -0.187077350258          0.204153784869
      0.8000000000D+00  0.1000000000D+01
 Atom H17      Shell    49 S   3     bf  137 -   137          5.395776185464         -0.358164045850          2.209304748999
      0.1873113696D+02  0.3349460434D-01
      0.2825394365D+01  0.2347269535D+00
      0.6401216923D+00  0.8137573261D+00
 Atom H17      Shell    50 S   1     bf  138 -   138          5.395776185464         -0.358164045850          2.209304748999
      0.1612777588D+00  0.1000000000D+01
 Atom C18      Shell    51 S   6     bf  139 -   139          4.490332654975          2.018634197883         -1.012731937999
      0.3047524880D+04  0.1834737132D-02
      0.4573695180D+03  0.1403732281D-01
      0.1039486850D+03  0.6884262226D-01
      0.2921015530D+02  0.2321844432D+00
      0.9286662960D+01  0.4679413484D+00
      0.3163926960D+01  0.3623119853D+00
 Atom C18      Shell    52 SP   3    bf  140 -   143          4.490332654975          2.018634197883         -1.012731937999
      0.7868272350D+01 -0.1193324198D+00  0.6899906659D-01
      0.1881288540D+01 -0.1608541517D+00  0.3164239610D+00
      0.5442492580D+00  0.1143456438D+01  0.7443082909D+00
 Atom C18      Shell    53 SP   1    bf  144 -   147          4.490332654975          2.018634197883         -1.012731937999
      0.1687144782D+00  0.1000000000D+01  0.1000000000D+01
 Atom C18      Shell    54 D   1     bf  148 -   153          4.490332654975          2.018634197883         -1.012731937999
      0.8000000000D+00  0.1000000000D+01
 Atom H19      Shell    55 S   3     bf  154 -   154          4.383663283952          1.614054358607         -3.040146786152
      0.1873113696D+02  0.3349460434D-01
      0.2825394365D+01  0.2347269535D+00
      0.6401216923D+00  0.8137573261D+00
 Atom H19      Shell    56 S   1     bf  155 -   155          4.383663283952          1.614054358607         -3.040146786152
      0.1612777588D+00  0.1000000000D+01
 Atom C20      Shell    57 S   6     bf  156 -   156          5.966035174516          4.522392935963         -0.586492964856
      0.3047524880D+04  0.1834737132D-02
      0.4573695180D+03  0.1403732281D-01
      0.1039486850D+03  0.6884262226D-01
      0.2921015530D+02  0.2321844432D+00
      0.9286662960D+01  0.4679413484D+00
      0.3163926960D+01  0.3623119853D+00
 Atom C20      Shell    58 SP   3    bf  157 -   160          5.966035174516          4.522392935963         -0.586492964856
      0.7868272350D+01 -0.1193324198D+00  0.6899906659D-01
      0.1881288540D+01 -0.1608541517D+00  0.3164239610D+00
      0.5442492580D+00  0.1143456438D+01  0.7443082909D+00
 Atom C20      Shell    59 SP   1    bf  161 -   164          5.966035174516          4.522392935963         -0.586492964856
      0.1687144782D+00  0.1000000000D+01  0.1000000000D+01
 Atom C20      Shell    60 D   1     bf  165 -   170          5.966035174516          4.522392935963         -0.586492964856
      0.8000000000D+00  0.1000000000D+01
 Atom H21      Shell    61 S   3     bf  171 -   171          6.181550144074          4.714428341779          1.477323904563
      0.1873113696D+02  0.3349460434D-01
      0.2825394365D+01  0.2347269535D+00
      0.6401216923D+00  0.8137573261D+00
 Atom H21      Shell    62 S   1     bf  172 -   172          6.181550144074          4.714428341779          1.477323904563
      0.1612777588D+00  0.1000000000D+01
 Atom C22      Shell    63 S   6     bf  173 -   173          4.425932867065          6.836409696554         -1.485367221492
      0.3047524880D+04  0.1834737132D-02
      0.4573695180D+03  0.1403732281D-01
      0.1039486850D+03  0.6884262226D-01
      0.2921015530D+02  0.2321844432D+00
      0.9286662960D+01  0.4679413484D+00
      0.3163926960D+01  0.3623119853D+00
 Atom C22      Shell    64 SP   3    bf  174 -   177          4.425932867065          6.836409696554         -1.485367221492
      0.7868272350D+01 -0.1193324198D+00  0.6899906659D-01
      0.1881288540D+01 -0.1608541517D+00  0.3164239610D+00
      0.5442492580D+00  0.1143456438D+01  0.7443082909D+00
 Atom C22      Shell    65 SP   1    bf  178 -   181          4.425932867065          6.836409696554         -1.485367221492
      0.1687144782D+00  0.1000000000D+01  0.1000000000D+01
 Atom C22      Shell    66 D   1     bf  182 -   187          4.425932867065          6.836409696554         -1.485367221492
      0.8000000000D+00  0.1000000000D+01
 Atom H23      Shell    67 S   3     bf  188 -   188          4.341131728105          6.859245789651         -3.553515437693
      0.1873113696D+02  0.3349460434D-01
      0.2825394365D+01  0.2347269535D+00
      0.6401216923D+00  0.8137573261D+00
 Atom H23      Shell    68 S   1     bf  189 -   189          4.341131728105          6.859245789651         -3.553515437693
      0.1612777588D+00  0.1000000000D+01
 Atom H24      Shell    69 S   3     bf  190 -   190          5.402840359694          8.576701861543         -0.935161042401
      0.1873113696D+02  0.3349460434D-01
      0.2825394365D+01  0.2347269535D+00
      0.6401216923D+00  0.8137573261D+00
 Atom H24      Shell    70 S   1     bf  191 -   191          5.402840359694          8.576701861543         -0.935161042401
      0.1612777588D+00  0.1000000000D+01
 Atom C25      Shell    71 S   6     bf  192 -   192          1.710631987368          6.939603728938         -0.437100835496
      0.3047524880D+04  0.1834737132D-02
      0.4573695180D+03  0.1403732281D-01
      0.1039486850D+03  0.6884262226D-01
      0.2921015530D+02  0.2321844432D+00
      0.9286662960D+01  0.4679413484D+00
      0.3163926960D+01  0.3623119853D+00
 Atom C25      Shell    72 SP   3    bf  193 -   196          1.710631987368          6.939603728938         -0.437100835496
      0.7868272350D+01 -0.1193324198D+00  0.6899906659D-01
      0.1881288540D+01 -0.1608541517D+00  0.3164239610D+00
      0.5442492580D+00  0.1143456438D+01  0.7443082909D+00
 Atom C25      Shell    73 SP   1    bf  197 -   200          1.710631987368          6.939603728938         -0.437100835496
      0.1687144782D+00  0.1000000000D+01  0.1000000000D+01
 Atom C25      Shell    74 D   1     bf  201 -   206          1.710631987368          6.939603728938         -0.437100835496
      0.8000000000D+00  0.1000000000D+01
 Atom H26      Shell    75 S   3     bf  207 -   207          1.776832438618          7.211704279873          1.622118991646
      0.1873113696D+02  0.3349460434D-01
      0.2825394365D+01  0.2347269535D+00
      0.6401216923D+00  0.8137573261D+00
 Atom H26      Shell    76 S   1     bf  208 -   208          1.776832438618          7.211704279873          1.622118991646
      0.1612777588D+00  0.1000000000D+01
 Atom H27      Shell    77 S   3     bf  209 -   209          0.769326576034          8.607280861805         -1.219601542779
      0.1873113696D+02  0.3349460434D-01
      0.2825394365D+01  0.2347269535D+00
      0.6401216923D+00  0.8137573261D+00
 Atom H27      Shell    78 S   1     bf  210 -   210          0.769326576034          8.607280861805         -1.219601542779
      0.1612777588D+00  0.1000000000D+01
 Atom C28      Shell    79 S   6     bf  211 -   211          0.230298561657          4.497580397201         -1.009133030167
      0.3047524880D+04  0.1834737132D-02
      0.4573695180D+03  0.1403732281D-01
      0.1039486850D+03  0.6884262226D-01
      0.2921015530D+02  0.2321844432D+00
      0.9286662960D+01  0.4679413484D+00
      0.3163926960D+01  0.3623119853D+00
 Atom C28      Shell    80 SP   3    bf  212 -   215          0.230298561657          4.497580397201         -1.009133030167
      0.7868272350D+01 -0.1193324198D+00  0.6899906659D-01
      0.1881288540D+01 -0.1608541517D+00  0.3164239610D+00
      0.5442492580D+00  0.1143456438D+01  0.7443082909D+00
 Atom C28      Shell    81 SP   1    bf  216 -   219          0.230298561657          4.497580397201         -1.009133030167
      0.1687144782D+00  0.1000000000D+01  0.1000000000D+01
 Atom C28      Shell    82 D   1     bf  220 -   225          0.230298561657          4.497580397201         -1.009133030167
      0.8000000000D+00  0.1000000000D+01
 Atom C29      Shell    83 S   6     bf  226 -   226          1.810315437720          2.272493203561          0.087553846326
      0.3047524880D+04  0.1834737132D-02
      0.4573695180D+03  0.1403732281D-01
      0.1039486850D+03  0.6884262226D-01
      0.2921015530D+02  0.2321844432D+00
      0.9286662960D+01  0.4679413484D+00
      0.3163926960D+01  0.3623119853D+00
 Atom C29      Shell    84 SP   3    bf  227 -   230          1.810315437720          2.272493203561          0.087553846326
      0.7868272350D+01 -0.1193324198D+00  0.6899906659D-01
      0.1881288540D+01 -0.1608541517D+00  0.3164239610D+00
      0.5442492580D+00  0.1143456438D+01  0.7443082909D+00
 Atom C29      Shell    85 SP   1    bf  231 -   234          1.810315437720          2.272493203561          0.087553846326
      0.1687144782D+00  0.1000000000D+01  0.1000000000D+01
 Atom C29      Shell    86 D   1     bf  235 -   240          1.810315437720          2.272493203561          0.087553846326
      0.8000000000D+00  0.1000000000D+01
 Atom H30      Shell    87 S   3     bf  241 -   241          2.072656460248          2.741692001184          2.104176203973
      0.1873113696D+02  0.3349460434D-01
      0.2825394365D+01  0.2347269535D+00
      0.6401216923D+00  0.8137573261D+00
 Atom H30      Shell    88 S   1     bf  242 -   242          2.072656460248          2.741692001184          2.104176203973
      0.1612777588D+00  0.1000000000D+01
 Atom C31      Shell    89 S   6     bf  243 -   243          0.000000000000          0.000000000000          0.000000000000
      0.3047524880D+04  0.1834737132D-02
      0.4573695180D+03  0.1403732281D-01
      0.1039486850D+03  0.6884262226D-01
      0.2921015530D+02  0.2321844432D+00
      0.9286662960D+01  0.4679413484D+00
      0.3163926960D+01  0.3623119853D+00
 Atom C31      Shell    90 SP   3    bf  244 -   247          0.000000000000          0.000000000000          0.000000000000
      0.7868272350D+01 -0.1193324198D+00  0.6899906659D-01
      0.1881288540D+01 -0.1608541517D+00  0.3164239610D+00
      0.5442492580D+00  0.1143456438D+01  0.7443082909D+00
 Atom C31      Shell    91 SP   1    bf  248 -   251          0.000000000000          0.000000000000          0.000000000000
      0.1687144782D+00  0.1000000000D+01  0.1000000000D+01
 Atom C31      Shell    92 D   1     bf  252 -   257          0.000000000000          0.000000000000          0.000000000000
      0.8000000000D+00  0.1000000000D+01
 Atom H32      Shell    93 S   3     bf  258 -   258          0.502622440427         -1.461264747324          1.370663018410
      0.1873113696D+02  0.3349460434D-01
      0.2825394365D+01  0.2347269535D+00
      0.6401216923D+00  0.8137573261D+00
 Atom H32      Shell    94 S   1     bf  259 -   259          0.502622440427         -1.461264747324          1.370663018410
      0.1612777588D+00  0.1000000000D+01
 Atom H33      Shell    95 S   3     bf  260 -   260          0.057128480799         -0.909803034191         -1.857031092889
      0.1873113696D+02  0.3349460434D-01
      0.2825394365D+01  0.2347269535D+00
      0.6401216923D+00  0.8137573261D+00
 Atom H33      Shell    96 S   1     bf  261 -   261          0.057128480799         -0.909803034191         -1.857031092889
      0.1612777588D+00  0.1000000000D+01
 Atom C34      Shell    97 S   6     bf  262 -   262         -2.632296095502          1.184868716608          0.531518393903
      0.3047524880D+04  0.1834737132D-02
      0.4573695180D+03  0.1403732281D-01
      0.1039486850D+03  0.6884262226D-01
      0.2921015530D+02  0.2321844432D+00
      0.9286662960D+01  0.4679413484D+00
      0.3163926960D+01  0.3623119853D+00
 Atom C34      Shell    98 SP   3    bf  263 -   266         -2.632296095502          1.184868716608          0.531518393903
      0.7868272350D+01 -0.1193324198D+00  0.6899906659D-01
      0.1881288540D+01 -0.1608541517D+00  0.3164239610D+00
      0.5442492580D+00  0.1143456438D+01  0.7443082909D+00
 Atom C34      Shell    99 SP   1    bf  267 -   270         -2.632296095502          1.184868716608          0.531518393903
      0.1687144782D+00  0.1000000000D+01  0.1000000000D+01
 Atom C34      Shell   100 D   1     bf  271 -   276         -2.632296095502          1.184868716608          0.531518393903
      0.8000000000D+00  0.1000000000D+01
 Atom H35      Shell   101 S   3     bf  277 -   277         -4.000149185639          0.599012003644         -0.910326450535
      0.1873113696D+02  0.3349460434D-01
      0.2825394365D+01  0.2347269535D+00
      0.6401216923D+00  0.8137573261D+00
 Atom H35      Shell   102 S   1     bf  278 -   278         -4.000149185639          0.599012003644         -0.910326450535
      0.1612777588D+00  0.1000000000D+01
 Atom H36      Shell   103 S   3     bf  279 -   279         -3.399594693039          0.553670273859          2.346313937647
      0.1873113696D+02  0.3349460434D-01
      0.2825394365D+01  0.2347269535D+00
      0.6401216923D+00  0.8137573261D+00
 Atom H36      Shell   104 S   1     bf  280 -   280         -3.399594693039          0.553670273859          2.346313937647
      0.1612777588D+00  0.1000000000D+01
 Atom C37      Shell   105 S   6     bf  281 -   281         -2.295546048245          4.119947636840          0.493232920396
      0.3047524880D+04  0.1834737132D-02
      0.4573695180D+03  0.1403732281D-01
      0.1039486850D+03  0.6884262226D-01
      0.2921015530D+02  0.2321844432D+00
      0.9286662960D+01  0.4679413484D+00
      0.3163926960D+01  0.3623119853D+00
 Atom C37      Shell   106 SP   3    bf  282 -   285         -2.295546048245          4.119947636840          0.493232920396
      0.7868272350D+01 -0.1193324198D+00  0.6899906659D-01
      0.1881288540D+01 -0.1608541517D+00  0.3164239610D+00
      0.5442492580D+00  0.1143456438D+01  0.7443082909D+00
[...]
 1630 Fit      -0.002753
 1631 Fit      -0.001112
 1632 Fit      -0.000517
 1633 Fit      -0.001131
 1634 Fit      -0.002756
 1635 Fit       0.000182
 1636 Fit       0.000944
 1637 Fit       0.000806
 1638 Fit      -0.000240
 1639 Fit      -0.001782
 1640 Fit       0.001409
 1641 Fit       0.001412
 1642 Fit       0.000680
 1643 Fit      -0.000345
 1644 Fit       0.000551
 1645 Fit      -0.002765
 1646 Fit      -0.003055
 1647 Fit      -0.003048
 1648 Fit      -0.002761
 1649 Fit      -0.002483
 1650 Fit      -0.001849
 1651 Fit      -0.003006
 1652 Fit      -0.002153
 1653 Fit       0.000596
 1654 Fit       0.000348
 1655 Fit      -0.001242
 1656 Fit       0.002852
 1657 Fit       0.002575
 1658 Fit       0.001107
 1659 Fit      -0.001275
 1660 Fit       0.003421
 1661 Fit       0.001162
 1662 Fit      -0.001647
 1663 Fit       0.002123
 1664 Fit       0.000721
 1665 Fit       0.000886
 1666 Fit       0.001387
 1667 Fit       0.001715
 1668 Fit       0.002272
 1669 Fit      -0.002155
 1670 Fit      -0.001692
 1671 Fit      -0.001207
 1672 Fit      -0.000738
 1673 Fit      -0.000436
 1674 Fit      -0.000221
 1675 Fit       0.000175
 1676 Fit       0.000772
 1677 Fit      -0.001812
 1678 Fit      -0.001649
 1679 Fit      -0.001881
 1680 Fit      -0.000241
 1681 Fit       0.000654
 1682 Fit       0.000641
 1683 Fit       0.000022
 1684 Fit      -0.001333
 1685 Fit       0.000466
 1686 Fit       0.001769
 1687 Fit       0.002033
 1688 Fit       0.001589
 1689 Fit      -0.000275
 1690 Fit       0.001522
 1691 Fit       0.000898
 1692 Fit      -0.005000
 1693 Fit      -0.001129
 1694 Fit       0.003602
 1695 Fit       0.004078
 1696 Fit       0.001712
 1697 Fit      -0.002165
 1698 Fit      -0.011701
 1699 Fit      -0.002741
 1700 Fit       0.003795
 1701 Fit       0.003174
 1702 Fit       0.000823
 1703 Fit       0.000466
 1704 Fit      -0.004615
 1705 Fit      -0.012869
 1706 Fit       0.011232
 1707 Fit       0.008111
 1708 Fit       0.006871
 1709 Fit       0.000879
 1710 Fit       0.003222
 1711 Fit      -0.003932
 1712 Fit       0.006996
 1713 Fit       0.002054
 1714 Fit      -0.006254
 1715 Fit       0.008021
 1716 Fit       0.003829
 1717 Fit      -0.001842
 1718 Fit       0.007081
 1719 Fit       0.010545
 1720 Fit       0.021084
 1721 Fit       0.006261
 1722 Fit       0.009296
 1723 Fit       0.009872
 1724 Fit       0.012776
 1725 Fit       0.016469
 1726 Fit       0.009563
 1727 Fit       0.011987
 1728 Fit       0.005446
 1729 Fit       0.006109
 1730 Fit       0.006380
 1731 Fit       0.006043
 1732 Fit       0.005706
 1733 Fit       0.006248
 1734 Fit       0.007149
 1735 Fit       0.006642
 1736 Fit       0.006444
 1737 Fit       0.005295
 1738 Fit       0.005480
 1739 Fit       0.006046
 1740 Fit       0.006154
 1741 Fit       0.006829
 1742 Fit       0.007507
 1743 Fit       0.007687
 1744 Fit       0.008290
 1745 Fit       0.008295
 1746 Fit       0.008778
 1747 Fit       0.005996
 1748 Fit       0.005882
 1749 Fit       0.007151
 1750 Fit       0.009884
 1751 Fit       0.006410
 1752 Fit       0.020479
 1753 Fit       0.012013
 1754 Fit       0.008897
 1755 Fit       0.008477
 1756 Fit       0.016270
 1757 Fit       0.011622
 1758 Fit       0.010009
 1759 Fit       0.002566
 1760 Fit      -0.004558
 1761 Fit       0.001197
 1762 Fit       0.004425
 1763 Fit      -0.002939
 1764 Fit       0.002194
 1765 Fit       0.004506
 1766 Fit      -0.004563
 1767 Fit       0.001294
 1768 Fit       0.004016
 1769 Fit       0.005456
 1770 Fit      -0.001150
 1771 Fit       0.002524
 1772 Fit       0.004519
 1773 Fit       0.005966
 1774 Fit       0.004746
 1775 Fit       0.002342
 1776 Fit       0.000194
 1777 Fit       0.000594
 1778 Fit       0.002095
 1779 Fit       0.000841
 1780 Fit       0.014160
 1781 Fit       0.002358
 1782 Fit       0.002721
 1783 Fit       0.003707
 1784 Fit       0.002430
 1785 Fit       0.005573
 1786 Fit       0.005833
 1787 Fit       0.001263
 1788 Fit       0.007286
 1789 Fit       0.008540
 1790 Fit       0.013023
 1791 Fit       0.011536
 1792 Fit       0.005204
 1793 Fit       0.004499
 1794 Fit       0.006140
 1795 Fit       0.006614
 1796 Fit       0.004609
 1797 Fit       0.002850
 1798 Fit       0.003459
 1799 Fit      -0.001326
 1800 Fit      -0.002296
 1801 Fit       0.000643
 1802 Fit       0.006559
 1803 Fit       0.006496
 1804 Fit       0.007093
 1805 Fit       0.006447
 1806 Fit       0.007794
 1807 Fit       0.006068
 1808 Fit       0.006239
 1809 Fit       0.004316
 1810 Fit       0.004991
 1811 Fit       0.003862
 1812 Fit       0.004769
 1813 Fit       0.005216
 1814 Fit       0.005683
 1815 Fit       0.006205
 1816 Fit       0.004720
 1817 Fit       0.006563
 1818 Fit       0.004707
 1819 Fit       0.006944
 1820 Fit       0.004908
 1821 Fit       0.007863
 1822 Fit       0.005108
 1823 Fit       0.002700
 1824 Fit       0.001035
 1825 Fit       0.004797
 1826 Fit       0.005574
 1827 Fit       0.004402
 1828 Fit       0.003767
 1829 Fit       0.005877
 1830 Fit       0.005106
 1831 Fit       0.003609
 1832 Fit       0.002583
 1833 Fit       0.000578
 1834 Fit       0.002489
 1835 Fit       0.001355
 1836 Fit       0.003594
 1837 Fit       0.003046
 1838 Fit       0.004143
 1839 Fit       0.004372
 1840 Fit       0.004146
 1841 Fit       0.005016
 1842 Fit       0.004407
 1843 Fit       0.006389
 1844 Fit       0.005655
 1845 Fit       0.004711
 1846 Fit       0.003289
 1847 Fit       0.002613
 1848 Fit       0.005242
 1849 Fit       0.000521
 1850 Fit      -0.008906
 1851 Fit      -0.009793
 1852 Fit      -0.014610
 1853 Fit      -0.024597
 1854 Fit      -0.000212
 1855 Fit      -0.002511
 1856 Fit      -0.002049
 1857 Fit      -0.004798
 1858 Fit      -0.006245
 1859 Fit      -0.007656
 1860 Fit      -0.008097
 1861 Fit      -0.010560
 1862 Fit      -0.015581
 1863 Fit      -0.016168
 1864 Fit      -0.010237
 1865 Fit      -0.016352
 1866 Fit      -0.003960
 1867 Fit      -0.008863
 1868 Fit      -0.016254
 1869 Fit      -0.010313
 1870 Fit      -0.004944
 1871 Fit      -0.007198
 1872 Fit      -0.008238
 1873 Fit      -0.004189
 1874 Fit      -0.001664
 1875 Fit      -0.003300
 1876 Fit      -0.005991
 1877 Fit      -0.000949
 1878 Fit      -0.002235
 1879 Fit      -0.004697
 1880 Fit      -0.000181
 1881 Fit      -0.001577
 1882 Fit       0.000540
 1883 Fit       0.000846
 1884 Fit       0.000051
 1885 Fit      -0.000313
 1886 Fit      -0.000650
 1887 Fit      -0.001940
 1888 Fit      -0.002374
 1889 Fit      -0.000933
 1890 Fit      -0.002701
 1891 Fit      -0.004414
 1892 Fit       0.004259
 1893 Fit       0.003898
 1894 Fit       0.003222
 1895 Fit      -0.012774
 1896 Fit       0.001322
 1897 Fit      -0.002424
 1898 Fit      -0.006429
 1899 Fit      -0.000548
 1900 Fit      -0.001291
 1901 Fit      -0.002585
 1902 Fit      -0.003642
 1903 Fit      -0.003408
 1904 Fit      -0.002378
 1905 Fit      -0.006577
 1906 Fit       0.001574
 1907 Fit       0.001644
 1908 Fit      -0.001941
 1909 Fit      -0.000983
 1910 Fit      -0.000069
 1911 Fit      -0.001605
 1912 Fit      -0.001257
 1913 Fit      -0.002160
 1914 Fit      -0.004994
 1915 Fit      -0.009159
 1916 Fit      -0.002659
 1917 Fit      -0.003401
 1918 Fit       0.004692
 1919 Fit       0.002533
 1920 Fit       0.002786
 1921 Fit       0.001868
 1922 Fit       0.000444
 1923 Fit      -0.001168
 1924 Fit       0.000595
 1925 Fit       0.000747
 1926 Fit      -0.000873
 1927 Fit      -0.001224
 1928 Fit      -0.000486
 1929 Fit      -0.000784
 1930 Fit      -0.000589
 1931 Fit       0.000030
 1932 Fit      -0.000233
 1933 Fit      -0.000490
 1934 Fit      -0.000735
 1935 Fit      -0.000928
 1936 Fit      -0.000310
 1937 Fit      -0.001183
 1938 Fit      -0.001354
 1939 Fit       0.000377
 1940 Fit      -0.001044
 1941 Fit      -0.000854
 1942 Fit      -0.000073
 1943 Fit      -0.000458
 1944 Fit       0.003133
 1945 Fit       0.002992
 1946 Fit       0.002290
 1947 Fit       0.001966
 1948 Fit       0.001308
 1949 Fit       0.000900
 1950 Fit       0.000343
 1951 Fit      -0.000558
 1952 Fit      -0.000098
 1953 Fit       0.000446
 1954 Fit      -0.000568
 1955 Fit       0.000643
 1956 Fit       0.001414
 1957 Fit      -0.000220
 1958 Fit       0.000953
 1959 Fit       0.001642
 1960 Fit       0.001908
 1961 Fit      -0.000439
 1962 Fit       0.000631
 1963 Fit       0.001080
 1964 Fit       0.000730
 1965 Fit      -0.000398
 1966 Fit      -0.000147
 1967 Fit       0.001344
 1968 Fit       0.003246
 1969 Fit       0.001018
 1970 Fit       0.003546
 1971 Fit       0.001356
 1972 Fit       0.008992
 1973 Fit       0.004152
 1974 Fit       0.003372
 1975 Fit       0.004244
 1976 Fit       0.005392
 1977 Fit       0.004606
 1978 Fit       0.003627
 1979 Fit       0.002326
 1980 Fit       0.003657
 1981 Fit       0.003136
 1982 Fit       0.008514
 1983 Fit       0.008466
 1984 Fit       0.007956
 1985 Fit       0.007111
 1986 Fit       0.007034
 1987 Fit       0.006516
 1988 Fit       0.005715
 1989 Fit       0.005605
 1990 Fit       0.005329
 1991 Fit       0.003810
 1992 Fit       0.014726
 1993 Fit       0.012544
 1994 Fit       0.008782
 1995 Fit       0.008706
 1996 Fit       0.013043
 1997 Fit       0.009227
 1998 Fit       0.007278
 1999 Fit       0.007086
 2000 Fit      -0.000336
 2001 Fit      -0.004989
 2002 Fit      -0.003006
 2003 Fit       0.001958
 2004 Fit       0.001447
 2005 Fit       0.000335
 2006 Fit       0.002089
 2007 Fit       0.002022
 2008 Fit      -0.007650
 2009 Fit      -0.004547
 2010 Fit      -0.015409
 2011 Fit      -0.013319
 2012 Fit      -0.007840
 2013 Fit      -0.020139
 2014 Fit      -0.016332
 2015 Fit      -0.009732
 2016 Fit      -0.001143
 2017 Fit      -0.023485
 2018 Fit      -0.018480
 2019 Fit      -0.009714
 2020 Fit      -0.026103
 2021 Fit      -0.021661
 2022 Fit      -0.012106
 2023 Fit      -0.022209
 2024 Fit      -0.022096
 2025 Fit      -0.015962
 2026 Fit      -0.004275
 2027 Fit       0.000940
 2028 Fit      -0.016387
 2029 Fit      -0.019324
 2030 Fit      -0.018788
 2031 Fit      -0.012940
 2032 Fit      -0.002150
 2033 Fit       0.000937
 2034 Fit      -0.005544
 2035 Fit      -0.011499
 2036 Fit      -0.014681
 2037 Fit      -0.009915
 2038 Fit      -0.000026
 2039 Fit      -0.007514
 2040 Fit       0.008029
 2041 Fit      -0.000233
 2042 Fit       0.010447
 2043 Fit       0.016756
 2044 Fit       0.019362
 2045 Fit       0.017245
 2046 Fit       0.002758
 2047 Fit       0.012493
 2048 Fit       0.017973
 2049 Fit       0.019703
 2050 Fit       0.015660
 2051 Fit       0.008489
 2052 Fit       0.005462
 2053 Fit       0.014008
 2054 Fit       0.017349
 2055 Fit       0.010792
 2056 Fit       0.010169
 2057 Fit      -0.021581
 2058 Fit      -0.017666
 2059 Fit      -0.018340
 2060 Fit      -0.024330
 2061 Fit      -0.023175
 2062 Fit      -0.019435
 2063 Fit      -0.011756
 2064 Fit      -0.013538
 2065 Fit      -0.020556
 2066 Fit      -0.023713
 2067 Fit      -0.021431
 2068 Fit      -0.020879
 2069 Fit      -0.019215
 2070 Fit      -0.014594
 2071 Fit      -0.016494
 2072 Fit      -0.020524
 2073 Fit      -0.021554
 2074 Fit      -0.013149
 2075 Fit      -0.012830
 2076 Fit      -0.012383
 2077 Fit      -0.010476
 2078 Fit      -0.012719
 2079 Fit      -0.014158
 2080 Fit      -0.013799
 2081 Fit       0.000131
 2082 Fit       0.000961
 2083 Fit      -0.001915
 2084 Fit      -0.002666
 2085 Fit      -0.001372
 2086 Fit       0.004639
 2087 Fit       0.004964
 2088 Fit       0.005151
 2089 Fit       0.006009
 2090 Fit       0.002932
 2091 Fit       0.003800
 2092 Fit       0.014080
 2093 Fit       0.014538
 2094 Fit       0.015373
 2095 Fit       0.014000
 2096 Fit       0.013679
 2097 Fit       0.020082
 2098 Fit       0.021127
 2099 Fit       0.020561
 2100 Fit       0.023922
 2101 Fit      -0.003710
 2102 Fit      -0.003292
 2103 Fit      -0.002458
 2104 Fit       0.001388
 2105 Fit       0.001678
 2106 Fit       0.001006
 2107 Fit      -0.000349
 2108 Fit      -0.002317
 2109 Fit       0.001332
 2110 Fit       0.000366
 2111 Fit      -0.001168
 2112 Fit      -0.002831
 2113 Fit       0.000306
 2114 Fit      -0.000562
 2115 Fit      -0.000955
 2116 Fit      -0.001330
 2117 Fit      -0.002836
 2118 Fit      -0.001675
 2119 Fit      -0.001864
 2120 Fit      -0.003179
 2121 Fit      -0.001970
 2122 Fit      -0.001552
 2123 Fit       0.002577
 2124 Fit       0.001796
 2125 Fit      -0.000262
 2126 Fit      -0.000066
 2127 Fit      -0.001532
 2128 Fit      -0.002562
 2129 Fit      -0.003248
 2130 Fit      -0.000255
 2131 Fit      -0.001318
 2132 Fit      -0.000379
 2133 Fit       0.000361
 2134 Fit       0.000768
 2135 Fit      -0.002050
 2136 Fit      -0.000901
 2137 Fit      -0.000228
 2138 Fit      -0.000140
 2139 Fit      -0.003256
 2140 Fit      -0.001872
 2141 Fit      -0.000877
 2142 Fit       0.000804
 2143 Fit      -0.000303
 2144 Fit       0.001624
 2145 Fit       0.000973
 2146 Fit      -0.000175
 2147 Fit      -0.001771
 2148 Fit       0.001352
 2149 Fit       0.001322
 2150 Fit       0.000477
 2151 Fit      -0.001162
 2152 Fit      -0.003270
 2153 Fit       0.000268
 2154 Fit      -0.000301
 2155 Fit       0.000090
 2156 Fit       0.000380
 2157 Fit      -0.000054
 2158 Fit      -0.000286
 2159 Fit       0.000305
 2160 Fit       0.000331
 2161 Fit      -0.000063
 2162 Fit      -0.000623
 2163 Fit      -0.000186
 2164 Fit      -0.000080
 2165 Fit      -0.000237
 2166 Fit      -0.000541
 2167 Fit      -0.001839
 2168 Fit      -0.002305
 2169 Fit      -0.002235
 2170 Fit      -0.001534
 2171 Fit      -0.001469
 2172 Fit      -0.001848
 2173 Fit      -0.002546
 2174 Fit      -0.002205
 2175 Fit      -0.002051
 2176 Fit      -0.001235
 2177 Fit      -0.000367
 2178 Fit      -0.000198
 2179 Fit      -0.001325
 2180 Fit       0.001612
 2181 Fit       0.001906
 2182 Fit       0.001276
 2183 Fit       0.000207
 2184 Fit       0.003256
 2185 Fit       0.003328
 2186 Fit       0.002719
 2187 Fit       0.001730
 2188 Fit       0.001030
 2189 Fit       0.000071
 2190 Fit       0.000834
 2191 Fit       0.001638
 2192 Fit       0.001252
 2193 Fit       0.000345
 2194 Fit      -0.000154
 2195 Fit      -0.001362
 2196 Fit      -0.000854
 2197 Fit      -0.000108
 2198 Fit       0.001278
 2199 Fit       0.000300
 2200 Fit      -0.000703
 2201 Fit      -0.001442
 2202 Fit      -0.001802
 2203 Fit      -0.001753
 2204 Fit      -0.001478
 2205 Fit      -0.001154
 2206 Fit      -0.001594
 2207 Fit      -0.000878
 2208 Fit      -0.000262
 2209 Fit       0.000062
 2210 Fit      -0.000218
 2211 Fit      -0.001016
 2212 Fit      -0.000144
 2213 Fit       0.000503
 2214 Fit       0.000686
 2215 Fit       0.000318
 2216 Fit      -0.000383
 2217 Fit      -0.001001
 2218 Fit       0.000844
 2219 Fit       0.000312
 2220 Fit      -0.001785
 2221 Fit      -0.001608
 2222 Fit      -0.002047
 2223 Fit      -0.002037
 2224 Fit      -0.001342
 2225 Fit      -0.000679
 2226 Fit      -0.002312
 2227 Fit      -0.002196
 2228 Fit      -0.001237
 2229 Fit      -0.001908
 2230 Fit      -0.000981
 2231 Fit      -0.000236
 2232 Fit      -0.000322
 2233 Fit      -0.001412
 2234 Fit       0.001956
 2235 Fit       0.001591
 2236 Fit       0.000576
 2237 Fit      -0.001037
 2238 Fit       0.002783
 2239 Fit       0.002715
 2240 Fit       0.001536
 2241 Fit      -0.000254
 2242 Fit       0.001139
 2243 Fit       0.001597
 2244 Fit       0.000755
 2245 Fit       0.000756
 2246 Fit       0.001084
 2247 Fit       0.001372
 2248 Fit       0.001860
 2249 Fit      -0.001104
 2250 Fit      -0.000838
 2251 Fit      -0.000539
 2252 Fit      -0.000227
 2253 Fit       0.000015
 2254 Fit       0.000212
 2255 Fit       0.000508
 2256 Fit       0.000972
 2257 Fit      -0.001815
 2258 Fit      -0.001579
 2259 Fit      -0.001399
 2260 Fit      -0.001320
 2261 Fit      -0.000509
 2262 Fit      -0.000257
 2263 Fit      -0.000467
 2264 Fit      -0.001261
 2265 Fit      -0.000090
 2266 Fit       0.000757
 2267 Fit       0.001031
 2268 Fit       0.000783
 2269 Fit       0.000243
 2270 Fit      -0.000676
 2271 Fit       0.000472
 2272 Fit       0.001402
 2273 Fit       0.001686
 2274 Fit      -0.000035
 2275 Fit       0.001178
 -----------------------------------------------------------------
 Leave Link  602 at Thu Apr 27 15:39:14 2017, MaxMem=    33554432 cpu:         3.7
 (Enter /home/michal/g09/l9999.exe)

 Test job not archived.
 1\1\GINC-LINUX\SP\RHF\6-31G(d)\C27H46O3\MICHAL\27-Apr-2017\0\\#P HF/6-
 31G* SCF(Conver=6) NoSymm Test Pop=mk IOp(6/33=2) GFInput GFPrint\\MEP
  - Input generated by R.E.D.-III.x MOLECULE\\0,1\C,0,7.51765873,2.2148
 1773,0.07162454\H,0,7.35337263,2.18512943,1.15572355\C,0,6.82336358,1.
 00653919,-0.57277068\H,0,7.20548599,0.0805383,-0.1316083\H,0,7.1066448
 8,0.99022555,-1.63780314\C,0,5.3123114,1.06189509,-0.45362631\C,0,4.61
 816019,2.35987623,-0.88113934\C,0,5.41120149,3.56488901,-0.28538961\H,
 0,5.21070652,3.60913366,0.79415805\H,0,5.0271171,4.49810761,-0.7101251
 6\C,0,6.93300719,3.51009486,-0.48946865\H,0,7.18095201,3.58100744,-1.5
 590115\H,0,7.4068156,4.3685657,0.\C,0,4.63280662,0.,0.\H,0,5.1764189,-
 0.8904396,0.31764769\C,0,3.13965317,-0.09899707,0.10803353\H,0,2.85532
 178,-0.18953225,1.16911372\C,0,2.3761817,1.06821521,-0.53591466\H,0,2.
 3197347,0.85412078,-1.60877639\C,0,3.15708984,2.39314727,-0.31035871\H
 ,0,3.27113545,2.49476803,0.78176614\C,0,2.3421028,3.6176722,-0.7860224
 8\H,0,2.29722797,3.62975654,-1.88043938\H,0,2.85905998,4.53859515,-0.4
 9486591\C,0,0.90522746,3.67228013,-0.2313038\H,0,0.94025923,3.81626954
 ,0.8583884\H,0,0.40711009,4.55477686,-0.64538534\C,0,0.12186875,2.3800
 1704,-0.5340102\C,0,0.95797767,1.20255161,0.0463315\H,0,1.09680256,1.4
 5084092,1.11348209\C,0,0.,0.,0.\H,0,0.26597634,-0.773268,0.72532363\H,
 0,0.03023109,-0.48144703,-0.98269853\C,0,-1.3929511,0.62700552,0.28126
 742\H,0,-2.11678778,0.3169835,-0.48172401\H,0,-1.79898803,0.29298969,1
 .24161586\C,0,-1.21475065,2.18018239,0.26100762\H,0,-1.0003052,2.51208
 918,1.28780255\C,0,-0.12684527,2.23580959,-2.05269102\H,0,0.80299309,2
 .16618257,-2.62269358\H,0,-0.71451278,1.34385134,-2.28836241\H,0,-0.67
 701861,3.10153391,-2.43662809\C,0,-2.49580443,2.91759917,-0.20254957\H
 ,0,-2.71531938,2.57890772,-1.22562406\C,0,-2.35075024,4.45042823,-0.25
 086679\H,0,-1.96387797,4.85528938,0.69101415\H,0,-3.32314246,4.9209367
 4,-0.43919166\H,0,-1.67602406,4.77267904,-1.04805541\C,0,4.63485731,2.
 43815313,-2.4310402\H,0,4.28126707,3.41187512,-2.78378098\H,0,5.644307
 23,2.29956937,-2.82785404\H,0,4.00481159,1.66051896,-2.87224911\O,0,2.
 68568131,-1.39277445,-0.36444776\O,0,2.9332207,-1.49183264,-1.79810176
 \H,0,3.72743945,-2.05073262,-1.81066265\O,0,8.93914125,2.14639547,-0.0
 6850904\H,0,9.16096422,2.19973194,-1.0088002\C,0,-3.7376133,2.51969989
 ,0.63986736\H,0,-4.61388618,3.0063828,0.1879025\H,0,-3.9135286,1.44128
 452,0.54137535\C,0,-3.70012143,2.87737068,2.13521863\H,0,-2.85019127,2
 .37520466,2.61326507\H,0,-3.53002505,3.95441455,2.25273429\C,0,-5.0011
 8477,2.48005691,2.85205161\H,0,-5.16637088,1.4023692,2.70818534\H,0,-5
 .84319327,2.98315933,2.3547516\C,0,-5.07998093,2.78482619,4.36622557\H
 ,0,-6.07061792,2.43491859,4.69261147\C,0,-4.03562632,2.00611012,5.1833
 1895\H,0,-3.01605522,2.34250661,4.9622898\H,0,-4.19896405,2.14501744,6
 .25818202\H,0,-4.08592446,0.93101759,4.97419918\C,0,-5.01019615,4.2901
 623,4.6725105\H,0,-4.02510201,4.70650953,4.43215284\H,0,-5.19434073,4.
 48071379,5.73603529\H,0,-5.75861766,4.84931612,4.09863186\\Version=EM6
 4L-G09RevD.01\HF=-1273.683092\RMSD=5.282e-07\Dipole=0.2450287,0.474939
 4,-0.4260996\Quadrupole=-4.4886745,2.4714738,2.0172006,-0.4925074,-11.
 0058906,-2.642054\PG=C01 [X(C27H46O3)]\\@


 I am not a vegetarian because I love animals;
 I am a vegetarian because I hate plants.
                               -- A. Whitney Brown
 Job cpu time:       0 days  0 hours 11 minutes 57.9 seconds.
 File lengths (MBytes):  RWF=    159 Int=      0 D2E=      0 Chk=     11 Scr=      1
 Normal termination of Gaussian 09 at Thu Apr 27 15:39:14 2017.
