 Entering Gaussian System, Link 0=/home/michal/g09/g09
 Input=JOB2-gau_m1-17-3.com
 Output=JOB2-gau_m1-17-3.log
 Initial command:
 /home/michal/g09/l1.exe "/home/michal/gauss_scratch/Gau-2838.inp" -scrdir="/home/michal/gauss_scratch/"
 Entering Link 1 = /home/michal/g09/l1.exe PID=      2839.
  
 Copyright (c) 1988,1990,1992,1993,1995,1998,2003,2009,2013,
            Gaussian, Inc.  All Rights Reserved.
  
 This is part of the Gaussian(R) 09 program.  It is based on
 the Gaussian(R) 03 system (copyright 2003, Gaussian, Inc.),
 the Gaussian(R) 98 system (copyright 1998, Gaussian, Inc.),
 the Gaussian(R) 94 system (copyright 1995, Gaussian, Inc.),
 the Gaussian 92(TM) system (copyright 1992, Gaussian, Inc.),
 the Gaussian 90(TM) system (copyright 1990, Gaussian, Inc.),
 the Gaussian 88(TM) system (copyright 1988, Gaussian, Inc.),
 the Gaussian 86(TM) system (copyright 1986, Carnegie Mellon
 University), and the Gaussian 82(TM) system (copyright 1983,
 Carnegie Mellon University). Gaussian is a federally registered
 trademark of Gaussian, Inc.
  
 This software contains proprietary and confidential information,
 including trade secrets, belonging to Gaussian, Inc.
  
 This software is provided under written license and may be
 used, copied, transmitted, or stored only in accord with that
 written license.
  
 The following legend is applicable only to US Government
 contracts under FAR:
  
                    RESTRICTED RIGHTS LEGEND
  
 Use, reproduction and disclosure by the US Government is
 subject to restrictions as set forth in subparagraphs (a)
 and (c) of the Commercial Computer Software - Restricted
 Rights clause in FAR 52.227-19.
  
 Gaussian, Inc.
 340 Quinnipiac St., Bldg. 40, Wallingford CT 06492
  
  
 ---------------------------------------------------------------
 Warning -- This program may not be used in any manner that
 competes with the business of Gaussian, Inc. or will provide
 assistance to any competitor of Gaussian, Inc.  The licensee
 of this program is prohibited from giving any competitor of
 Gaussian, Inc. access to this program.  By using this program,
 the user acknowledges that Gaussian, Inc. is engaged in the
 business of creating and licensing software in the field of
 computational chemistry and represents and warrants to the
 licensee that it is not a competitor of Gaussian, Inc. and that
 it will not use this program in any manner prohibited above.
 ---------------------------------------------------------------
  

 Cite this work as:
 Gaussian 09, Revision D.01,
 M. J. Frisch, G. W. Trucks, H. B. Schlegel, G. E. Scuseria, 
 M. A. Robb, J. R. Cheeseman, G. Scalmani, V. Barone, B. Mennucci, 
 G. A. Petersson, H. Nakatsuji, M. Caricato, X. Li, H. P. Hratchian, 
 A. F. Izmaylov, J. Bloino, G. Zheng, J. L. Sonnenberg, M. Hada, 
 M. Ehara, K. Toyota, R. Fukuda, J. Hasegawa, M. Ishida, T. Nakajima, 
 Y. Honda, O. Kitao, H. Nakai, T. Vreven, J. A. Montgomery, Jr., 
 J. E. Peralta, F. Ogliaro, M. Bearpark, J. J. Heyd, E. Brothers, 
 K. N. Kudin, V. N. Staroverov, T. Keith, R. Kobayashi, J. Normand, 
 K. Raghavachari, A. Rendell, J. C. Burant, S. S. Iyengar, J. Tomasi, 
 M. Cossi, N. Rega, J. M. Millam, M. Klene, J. E. Knox, J. B. Cross, 
 V. Bakken, C. Adamo, J. Jaramillo, R. Gomperts, R. E. Stratmann, 
 O. Yazyev, A. J. Austin, R. Cammi, C. Pomelli, J. W. Ochterski, 
 R. L. Martin, K. Morokuma, V. G. Zakrzewski, G. A. Voth, 
 P. Salvador, J. J. Dannenberg, S. Dapprich, A. D. Daniels, 
 O. Farkas, J. B. Foresman, J. V. Ortiz, J. Cioslowski, 
 and D. J. Fox, Gaussian, Inc., Wallingford CT, 2013.
 
 ******************************************
 Gaussian 09:  EM64L-G09RevD.01 24-Apr-2013
                27-Apr-2017 
 ******************************************
 %Mem=256MB
 %NProc=12
 Will use up to   12 processors via shared memory.
 ----------------------------------------------------------------------
 #P HF/6-31G* SCF(Conver=6) NoSymm Test Pop=mk IOp(6/33=2) GFInput GFPr
 int
 ----------------------------------------------------------------------
 1/38=1/1;
 2/12=2,15=1,17=6,18=5,40=1/2;
 3/5=1,6=6,7=1,11=9,16=1,24=110,25=1,30=1/1,2,3;
 4//1;
 5/5=2,6=6,38=5/2;
 6/7=2,8=2,9=2,10=2,15=8,20=1,28=1,33=2/1,2;
 99/5=1,9=1/99;
 Leave Link    1 at Thu Apr 27 16:05:25 2017, MaxMem=    33554432 cpu:         0.6
 (Enter /home/michal/g09/l101.exe)
 ----------------------------------------------
 MEP - Input generated by R.E.D.-III.x MOLECULE
 ----------------------------------------------
 Symbolic Z-matrix:
 Charge =  0 Multiplicity = 1
 C                    -1.01104   1.98262   1.68487 
 H                    -0.99257   1.00509   2.18219 
 C                     0.31594   2.70569   1.95374 
 H                     0.47462   2.80267   3.03206 
 H                     0.22457   3.72926   1.55484 
 C                     1.50287   2.01409   1.30964 
 C                     1.38669   1.66201  -0.1768 
 C                    -0.01077   1.0133   -0.42518 
 H                     0.        0.        0. 
 H                    -0.17386   0.89643  -1.50179 
 C                    -1.19778   1.77695   0.18195 
 H                    -1.31237   2.75814  -0.30212 
 H                    -2.12832   1.22732   0. 
 C                     2.59965   1.7506    2.03206 
 H                     2.62692   2.0137    3.08712 
 C                     3.86398   1.14102   1.50232 
 H                     4.04509   0.16724   1.98338 
 C                     3.90646   0.99059  -0.02728 
 H                     4.20961   1.96463  -0.4333 
 C                     2.49424   0.62299  -0.56334 
 H                     2.21367  -0.31159  -0.05077 
 C                     2.53727   0.30749  -2.07593 
 H                     2.71387   1.22943  -2.64052 
 H                     1.55858  -0.06225  -2.40031 
 C                     3.60437  -0.7299   -2.47434 
 H                     3.3504   -1.70312  -2.02984 
 H                     3.5691   -0.86584  -3.55977 
 C                     5.01206  -0.32176  -1.99578 
 C                     4.91282  -0.09215  -0.45967 
 H                     4.51851  -1.03974  -0.05387 
 C                     6.3764    0.        0. 
 H                     6.4946   -0.24187   1.06077 
 H                     6.76124   1.01622  -0.13192 
 C                     7.11377  -1.0122   -0.9177 
 H                     8.00735  -0.55818  -1.362 
 H                     7.46149  -1.87863  -0.3472 
 C                     6.10583  -1.445    -2.03688 
 H                     5.60576  -2.36925  -1.7056 
 C                     5.50331   0.93755  -2.74657 
 H                     4.86229   1.80469  -2.56891 
 H                     6.51742   1.22172  -2.45037 
 H                     5.51636   0.76285  -3.82717 
 C                     6.81693  -1.77415  -3.37441 
 H                     7.37374  -0.87478  -3.67609 
 C                     5.84564  -2.13151  -4.51497 
 H                     5.17272  -2.94383  -4.21333 
 H                     6.3944   -2.47336  -5.39792 
 H                     5.22878  -1.28357  -4.82335 
 C                     1.50925   2.96895  -1.00515 
 H                     1.28097   2.79524  -2.0614 
 H                     0.81607   3.73493  -0.64787 
 H                     2.51647   3.39013  -0.93407 
 O                     4.99249   1.99266   1.82517 
 O                     5.17604   1.95989   3.27279 
 H                     6.03955   1.5184    3.32717 
 O                    -2.11806   2.65975   2.28657 
 H                    -2.19069   3.54191   1.8958 
 C                     7.85428  -2.9241   -3.18407 
 H                     7.9969   -3.12719  -2.11764 
 H                     7.44163  -3.85126  -3.60655 
 C                     9.24741  -2.6715   -3.79331 
 H                     9.67216  -1.76243  -3.34212 
 H                     9.90312  -3.4966   -3.48804 
 C                     9.28376  -2.53085  -5.3224 
 H                     8.62315  -1.70779  -5.62483 
 H                     8.86933  -3.44128  -5.78271 
 C                     10.68122  -2.26403  -5.9208 
 H                     11.10075  -1.38626  -5.40503 
 C                     11.64976  -3.43995  -5.7136 
 H                     11.26296  -4.34967  -6.19129 
 H                     12.62791  -3.22314  -6.15778 
 H                     11.81236  -3.66202  -4.65433 
 C                     10.5702  -1.91946  -7.4147 
 H                     10.15056  -2.7618   -7.97967 
 H                     11.55174  -1.68894  -7.84434 
 H                     9.92008  -1.05231  -7.57827 
 
 NAtoms=     76 NQM=       76 NQMF=       0 NMMI=      0 NMMIF=      0
                NMic=       0 NMicF=      0.
                    Isotopes and Nuclear Properties:
 (Nuclear quadrupole moments (NQMom) in fm**2, nuclear magnetic moments (NMagM)
  in nuclear magnetons)

  Atom         1           2           3           4           5           6           7           8           9          10
 IAtWgt=          12           1          12           1           1          12          12          12           1           1
 AtmWgt=  12.0000000   1.0078250  12.0000000   1.0078250   1.0078250  12.0000000  12.0000000  12.0000000   1.0078250   1.0078250
 NucSpn=           0           1           0           1           1           0           0           0           1           1
 AtZEff=   0.0000000   0.0000000   0.0000000   0.0000000   0.0000000   0.0000000   0.0000000   0.0000000   0.0000000   0.0000000
 NQMom=    0.0000000   0.0000000   0.0000000   0.0000000   0.0000000   0.0000000   0.0000000   0.0000000   0.0000000   0.0000000
 NMagM=    0.0000000   2.7928460   0.0000000   2.7928460   2.7928460   0.0000000   0.0000000   0.0000000   2.7928460   2.7928460
 AtZNuc=   6.0000000   1.0000000   6.0000000   1.0000000   1.0000000   6.0000000   6.0000000   6.0000000   1.0000000   1.0000000

  Atom        11          12          13          14          15          16          17          18          19          20
 IAtWgt=          12           1           1          12           1          12           1          12           1          12
 AtmWgt=  12.0000000   1.0078250   1.0078250  12.0000000   1.0078250  12.0000000   1.0078250  12.0000000   1.0078250  12.0000000
 NucSpn=           0           1           1           0           1           0           1           0           1           0
 AtZEff=   0.0000000   0.0000000   0.0000000   0.0000000   0.0000000   0.0000000   0.0000000   0.0000000   0.0000000   0.0000000
 NQMom=    0.0000000   0.0000000   0.0000000   0.0000000   0.0000000   0.0000000   0.0000000   0.0000000   0.0000000   0.0000000
 NMagM=    0.0000000   2.7928460   2.7928460   0.0000000   2.7928460   0.0000000   2.7928460   0.0000000   2.7928460   0.0000000
 AtZNuc=   6.0000000   1.0000000   1.0000000   6.0000000   1.0000000   6.0000000   1.0000000   6.0000000   1.0000000   6.0000000

  Atom        21          22          23          24          25          26          27          28          29          30
 IAtWgt=           1          12           1           1          12           1           1          12          12           1
 AtmWgt=   1.0078250  12.0000000   1.0078250   1.0078250  12.0000000   1.0078250   1.0078250  12.0000000  12.0000000   1.0078250
 NucSpn=           1           0           1           1           0           1           1           0           0           1
 AtZEff=   0.0000000   0.0000000   0.0000000   0.0000000   0.0000000   0.0000000   0.0000000   0.0000000   0.0000000   0.0000000
 NQMom=    0.0000000   0.0000000   0.0000000   0.0000000   0.0000000   0.0000000   0.0000000   0.0000000   0.0000000   0.0000000
 NMagM=    2.7928460   0.0000000   2.7928460   2.7928460   0.0000000   2.7928460   2.7928460   0.0000000   0.0000000   2.7928460
 AtZNuc=   1.0000000   6.0000000   1.0000000   1.0000000   6.0000000   1.0000000   1.0000000   6.0000000   6.0000000   1.0000000

  Atom        31          32          33          34          35          36          37          38          39          40
 IAtWgt=          12           1           1          12           1           1          12           1          12           1
 AtmWgt=  12.0000000   1.0078250   1.0078250  12.0000000   1.0078250   1.0078250  12.0000000   1.0078250  12.0000000   1.0078250
 NucSpn=           0           1           1           0           1           1           0           1           0           1
 AtZEff=   0.0000000   0.0000000   0.0000000   0.0000000   0.0000000   0.0000000   0.0000000   0.0000000   0.0000000   0.0000000
 NQMom=    0.0000000   0.0000000   0.0000000   0.0000000   0.0000000   0.0000000   0.0000000   0.0000000   0.0000000   0.0000000
 NMagM=    0.0000000   2.7928460   2.7928460   0.0000000   2.7928460   2.7928460   0.0000000   2.7928460   0.0000000   2.7928460
 AtZNuc=   6.0000000   1.0000000   1.0000000   6.0000000   1.0000000   1.0000000   6.0000000   1.0000000   6.0000000   1.0000000

  Atom        41          42          43          44          45          46          47          48          49          50
 IAtWgt=           1           1          12           1          12           1           1           1          12           1
 AtmWgt=   1.0078250   1.0078250  12.0000000   1.0078250  12.0000000   1.0078250   1.0078250   1.0078250  12.0000000   1.0078250
 NucSpn=           1           1           0           1           0           1           1           1           0           1
 AtZEff=   0.0000000   0.0000000   0.0000000   0.0000000   0.0000000   0.0000000   0.0000000   0.0000000   0.0000000   0.0000000
 NQMom=    0.0000000   0.0000000   0.0000000   0.0000000   0.0000000   0.0000000   0.0000000   0.0000000   0.0000000   0.0000000
 NMagM=    2.7928460   2.7928460   0.0000000   2.7928460   0.0000000   2.7928460   2.7928460   2.7928460   0.0000000   2.7928460
 AtZNuc=   1.0000000   1.0000000   6.0000000   1.0000000   6.0000000   1.0000000   1.0000000   1.0000000   6.0000000   1.0000000

  Atom        51          52          53          54          55          56          57          58          59          60
 IAtWgt=           1           1          16          16           1          16           1          12           1           1
 AtmWgt=   1.0078250   1.0078250  15.9949146  15.9949146   1.0078250  15.9949146   1.0078250  12.0000000   1.0078250   1.0078250
 NucSpn=           1           1           0           0           1           0           1           0           1           1
 AtZEff=   0.0000000   0.0000000   0.0000000   0.0000000   0.0000000   0.0000000   0.0000000   0.0000000   0.0000000   0.0000000
 NQMom=    0.0000000   0.0000000   0.0000000   0.0000000   0.0000000   0.0000000   0.0000000   0.0000000   0.0000000   0.0000000
 NMagM=    2.7928460   2.7928460   0.0000000   0.0000000   2.7928460   0.0000000   2.7928460   0.0000000   2.7928460   2.7928460
 AtZNuc=   1.0000000   1.0000000   8.0000000   8.0000000   1.0000000   8.0000000   1.0000000   6.0000000   1.0000000   1.0000000

  Atom        61          62          63          64          65          66          67          68          69          70
 IAtWgt=          12           1           1          12           1           1          12           1          12           1
 AtmWgt=  12.0000000   1.0078250   1.0078250  12.0000000   1.0078250   1.0078250  12.0000000   1.0078250  12.0000000   1.0078250
 NucSpn=           0           1           1           0           1           1           0           1           0           1
 AtZEff=   0.0000000   0.0000000   0.0000000   0.0000000   0.0000000   0.0000000   0.0000000   0.0000000   0.0000000   0.0000000
 NQMom=    0.0000000   0.0000000   0.0000000   0.0000000   0.0000000   0.0000000   0.0000000   0.0000000   0.0000000   0.0000000
 NMagM=    0.0000000   2.7928460   2.7928460   0.0000000   2.7928460   2.7928460   0.0000000   2.7928460   0.0000000   2.7928460
 AtZNuc=   6.0000000   1.0000000   1.0000000   6.0000000   1.0000000   1.0000000   6.0000000   1.0000000   6.0000000   1.0000000

  Atom        71          72          73          74          75          76
 IAtWgt=           1           1          12           1           1           1
 AtmWgt=   1.0078250   1.0078250  12.0000000   1.0078250   1.0078250   1.0078250
 NucSpn=           1           1           0           1           1           1
 AtZEff=   0.0000000   0.0000000   0.0000000   0.0000000   0.0000000   0.0000000
 NQMom=    0.0000000   0.0000000   0.0000000   0.0000000   0.0000000   0.0000000
 NMagM=    2.7928460   2.7928460   0.0000000   2.7928460   2.7928460   2.7928460
 AtZNuc=   1.0000000   1.0000000   6.0000000   1.0000000   1.0000000   1.0000000
 Leave Link  101 at Thu Apr 27 16:05:25 2017, MaxMem=    33554432 cpu:         1.0
 (Enter /home/michal/g09/l202.exe)
 Symmetry turned off by external request.
 Stoichiometry    C27H46O3
 Framework group  C1[X(C27H46O3)]
 Deg. of freedom   222
 Full point group                 C1      NOp   1
                          Input orientation:                          
 ---------------------------------------------------------------------
 Center     Atomic      Atomic             Coordinates (Angstroms)
 Number     Number       Type             X           Y           Z
 ---------------------------------------------------------------------
      1          6           0       -1.011037    1.982624    1.684873
      2          1           0       -0.992571    1.005092    2.182185
      3          6           0        0.315937    2.705685    1.953737
      4          1           0        0.474625    2.802670    3.032061
      5          1           0        0.224572    3.729257    1.554839
      6          6           0        1.502868    2.014086    1.309641
      7          6           0        1.386694    1.662007   -0.176799
      8          6           0       -0.010767    1.013299   -0.425179
      9          1           0        0.000000    0.000000    0.000000
     10          1           0       -0.173857    0.896430   -1.501792
     11          6           0       -1.197779    1.776947    0.181955
     12          1           0       -1.312366    2.758138   -0.302121
     13          1           0       -2.128319    1.227322    0.000000
     14          6           0        2.599649    1.750596    2.032063
     15          1           0        2.626924    2.013703    3.087125
     16          6           0        3.863983    1.141023    1.502319
     17          1           0        4.045089    0.167244    1.983378
     18          6           0        3.906463    0.990588   -0.027283
     19          1           0        4.209609    1.964626   -0.433299
     20          6           0        2.494240    0.622992   -0.563344
     21          1           0        2.213665   -0.311591   -0.050773
     22          6           0        2.537270    0.307492   -2.075934
     23          1           0        2.713872    1.229432   -2.640518
     24          1           0        1.558584   -0.062253   -2.400308
     25          6           0        3.604374   -0.729899   -2.474345
     26          1           0        3.350396   -1.703125   -2.029838
     27          1           0        3.569096   -0.865840   -3.559771
     28          6           0        5.012061   -0.321764   -1.995779
     29          6           0        4.912824   -0.092145   -0.459673
     30          1           0        4.518515   -1.039736   -0.053875
     31          6           0        6.376399    0.000000    0.000000
     32          1           0        6.494602   -0.241871    1.060774
     33          1           0        6.761241    1.016222   -0.131918
     34          6           0        7.113773   -1.012202   -0.917697
     35          1           0        8.007348   -0.558177   -1.361997
     36          1           0        7.461488   -1.878630   -0.347202
     37          6           0        6.105826   -1.444999   -2.036881
     38          1           0        5.605762   -2.369253   -1.705604
     39          6           0        5.503315    0.937552   -2.746566
     40          1           0        4.862289    1.804691   -2.568905
     41          1           0        6.517418    1.221722   -2.450374
     42          1           0        5.516365    0.762854   -3.827172
     43          6           0        6.816930   -1.774154   -3.374408
     44          1           0        7.373742   -0.874777   -3.676093
     45          6           0        5.845635   -2.131512   -4.514969
     46          1           0        5.172723   -2.943827   -4.213325
     47          1           0        6.394401   -2.473361   -5.397921
     48          1           0        5.228783   -1.283573   -4.823355
     49          6           0        1.509250    2.968952   -1.005153
     50          1           0        1.280972    2.795235   -2.061395
     51          1           0        0.816071    3.734926   -0.647874
     52          1           0        2.516474    3.390129   -0.934065
     53          8           0        4.992494    1.992661    1.825172
     54          8           0        5.176041    1.959886    3.272793
     55          1           0        6.039546    1.518402    3.327167
     56          8           0       -2.118062    2.659746    2.286567
     57          1           0       -2.190690    3.541911    1.895803
     58          6           0        7.854280   -2.924098   -3.184067
     59          1           0        7.996902   -3.127193   -2.117638
     60          1           0        7.441625   -3.851264   -3.606550
     61          6           0        9.247412   -2.671495   -3.793307
     62          1           0        9.672163   -1.762427   -3.342123
     63          1           0        9.903125   -3.496604   -3.488044
     64          6           0        9.283757   -2.530849   -5.322400
     65          1           0        8.623153   -1.707787   -5.624829
     66          1           0        8.869331   -3.441278   -5.782705
     67          6           0       10.681215   -2.264032   -5.920802
     68          1           0       11.100749   -1.386257   -5.405033
     69          6           0       11.649760   -3.439955   -5.713604
     70          1           0       11.262965   -4.349668   -6.191286
     71          1           0       12.627909   -3.223143   -6.157779
     72          1           0       11.812361   -3.662020   -4.654327
     73          6           0       10.570202   -1.919458   -7.414697
     74          1           0       10.150557   -2.761800   -7.979672
     75          1           0       11.551740   -1.688936   -7.844343
     76          1           0        9.920081   -1.052312   -7.578266
 ---------------------------------------------------------------------
 Rotational constants (GHZ):      0.3779193      0.0537281      0.0494765
 Leave Link  202 at Thu Apr 27 16:05:25 2017, MaxMem=    33554432 cpu:         0.6
 (Enter /home/michal/g09/l301.exe)
 Standard basis: 6-31G(d) (6D, 7F)
 Ernie: Thresh=  0.10000D-02 Tol=  0.10000D-05 Strict=F.
 AO basis set in the form of general basis input (Overlap normalization):
      1 0
 S   6 1.00       0.000000000000
      0.3047524880D+04  0.1834737132D-02
      0.4573695180D+03  0.1403732281D-01
      0.1039486850D+03  0.6884262226D-01
      0.2921015530D+02  0.2321844432D+00
      0.9286662960D+01  0.4679413484D+00
      0.3163926960D+01  0.3623119853D+00
 SP   3 1.00       0.000000000000
      0.7868272350D+01 -0.1193324198D+00  0.6899906659D-01
      0.1881288540D+01 -0.1608541517D+00  0.3164239610D+00
      0.5442492580D+00  0.1143456438D+01  0.7443082909D+00
 SP   1 1.00       0.000000000000
      0.1687144782D+00  0.1000000000D+01  0.1000000000D+01
 D   1 1.00       0.000000000000
      0.8000000000D+00  0.1000000000D+01
 ****
      2 0
 S   3 1.00       0.000000000000
      0.1873113696D+02  0.3349460434D-01
      0.2825394365D+01  0.2347269535D+00
      0.6401216923D+00  0.8137573261D+00
 S   1 1.00       0.000000000000
      0.1612777588D+00  0.1000000000D+01
 ****
      3 0
 S   6 1.00       0.000000000000
      0.3047524880D+04  0.1834737132D-02
      0.4573695180D+03  0.1403732281D-01
      0.1039486850D+03  0.6884262226D-01
      0.2921015530D+02  0.2321844432D+00
      0.9286662960D+01  0.4679413484D+00
      0.3163926960D+01  0.3623119853D+00
 SP   3 1.00       0.000000000000
      0.7868272350D+01 -0.1193324198D+00  0.6899906659D-01
      0.1881288540D+01 -0.1608541517D+00  0.3164239610D+00
      0.5442492580D+00  0.1143456438D+01  0.7443082909D+00
 SP   1 1.00       0.000000000000
      0.1687144782D+00  0.1000000000D+01  0.1000000000D+01
 D   1 1.00       0.000000000000
      0.8000000000D+00  0.1000000000D+01
 ****
      4 0
 S   3 1.00       0.000000000000
      0.1873113696D+02  0.3349460434D-01
      0.2825394365D+01  0.2347269535D+00
      0.6401216923D+00  0.8137573261D+00
 S   1 1.00       0.000000000000
      0.1612777588D+00  0.1000000000D+01
 ****
      5 0
 S   3 1.00       0.000000000000
      0.1873113696D+02  0.3349460434D-01
      0.2825394365D+01  0.2347269535D+00
      0.6401216923D+00  0.8137573261D+00
 S   1 1.00       0.000000000000
      0.1612777588D+00  0.1000000000D+01
 ****
      6 0
 S   6 1.00       0.000000000000
      0.3047524880D+04  0.1834737132D-02
      0.4573695180D+03  0.1403732281D-01
      0.1039486850D+03  0.6884262226D-01
      0.2921015530D+02  0.2321844432D+00
      0.9286662960D+01  0.4679413484D+00
      0.3163926960D+01  0.3623119853D+00
 SP   3 1.00       0.000000000000
      0.7868272350D+01 -0.1193324198D+00  0.6899906659D-01
      0.1881288540D+01 -0.1608541517D+00  0.3164239610D+00
      0.5442492580D+00  0.1143456438D+01  0.7443082909D+00
 SP   1 1.00       0.000000000000
      0.1687144782D+00  0.1000000000D+01  0.1000000000D+01
 D   1 1.00       0.000000000000
      0.8000000000D+00  0.1000000000D+01
 ****
      7 0
 S   6 1.00       0.000000000000
      0.3047524880D+04  0.1834737132D-02
      0.4573695180D+03  0.1403732281D-01
      0.1039486850D+03  0.6884262226D-01
      0.2921015530D+02  0.2321844432D+00
      0.9286662960D+01  0.4679413484D+00
      0.3163926960D+01  0.3623119853D+00
 SP   3 1.00       0.000000000000
      0.7868272350D+01 -0.1193324198D+00  0.6899906659D-01
      0.1881288540D+01 -0.1608541517D+00  0.3164239610D+00
      0.5442492580D+00  0.1143456438D+01  0.7443082909D+00
 SP   1 1.00       0.000000000000
      0.1687144782D+00  0.1000000000D+01  0.1000000000D+01
 D   1 1.00       0.000000000000
      0.8000000000D+00  0.1000000000D+01
 ****
      8 0
 S   6 1.00       0.000000000000
      0.3047524880D+04  0.1834737132D-02
      0.4573695180D+03  0.1403732281D-01
      0.1039486850D+03  0.6884262226D-01
      0.2921015530D+02  0.2321844432D+00
      0.9286662960D+01  0.4679413484D+00
      0.3163926960D+01  0.3623119853D+00
 SP   3 1.00       0.000000000000
      0.7868272350D+01 -0.1193324198D+00  0.6899906659D-01
      0.1881288540D+01 -0.1608541517D+00  0.3164239610D+00
      0.5442492580D+00  0.1143456438D+01  0.7443082909D+00
 SP   1 1.00       0.000000000000
      0.1687144782D+00  0.1000000000D+01  0.1000000000D+01
 D   1 1.00       0.000000000000
      0.8000000000D+00  0.1000000000D+01
 ****
      9 0
 S   3 1.00       0.000000000000
      0.1873113696D+02  0.3349460434D-01
      0.2825394365D+01  0.2347269535D+00
      0.6401216923D+00  0.8137573261D+00
 S   1 1.00       0.000000000000
      0.1612777588D+00  0.1000000000D+01
 ****
     10 0
 S   3 1.00       0.000000000000
      0.1873113696D+02  0.3349460434D-01
      0.2825394365D+01  0.2347269535D+00
      0.6401216923D+00  0.8137573261D+00
 S   1 1.00       0.000000000000
      0.1612777588D+00  0.1000000000D+01
 ****
     11 0
 S   6 1.00       0.000000000000
      0.3047524880D+04  0.1834737132D-02
      0.4573695180D+03  0.1403732281D-01
      0.1039486850D+03  0.6884262226D-01
      0.2921015530D+02  0.2321844432D+00
      0.9286662960D+01  0.4679413484D+00
      0.3163926960D+01  0.3623119853D+00
 SP   3 1.00       0.000000000000
      0.7868272350D+01 -0.1193324198D+00  0.6899906659D-01
      0.1881288540D+01 -0.1608541517D+00  0.3164239610D+00
      0.5442492580D+00  0.1143456438D+01  0.7443082909D+00
 SP   1 1.00       0.000000000000
      0.1687144782D+00  0.1000000000D+01  0.1000000000D+01
 D   1 1.00       0.000000000000
      0.8000000000D+00  0.1000000000D+01
 ****
     12 0
 S   3 1.00       0.000000000000
      0.1873113696D+02  0.3349460434D-01
      0.2825394365D+01  0.2347269535D+00
      0.6401216923D+00  0.8137573261D+00
 S   1 1.00       0.000000000000
      0.1612777588D+00  0.1000000000D+01
 ****
     13 0
 S   3 1.00       0.000000000000
      0.1873113696D+02  0.3349460434D-01
      0.2825394365D+01  0.2347269535D+00
      0.6401216923D+00  0.8137573261D+00
 S   1 1.00       0.000000000000
      0.1612777588D+00  0.1000000000D+01
 ****
     14 0
 S   6 1.00       0.000000000000
      0.3047524880D+04  0.1834737132D-02
      0.4573695180D+03  0.1403732281D-01
      0.1039486850D+03  0.6884262226D-01
      0.2921015530D+02  0.2321844432D+00
      0.9286662960D+01  0.4679413484D+00
      0.3163926960D+01  0.3623119853D+00
 SP   3 1.00       0.000000000000
      0.7868272350D+01 -0.1193324198D+00  0.6899906659D-01
      0.1881288540D+01 -0.1608541517D+00  0.3164239610D+00
      0.5442492580D+00  0.1143456438D+01  0.7443082909D+00
 SP   1 1.00       0.000000000000
      0.1687144782D+00  0.1000000000D+01  0.1000000000D+01
 D   1 1.00       0.000000000000
      0.8000000000D+00  0.1000000000D+01
 ****
     15 0
 S   3 1.00       0.000000000000
      0.1873113696D+02  0.3349460434D-01
      0.2825394365D+01  0.2347269535D+00
      0.6401216923D+00  0.8137573261D+00
 S   1 1.00       0.000000000000
      0.1612777588D+00  0.1000000000D+01
 ****
     16 0
 S   6 1.00       0.000000000000
      0.3047524880D+04  0.1834737132D-02
      0.4573695180D+03  0.1403732281D-01
      0.1039486850D+03  0.6884262226D-01
      0.2921015530D+02  0.2321844432D+00
      0.9286662960D+01  0.4679413484D+00
      0.3163926960D+01  0.3623119853D+00
 SP   3 1.00       0.000000000000
      0.7868272350D+01 -0.1193324198D+00  0.6899906659D-01
      0.1881288540D+01 -0.1608541517D+00  0.3164239610D+00
      0.5442492580D+00  0.1143456438D+01  0.7443082909D+00
 SP   1 1.00       0.000000000000
      0.1687144782D+00  0.1000000000D+01  0.1000000000D+01
 D   1 1.00       0.000000000000
      0.8000000000D+00  0.1000000000D+01
 ****
     17 0
 S   3 1.00       0.000000000000
      0.1873113696D+02  0.3349460434D-01
      0.2825394365D+01  0.2347269535D+00
      0.6401216923D+00  0.8137573261D+00
 S   1 1.00       0.000000000000
      0.1612777588D+00  0.1000000000D+01
 ****
     18 0
 S   6 1.00       0.000000000000
      0.3047524880D+04  0.1834737132D-02
      0.4573695180D+03  0.1403732281D-01
      0.1039486850D+03  0.6884262226D-01
      0.2921015530D+02  0.2321844432D+00
      0.9286662960D+01  0.4679413484D+00
      0.3163926960D+01  0.3623119853D+00
 SP   3 1.00       0.000000000000
      0.7868272350D+01 -0.1193324198D+00  0.6899906659D-01
      0.1881288540D+01 -0.1608541517D+00  0.3164239610D+00
      0.5442492580D+00  0.1143456438D+01  0.7443082909D+00
 SP   1 1.00       0.000000000000
      0.1687144782D+00  0.1000000000D+01  0.1000000000D+01
 D   1 1.00       0.000000000000
      0.8000000000D+00  0.1000000000D+01
 ****
     19 0
 S   3 1.00       0.000000000000
      0.1873113696D+02  0.3349460434D-01
      0.2825394365D+01  0.2347269535D+00
      0.6401216923D+00  0.8137573261D+00
 S   1 1.00       0.000000000000
      0.1612777588D+00  0.1000000000D+01
 ****
     20 0
 S   6 1.00       0.000000000000
      0.3047524880D+04  0.1834737132D-02
      0.4573695180D+03  0.1403732281D-01
      0.1039486850D+03  0.6884262226D-01
      0.2921015530D+02  0.2321844432D+00
      0.9286662960D+01  0.4679413484D+00
      0.3163926960D+01  0.3623119853D+00
 SP   3 1.00       0.000000000000
      0.7868272350D+01 -0.1193324198D+00  0.6899906659D-01
      0.1881288540D+01 -0.1608541517D+00  0.3164239610D+00
      0.5442492580D+00  0.1143456438D+01  0.7443082909D+00
 SP   1 1.00       0.000000000000
      0.1687144782D+00  0.1000000000D+01  0.1000000000D+01
 D   1 1.00       0.000000000000
      0.8000000000D+00  0.1000000000D+01
 ****
     21 0
 S   3 1.00       0.000000000000
      0.1873113696D+02  0.3349460434D-01
      0.2825394365D+01  0.2347269535D+00
      0.6401216923D+00  0.8137573261D+00
 S   1 1.00       0.000000000000
      0.1612777588D+00  0.1000000000D+01
 ****
     22 0
 S   6 1.00       0.000000000000
      0.3047524880D+04  0.1834737132D-02
      0.4573695180D+03  0.1403732281D-01
      0.1039486850D+03  0.6884262226D-01
      0.2921015530D+02  0.2321844432D+00
      0.9286662960D+01  0.4679413484D+00
      0.3163926960D+01  0.3623119853D+00
 SP   3 1.00       0.000000000000
      0.7868272350D+01 -0.1193324198D+00  0.6899906659D-01
      0.1881288540D+01 -0.1608541517D+00  0.3164239610D+00
      0.5442492580D+00  0.1143456438D+01  0.7443082909D+00
 SP   1 1.00       0.000000000000
      0.1687144782D+00  0.1000000000D+01  0.1000000000D+01
 D   1 1.00       0.000000000000
      0.8000000000D+00  0.1000000000D+01
 ****
     23 0
 S   3 1.00       0.000000000000
      0.1873113696D+02  0.3349460434D-01
      0.2825394365D+01  0.2347269535D+00
      0.6401216923D+00  0.8137573261D+00
 S   1 1.00       0.000000000000
      0.1612777588D+00  0.1000000000D+01
 ****
     24 0
 S   3 1.00       0.000000000000
      0.1873113696D+02  0.3349460434D-01
      0.2825394365D+01  0.2347269535D+00
      0.6401216923D+00  0.8137573261D+00
 S   1 1.00       0.000000000000
      0.1612777588D+00  0.1000000000D+01
 ****
     25 0
 S   6 1.00       0.000000000000
      0.3047524880D+04  0.1834737132D-02
      0.4573695180D+03  0.1403732281D-01
      0.1039486850D+03  0.6884262226D-01
      0.2921015530D+02  0.2321844432D+00
      0.9286662960D+01  0.4679413484D+00
      0.3163926960D+01  0.3623119853D+00
 SP   3 1.00       0.000000000000
      0.7868272350D+01 -0.1193324198D+00  0.6899906659D-01
      0.1881288540D+01 -0.1608541517D+00  0.3164239610D+00
      0.5442492580D+00  0.1143456438D+01  0.7443082909D+00
 SP   1 1.00       0.000000000000
      0.1687144782D+00  0.1000000000D+01  0.1000000000D+01
 D   1 1.00       0.000000000000
      0.8000000000D+00  0.1000000000D+01
 ****
     26 0
 S   3 1.00       0.000000000000
      0.1873113696D+02  0.3349460434D-01
      0.2825394365D+01  0.2347269535D+00
      0.6401216923D+00  0.8137573261D+00
 S   1 1.00       0.000000000000
      0.1612777588D+00  0.1000000000D+01
 ****
     27 0
 S   3 1.00       0.000000000000
      0.1873113696D+02  0.3349460434D-01
      0.2825394365D+01  0.2347269535D+00
      0.6401216923D+00  0.8137573261D+00
 S   1 1.00       0.000000000000
      0.1612777588D+00  0.1000000000D+01
 ****
     28 0
 S   6 1.00       0.000000000000
      0.3047524880D+04  0.1834737132D-02
      0.4573695180D+03  0.1403732281D-01
      0.1039486850D+03  0.6884262226D-01
      0.2921015530D+02  0.2321844432D+00
      0.9286662960D+01  0.4679413484D+00
      0.3163926960D+01  0.3623119853D+00
 SP   3 1.00       0.000000000000
      0.7868272350D+01 -0.1193324198D+00  0.6899906659D-01
      0.1881288540D+01 -0.1608541517D+00  0.3164239610D+00
      0.5442492580D+00  0.1143456438D+01  0.7443082909D+00
 SP   1 1.00       0.000000000000
      0.1687144782D+00  0.1000000000D+01  0.1000000000D+01
 D   1 1.00       0.000000000000
      0.8000000000D+00  0.1000000000D+01
 ****
     29 0
 S   6 1.00       0.000000000000
      0.3047524880D+04  0.1834737132D-02
      0.4573695180D+03  0.1403732281D-01
      0.1039486850D+03  0.6884262226D-01
      0.2921015530D+02  0.2321844432D+00
      0.9286662960D+01  0.4679413484D+00
      0.3163926960D+01  0.3623119853D+00
 SP   3 1.00       0.000000000000
      0.7868272350D+01 -0.1193324198D+00  0.6899906659D-01
      0.1881288540D+01 -0.1608541517D+00  0.3164239610D+00
      0.5442492580D+00  0.1143456438D+01  0.7443082909D+00
 SP   1 1.00       0.000000000000
      0.1687144782D+00  0.1000000000D+01  0.1000000000D+01
 D   1 1.00       0.000000000000
      0.8000000000D+00  0.1000000000D+01
 ****
     30 0
 S   3 1.00       0.000000000000
      0.1873113696D+02  0.3349460434D-01
      0.2825394365D+01  0.2347269535D+00
      0.6401216923D+00  0.8137573261D+00
 S   1 1.00       0.000000000000
      0.1612777588D+00  0.1000000000D+01
 ****
     31 0
 S   6 1.00       0.000000000000
      0.3047524880D+04  0.1834737132D-02
      0.4573695180D+03  0.1403732281D-01
      0.1039486850D+03  0.6884262226D-01
      0.2921015530D+02  0.2321844432D+00
      0.9286662960D+01  0.4679413484D+00
      0.3163926960D+01  0.3623119853D+00
 SP   3 1.00       0.000000000000
      0.7868272350D+01 -0.1193324198D+00  0.6899906659D-01
      0.1881288540D+01 -0.1608541517D+00  0.3164239610D+00
      0.5442492580D+00  0.1143456438D+01  0.7443082909D+00
 SP   1 1.00       0.000000000000
      0.1687144782D+00  0.1000000000D+01  0.1000000000D+01
 D   1 1.00       0.000000000000
      0.8000000000D+00  0.1000000000D+01
 ****
     32 0
 S   3 1.00       0.000000000000
      0.1873113696D+02  0.3349460434D-01
      0.2825394365D+01  0.2347269535D+00
      0.6401216923D+00  0.8137573261D+00
 S   1 1.00       0.000000000000
      0.1612777588D+00  0.1000000000D+01
 ****
     33 0
 S   3 1.00       0.000000000000
      0.1873113696D+02  0.3349460434D-01
      0.2825394365D+01  0.2347269535D+00
      0.6401216923D+00  0.8137573261D+00
 S   1 1.00       0.000000000000
      0.1612777588D+00  0.1000000000D+01
 ****
     34 0
 S   6 1.00       0.000000000000
      0.3047524880D+04  0.1834737132D-02
      0.4573695180D+03  0.1403732281D-01
      0.1039486850D+03  0.6884262226D-01
      0.2921015530D+02  0.2321844432D+00
      0.9286662960D+01  0.4679413484D+00
      0.3163926960D+01  0.3623119853D+00
 SP   3 1.00       0.000000000000
      0.7868272350D+01 -0.1193324198D+00  0.6899906659D-01
      0.1881288540D+01 -0.1608541517D+00  0.3164239610D+00
      0.5442492580D+00  0.1143456438D+01  0.7443082909D+00
 SP   1 1.00       0.000000000000
      0.1687144782D+00  0.1000000000D+01  0.1000000000D+01
 D   1 1.00       0.000000000000
      0.8000000000D+00  0.1000000000D+01
 ****
     35 0
 S   3 1.00       0.000000000000
      0.1873113696D+02  0.3349460434D-01
      0.2825394365D+01  0.2347269535D+00
      0.6401216923D+00  0.8137573261D+00
 S   1 1.00       0.000000000000
      0.1612777588D+00  0.1000000000D+01
 ****
     36 0
 S   3 1.00       0.000000000000
      0.1873113696D+02  0.3349460434D-01
      0.2825394365D+01  0.2347269535D+00
      0.6401216923D+00  0.8137573261D+00
 S   1 1.00       0.000000000000
      0.1612777588D+00  0.1000000000D+01
 ****
     37 0
 S   6 1.00       0.000000000000
      0.3047524880D+04  0.1834737132D-02
      0.4573695180D+03  0.1403732281D-01
      0.1039486850D+03  0.6884262226D-01
      0.2921015530D+02  0.2321844432D+00
      0.9286662960D+01  0.4679413484D+00
      0.3163926960D+01  0.3623119853D+00
 SP   3 1.00       0.000000000000
      0.7868272350D+01 -0.1193324198D+00  0.6899906659D-01
      0.1881288540D+01 -0.1608541517D+00  0.3164239610D+00
      0.5442492580D+00  0.1143456438D+01  0.7443082909D+00
 SP   1 1.00       0.000000000000
      0.1687144782D+00  0.1000000000D+01  0.1000000000D+01
 D   1 1.00       0.000000000000
      0.8000000000D+00  0.1000000000D+01
 ****
     38 0
 S   3 1.00       0.000000000000
      0.1873113696D+02  0.3349460434D-01
      0.2825394365D+01  0.2347269535D+00
      0.6401216923D+00  0.8137573261D+00
 S   1 1.00       0.000000000000
      0.1612777588D+00  0.1000000000D+01
 ****
     39 0
 S   6 1.00       0.000000000000
      0.3047524880D+04  0.1834737132D-02
      0.4573695180D+03  0.1403732281D-01
      0.1039486850D+03  0.6884262226D-01
      0.2921015530D+02  0.2321844432D+00
      0.9286662960D+01  0.4679413484D+00
      0.3163926960D+01  0.3623119853D+00
 SP   3 1.00       0.000000000000
      0.7868272350D+01 -0.1193324198D+00  0.6899906659D-01
      0.1881288540D+01 -0.1608541517D+00  0.3164239610D+00
      0.5442492580D+00  0.1143456438D+01  0.7443082909D+00
 SP   1 1.00       0.000000000000
      0.1687144782D+00  0.1000000000D+01  0.1000000000D+01
 D   1 1.00       0.000000000000
      0.8000000000D+00  0.1000000000D+01
 ****
     40 0
 S   3 1.00       0.000000000000
      0.1873113696D+02  0.3349460434D-01
      0.2825394365D+01  0.2347269535D+00
      0.6401216923D+00  0.8137573261D+00
 S   1 1.00       0.000000000000
      0.1612777588D+00  0.1000000000D+01
 ****
     41 0
 S   3 1.00       0.000000000000
      0.1873113696D+02  0.3349460434D-01
      0.2825394365D+01  0.2347269535D+00
      0.6401216923D+00  0.8137573261D+00
 S   1 1.00       0.000000000000
      0.1612777588D+00  0.1000000000D+01
 ****
     42 0
 S   3 1.00       0.000000000000
      0.1873113696D+02  0.3349460434D-01
      0.2825394365D+01  0.2347269535D+00
      0.6401216923D+00  0.8137573261D+00
 S   1 1.00       0.000000000000
      0.1612777588D+00  0.1000000000D+01
 ****
     43 0
 S   6 1.00       0.000000000000
      0.3047524880D+04  0.1834737132D-02
      0.4573695180D+03  0.1403732281D-01
      0.1039486850D+03  0.6884262226D-01
      0.2921015530D+02  0.2321844432D+00
      0.9286662960D+01  0.4679413484D+00
      0.3163926960D+01  0.3623119853D+00
 SP   3 1.00       0.000000000000
      0.7868272350D+01 -0.1193324198D+00  0.6899906659D-01
      0.1881288540D+01 -0.1608541517D+00  0.3164239610D+00
      0.5442492580D+00  0.1143456438D+01  0.7443082909D+00
 SP   1 1.00       0.000000000000
      0.1687144782D+00  0.1000000000D+01  0.1000000000D+01
 D   1 1.00       0.000000000000
      0.8000000000D+00  0.1000000000D+01
 ****
     44 0
 S   3 1.00       0.000000000000
      0.1873113696D+02  0.3349460434D-01
      0.2825394365D+01  0.2347269535D+00
      0.6401216923D+00  0.8137573261D+00
 S   1 1.00       0.000000000000
      0.1612777588D+00  0.1000000000D+01
 ****
     45 0
 S   6 1.00       0.000000000000
      0.3047524880D+04  0.1834737132D-02
      0.4573695180D+03  0.1403732281D-01
      0.1039486850D+03  0.6884262226D-01
      0.2921015530D+02  0.2321844432D+00
      0.9286662960D+01  0.4679413484D+00
      0.3163926960D+01  0.3623119853D+00
 SP   3 1.00       0.000000000000
      0.7868272350D+01 -0.1193324198D+00  0.6899906659D-01
      0.1881288540D+01 -0.1608541517D+00  0.3164239610D+00
      0.5442492580D+00  0.1143456438D+01  0.7443082909D+00
 SP   1 1.00       0.000000000000
      0.1687144782D+00  0.1000000000D+01  0.1000000000D+01
 D   1 1.00       0.000000000000
      0.8000000000D+00  0.1000000000D+01
 ****
     46 0
 S   3 1.00       0.000000000000
      0.1873113696D+02  0.3349460434D-01
      0.2825394365D+01  0.2347269535D+00
      0.6401216923D+00  0.8137573261D+00
 S   1 1.00       0.000000000000
      0.1612777588D+00  0.1000000000D+01
 ****
     47 0
 S   3 1.00       0.000000000000
      0.1873113696D+02  0.3349460434D-01
      0.2825394365D+01  0.2347269535D+00
      0.6401216923D+00  0.8137573261D+00
 S   1 1.00       0.000000000000
      0.1612777588D+00  0.1000000000D+01
 ****
     48 0
 S   3 1.00       0.000000000000
      0.1873113696D+02  0.3349460434D-01
      0.2825394365D+01  0.2347269535D+00
      0.6401216923D+00  0.8137573261D+00
 S   1 1.00       0.000000000000
      0.1612777588D+00  0.1000000000D+01
 ****
     49 0
 S   6 1.00       0.000000000000
      0.3047524880D+04  0.1834737132D-02
      0.4573695180D+03  0.1403732281D-01
      0.1039486850D+03  0.6884262226D-01
      0.2921015530D+02  0.2321844432D+00
      0.9286662960D+01  0.4679413484D+00
      0.3163926960D+01  0.3623119853D+00
 SP   3 1.00       0.000000000000
      0.7868272350D+01 -0.1193324198D+00  0.6899906659D-01
      0.1881288540D+01 -0.1608541517D+00  0.3164239610D+00
      0.5442492580D+00  0.1143456438D+01  0.7443082909D+00
 SP   1 1.00       0.000000000000
      0.1687144782D+00  0.1000000000D+01  0.1000000000D+01
 D   1 1.00       0.000000000000
      0.8000000000D+00  0.1000000000D+01
 ****
     50 0
 S   3 1.00       0.000000000000
      0.1873113696D+02  0.3349460434D-01
      0.2825394365D+01  0.2347269535D+00
      0.6401216923D+00  0.8137573261D+00
 S   1 1.00       0.000000000000
      0.1612777588D+00  0.1000000000D+01
 ****
     51 0
 S   3 1.00       0.000000000000
      0.1873113696D+02  0.3349460434D-01
      0.2825394365D+01  0.2347269535D+00
      0.6401216923D+00  0.8137573261D+00
 S   1 1.00       0.000000000000
      0.1612777588D+00  0.1000000000D+01
 ****
     52 0
 S   3 1.00       0.000000000000
      0.1873113696D+02  0.3349460434D-01
      0.2825394365D+01  0.2347269535D+00
      0.6401216923D+00  0.8137573261D+00
 S   1 1.00       0.000000000000
      0.1612777588D+00  0.1000000000D+01
 ****
     53 0
 S   6 1.00       0.000000000000
      0.5484671660D+04  0.1831074430D-02
      0.8252349460D+03  0.1395017220D-01
      0.1880469580D+03  0.6844507810D-01
      0.5296450000D+02  0.2327143360D+00
      0.1689757040D+02  0.4701928980D+00
      0.5799635340D+01  0.3585208530D+00
 SP   3 1.00       0.000000000000
      0.1553961625D+02 -0.1107775495D+00  0.7087426823D-01
      0.3599933586D+01 -0.1480262627D+00  0.3397528391D+00
      0.1013761750D+01  0.1130767015D+01  0.7271585773D+00
 SP   1 1.00       0.000000000000
      0.2700058226D+00  0.1000000000D+01  0.1000000000D+01
 D   1 1.00       0.000000000000
      0.8000000000D+00  0.1000000000D+01
 ****
     54 0
 S   6 1.00       0.000000000000
      0.5484671660D+04  0.1831074430D-02
      0.8252349460D+03  0.1395017220D-01
      0.1880469580D+03  0.6844507810D-01
      0.5296450000D+02  0.2327143360D+00
      0.1689757040D+02  0.4701928980D+00
      0.5799635340D+01  0.3585208530D+00
 SP   3 1.00       0.000000000000
      0.1553961625D+02 -0.1107775495D+00  0.7087426823D-01
      0.3599933586D+01 -0.1480262627D+00  0.3397528391D+00
      0.1013761750D+01  0.1130767015D+01  0.7271585773D+00
 SP   1 1.00       0.000000000000
      0.2700058226D+00  0.1000000000D+01  0.1000000000D+01
 D   1 1.00       0.000000000000
      0.8000000000D+00  0.1000000000D+01
 ****
     55 0
 S   3 1.00       0.000000000000
      0.1873113696D+02  0.3349460434D-01
      0.2825394365D+01  0.2347269535D+00
      0.6401216923D+00  0.8137573261D+00
 S   1 1.00       0.000000000000
      0.1612777588D+00  0.1000000000D+01
 ****
     56 0
 S   6 1.00       0.000000000000
      0.5484671660D+04  0.1831074430D-02
      0.8252349460D+03  0.1395017220D-01
      0.1880469580D+03  0.6844507810D-01
      0.5296450000D+02  0.2327143360D+00
      0.1689757040D+02  0.4701928980D+00
      0.5799635340D+01  0.3585208530D+00
 SP   3 1.00       0.000000000000
      0.1553961625D+02 -0.1107775495D+00  0.7087426823D-01
      0.3599933586D+01 -0.1480262627D+00  0.3397528391D+00
      0.1013761750D+01  0.1130767015D+01  0.7271585773D+00
 SP   1 1.00       0.000000000000
      0.2700058226D+00  0.1000000000D+01  0.1000000000D+01
 D   1 1.00       0.000000000000
      0.8000000000D+00  0.1000000000D+01
 ****
     57 0
 S   3 1.00       0.000000000000
      0.1873113696D+02  0.3349460434D-01
      0.2825394365D+01  0.2347269535D+00
      0.6401216923D+00  0.8137573261D+00
 S   1 1.00       0.000000000000
      0.1612777588D+00  0.1000000000D+01
 ****
     58 0
 S   6 1.00       0.000000000000
      0.3047524880D+04  0.1834737132D-02
      0.4573695180D+03  0.1403732281D-01
      0.1039486850D+03  0.6884262226D-01
      0.2921015530D+02  0.2321844432D+00
      0.9286662960D+01  0.4679413484D+00
      0.3163926960D+01  0.3623119853D+00
 SP   3 1.00       0.000000000000
      0.7868272350D+01 -0.1193324198D+00  0.6899906659D-01
      0.1881288540D+01 -0.1608541517D+00  0.3164239610D+00
      0.5442492580D+00  0.1143456438D+01  0.7443082909D+00
 SP   1 1.00       0.000000000000
      0.1687144782D+00  0.1000000000D+01  0.1000000000D+01
 D   1 1.00       0.000000000000
      0.8000000000D+00  0.1000000000D+01
 ****
     59 0
 S   3 1.00       0.000000000000
      0.1873113696D+02  0.3349460434D-01
      0.2825394365D+01  0.2347269535D+00
      0.6401216923D+00  0.8137573261D+00
 S   1 1.00       0.000000000000
      0.1612777588D+00  0.1000000000D+01
 ****
     60 0
 S   3 1.00       0.000000000000
      0.1873113696D+02  0.3349460434D-01
      0.2825394365D+01  0.2347269535D+00
      0.6401216923D+00  0.8137573261D+00
 S   1 1.00       0.000000000000
      0.1612777588D+00  0.1000000000D+01
 ****
     61 0
 S   6 1.00       0.000000000000
      0.3047524880D+04  0.1834737132D-02
      0.4573695180D+03  0.1403732281D-01
      0.1039486850D+03  0.6884262226D-01
      0.2921015530D+02  0.2321844432D+00
      0.9286662960D+01  0.4679413484D+00
      0.3163926960D+01  0.3623119853D+00
 SP   3 1.00       0.000000000000
      0.7868272350D+01 -0.1193324198D+00  0.6899906659D-01
      0.1881288540D+01 -0.1608541517D+00  0.3164239610D+00
      0.5442492580D+00  0.1143456438D+01  0.7443082909D+00
 SP   1 1.00       0.000000000000
      0.1687144782D+00  0.1000000000D+01  0.1000000000D+01
 D   1 1.00       0.000000000000
      0.8000000000D+00  0.1000000000D+01
 ****
     62 0
 S   3 1.00       0.000000000000
      0.1873113696D+02  0.3349460434D-01
      0.2825394365D+01  0.2347269535D+00
      0.6401216923D+00  0.8137573261D+00
 S   1 1.00       0.000000000000
      0.1612777588D+00  0.1000000000D+01
 ****
     63 0
 S   3 1.00       0.000000000000
      0.1873113696D+02  0.3349460434D-01
      0.2825394365D+01  0.2347269535D+00
      0.6401216923D+00  0.8137573261D+00
 S   1 1.00       0.000000000000
      0.1612777588D+00  0.1000000000D+01
 ****
     64 0
 S   6 1.00       0.000000000000
      0.3047524880D+04  0.1834737132D-02
      0.4573695180D+03  0.1403732281D-01
      0.1039486850D+03  0.6884262226D-01
      0.2921015530D+02  0.2321844432D+00
      0.9286662960D+01  0.4679413484D+00
      0.3163926960D+01  0.3623119853D+00
 SP   3 1.00       0.000000000000
      0.7868272350D+01 -0.1193324198D+00  0.6899906659D-01
      0.1881288540D+01 -0.1608541517D+00  0.3164239610D+00
      0.5442492580D+00  0.1143456438D+01  0.7443082909D+00
 SP   1 1.00       0.000000000000
      0.1687144782D+00  0.1000000000D+01  0.1000000000D+01
 D   1 1.00       0.000000000000
      0.8000000000D+00  0.1000000000D+01
 ****
     65 0
 S   3 1.00       0.000000000000
      0.1873113696D+02  0.3349460434D-01
      0.2825394365D+01  0.2347269535D+00
      0.6401216923D+00  0.8137573261D+00
 S   1 1.00       0.000000000000
      0.1612777588D+00  0.1000000000D+01
 ****
     66 0
 S   3 1.00       0.000000000000
      0.1873113696D+02  0.3349460434D-01
      0.2825394365D+01  0.2347269535D+00
      0.6401216923D+00  0.8137573261D+00
 S   1 1.00       0.000000000000
      0.1612777588D+00  0.1000000000D+01
 ****
     67 0
 S   6 1.00       0.000000000000
      0.3047524880D+04  0.1834737132D-02
      0.4573695180D+03  0.1403732281D-01
      0.1039486850D+03  0.6884262226D-01
      0.2921015530D+02  0.2321844432D+00
      0.9286662960D+01  0.4679413484D+00
      0.3163926960D+01  0.3623119853D+00
 SP   3 1.00       0.000000000000
      0.7868272350D+01 -0.1193324198D+00  0.6899906659D-01
      0.1881288540D+01 -0.1608541517D+00  0.3164239610D+00
      0.5442492580D+00  0.1143456438D+01  0.7443082909D+00
 SP   1 1.00       0.000000000000
      0.1687144782D+00  0.1000000000D+01  0.1000000000D+01
 D   1 1.00       0.000000000000
      0.8000000000D+00  0.1000000000D+01
 ****
     68 0
 S   3 1.00       0.000000000000
      0.1873113696D+02  0.3349460434D-01
      0.2825394365D+01  0.2347269535D+00
      0.6401216923D+00  0.8137573261D+00
 S   1 1.00       0.000000000000
      0.1612777588D+00  0.1000000000D+01
 ****
     69 0
 S   6 1.00       0.000000000000
      0.3047524880D+04  0.1834737132D-02
      0.4573695180D+03  0.1403732281D-01
      0.1039486850D+03  0.6884262226D-01
      0.2921015530D+02  0.2321844432D+00
      0.9286662960D+01  0.4679413484D+00
      0.3163926960D+01  0.3623119853D+00
 SP   3 1.00       0.000000000000
      0.7868272350D+01 -0.1193324198D+00  0.6899906659D-01
      0.1881288540D+01 -0.1608541517D+00  0.3164239610D+00
      0.5442492580D+00  0.1143456438D+01  0.7443082909D+00
 SP   1 1.00       0.000000000000
      0.1687144782D+00  0.1000000000D+01  0.1000000000D+01
 D   1 1.00       0.000000000000
      0.8000000000D+00  0.1000000000D+01
 ****
     70 0
 S   3 1.00       0.000000000000
      0.1873113696D+02  0.3349460434D-01
      0.2825394365D+01  0.2347269535D+00
      0.6401216923D+00  0.8137573261D+00
 S   1 1.00       0.000000000000
      0.1612777588D+00  0.1000000000D+01
 ****
     71 0
 S   3 1.00       0.000000000000
      0.1873113696D+02  0.3349460434D-01
      0.2825394365D+01  0.2347269535D+00
      0.6401216923D+00  0.8137573261D+00
 S   1 1.00       0.000000000000
      0.1612777588D+00  0.1000000000D+01
 ****
     72 0
 S   3 1.00       0.000000000000
      0.1873113696D+02  0.3349460434D-01
      0.2825394365D+01  0.2347269535D+00
      0.6401216923D+00  0.8137573261D+00
 S   1 1.00       0.000000000000
      0.1612777588D+00  0.1000000000D+01
 ****
     73 0
 S   6 1.00       0.000000000000
      0.3047524880D+04  0.1834737132D-02
      0.4573695180D+03  0.1403732281D-01
      0.1039486850D+03  0.6884262226D-01
      0.2921015530D+02  0.2321844432D+00
      0.9286662960D+01  0.4679413484D+00
      0.3163926960D+01  0.3623119853D+00
 SP   3 1.00       0.000000000000
      0.7868272350D+01 -0.1193324198D+00  0.6899906659D-01
      0.1881288540D+01 -0.1608541517D+00  0.3164239610D+00
      0.5442492580D+00  0.1143456438D+01  0.7443082909D+00
 SP   1 1.00       0.000000000000
      0.1687144782D+00  0.1000000000D+01  0.1000000000D+01
 D   1 1.00       0.000000000000
      0.8000000000D+00  0.1000000000D+01
 ****
     74 0
 S   3 1.00       0.000000000000
      0.1873113696D+02  0.3349460434D-01
      0.2825394365D+01  0.2347269535D+00
      0.6401216923D+00  0.8137573261D+00
 S   1 1.00       0.000000000000
      0.1612777588D+00  0.1000000000D+01
 ****
     75 0
 S   3 1.00       0.000000000000
      0.1873113696D+02  0.3349460434D-01
      0.2825394365D+01  0.2347269535D+00
      0.6401216923D+00  0.8137573261D+00
 S   1 1.00       0.000000000000
      0.1612777588D+00  0.1000000000D+01
 ****
     76 0
 S   3 1.00       0.000000000000
      0.1873113696D+02  0.3349460434D-01
      0.2825394365D+01  0.2347269535D+00
      0.6401216923D+00  0.8137573261D+00
 S   1 1.00       0.000000000000
      0.1612777588D+00  0.1000000000D+01
 ****

 AO basis set (Overlap normalization):
 Atom C1       Shell     1 S   6     bf    1 -     1         -1.910583663824          3.746617272658          3.183947858392
      0.3047524880D+04  0.1834737132D-02
      0.4573695180D+03  0.1403732281D-01
      0.1039486850D+03  0.6884262226D-01
      0.2921015530D+02  0.2321844432D+00
      0.9286662960D+01  0.4679413484D+00
      0.3163926960D+01  0.3623119853D+00
 Atom C1       Shell     2 SP   3    bf    2 -     5         -1.910583663824          3.746617272658          3.183947858392
      0.7868272350D+01 -0.1193324198D+00  0.6899906659D-01
      0.1881288540D+01 -0.1608541517D+00  0.3164239610D+00
      0.5442492580D+00  0.1143456438D+01  0.7443082909D+00
 Atom C1       Shell     3 SP   1    bf    6 -     9         -1.910583663824          3.746617272658          3.183947858392
      0.1687144782D+00  0.1000000000D+01  0.1000000000D+01
 Atom C1       Shell     4 D   1     bf   10 -    15         -1.910583663824          3.746617272658          3.183947858392
      0.8000000000D+00  0.1000000000D+01
 Atom H2       Shell     5 S   3     bf   16 -    16         -1.875687508623          1.899348334895          4.123732947257
      0.1873113696D+02  0.3349460434D-01
      0.2825394365D+01  0.2347269535D+00
      0.6401216923D+00  0.8137573261D+00
 Atom H2       Shell     6 S   1     bf   17 -    17         -1.875687508623          1.899348334895          4.123732947257
      0.1612777588D+00  0.1000000000D+01
 Atom C3       Shell     7 S   6     bf   18 -    18          0.597035047752          5.113004540028          3.692028527090
      0.3047524880D+04  0.1834737132D-02
      0.4573695180D+03  0.1403732281D-01
      0.1039486850D+03  0.6884262226D-01
      0.2921015530D+02  0.2321844432D+00
      0.9286662960D+01  0.4679413484D+00
      0.3163926960D+01  0.3623119853D+00
 Atom C3       Shell     8 SP   3    bf   19 -    22          0.597035047752          5.113004540028          3.692028527090
      0.7868272350D+01 -0.1193324198D+00  0.6899906659D-01
      0.1881288540D+01 -0.1608541517D+00  0.3164239610D+00
      0.5442492580D+00  0.1143456438D+01  0.7443082909D+00
 Atom C3       Shell     9 SP   1    bf   23 -    26          0.597035047752          5.113004540028          3.692028527090
      0.1687144782D+00  0.1000000000D+01  0.1000000000D+01
 Atom C3       Shell    10 D   1     bf   27 -    32          0.597035047752          5.113004540028          3.692028527090
      0.8000000000D+00  0.1000000000D+01
 Atom H4       Shell    11 S   3     bf   33 -    33          0.896910604417          5.296279175492          5.729765323943
      0.1873113696D+02  0.3349460434D-01
      0.2825394365D+01  0.2347269535D+00
      0.6401216923D+00  0.8137573261D+00
 Atom H4       Shell    12 S   1     bf   34 -    34          0.896910604417          5.296279175492          5.729765323943
      0.1612777588D+00  0.1000000000D+01
 Atom H5       Shell    13 S   3     bf   35 -    35          0.424379558217          7.047273861126          2.938219361606
      0.1873113696D+02  0.3349460434D-01
      0.2825394365D+01  0.2347269535D+00
      0.6401216923D+00  0.8137573261D+00
 Atom H5       Shell    14 S   1     bf   36 -    36          0.424379558217          7.047273861126          2.938219361606
      0.1612777588D+00  0.1000000000D+01
 Atom C6       Shell    15 S   6     bf   37 -    37          2.840008990569          3.806070778004          2.474862765707
      0.3047524880D+04  0.1834737132D-02
      0.4573695180D+03  0.1403732281D-01
      0.1039486850D+03  0.6884262226D-01
      0.2921015530D+02  0.2321844432D+00
      0.9286662960D+01  0.4679413484D+00
      0.3163926960D+01  0.3623119853D+00
 Atom C6       Shell    16 SP   3    bf   38 -    41          2.840008990569          3.806070778004          2.474862765707
      0.7868272350D+01 -0.1193324198D+00  0.6899906659D-01
      0.1881288540D+01 -0.1608541517D+00  0.3164239610D+00
      0.5442492580D+00  0.1143456438D+01  0.7443082909D+00
 Atom C6       Shell    17 SP   1    bf   42 -    45          2.840008990569          3.806070778004          2.474862765707
      0.1687144782D+00  0.1000000000D+01  0.1000000000D+01
 Atom C6       Shell    18 D   1     bf   46 -    51          2.840008990569          3.806070778004          2.474862765707
      0.8000000000D+00  0.1000000000D+01
 Atom C7       Shell    19 S   6     bf   52 -    52          2.620472154677          3.140738986905         -0.334102219691
      0.3047524880D+04  0.1834737132D-02
      0.4573695180D+03  0.1403732281D-01
      0.1039486850D+03  0.6884262226D-01
      0.2921015530D+02  0.2321844432D+00
      0.9286662960D+01  0.4679413484D+00
      0.3163926960D+01  0.3623119853D+00
 Atom C7       Shell    20 SP   3    bf   53 -    56          2.620472154677          3.140738986905         -0.334102219691
      0.7868272350D+01 -0.1193324198D+00  0.6899906659D-01
      0.1881288540D+01 -0.1608541517D+00  0.3164239610D+00
      0.5442492580D+00  0.1143456438D+01  0.7443082909D+00
 Atom C7       Shell    21 SP   1    bf   57 -    60          2.620472154677          3.140738986905         -0.334102219691
      0.1687144782D+00  0.1000000000D+01  0.1000000000D+01
 Atom C7       Shell    22 D   1     bf   61 -    66          2.620472154677          3.140738986905         -0.334102219691
      0.8000000000D+00  0.1000000000D+01
 Atom C8       Shell    23 S   6     bf   67 -    67         -0.020346530095          1.914858129850         -0.803471224947
      0.3047524880D+04  0.1834737132D-02
      0.4573695180D+03  0.1403732281D-01
      0.1039486850D+03  0.6884262226D-01
      0.2921015530D+02  0.2321844432D+00
      0.9286662960D+01  0.4679413484D+00
      0.3163926960D+01  0.3623119853D+00
 Atom C8       Shell    24 SP   3    bf   68 -    71         -0.020346530095          1.914858129850         -0.803471224947
      0.7868272350D+01 -0.1193324198D+00  0.6899906659D-01
      0.1881288540D+01 -0.1608541517D+00  0.3164239610D+00
      0.5442492580D+00  0.1143456438D+01  0.7443082909D+00
 Atom C8       Shell    25 SP   1    bf   72 -    75         -0.020346530095          1.914858129850         -0.803471224947
      0.1687144782D+00  0.1000000000D+01  0.1000000000D+01
 Atom C8       Shell    26 D   1     bf   76 -    81         -0.020346530095          1.914858129850         -0.803471224947
      0.8000000000D+00  0.1000000000D+01
 Atom H9       Shell    27 S   3     bf   82 -    82          0.000000000000          0.000000000000          0.000000000000
      0.1873113696D+02  0.3349460434D-01
      0.2825394365D+01  0.2347269535D+00
      0.6401216923D+00  0.8137573261D+00
 Atom H9       Shell    28 S   1     bf   83 -    83          0.000000000000          0.000000000000          0.000000000000
      0.1612777588D+00  0.1000000000D+01
 Atom H10      Shell    29 S   3     bf   84 -    84         -0.328541851723          1.694007613042         -2.837976136579
      0.1873113696D+02  0.3349460434D-01
      0.2825394365D+01  0.2347269535D+00
      0.6401216923D+00  0.8137573261D+00
 Atom H10      Shell    30 S   1     bf   85 -    85         -0.328541851723          1.694007613042         -2.837976136579
      0.1612777588D+00  0.1000000000D+01
 Atom C11      Shell    31 S   6     bf   86 -    86         -2.263474428900          3.357943995235          0.343844324824
      0.3047524880D+04  0.1834737132D-02
      0.4573695180D+03  0.1403732281D-01
      0.1039486850D+03  0.6884262226D-01
      0.2921015530D+02  0.2321844432D+00
      0.9286662960D+01  0.4679413484D+00
      0.3163926960D+01  0.3623119853D+00
 Atom C11      Shell    32 SP   3    bf   87 -    90         -2.263474428900          3.357943995235          0.343844324824
      0.7868272350D+01 -0.1193324198D+00  0.6899906659D-01
      0.1881288540D+01 -0.1608541517D+00  0.3164239610D+00
      0.5442492580D+00  0.1143456438D+01  0.7443082909D+00
 Atom C11      Shell    33 SP   1    bf   91 -    94         -2.263474428900          3.357943995235          0.343844324824
      0.1687144782D+00  0.1000000000D+01  0.1000000000D+01
 Atom C11      Shell    34 D   1     bf   95 -   100         -2.263474428900          3.357943995235          0.343844324824
      0.8000000000D+00  0.1000000000D+01
 Atom H12      Shell    35 S   3     bf  101 -   101         -2.480011929268          5.212124700814         -0.570926856062
      0.1873113696D+02  0.3349460434D-01
      0.2825394365D+01  0.2347269535D+00
      0.6401216923D+00  0.8137573261D+00
 Atom H12      Shell    36 S   1     bf  102 -   102         -2.480011929268          5.212124700814         -0.570926856062
      0.1612777588D+00  0.1000000000D+01
 Atom H13      Shell    37 S   3     bf  103 -   103         -4.021940033417          2.319302343482          0.000000000000
      0.1873113696D+02  0.3349460434D-01
      0.2825394365D+01  0.2347269535D+00
      0.6401216923D+00  0.8137573261D+00
 Atom H13      Shell    38 S   1     bf  104 -   104         -4.021940033417          2.319302343482          0.000000000000
      0.1612777588D+00  0.1000000000D+01
 Atom C14      Shell    39 S   6     bf  105 -   105          4.912625350829          3.308147500654          3.840042309106
      0.3047524880D+04  0.1834737132D-02
      0.4573695180D+03  0.1403732281D-01
      0.1039486850D+03  0.6884262226D-01
      0.2921015530D+02  0.2321844432D+00
      0.9286662960D+01  0.4679413484D+00
      0.3163926960D+01  0.3623119853D+00
 Atom C14      Shell    40 SP   3    bf  106 -   109          4.912625350829          3.308147500654          3.840042309106
      0.7868272350D+01 -0.1193324198D+00  0.6899906659D-01
      0.1881288540D+01 -0.1608541517D+00  0.3164239610D+00
      0.5442492580D+00  0.1143456438D+01  0.7443082909D+00
 Atom C14      Shell    41 SP   1    bf  110 -   113          4.912625350829          3.308147500654          3.840042309106
      0.1687144782D+00  0.1000000000D+01  0.1000000000D+01
 Atom C14      Shell    42 D   1     bf  114 -   119          4.912625350829          3.308147500654          3.840042309106
      0.8000000000D+00  0.1000000000D+01
 Atom H15      Shell    43 S   3     bf  120 -   120          4.964167272055          3.805347693196          5.833820674601
      0.1873113696D+02  0.3349460434D-01
      0.2825394365D+01  0.2347269535D+00
      0.6401216923D+00  0.8137573261D+00
 Atom H15      Shell    44 S   1     bf  121 -   121          4.964167272055          3.805347693196          5.833820674601
      0.1612777588D+00  0.1000000000D+01
 Atom C16      Shell    45 S   6     bf  122 -   122          7.301868990722          2.156220943529          2.838970737237
      0.3047524880D+04  0.1834737132D-02
      0.4573695180D+03  0.1403732281D-01
      0.1039486850D+03  0.6884262226D-01
      0.2921015530D+02  0.2321844432D+00
      0.9286662960D+01  0.4679413484D+00
      0.3163926960D+01  0.3623119853D+00
 Atom C16      Shell    46 SP   3    bf  123 -   126          7.301868990722          2.156220943529          2.838970737237
      0.7868272350D+01 -0.1193324198D+00  0.6899906659D-01
      0.1881288540D+01 -0.1608541517D+00  0.3164239610D+00
      0.5442492580D+00  0.1143456438D+01  0.7443082909D+00
 Atom C16      Shell    47 SP   1    bf  127 -   130          7.301868990722          2.156220943529          2.838970737237
      0.1687144782D+00  0.1000000000D+01  0.1000000000D+01
 Atom C16      Shell    48 D   1     bf  131 -   136          7.301868990722          2.156220943529          2.838970737237
      0.8000000000D+00  0.1000000000D+01
 Atom H17      Shell    49 S   3     bf  137 -   137          7.644110090792          0.316045470752          3.748040406511
      0.1873113696D+02  0.3349460434D-01
      0.2825394365D+01  0.2347269535D+00
      0.6401216923D+00  0.8137573261D+00
 Atom H17      Shell    50 S   1     bf  138 -   138          7.644110090792          0.316045470752          3.748040406511
      0.1612777588D+00  0.1000000000D+01
 Atom C18      Shell    51 S   6     bf  139 -   139          7.382145312737          1.871939350222         -0.051556831166
      0.3047524880D+04  0.1834737132D-02
      0.4573695180D+03  0.1403732281D-01
      0.1039486850D+03  0.6884262226D-01
      0.2921015530D+02  0.2321844432D+00
      0.9286662960D+01  0.4679413484D+00
      0.3163926960D+01  0.3623119853D+00
 Atom C18      Shell    52 SP   3    bf  140 -   143          7.382145312737          1.871939350222         -0.051556831166
      0.7868272350D+01 -0.1193324198D+00  0.6899906659D-01
      0.1881288540D+01 -0.1608541517D+00  0.3164239610D+00
      0.5442492580D+00  0.1143456438D+01  0.7443082909D+00
 Atom C18      Shell    53 SP   1    bf  144 -   147          7.382145312737          1.871939350222         -0.051556831166
      0.1687144782D+00  0.1000000000D+01  0.1000000000D+01
 Atom C18      Shell    54 D   1     bf  148 -   153          7.382145312737          1.871939350222         -0.051556831166
      0.8000000000D+00  0.1000000000D+01
 Atom H19      Shell    55 S   3     bf  154 -   154          7.955007342846          3.712605112444         -0.818815706660
      0.1873113696D+02  0.3349460434D-01
      0.2825394365D+01  0.2347269535D+00
      0.6401216923D+00  0.8137573261D+00
 Atom H19      Shell    56 S   1     bf  155 -   155          7.955007342846          3.712605112444         -0.818815706660
      0.1612777588D+00  0.1000000000D+01
 Atom C20      Shell    57 S   6     bf  156 -   156          4.713430093949          1.177283544883         -1.064566048680
      0.3047524880D+04  0.1834737132D-02
      0.4573695180D+03  0.1403732281D-01
      0.1039486850D+03  0.6884262226D-01
      0.2921015530D+02  0.2321844432D+00
      0.9286662960D+01  0.4679413484D+00
      0.3163926960D+01  0.3623119853D+00
 Atom C20      Shell    58 SP   3    bf  157 -   160          4.713430093949          1.177283544883         -1.064566048680
      0.7868272350D+01 -0.1193324198D+00  0.6899906659D-01
      0.1881288540D+01 -0.1608541517D+00  0.3164239610D+00
      0.5442492580D+00  0.1143456438D+01  0.7443082909D+00
 Atom C20      Shell    59 SP   1    bf  161 -   164          4.713430093949          1.177283544883         -1.064566048680
      0.1687144782D+00  0.1000000000D+01  0.1000000000D+01
 Atom C20      Shell    60 D   1     bf  165 -   170          4.713430093949          1.177283544883         -1.064566048680
      0.8000000000D+00  0.1000000000D+01
 Atom H21      Shell    61 S   3     bf  171 -   171          4.183221091283         -0.588821579883         -0.095947008253
      0.1873113696D+02  0.3349460434D-01
      0.2825394365D+01  0.2347269535D+00
      0.6401216923D+00  0.8137573261D+00
 Atom H21      Shell    62 S   1     bf  172 -   172          4.183221091283         -0.588821579883         -0.095947008253
      0.1612777588D+00  0.1000000000D+01
 Atom C22      Shell    63 S   6     bf  173 -   173          4.794744612605          0.581075743642         -3.922946125233
      0.3047524880D+04  0.1834737132D-02
      0.4573695180D+03  0.1403732281D-01
      0.1039486850D+03  0.6884262226D-01
      0.2921015530D+02  0.2321844432D+00
      0.9286662960D+01  0.4679413484D+00
      0.3163926960D+01  0.3623119853D+00
 Atom C22      Shell    64 SP   3    bf  174 -   177          4.794744612605          0.581075743642         -3.922946125233
      0.7868272350D+01 -0.1193324198D+00  0.6899906659D-01
      0.1881288540D+01 -0.1608541517D+00  0.3164239610D+00
      0.5442492580D+00  0.1143456438D+01  0.7443082909D+00
 Atom C22      Shell    65 SP   1    bf  178 -   181          4.794744612605          0.581075743642         -3.922946125233
      0.1687144782D+00  0.1000000000D+01  0.1000000000D+01
 Atom C22      Shell    66 D   1     bf  182 -   187          4.794744612605          0.581075743642         -3.922946125233
      0.8000000000D+00  0.1000000000D+01
 Atom H23      Shell    67 S   3     bf  188 -   188          5.128475633392          2.323289306574         -4.989856416976
      0.1873113696D+02  0.3349460434D-01
      0.2825394365D+01  0.2347269535D+00
      0.6401216923D+00  0.8137573261D+00
 Atom H23      Shell    68 S   1     bf  189 -   189          5.128475633392          2.323289306574         -4.989856416976
      0.1612777588D+00  0.1000000000D+01
 Atom H24      Shell    69 S   3     bf  190 -   190          2.945297803269         -0.117641158745         -4.535924017581
      0.1873113696D+02  0.3349460434D-01
      0.2825394365D+01  0.2347269535D+00
      0.6401216923D+00  0.8137573261D+00
 Atom H24      Shell    70 S   1     bf  191 -   191          2.945297803269         -0.117641158745         -4.535924017581
      0.1612777588D+00  0.1000000000D+01
 Atom C25      Shell    71 S   6     bf  192 -   192          6.811280345206         -1.379309195770         -4.675833633487
      0.3047524880D+04  0.1834737132D-02
      0.4573695180D+03  0.1403732281D-01
      0.1039486850D+03  0.6884262226D-01
      0.2921015530D+02  0.2321844432D+00
      0.9286662960D+01  0.4679413484D+00
      0.3163926960D+01  0.3623119853D+00
 Atom C25      Shell    72 SP   3    bf  193 -   196          6.811280345206         -1.379309195770         -4.675833633487
      0.7868272350D+01 -0.1193324198D+00  0.6899906659D-01
      0.1881288540D+01 -0.1608541517D+00  0.3164239610D+00
      0.5442492580D+00  0.1143456438D+01  0.7443082909D+00
 Atom C25      Shell    73 SP   1    bf  197 -   200          6.811280345206         -1.379309195770         -4.675833633487
      0.1687144782D+00  0.1000000000D+01  0.1000000000D+01
 Atom C25      Shell    74 D   1     bf  201 -   206          6.811280345206         -1.379309195770         -4.675833633487
      0.8000000000D+00  0.1000000000D+01
 Atom H26      Shell    75 S   3     bf  207 -   207          6.331331481428         -3.218439328742         -3.835837214926
      0.1873113696D+02  0.3349460434D-01
      0.2825394365D+01  0.2347269535D+00
      0.6401216923D+00  0.8137573261D+00
 Atom H26      Shell    76 S   1     bf  208 -   208          6.331331481428         -3.218439328742         -3.835837214926
      0.1612777588D+00  0.1000000000D+01
 Atom H27      Shell    77 S   3     bf  209 -   209          6.744613452854         -1.636200134747         -6.726991888946
      0.1873113696D+02  0.3349460434D-01
      0.2825394365D+01  0.2347269535D+00
      0.6401216923D+00  0.8137573261D+00
 Atom H27      Shell    78 S   1     bf  210 -   210          6.744613452854         -1.636200134747         -6.726991888946
      0.1612777588D+00  0.1000000000D+01
 Atom C28      Shell    79 S   6     bf  211 -   211          9.471423029262         -0.608045574860         -3.771476034121
      0.3047524880D+04  0.1834737132D-02
      0.4573695180D+03  0.1403732281D-01
      0.1039486850D+03  0.6884262226D-01
      0.2921015530D+02  0.2321844432D+00
      0.9286662960D+01  0.4679413484D+00
      0.3163926960D+01  0.3623119853D+00
 Atom C28      Shell    80 SP   3    bf  212 -   215          9.471423029262         -0.608045574860         -3.771476034121
      0.7868272350D+01 -0.1193324198D+00  0.6899906659D-01
      0.1881288540D+01 -0.1608541517D+00  0.3164239610D+00
      0.5442492580D+00  0.1143456438D+01  0.7443082909D+00
 Atom C28      Shell    81 SP   1    bf  216 -   219          9.471423029262         -0.608045574860         -3.771476034121
      0.1687144782D+00  0.1000000000D+01  0.1000000000D+01
 Atom C28      Shell    82 D   1     bf  220 -   225          9.471423029262         -0.608045574860         -3.771476034121
      0.8000000000D+00  0.1000000000D+01
 Atom C29      Shell    83 S   6     bf  226 -   226          9.283891351047         -0.174129419227         -0.868656760983
      0.3047524880D+04  0.1834737132D-02
      0.4573695180D+03  0.1403732281D-01
      0.1039486850D+03  0.6884262226D-01
      0.2921015530D+02  0.2321844432D+00
      0.9286662960D+01  0.4679413484D+00
      0.3163926960D+01  0.3623119853D+00
 Atom C29      Shell    84 SP   3    bf  227 -   230          9.283891351047         -0.174129419227         -0.868656760983
      0.7868272350D+01 -0.1193324198D+00  0.6899906659D-01
      0.1881288540D+01 -0.1608541517D+00  0.3164239610D+00
      0.5442492580D+00  0.1143456438D+01  0.7443082909D+00
 Atom C29      Shell    85 SP   1    bf  231 -   234          9.283891351047         -0.174129419227         -0.868656760983
      0.1687144782D+00  0.1000000000D+01  0.1000000000D+01
 Atom C29      Shell    86 D   1     bf  235 -   240          9.283891351047         -0.174129419227         -0.868656760983
      0.8000000000D+00  0.1000000000D+01
 Atom H30      Shell    87 S   3     bf  241 -   241          8.538755272623         -1.964816441680         -0.101808655259
      0.1873113696D+02  0.3349460434D-01
      0.2825394365D+01  0.2347269535D+00
      0.6401216923D+00  0.8137573261D+00
 Atom H30      Shell    88 S   1     bf  242 -   242          8.538755272623         -1.964816441680         -0.101808655259
      0.1612777588D+00  0.1000000000D+01
 Atom C31      Shell    89 S   6     bf  243 -   243         12.049647408266          0.000000000000          0.000000000000
      0.3047524880D+04  0.1834737132D-02
      0.4573695180D+03  0.1403732281D-01
      0.1039486850D+03  0.6884262226D-01
      0.2921015530D+02  0.2321844432D+00
      0.9286662960D+01  0.4679413484D+00
      0.3163926960D+01  0.3623119853D+00
 Atom C31      Shell    90 SP   3    bf  244 -   247         12.049647408266          0.000000000000          0.000000000000
      0.7868272350D+01 -0.1193324198D+00  0.6899906659D-01
      0.1881288540D+01 -0.1608541517D+00  0.3164239610D+00
      0.5442492580D+00  0.1143456438D+01  0.7443082909D+00
 Atom C31      Shell    91 SP   1    bf  248 -   251         12.049647408266          0.000000000000          0.000000000000
      0.1687144782D+00  0.1000000000D+01  0.1000000000D+01
 Atom C31      Shell    92 D   1     bf  252 -   257         12.049647408266          0.000000000000          0.000000000000
      0.8000000000D+00  0.1000000000D+01
 Atom H32      Shell    93 S   3     bf  258 -   258         12.273018611865         -0.457069666028          2.004573274851
      0.1873113696D+02  0.3349460434D-01
      0.2825394365D+01  0.2347269535D+00
      0.6401216923D+00  0.8137573261D+00
 Atom H32      Shell    94 S   1     bf  259 -   259         12.273018611865         -0.457069666028          2.004573274851
      0.1612777588D+00  0.1000000000D+01
 Atom H33      Shell    95 S   3     bf  260 -   260         12.776892958061          1.920381364700         -0.249289799067
      0.1873113696D+02  0.3349460434D-01
      0.2825394365D+01  0.2347269535D+00
      0.6401216923D+00  0.8137573261D+00
 Atom H33      Shell    96 S   1     bf  261 -   261         12.776892958061          1.920381364700         -0.249289799067
      0.1612777588D+00  0.1000000000D+01
 Atom C34      Shell    97 S   6     bf  262 -   262         13.443082099009         -1.912785232563         -1.734195190389
      0.3047524880D+04  0.1834737132D-02
      0.4573695180D+03  0.1403732281D-01
      0.1039486850D+03  0.6884262226D-01
      0.2921015530D+02  0.2321844432D+00
      0.9286662960D+01  0.4679413484D+00
      0.3163926960D+01  0.3623119853D+00
 Atom C34      Shell    98 SP   3    bf  263 -   266         13.443082099009         -1.912785232563         -1.734195190389
      0.7868272350D+01 -0.1193324198D+00  0.6899906659D-01
      0.1881288540D+01 -0.1608541517D+00  0.3164239610D+00
      0.5442492580D+00  0.1143456438D+01  0.7443082909D+00
 Atom C34      Shell    99 SP   1    bf  267 -   270         13.443082099009         -1.912785232563         -1.734195190389
      0.1687144782D+00  0.1000000000D+01  0.1000000000D+01
 Atom C34      Shell   100 D   1     bf  271 -   276         13.443082099009         -1.912785232563         -1.734195190389
      0.8000000000D+00  0.1000000000D+01
 Atom H35      Shell   101 S   3     bf  277 -   277         15.131694203792         -1.054802457361         -2.573802060805
      0.1873113696D+02  0.3349460434D-01
      0.2825394365D+01  0.2347269535D+00
      0.6401216923D+00  0.8137573261D+00
 Atom H35      Shell   102 S   1     bf  278 -   278         15.131694203792         -1.054802457361         -2.573802060805
      0.1612777588D+00  0.1000000000D+01
 Atom H36      Shell   103 S   3     bf  279 -   279         14.100168089025         -3.550096790838         -0.656116012489
      0.1873113696D+02  0.3349460434D-01
      0.2825394365D+01  0.2347269535D+00
      0.6401216923D+00  0.8137573261D+00
 Atom H36      Shell   104 S   1     bf  280 -   280         14.100168089025         -3.550096790838         -0.656116012489
      0.1612777588D+00  0.1000000000D+01
 Atom C37      Shell   105 S   6     bf  281 -   281         11.538339257409         -2.730652315602         -3.849148181244
      0.3047524880D+04  0.1834737132D-02
      0.4573695180D+03  0.1403732281D-01
      0.1039486850D+03  0.6884262226D-01
      0.2921015530D+02  0.2321844432D+00
      0.9286662960D+01  0.4679413484D+00
      0.3163926960D+01  0.3623119853D+00
 Atom C37      Shell   106 SP   3    bf  282 -   285         11.538339257409         -2.730652315602         -3.849148181244
      0.7868272350D+01 -0.1193324198D+00  0.6899906659D-01
      0.1881288540D+01 -0.1608541517D+00  0.3164239610D+00
      0.5442492580D+00  0.1143456438D+01  0.7443082909D+00
[...]
 1624 Fit       0.000392
 1625 Fit      -0.000653
 1626 Fit       0.002191
 1627 Fit       0.003776
 1628 Fit       0.003023
 1629 Fit       0.001468
 1630 Fit      -0.000621
 1631 Fit       0.002889
 1632 Fit       0.002535
 1633 Fit       0.000814
 1634 Fit      -0.001182
 1635 Fit       0.001506
 1636 Fit       0.001210
 1637 Fit       0.000386
 1638 Fit      -0.000712
 1639 Fit      -0.001210
 1640 Fit       0.001253
 1641 Fit       0.003292
 1642 Fit       0.004969
 1643 Fit      -0.000398
 1644 Fit       0.001934
 1645 Fit       0.003684
 1646 Fit       0.004285
 1647 Fit       0.003393
 1648 Fit      -0.000165
 1649 Fit       0.001988
 1650 Fit       0.002849
 1651 Fit       0.001924
 1652 Fit      -0.000411
 1653 Fit      -0.001300
 1654 Fit       0.000448
 1655 Fit      -0.000633
 1656 Fit      -0.011721
 1657 Fit      -0.009138
 1658 Fit      -0.004926
 1659 Fit      -0.008389
 1660 Fit      -0.002753
 1661 Fit      -0.001322
 1662 Fit      -0.003810
 1663 Fit      -0.014596
 1664 Fit      -0.004846
 1665 Fit      -0.000071
 1666 Fit       0.001885
 1667 Fit       0.000284
 1668 Fit      -0.001290
 1669 Fit       0.002944
 1670 Fit      -0.009441
 1671 Fit      -0.004317
 1672 Fit      -0.001164
 1673 Fit      -0.000710
 1674 Fit      -0.004874
 1675 Fit      -0.003244
 1676 Fit      -0.004262
 1677 Fit      -0.006637
 1678 Fit      -0.010820
 1679 Fit      -0.006912
 1680 Fit      -0.003330
 1681 Fit      -0.004956
 1682 Fit      -0.004715
 1683 Fit      -0.009812
 1684 Fit      -0.004968
 1685 Fit      -0.002779
 1686 Fit       0.001475
 1687 Fit      -0.003816
 1688 Fit       0.002023
 1689 Fit       0.007358
 1690 Fit      -0.000745
 1691 Fit       0.005189
 1692 Fit       0.010873
 1693 Fit       0.019548
 1694 Fit       0.004052
 1695 Fit       0.004850
 1696 Fit       0.004817
 1697 Fit       0.005829
 1698 Fit       0.002210
 1699 Fit       0.003994
 1700 Fit       0.004862
 1701 Fit       0.005469
 1702 Fit       0.004088
 1703 Fit       0.005250
 1704 Fit       0.006574
 1705 Fit       0.004241
 1706 Fit       0.005234
 1707 Fit       0.006503
 1708 Fit       0.005390
 1709 Fit       0.005138
 1710 Fit       0.004911
 1711 Fit       0.007175
 1712 Fit       0.006349
 1713 Fit       0.006192
 1714 Fit       0.006434
 1715 Fit       0.008210
 1716 Fit       0.007547
 1717 Fit       0.008031
 1718 Fit       0.008444
 1719 Fit       0.003486
 1720 Fit       0.003731
 1721 Fit       0.005561
 1722 Fit       0.013908
 1723 Fit       0.011789
 1724 Fit       0.006798
 1725 Fit       0.009742
 1726 Fit       0.008127
 1727 Fit       0.005085
 1728 Fit       0.007161
 1729 Fit       0.005496
 1730 Fit       0.007215
 1731 Fit      -0.007248
 1732 Fit      -0.008060
 1733 Fit      -0.004352
 1734 Fit      -0.001146
 1735 Fit       0.001595
 1736 Fit      -0.001296
 1737 Fit      -0.001196
 1738 Fit       0.000314
 1739 Fit       0.001913
 1740 Fit       0.003300
 1741 Fit       0.001823
 1742 Fit       0.002392
 1743 Fit       0.003456
 1744 Fit       0.004402
 1745 Fit       0.003748
 1746 Fit       0.004818
 1747 Fit      -0.004816
 1748 Fit      -0.004044
 1749 Fit      -0.005822
 1750 Fit      -0.004055
 1751 Fit      -0.000971
 1752 Fit      -0.017429
 1753 Fit       0.000456
 1754 Fit      -0.016048
 1755 Fit      -0.007318
 1756 Fit      -0.013045
 1757 Fit      -0.005416
 1758 Fit      -0.003289
 1759 Fit      -0.004707
 1760 Fit      -0.009392
 1761 Fit      -0.018999
 1762 Fit      -0.008583
 1763 Fit      -0.004408
 1764 Fit      -0.004701
 1765 Fit      -0.018805
 1766 Fit      -0.000215
 1767 Fit       0.002753
 1768 Fit       0.002181
 1769 Fit       0.005362
 1770 Fit       0.007920
 1771 Fit       0.013465
 1772 Fit       0.005121
 1773 Fit       0.007389
 1774 Fit       0.008760
 1775 Fit      -0.013309
 1776 Fit      -0.004265
 1777 Fit       0.002431
 1778 Fit       0.005700
 1779 Fit       0.006484
 1780 Fit       0.007052
 1781 Fit       0.008234
 1782 Fit       0.005034
 1783 Fit       0.005321
 1784 Fit       0.006055
 1785 Fit       0.005405
 1786 Fit       0.005448
 1787 Fit       0.005855
 1788 Fit       0.005621
 1789 Fit       0.007159
 1790 Fit       0.005894
 1791 Fit       0.004663
 1792 Fit       0.008320
 1793 Fit       0.008343
 1794 Fit       0.007140
 1795 Fit       0.005780
 1796 Fit       0.006007
 1797 Fit       0.005150
 1798 Fit       0.003402
 1799 Fit       0.002219
 1800 Fit       0.006800
 1801 Fit       0.006851
 1802 Fit       0.005740
 1803 Fit       0.005513
 1804 Fit       0.005643
 1805 Fit       0.004500
 1806 Fit       0.004174
 1807 Fit       0.004385
 1808 Fit       0.002651
 1809 Fit       0.005799
 1810 Fit       0.005061
 1811 Fit       0.004301
 1812 Fit       0.002981
 1813 Fit       0.006010
 1814 Fit       0.004995
 1815 Fit       0.003388
 1816 Fit       0.008178
 1817 Fit       0.007611
 1818 Fit       0.007441
 1819 Fit       0.007867
 1820 Fit       0.007248
 1821 Fit       0.006795
 1822 Fit       0.003909
 1823 Fit       0.003394
 1824 Fit       0.001266
 1825 Fit       0.013862
 1826 Fit       0.014519
 1827 Fit       0.011119
 1828 Fit       0.009216
 1829 Fit       0.009066
 1830 Fit       0.009363
 1831 Fit       0.007418
 1832 Fit      -0.000040
 1833 Fit       0.000228
 1834 Fit      -0.003233
 1835 Fit      -0.010693
 1836 Fit       0.001874
 1837 Fit      -0.000243
 1838 Fit      -0.003821
 1839 Fit      -0.007000
 1840 Fit       0.003640
 1841 Fit       0.001841
 1842 Fit       0.001689
 1843 Fit       0.001656
 1844 Fit       0.001754
 1845 Fit       0.002495
 1846 Fit       0.002985
 1847 Fit       0.002866
 1848 Fit       0.001385
 1849 Fit       0.004446
 1850 Fit       0.004419
 1851 Fit       0.005876
 1852 Fit       0.007071
 1853 Fit       0.006429
 1854 Fit       0.003699
 1855 Fit       0.006413
 1856 Fit       0.006170
 1857 Fit       0.005901
 1858 Fit       0.004985
 1859 Fit       0.002062
 1860 Fit       0.005565
 1861 Fit       0.005780
 1862 Fit       0.005285
 1863 Fit       0.003751
 1864 Fit       0.006516
 1865 Fit       0.005392
 1866 Fit       0.005179
 1867 Fit       0.005790
 1868 Fit       0.004696
 1869 Fit       0.003422
 1870 Fit       0.005137
 1871 Fit       0.004180
 1872 Fit      -0.003263
 1873 Fit      -0.000160
 1874 Fit       0.000698
 1875 Fit       0.000297
 1876 Fit       0.001380
 1877 Fit       0.001322
 1878 Fit       0.001852
 1879 Fit       0.003375
 1880 Fit       0.000597
 1881 Fit       0.001313
 1882 Fit       0.003676
 1883 Fit       0.002742
 1884 Fit       0.005085
 1885 Fit       0.003672
 1886 Fit       0.001389
 1887 Fit      -0.000896
 1888 Fit       0.005328
 1889 Fit       0.003521
 1890 Fit       0.001656
 1891 Fit       0.002340
 1892 Fit       0.002661
 1893 Fit       0.001977
 1894 Fit       0.002388
 1895 Fit       0.003725
 1896 Fit       0.005380
 1897 Fit       0.004328
 1898 Fit       0.003839
 1899 Fit       0.004432
 1900 Fit       0.006168
 1901 Fit       0.005161
 1902 Fit       0.005602
 1903 Fit       0.004328
 1904 Fit       0.004182
 1905 Fit       0.004066
 1906 Fit       0.001116
 1907 Fit       0.000559
 1908 Fit       0.000709
 1909 Fit       0.002565
 1910 Fit       0.000387
 1911 Fit       0.000048
 1912 Fit       0.001141
 1913 Fit       0.000531
 1914 Fit       0.004718
 1915 Fit       0.004142
 1916 Fit       0.003432
 1917 Fit       0.003886
 1918 Fit       0.003601
 1919 Fit       0.001948
 1920 Fit       0.002511
 1921 Fit       0.002775
 1922 Fit       0.002518
 1923 Fit       0.002252
 1924 Fit       0.001075
 1925 Fit       0.001243
 1926 Fit       0.000944
 1927 Fit       0.000434
 1928 Fit       0.001656
 1929 Fit       0.001690
 1930 Fit       0.001182
 1931 Fit       0.000836
 1932 Fit       0.001469
 1933 Fit       0.002012
 1934 Fit       0.001586
 1935 Fit       0.004250
 1936 Fit       0.005412
 1937 Fit       0.005536
 1938 Fit       0.004615
 1939 Fit       0.002274
 1940 Fit       0.002312
 1941 Fit       0.003268
 1942 Fit       0.002108
 1943 Fit      -0.003670
 1944 Fit       0.001503
 1945 Fit       0.001548
 1946 Fit       0.002621
 1947 Fit       0.004619
 1948 Fit       0.006435
 1949 Fit       0.004213
 1950 Fit       0.002846
 1951 Fit       0.003399
 1952 Fit       0.004803
 1953 Fit       0.003574
 1954 Fit       0.004110
 1955 Fit       0.005398
 1956 Fit       0.006709
 1957 Fit       0.008280
 1958 Fit       0.005634
 1959 Fit       0.006012
 1960 Fit       0.007228
 1961 Fit       0.007605
 1962 Fit       0.007005
 1963 Fit       0.002899
 1964 Fit       0.008131
 1965 Fit       0.014297
 1966 Fit       0.002741
 1967 Fit       0.006260
 1968 Fit       0.009898
 1969 Fit       0.004232
 1970 Fit       0.006708
 1971 Fit       0.008289
 1972 Fit      -0.016153
 1973 Fit      -0.009110
 1974 Fit      -0.006040
 1975 Fit      -0.004222
 1976 Fit      -0.002474
 1977 Fit       0.001034
 1978 Fit       0.000161
 1979 Fit       0.000158
 1980 Fit       0.003420
 1981 Fit       0.001898
 1982 Fit      -0.007870
 1983 Fit      -0.017090
 1984 Fit      -0.023305
 1985 Fit      -0.026049
 1986 Fit      -0.025981
 1987 Fit      -0.017701
 1988 Fit      -0.020622
 1989 Fit      -0.020232
 1990 Fit      -0.013484
 1991 Fit      -0.007844
 1992 Fit       0.000475
 1993 Fit      -0.009841
 1994 Fit      -0.015108
 1995 Fit      -0.012992
 1996 Fit      -0.007153
 1997 Fit       0.001257
 1998 Fit      -0.001971
 1999 Fit      -0.013013
 2000 Fit      -0.019219
 2001 Fit      -0.020039
 2002 Fit      -0.016340
 2003 Fit      -0.010788
 2004 Fit      -0.006566
 2005 Fit       0.001642
 2006 Fit      -0.011192
 2007 Fit      -0.020288
 2008 Fit      -0.024166
 2009 Fit      -0.023048
 2010 Fit      -0.003776
 2011 Fit       0.003650
 2012 Fit      -0.010883
 2013 Fit      -0.020887
 2014 Fit      -0.026367
 2015 Fit      -0.027612
 2016 Fit       0.010622
 2017 Fit       0.011503
 2018 Fit       0.015070
 2019 Fit       0.007361
 2020 Fit       0.009771
 2021 Fit       0.016396
 2022 Fit       0.017985
 2023 Fit       0.016223
 2024 Fit       0.009350
 2025 Fit       0.011351
 2026 Fit       0.017561
 2027 Fit       0.020113
 2028 Fit       0.019607
 2029 Fit       0.013615
 2030 Fit       0.006385
 2031 Fit       0.017386
 2032 Fit      -0.023982
 2033 Fit      -0.019206
 2034 Fit      -0.021724
 2035 Fit      -0.025953
 2036 Fit      -0.025460
 2037 Fit      -0.020604
 2038 Fit      -0.011148
 2039 Fit      -0.010991
 2040 Fit      -0.013956
 2041 Fit      -0.019827
 2042 Fit      -0.025250
 2043 Fit      -0.027139
 2044 Fit      -0.024367
 2045 Fit      -0.010769
 2046 Fit      -0.019415
 2047 Fit      -0.024930
 2048 Fit      -0.025710
 2049 Fit      -0.021504
 2050 Fit      -0.004530
 2051 Fit      -0.014831
 2052 Fit      -0.021227
 2053 Fit      -0.022741
 2054 Fit      -0.019258
 2055 Fit      -0.008369
 2056 Fit      -0.015787
 2057 Fit      -0.016183
 2058 Fit      -0.005893
 2059 Fit       0.002070
 2060 Fit       0.002715
 2061 Fit      -0.001917
 2062 Fit       0.012292
 2063 Fit       0.011345
 2064 Fit       0.007335
 2065 Fit      -0.000516
 2066 Fit       0.018262
 2067 Fit       0.016563
 2068 Fit       0.012570
 2069 Fit       0.005487
 2070 Fit       0.022087
 2071 Fit       0.019357
 2072 Fit       0.014735
 2073 Fit       0.006978
 2074 Fit       0.001808
 2075 Fit       0.001264
 2076 Fit       0.001643
 2077 Fit       0.005610
 2078 Fit       0.002861
 2079 Fit       0.004028
 2080 Fit       0.003479
 2081 Fit       0.003554
 2082 Fit       0.003577
 2083 Fit       0.001693
 2084 Fit       0.002508
 2085 Fit       0.002075
 2086 Fit       0.001312
 2087 Fit       0.002737
 2088 Fit       0.002235
 2089 Fit       0.001726
 2090 Fit       0.002907
 2091 Fit       0.002801
 2092 Fit       0.002433
 2093 Fit       0.001913
 2094 Fit       0.002258
 2095 Fit       0.002960
 2096 Fit       0.001525
 2097 Fit       0.001062
 2098 Fit       0.001440
 2099 Fit       0.001468
 2100 Fit       0.001347
 2101 Fit       0.002611
 2102 Fit       0.004061
 2103 Fit       0.001191
 2104 Fit       0.002373
 2105 Fit       0.003537
 2106 Fit       0.004577
 2107 Fit       0.004077
 2108 Fit       0.001988
 2109 Fit       0.002824
 2110 Fit       0.002562
 2111 Fit       0.002441
 2112 Fit       0.003170
 2113 Fit       0.003391
 2114 Fit       0.001996
 2115 Fit       0.002736
 2116 Fit       0.003466
 2117 Fit       0.001833
 2118 Fit       0.001648
 2119 Fit       0.003748
 2120 Fit       0.003927
 2121 Fit       0.004404
 2122 Fit       0.004072
 2123 Fit       0.003516
 2124 Fit       0.000784
 2125 Fit       0.002899
 2126 Fit       0.002236
 2127 Fit       0.003083
 2128 Fit       0.003305
 2129 Fit       0.002445
 2130 Fit       0.003004
 2131 Fit       0.003535
 2132 Fit       0.001449
 2133 Fit       0.001433
 2134 Fit       0.000851
 2135 Fit       0.002078
 2136 Fit       0.002913
 2137 Fit       0.003687
 2138 Fit       0.001666
 2139 Fit       0.002243
 2140 Fit       0.002618
 2141 Fit       0.003009
 2142 Fit       0.003632
 2143 Fit       0.001604
 2144 Fit       0.001575
 2145 Fit       0.001653
 2146 Fit       0.002111
 2147 Fit       0.001036
 2148 Fit      -0.000339
 2149 Fit      -0.000106
 2150 Fit       0.000452
 2151 Fit       0.000579
 2152 Fit      -0.000398
 2153 Fit      -0.001027
 2154 Fit      -0.001179
 2155 Fit      -0.000982
 2156 Fit      -0.001167
 2157 Fit      -0.001048
 2158 Fit      -0.001100
 2159 Fit       0.001278
 2160 Fit       0.000547
 2161 Fit       0.002344
 2162 Fit       0.001606
 2163 Fit       0.000464
 2164 Fit       0.003153
 2165 Fit       0.002348
 2166 Fit       0.001149
 2167 Fit      -0.000383
 2168 Fit       0.003241
 2169 Fit       0.002250
 2170 Fit       0.000784
 2171 Fit      -0.000828
 2172 Fit       0.002208
 2173 Fit       0.000464
 2174 Fit      -0.000094
 2175 Fit       0.000213
 2176 Fit       0.001170
 2177 Fit       0.001584
 2178 Fit       0.001543
 2179 Fit       0.000204
 2180 Fit       0.002050
 2181 Fit       0.002582
 2182 Fit       0.002684
 2183 Fit      -0.000517
 2184 Fit       0.000966
 2185 Fit       0.002205
 2186 Fit       0.003080
 2187 Fit      -0.000765
 2188 Fit       0.000855
 2189 Fit       0.001568
 2190 Fit      -0.000304
 2191 Fit       0.002665
 2192 Fit       0.002046
 2193 Fit       0.003342
 2194 Fit       0.001317
 2195 Fit       0.001114
 2196 Fit       0.001153
 2197 Fit       0.002800
 2198 Fit       0.002088
 2199 Fit       0.001667
 2200 Fit       0.000278
 2201 Fit      -0.000017
 2202 Fit      -0.000216
 2203 Fit       0.000422
 2204 Fit      -0.000090
 2205 Fit       0.000187
 2206 Fit      -0.000524
 2207 Fit      -0.000995
 2208 Fit      -0.000771
 2209 Fit      -0.000697
 2210 Fit      -0.000680
 2211 Fit      -0.000940
 2212 Fit      -0.001212
 2213 Fit      -0.001328
 2214 Fit      -0.001104
 2215 Fit      -0.001054
 2216 Fit      -0.001386
 2217 Fit       0.000470
 2218 Fit       0.001985
 2219 Fit       0.003025
 2220 Fit       0.003137
 2221 Fit       0.002166
 2222 Fit      -0.000258
 2223 Fit       0.001229
 2224 Fit       0.002238
 2225 Fit       0.002160
 2226 Fit       0.000906
 2227 Fit      -0.000762
 2228 Fit       0.000182
 2229 Fit       0.001127
 2230 Fit       0.000263
 2231 Fit      -0.000481
 2232 Fit       0.002514
 2233 Fit       0.001433
 2234 Fit       0.002867
 2235 Fit       0.002521
 2236 Fit       0.001520
 2237 Fit       0.000123
 2238 Fit       0.002286
 2239 Fit       0.002004
 2240 Fit       0.001790
 2241 Fit       0.000620
 2242 Fit       0.001017
 2243 Fit       0.000704
 2244 Fit       0.000164
 2245 Fit      -0.000530
 2246 Fit      -0.000925
 2247 Fit       0.003133
 2248 Fit       0.001609
 2249 Fit       0.003046
 2250 Fit       0.004018
 2251 Fit       0.001100
 2252 Fit       0.002493
 2253 Fit       0.003200
 2254 Fit       0.002924
 2255 Fit       0.001592
 2256 Fit      -0.000158
 2257 Fit       0.001293
 2258 Fit       0.001907
 2259 Fit       0.001280
 2260 Fit       0.000113
 2261 Fit      -0.000555
 -----------------------------------------------------------------
 Leave Link  602 at Thu Apr 27 16:06:31 2017, MaxMem=    33554432 cpu:         4.5
 (Enter /home/michal/g09/l9999.exe)

 Test job not archived.
 1\1\GINC-LINUX\SP\RHF\6-31G(d)\C27H46O3\MICHAL\27-Apr-2017\0\\#P HF/6-
 31G* SCF(Conver=6) NoSymm Test Pop=mk IOp(6/33=2) GFInput GFPrint\\MEP
  - Input generated by R.E.D.-III.x MOLECULE\\0,1\C,0,-1.01103733,1.982
 62447,1.68487264\H,0,-0.99257108,1.00509185,2.18218549\C,0,0.31593734,
 2.70568547,1.95373735\H,0,0.47462465,2.80267023,3.03206122\H,0,0.22457
 199,3.72925671,1.55483872\C,0,1.50286803,2.01408591,1.30964097\C,0,1.3
 8669414,1.66200749,-0.17679928\C,0,-0.01076692,1.01329928,-0.42517866\
 H,0,0.,0.,0.\H,0,-0.17385686,0.89643022,-1.50179229\C,0,-1.19777908,1.
 77694743,0.18195458\H,0,-1.31236579,2.7581376,-0.30212148\H,0,-2.12831
 9,1.22732194,0.\C,0,2.59964937,1.75059626,2.03206287\H,0,2.62692418,2.
 01370327,3.08712494\C,0,3.86398265,1.14102298,1.50231861\H,0,4.0450888
 4,0.16724406,1.98337756\C,0,3.90646305,0.99058764,-0.0272827\H,0,4.209
 60858,1.96462601,-0.43329861\C,0,2.49423978,0.62299162,-0.56334409\H,0
 ,2.21366526,-0.31159096,-0.05077297\C,0,2.53726957,0.30749204,-2.07593
 368\H,0,2.71387242,1.22943175,-2.64051829\H,0,1.55858447,-0.06225302,-
 2.40030761\C,0,3.60437432,-0.72989899,-2.47434459\H,0,3.35039632,-1.70
 312474,-2.02983763\H,0,3.56909572,-0.86583982,-3.55977079\C,0,5.012061
 2,-0.32176386,-1.99577916\C,0,4.91282371,-0.09214532,-0.45967336\H,0,4
 .51851468,-1.03973608,-0.05387482\C,0,6.37639878,0.,0.\H,0,6.49460173,
 -0.24187085,1.06077449\H,0,6.76124055,1.01622205,-0.13191848\C,0,7.113
 77266,-1.01220235,-0.91769657\H,0,8.0073477,-0.55817742,-1.36199739\H,
 0,7.46148759,-1.87863031,-0.34720164\C,0,6.10582616,-1.44499897,-2.036
 88149\H,0,5.60576169,-2.36925285,-1.70560427\C,0,5.50331493,0.93755175
 ,-2.74656577\H,0,4.86228935,1.80469051,-2.56890542\H,0,6.51741849,1.22
 172224,-2.45037362\H,0,5.51636494,0.76285356,-3.82717242\C,0,6.8169303
 6,-1.77415391,-3.37440836\H,0,7.37374162,-0.87477689,-3.67609284\C,0,5
 .845635,-2.13151243,-4.51496895\H,0,5.17272336,-2.94382709,-4.21332537
 \H,0,6.39440081,-2.47336127,-5.3979212\H,0,5.22878324,-1.28357304,-4.8
 233548\C,0,1.50924964,2.96895239,-1.00515313\H,0,1.28097157,2.79523547
 ,-2.06139503\H,0,0.81607142,3.73492552,-0.64787356\H,0,2.51647447,3.39
 012938,-0.93406519\O,0,4.99249408,1.99266072,1.82517213\O,0,5.17604091
 ,1.95988612,3.27279316\H,0,6.03954576,1.51840224,3.32716739\O,0,-2.118
 06171,2.65974626,2.2865666\H,0,-2.19069005,3.54191081,1.89580299\C,0,7
 .85428043,-2.92409807,-3.18406692\H,0,7.99690209,-3.12719254,-2.117638
 3\H,0,7.44162547,-3.85126351,-3.60655015\C,0,9.24741152,-2.67149503,-3
 .79330707\H,0,9.672163,-1.7624274,-3.34212323\H,0,9.90312468,-3.496604
 02,-3.48804392\C,0,9.28375672,-2.53084852,-5.3223996\H,0,8.62315294,-1
 .70778702,-5.6248289\H,0,8.8693311,-3.44127802,-5.78270542\C,0,10.6812
 1528,-2.26403172,-5.92080217\H,0,11.10074887,-1.38625676,-5.40503305\C
 ,0,11.64975958,-3.43995459,-5.71360413\H,0,11.26296466,-4.34966757,-6.
 19128622\H,0,12.6279091,-3.22314275,-6.15777931\H,0,11.81236121,-3.662
 02027,-4.65432709\C,0,10.57020246,-1.91945849,-7.41469742\H,0,10.15055
 666,-2.76180022,-7.97967225\H,0,11.55174032,-1.68893628,-7.84434286\H,
 0,9.92008143,-1.05231152,-7.57826564\\Version=EM64L-G09RevD.01\HF=-127
 3.6798987\RMSD=5.707e-07\Dipole=0.4531969,-0.4514542,-0.8277472\Quadru
 pole=2.7191159,0.9226545,-3.6417703,-6.3963806,3.9127269,-6.3715046\PG
 =C01 [X(C27H46O3)]\\@


    UPON JULIA'S CLOTHES

 WHENAS IN SILKS MY JULIA GOES,
 THEN, THEN, METHINKS, HOW SWEETLY FLOWS
 THAT LIQUEFACTION OF HER CLOTHES.

 NEXT, WHEN I CAST MINE EYES, AND SEE
 THAT BRAVE VIBRATION, EACH WAY FREE,
 O, HOW THAT GLITTERING TAKETH ME!
     -- ROBERT HERRICK, 1648
 Job cpu time:       0 days  0 hours 12 minutes 18.0 seconds.
 File lengths (MBytes):  RWF=    159 Int=      0 D2E=      0 Chk=     11 Scr=      1
 Normal termination of Gaussian 09 at Thu Apr 27 16:06:31 2017.
