 Entering Gaussian System, Link 0=/home/michal/g09/g09
 Input=JOB2-gau_m1-25-4.com
 Output=JOB2-gau_m1-25-4.log
 Initial command:
 /home/michal/g09/l1.exe "/home/michal/gauss_scratch/Gau-7087.inp" -scrdir="/home/michal/gauss_scratch/"
 Entering Link 1 = /home/michal/g09/l1.exe PID=      7088.
  
 Copyright (c) 1988,1990,1992,1993,1995,1998,2003,2009,2013,
            Gaussian, Inc.  All Rights Reserved.
  
 This is part of the Gaussian(R) 09 program.  It is based on
 the Gaussian(R) 03 system (copyright 2003, Gaussian, Inc.),
 the Gaussian(R) 98 system (copyright 1998, Gaussian, Inc.),
 the Gaussian(R) 94 system (copyright 1995, Gaussian, Inc.),
 the Gaussian 92(TM) system (copyright 1992, Gaussian, Inc.),
 the Gaussian 90(TM) system (copyright 1990, Gaussian, Inc.),
 the Gaussian 88(TM) system (copyright 1988, Gaussian, Inc.),
 the Gaussian 86(TM) system (copyright 1986, Carnegie Mellon
 University), and the Gaussian 82(TM) system (copyright 1983,
 Carnegie Mellon University). Gaussian is a federally registered
 trademark of Gaussian, Inc.
  
 This software contains proprietary and confidential information,
 including trade secrets, belonging to Gaussian, Inc.
  
 This software is provided under written license and may be
 used, copied, transmitted, or stored only in accord with that
 written license.
  
 The following legend is applicable only to US Government
 contracts under FAR:
  
                    RESTRICTED RIGHTS LEGEND
  
 Use, reproduction and disclosure by the US Government is
 subject to restrictions as set forth in subparagraphs (a)
 and (c) of the Commercial Computer Software - Restricted
 Rights clause in FAR 52.227-19.
  
 Gaussian, Inc.
 340 Quinnipiac St., Bldg. 40, Wallingford CT 06492
  
  
 ---------------------------------------------------------------
 Warning -- This program may not be used in any manner that
 competes with the business of Gaussian, Inc. or will provide
 assistance to any competitor of Gaussian, Inc.  The licensee
 of this program is prohibited from giving any competitor of
 Gaussian, Inc. access to this program.  By using this program,
 the user acknowledges that Gaussian, Inc. is engaged in the
 business of creating and licensing software in the field of
 computational chemistry and represents and warrants to the
 licensee that it is not a competitor of Gaussian, Inc. and that
 it will not use this program in any manner prohibited above.
 ---------------------------------------------------------------
  

 Cite this work as:
 Gaussian 09, Revision D.01,
 M. J. Frisch, G. W. Trucks, H. B. Schlegel, G. E. Scuseria, 
 M. A. Robb, J. R. Cheeseman, G. Scalmani, V. Barone, B. Mennucci, 
 G. A. Petersson, H. Nakatsuji, M. Caricato, X. Li, H. P. Hratchian, 
 A. F. Izmaylov, J. Bloino, G. Zheng, J. L. Sonnenberg, M. Hada, 
 M. Ehara, K. Toyota, R. Fukuda, J. Hasegawa, M. Ishida, T. Nakajima, 
 Y. Honda, O. Kitao, H. Nakai, T. Vreven, J. A. Montgomery, Jr., 
 J. E. Peralta, F. Ogliaro, M. Bearpark, J. J. Heyd, E. Brothers, 
 K. N. Kudin, V. N. Staroverov, T. Keith, R. Kobayashi, J. Normand, 
 K. Raghavachari, A. Rendell, J. C. Burant, S. S. Iyengar, J. Tomasi, 
 M. Cossi, N. Rega, J. M. Millam, M. Klene, J. E. Knox, J. B. Cross, 
 V. Bakken, C. Adamo, J. Jaramillo, R. Gomperts, R. E. Stratmann, 
 O. Yazyev, A. J. Austin, R. Cammi, C. Pomelli, J. W. Ochterski, 
 R. L. Martin, K. Morokuma, V. G. Zakrzewski, G. A. Voth, 
 P. Salvador, J. J. Dannenberg, S. Dapprich, A. D. Daniels, 
 O. Farkas, J. B. Foresman, J. V. Ortiz, J. Cioslowski, 
 and D. J. Fox, Gaussian, Inc., Wallingford CT, 2013.
 
 ******************************************
 Gaussian 09:  EM64L-G09RevD.01 24-Apr-2013
                27-Apr-2017 
 ******************************************
 %Mem=256MB
 %NProc=12
 Will use up to   12 processors via shared memory.
 ----------------------------------------------------------------------
 #P HF/6-31G* SCF(Conver=6) NoSymm Test Pop=mk IOp(6/33=2) GFInput GFPr
 int
 ----------------------------------------------------------------------
 1/38=1/1;
 2/12=2,15=1,17=6,18=5,40=1/2;
 3/5=1,6=6,7=1,11=9,16=1,24=110,25=1,30=1/1,2,3;
 4//1;
 5/5=2,6=6,38=5/2;
 6/7=2,8=2,9=2,10=2,15=8,20=1,28=1,33=2/1,2;
 99/5=1,9=1/99;
 Leave Link    1 at Thu Apr 27 16:40:25 2017, MaxMem=    33554432 cpu:         0.6
 (Enter /home/michal/g09/l101.exe)
 ----------------------------------------------
 MEP - Input generated by R.E.D.-III.x MOLECULE
 ----------------------------------------------
 Symbolic Z-matrix:
 Charge =  0 Multiplicity = 1
 C                     0.99847  -0.89614  -1.68994 
 H                     1.15485   0.07082  -2.18358 
 C                     2.21024  -1.79863  -1.96239 
 H                     2.35125  -1.91434  -3.04167 
 H                     1.97464  -2.7993   -1.56491 
 C                     3.48393  -1.28693  -1.31706 
 C                     3.42293  -0.91763   0.16928 
 C                     2.12735  -0.08451   0.4204 
 H                     2.27677   0.91975   0. 
 H                     1.98453   0.04896   1.49769 
 C                     0.84451  -0.67316  -0.1863 
 H                     0.59555  -1.63111   0.29412 
 H                     0.        0.        0. 
 C                     4.60918  -1.18243  -2.03686 
 H                     4.59345  -1.43226  -3.09829 
 C                     5.94622  -0.75306  -1.50852 
 H                     6.24077   0.19498  -1.98741 
 C                     6.00977  -0.60461   0.01923 
 H                     6.16739  -1.60909   0.4268 
 C                     4.66377  -0.03546   0.54778 
 H                     4.51329   0.92295   0.02347 
 C                     4.74459   0.29301   2.05589 
 H                     4.7817   -0.63586   2.63536 
 H                     3.83039   0.80874   2.36963 
 C                     5.95217   1.16754   2.44551 
 H                     5.84666   2.16071   1.98524 
 H                     5.93115   1.32382   3.52845 
 C                     7.28576   0.54818   1.98195 
 C                     7.16287   0.32059   0.447 
 H                     6.91926   1.3137    0.0295 
 C                     8.59796   0.        0. 
 H                     8.76076   0.19892  -1.06231 
 H                     8.82096  -1.06144   0.14872 
 C                     9.47377   0.89892   0.9135 
 H                     10.28579   0.31903   1.36856 
 H                     9.95158   1.69756   0.33791 
 C                     8.5383    1.49222   2.02158 
 H                     8.18664   2.47832   1.67774 
 C                     7.57719  -0.76291   2.74799 
 H                     6.81653  -1.52732   2.57044 
 H                     8.54007  -1.19683   2.46348 
 H                     7.6071   -0.58142   3.82734 
 C                     9.27826   1.72771   3.36431 
 H                     9.69767   0.76305   3.68846 
 C                     8.35733   2.24806   4.48283 
 H                     7.81925   3.14758   4.15842 
 H                     8.92937   2.5111    5.37778 
 H                     7.61494   1.50692   4.78767 
 C                     3.371    -2.22811   0.99912 
 H                     3.18322  -2.02134   2.05725 
 H                     2.57126  -2.88906   0.65375 
 H                     4.30874  -2.78509   0.91637 
 O                     6.99253  -1.61106  -2.03074 
 O                     6.8241   -2.95426  -1.48871 
 H                     6.42298  -3.41075  -2.24636 
 O                    -0.19129  -1.40912  -2.2951 
 H                    -0.4093   -2.25614  -1.8813 
 C                     10.46939   2.69967   3.16129 
 H                     10.98693   2.44729   2.23101 
 H                     10.07274   3.71758   3.02192 
 C                     11.49993   2.70731   4.30241 
 H                     10.99924   2.90772   5.25735 
 H                     11.93426   1.70297   4.39933 
 C                     12.62059   3.75157   4.1405 
 H                     13.24447   3.7386    5.04665 
 H                     12.16223   4.75053   4.10394 
 C                     13.54984   3.59786   2.91738 
 H                     12.93282   3.63008   2.0081 
 C                     14.5318   4.77846   2.84746 
 H                     15.18338   4.79808   3.73064 
 H                     15.17457   4.71012   1.96235 
 H                     14.00185   5.73698   2.80409 
 C                     14.31184   2.26321   2.92358 
 H                     14.92882   2.17167   3.82708 
 H                     14.97918   2.18953   2.05736 
 H                     13.63707   1.40164   2.89263 
 
 NAtoms=     76 NQM=       76 NQMF=       0 NMMI=      0 NMMIF=      0
                NMic=       0 NMicF=      0.
                    Isotopes and Nuclear Properties:
 (Nuclear quadrupole moments (NQMom) in fm**2, nuclear magnetic moments (NMagM)
  in nuclear magnetons)

  Atom         1           2           3           4           5           6           7           8           9          10
 IAtWgt=          12           1          12           1           1          12          12          12           1           1
 AtmWgt=  12.0000000   1.0078250  12.0000000   1.0078250   1.0078250  12.0000000  12.0000000  12.0000000   1.0078250   1.0078250
 NucSpn=           0           1           0           1           1           0           0           0           1           1
 AtZEff=   0.0000000   0.0000000   0.0000000   0.0000000   0.0000000   0.0000000   0.0000000   0.0000000   0.0000000   0.0000000
 NQMom=    0.0000000   0.0000000   0.0000000   0.0000000   0.0000000   0.0000000   0.0000000   0.0000000   0.0000000   0.0000000
 NMagM=    0.0000000   2.7928460   0.0000000   2.7928460   2.7928460   0.0000000   0.0000000   0.0000000   2.7928460   2.7928460
 AtZNuc=   6.0000000   1.0000000   6.0000000   1.0000000   1.0000000   6.0000000   6.0000000   6.0000000   1.0000000   1.0000000

  Atom        11          12          13          14          15          16          17          18          19          20
 IAtWgt=          12           1           1          12           1          12           1          12           1          12
 AtmWgt=  12.0000000   1.0078250   1.0078250  12.0000000   1.0078250  12.0000000   1.0078250  12.0000000   1.0078250  12.0000000
 NucSpn=           0           1           1           0           1           0           1           0           1           0
 AtZEff=   0.0000000   0.0000000   0.0000000   0.0000000   0.0000000   0.0000000   0.0000000   0.0000000   0.0000000   0.0000000
 NQMom=    0.0000000   0.0000000   0.0000000   0.0000000   0.0000000   0.0000000   0.0000000   0.0000000   0.0000000   0.0000000
 NMagM=    0.0000000   2.7928460   2.7928460   0.0000000   2.7928460   0.0000000   2.7928460   0.0000000   2.7928460   0.0000000
 AtZNuc=   6.0000000   1.0000000   1.0000000   6.0000000   1.0000000   6.0000000   1.0000000   6.0000000   1.0000000   6.0000000

  Atom        21          22          23          24          25          26          27          28          29          30
 IAtWgt=           1          12           1           1          12           1           1          12          12           1
 AtmWgt=   1.0078250  12.0000000   1.0078250   1.0078250  12.0000000   1.0078250   1.0078250  12.0000000  12.0000000   1.0078250
 NucSpn=           1           0           1           1           0           1           1           0           0           1
 AtZEff=   0.0000000   0.0000000   0.0000000   0.0000000   0.0000000   0.0000000   0.0000000   0.0000000   0.0000000   0.0000000
 NQMom=    0.0000000   0.0000000   0.0000000   0.0000000   0.0000000   0.0000000   0.0000000   0.0000000   0.0000000   0.0000000
 NMagM=    2.7928460   0.0000000   2.7928460   2.7928460   0.0000000   2.7928460   2.7928460   0.0000000   0.0000000   2.7928460
 AtZNuc=   1.0000000   6.0000000   1.0000000   1.0000000   6.0000000   1.0000000   1.0000000   6.0000000   6.0000000   1.0000000

  Atom        31          32          33          34          35          36          37          38          39          40
 IAtWgt=          12           1           1          12           1           1          12           1          12           1
 AtmWgt=  12.0000000   1.0078250   1.0078250  12.0000000   1.0078250   1.0078250  12.0000000   1.0078250  12.0000000   1.0078250
 NucSpn=           0           1           1           0           1           1           0           1           0           1
 AtZEff=   0.0000000   0.0000000   0.0000000   0.0000000   0.0000000   0.0000000   0.0000000   0.0000000   0.0000000   0.0000000
 NQMom=    0.0000000   0.0000000   0.0000000   0.0000000   0.0000000   0.0000000   0.0000000   0.0000000   0.0000000   0.0000000
 NMagM=    0.0000000   2.7928460   2.7928460   0.0000000   2.7928460   2.7928460   0.0000000   2.7928460   0.0000000   2.7928460
 AtZNuc=   6.0000000   1.0000000   1.0000000   6.0000000   1.0000000   1.0000000   6.0000000   1.0000000   6.0000000   1.0000000

  Atom        41          42          43          44          45          46          47          48          49          50
 IAtWgt=           1           1          12           1          12           1           1           1          12           1
 AtmWgt=   1.0078250   1.0078250  12.0000000   1.0078250  12.0000000   1.0078250   1.0078250   1.0078250  12.0000000   1.0078250
 NucSpn=           1           1           0           1           0           1           1           1           0           1
 AtZEff=   0.0000000   0.0000000   0.0000000   0.0000000   0.0000000   0.0000000   0.0000000   0.0000000   0.0000000   0.0000000
 NQMom=    0.0000000   0.0000000   0.0000000   0.0000000   0.0000000   0.0000000   0.0000000   0.0000000   0.0000000   0.0000000
 NMagM=    2.7928460   2.7928460   0.0000000   2.7928460   0.0000000   2.7928460   2.7928460   2.7928460   0.0000000   2.7928460
 AtZNuc=   1.0000000   1.0000000   6.0000000   1.0000000   6.0000000   1.0000000   1.0000000   1.0000000   6.0000000   1.0000000

  Atom        51          52          53          54          55          56          57          58          59          60
 IAtWgt=           1           1          16          16           1          16           1          12           1           1
 AtmWgt=   1.0078250   1.0078250  15.9949146  15.9949146   1.0078250  15.9949146   1.0078250  12.0000000   1.0078250   1.0078250
 NucSpn=           1           1           0           0           1           0           1           0           1           1
 AtZEff=   0.0000000   0.0000000   0.0000000   0.0000000   0.0000000   0.0000000   0.0000000   0.0000000   0.0000000   0.0000000
 NQMom=    0.0000000   0.0000000   0.0000000   0.0000000   0.0000000   0.0000000   0.0000000   0.0000000   0.0000000   0.0000000
 NMagM=    2.7928460   2.7928460   0.0000000   0.0000000   2.7928460   0.0000000   2.7928460   0.0000000   2.7928460   2.7928460
 AtZNuc=   1.0000000   1.0000000   8.0000000   8.0000000   1.0000000   8.0000000   1.0000000   6.0000000   1.0000000   1.0000000

  Atom        61          62          63          64          65          66          67          68          69          70
 IAtWgt=          12           1           1          12           1           1          12           1          12           1
 AtmWgt=  12.0000000   1.0078250   1.0078250  12.0000000   1.0078250   1.0078250  12.0000000   1.0078250  12.0000000   1.0078250
 NucSpn=           0           1           1           0           1           1           0           1           0           1
 AtZEff=   0.0000000   0.0000000   0.0000000   0.0000000   0.0000000   0.0000000   0.0000000   0.0000000   0.0000000   0.0000000
 NQMom=    0.0000000   0.0000000   0.0000000   0.0000000   0.0000000   0.0000000   0.0000000   0.0000000   0.0000000   0.0000000
 NMagM=    0.0000000   2.7928460   2.7928460   0.0000000   2.7928460   2.7928460   0.0000000   2.7928460   0.0000000   2.7928460
 AtZNuc=   6.0000000   1.0000000   1.0000000   6.0000000   1.0000000   1.0000000   6.0000000   1.0000000   6.0000000   1.0000000

  Atom        71          72          73          74          75          76
 IAtWgt=           1           1          12           1           1           1
 AtmWgt=   1.0078250   1.0078250  12.0000000   1.0078250   1.0078250   1.0078250
 NucSpn=           1           1           0           1           1           1
 AtZEff=   0.0000000   0.0000000   0.0000000   0.0000000   0.0000000   0.0000000
 NQMom=    0.0000000   0.0000000   0.0000000   0.0000000   0.0000000   0.0000000
 NMagM=    2.7928460   2.7928460   0.0000000   2.7928460   2.7928460   2.7928460
 AtZNuc=   1.0000000   1.0000000   6.0000000   1.0000000   1.0000000   1.0000000
 Leave Link  101 at Thu Apr 27 16:40:25 2017, MaxMem=    33554432 cpu:         1.5
 (Enter /home/michal/g09/l202.exe)
 Symmetry turned off by external request.
 Stoichiometry    C27H46O3
 Framework group  C1[X(C27H46O3)]
 Deg. of freedom   222
 Full point group                 C1      NOp   1
                          Input orientation:                          
 ---------------------------------------------------------------------
 Center     Atomic      Atomic             Coordinates (Angstroms)
 Number     Number       Type             X           Y           Z
 ---------------------------------------------------------------------
      1          6           0        0.998474   -0.896141   -1.689937
      2          1           0        1.154852    0.070817   -2.183576
      3          6           0        2.210235   -1.798630   -1.962392
      4          1           0        2.351247   -1.914335   -3.041672
      5          1           0        1.974639   -2.799300   -1.564914
      6          6           0        3.483929   -1.286927   -1.317061
      7          6           0        3.422930   -0.917627    0.169280
      8          6           0        2.127355   -0.084515    0.420400
      9          1           0        2.276766    0.919745    0.000000
     10          1           0        1.984530    0.048961    1.497686
     11          6           0        0.844513   -0.673156   -0.186304
     12          1           0        0.595546   -1.631108    0.294120
     13          1           0        0.000000    0.000000    0.000000
     14          6           0        4.609178   -1.182432   -2.036857
     15          1           0        4.593450   -1.432259   -3.098289
     16          6           0        5.946220   -0.753059   -1.508519
     17          1           0        6.240767    0.194984   -1.987407
     18          6           0        6.009769   -0.604613    0.019226
     19          1           0        6.167392   -1.609089    0.426799
     20          6           0        4.663768   -0.035464    0.547780
     21          1           0        4.513292    0.922947    0.023467
     22          6           0        4.744587    0.293011    2.055893
     23          1           0        4.781701   -0.635857    2.635363
     24          1           0        3.830391    0.808736    2.369626
     25          6           0        5.952166    1.167539    2.445513
     26          1           0        5.846659    2.160708    1.985241
     27          1           0        5.931150    1.323824    3.528451
     28          6           0        7.285755    0.548178    1.981949
     29          6           0        7.162871    0.320588    0.447005
     30          1           0        6.919262    1.313704    0.029500
     31          6           0        8.597956    0.000000    0.000000
     32          1           0        8.760765    0.198919   -1.062311
     33          1           0        8.820961   -1.061438    0.148724
     34          6           0        9.473771    0.898922    0.913502
     35          1           0       10.285791    0.319034    1.368555
     36          1           0        9.951584    1.697564    0.337905
     37          6           0        8.538301    1.492216    2.021575
     38          1           0        8.186639    2.478317    1.677740
     39          6           0        7.577187   -0.762915    2.747990
     40          1           0        6.816533   -1.527316    2.570439
     41          1           0        8.540073   -1.196834    2.463480
     42          1           0        7.607095   -0.581421    3.827338
     43          6           0        9.278258    1.727708    3.364314
     44          1           0        9.697668    0.763048    3.688462
     45          6           0        8.357328    2.248063    4.482833
     46          1           0        7.819248    3.147577    4.158423
     47          1           0        8.929374    2.511103    5.377782
     48          1           0        7.614943    1.506918    4.787668
     49          6           0        3.370996   -2.228113    0.999121
     50          1           0        3.183221   -2.021344    2.057248
     51          1           0        2.571256   -2.889065    0.653747
     52          1           0        4.308742   -2.785089    0.916373
     53          8           0        6.992529   -1.611058   -2.030736
     54          8           0        6.824100   -2.954261   -1.488706
     55          1           0        6.422978   -3.410751   -2.246358
     56          8           0       -0.191286   -1.409123   -2.295096
     57          1           0       -0.409299   -2.256142   -1.881302
     58          6           0       10.469389    2.699666    3.161290
     59          1           0       10.986929    2.447290    2.231007
     60          1           0       10.072744    3.717576    3.021920
     61          6           0       11.499927    2.707315    4.302415
     62          1           0       10.999238    2.907715    5.257346
     63          1           0       11.934260    1.702966    4.399334
     64          6           0       12.620591    3.751575    4.140499
     65          1           0       13.244471    3.738599    5.046655
     66          1           0       12.162226    4.750534    4.103943
     67          6           0       13.549845    3.597860    2.917385
     68          1           0       12.932816    3.630082    2.008100
     69          6           0       14.531805    4.778462    2.847463
     70          1           0       15.183378    4.798083    3.730643
     71          1           0       15.174573    4.710118    1.962354
     72          1           0       14.001846    5.736979    2.804089
     73          6           0       14.311838    2.263209    2.923578
     74          1           0       14.928816    2.171670    3.827079
     75          1           0       14.979184    2.189531    2.057364
     76          1           0       13.637068    1.401639    2.892631
 ---------------------------------------------------------------------
 Rotational constants (GHZ):      0.3858676      0.0547522      0.0510286
 Leave Link  202 at Thu Apr 27 16:40:25 2017, MaxMem=    33554432 cpu:         0.1
 (Enter /home/michal/g09/l301.exe)
 Standard basis: 6-31G(d) (6D, 7F)
 Ernie: Thresh=  0.10000D-02 Tol=  0.10000D-05 Strict=F.
 AO basis set in the form of general basis input (Overlap normalization):
      1 0
 S   6 1.00       0.000000000000
      0.3047524880D+04  0.1834737132D-02
      0.4573695180D+03  0.1403732281D-01
      0.1039486850D+03  0.6884262226D-01
      0.2921015530D+02  0.2321844432D+00
      0.9286662960D+01  0.4679413484D+00
      0.3163926960D+01  0.3623119853D+00
 SP   3 1.00       0.000000000000
      0.7868272350D+01 -0.1193324198D+00  0.6899906659D-01
      0.1881288540D+01 -0.1608541517D+00  0.3164239610D+00
      0.5442492580D+00  0.1143456438D+01  0.7443082909D+00
 SP   1 1.00       0.000000000000
      0.1687144782D+00  0.1000000000D+01  0.1000000000D+01
 D   1 1.00       0.000000000000
      0.8000000000D+00  0.1000000000D+01
 ****
      2 0
 S   3 1.00       0.000000000000
      0.1873113696D+02  0.3349460434D-01
      0.2825394365D+01  0.2347269535D+00
      0.6401216923D+00  0.8137573261D+00
 S   1 1.00       0.000000000000
      0.1612777588D+00  0.1000000000D+01
 ****
      3 0
 S   6 1.00       0.000000000000
      0.3047524880D+04  0.1834737132D-02
      0.4573695180D+03  0.1403732281D-01
      0.1039486850D+03  0.6884262226D-01
      0.2921015530D+02  0.2321844432D+00
      0.9286662960D+01  0.4679413484D+00
      0.3163926960D+01  0.3623119853D+00
 SP   3 1.00       0.000000000000
      0.7868272350D+01 -0.1193324198D+00  0.6899906659D-01
      0.1881288540D+01 -0.1608541517D+00  0.3164239610D+00
      0.5442492580D+00  0.1143456438D+01  0.7443082909D+00
 SP   1 1.00       0.000000000000
      0.1687144782D+00  0.1000000000D+01  0.1000000000D+01
 D   1 1.00       0.000000000000
      0.8000000000D+00  0.1000000000D+01
 ****
      4 0
 S   3 1.00       0.000000000000
      0.1873113696D+02  0.3349460434D-01
      0.2825394365D+01  0.2347269535D+00
      0.6401216923D+00  0.8137573261D+00
 S   1 1.00       0.000000000000
      0.1612777588D+00  0.1000000000D+01
 ****
      5 0
 S   3 1.00       0.000000000000
      0.1873113696D+02  0.3349460434D-01
      0.2825394365D+01  0.2347269535D+00
      0.6401216923D+00  0.8137573261D+00
 S   1 1.00       0.000000000000
      0.1612777588D+00  0.1000000000D+01
 ****
      6 0
 S   6 1.00       0.000000000000
      0.3047524880D+04  0.1834737132D-02
      0.4573695180D+03  0.1403732281D-01
      0.1039486850D+03  0.6884262226D-01
      0.2921015530D+02  0.2321844432D+00
      0.9286662960D+01  0.4679413484D+00
      0.3163926960D+01  0.3623119853D+00
 SP   3 1.00       0.000000000000
      0.7868272350D+01 -0.1193324198D+00  0.6899906659D-01
      0.1881288540D+01 -0.1608541517D+00  0.3164239610D+00
      0.5442492580D+00  0.1143456438D+01  0.7443082909D+00
 SP   1 1.00       0.000000000000
      0.1687144782D+00  0.1000000000D+01  0.1000000000D+01
 D   1 1.00       0.000000000000
      0.8000000000D+00  0.1000000000D+01
 ****
      7 0
 S   6 1.00       0.000000000000
      0.3047524880D+04  0.1834737132D-02
      0.4573695180D+03  0.1403732281D-01
      0.1039486850D+03  0.6884262226D-01
      0.2921015530D+02  0.2321844432D+00
      0.9286662960D+01  0.4679413484D+00
      0.3163926960D+01  0.3623119853D+00
 SP   3 1.00       0.000000000000
      0.7868272350D+01 -0.1193324198D+00  0.6899906659D-01
      0.1881288540D+01 -0.1608541517D+00  0.3164239610D+00
      0.5442492580D+00  0.1143456438D+01  0.7443082909D+00
 SP   1 1.00       0.000000000000
      0.1687144782D+00  0.1000000000D+01  0.1000000000D+01
 D   1 1.00       0.000000000000
      0.8000000000D+00  0.1000000000D+01
 ****
      8 0
 S   6 1.00       0.000000000000
      0.3047524880D+04  0.1834737132D-02
      0.4573695180D+03  0.1403732281D-01
      0.1039486850D+03  0.6884262226D-01
      0.2921015530D+02  0.2321844432D+00
      0.9286662960D+01  0.4679413484D+00
      0.3163926960D+01  0.3623119853D+00
 SP   3 1.00       0.000000000000
      0.7868272350D+01 -0.1193324198D+00  0.6899906659D-01
      0.1881288540D+01 -0.1608541517D+00  0.3164239610D+00
      0.5442492580D+00  0.1143456438D+01  0.7443082909D+00
 SP   1 1.00       0.000000000000
      0.1687144782D+00  0.1000000000D+01  0.1000000000D+01
 D   1 1.00       0.000000000000
      0.8000000000D+00  0.1000000000D+01
 ****
      9 0
 S   3 1.00       0.000000000000
      0.1873113696D+02  0.3349460434D-01
      0.2825394365D+01  0.2347269535D+00
      0.6401216923D+00  0.8137573261D+00
 S   1 1.00       0.000000000000
      0.1612777588D+00  0.1000000000D+01
 ****
     10 0
 S   3 1.00       0.000000000000
      0.1873113696D+02  0.3349460434D-01
      0.2825394365D+01  0.2347269535D+00
      0.6401216923D+00  0.8137573261D+00
 S   1 1.00       0.000000000000
      0.1612777588D+00  0.1000000000D+01
 ****
     11 0
 S   6 1.00       0.000000000000
      0.3047524880D+04  0.1834737132D-02
      0.4573695180D+03  0.1403732281D-01
      0.1039486850D+03  0.6884262226D-01
      0.2921015530D+02  0.2321844432D+00
      0.9286662960D+01  0.4679413484D+00
      0.3163926960D+01  0.3623119853D+00
 SP   3 1.00       0.000000000000
      0.7868272350D+01 -0.1193324198D+00  0.6899906659D-01
      0.1881288540D+01 -0.1608541517D+00  0.3164239610D+00
      0.5442492580D+00  0.1143456438D+01  0.7443082909D+00
 SP   1 1.00       0.000000000000
      0.1687144782D+00  0.1000000000D+01  0.1000000000D+01
 D   1 1.00       0.000000000000
      0.8000000000D+00  0.1000000000D+01
 ****
     12 0
 S   3 1.00       0.000000000000
      0.1873113696D+02  0.3349460434D-01
      0.2825394365D+01  0.2347269535D+00
      0.6401216923D+00  0.8137573261D+00
 S   1 1.00       0.000000000000
      0.1612777588D+00  0.1000000000D+01
 ****
     13 0
 S   3 1.00       0.000000000000
      0.1873113696D+02  0.3349460434D-01
      0.2825394365D+01  0.2347269535D+00
      0.6401216923D+00  0.8137573261D+00
 S   1 1.00       0.000000000000
      0.1612777588D+00  0.1000000000D+01
 ****
     14 0
 S   6 1.00       0.000000000000
      0.3047524880D+04  0.1834737132D-02
      0.4573695180D+03  0.1403732281D-01
      0.1039486850D+03  0.6884262226D-01
      0.2921015530D+02  0.2321844432D+00
      0.9286662960D+01  0.4679413484D+00
      0.3163926960D+01  0.3623119853D+00
 SP   3 1.00       0.000000000000
      0.7868272350D+01 -0.1193324198D+00  0.6899906659D-01
      0.1881288540D+01 -0.1608541517D+00  0.3164239610D+00
      0.5442492580D+00  0.1143456438D+01  0.7443082909D+00
 SP   1 1.00       0.000000000000
      0.1687144782D+00  0.1000000000D+01  0.1000000000D+01
 D   1 1.00       0.000000000000
      0.8000000000D+00  0.1000000000D+01
 ****
     15 0
 S   3 1.00       0.000000000000
      0.1873113696D+02  0.3349460434D-01
      0.2825394365D+01  0.2347269535D+00
      0.6401216923D+00  0.8137573261D+00
 S   1 1.00       0.000000000000
      0.1612777588D+00  0.1000000000D+01
 ****
     16 0
 S   6 1.00       0.000000000000
      0.3047524880D+04  0.1834737132D-02
      0.4573695180D+03  0.1403732281D-01
      0.1039486850D+03  0.6884262226D-01
      0.2921015530D+02  0.2321844432D+00
      0.9286662960D+01  0.4679413484D+00
      0.3163926960D+01  0.3623119853D+00
 SP   3 1.00       0.000000000000
      0.7868272350D+01 -0.1193324198D+00  0.6899906659D-01
      0.1881288540D+01 -0.1608541517D+00  0.3164239610D+00
      0.5442492580D+00  0.1143456438D+01  0.7443082909D+00
 SP   1 1.00       0.000000000000
      0.1687144782D+00  0.1000000000D+01  0.1000000000D+01
 D   1 1.00       0.000000000000
      0.8000000000D+00  0.1000000000D+01
 ****
     17 0
 S   3 1.00       0.000000000000
      0.1873113696D+02  0.3349460434D-01
      0.2825394365D+01  0.2347269535D+00
      0.6401216923D+00  0.8137573261D+00
 S   1 1.00       0.000000000000
      0.1612777588D+00  0.1000000000D+01
 ****
     18 0
 S   6 1.00       0.000000000000
      0.3047524880D+04  0.1834737132D-02
      0.4573695180D+03  0.1403732281D-01
      0.1039486850D+03  0.6884262226D-01
      0.2921015530D+02  0.2321844432D+00
      0.9286662960D+01  0.4679413484D+00
      0.3163926960D+01  0.3623119853D+00
 SP   3 1.00       0.000000000000
      0.7868272350D+01 -0.1193324198D+00  0.6899906659D-01
      0.1881288540D+01 -0.1608541517D+00  0.3164239610D+00
      0.5442492580D+00  0.1143456438D+01  0.7443082909D+00
 SP   1 1.00       0.000000000000
      0.1687144782D+00  0.1000000000D+01  0.1000000000D+01
 D   1 1.00       0.000000000000
      0.8000000000D+00  0.1000000000D+01
 ****
     19 0
 S   3 1.00       0.000000000000
      0.1873113696D+02  0.3349460434D-01
      0.2825394365D+01  0.2347269535D+00
      0.6401216923D+00  0.8137573261D+00
 S   1 1.00       0.000000000000
      0.1612777588D+00  0.1000000000D+01
 ****
     20 0
 S   6 1.00       0.000000000000
      0.3047524880D+04  0.1834737132D-02
      0.4573695180D+03  0.1403732281D-01
      0.1039486850D+03  0.6884262226D-01
      0.2921015530D+02  0.2321844432D+00
      0.9286662960D+01  0.4679413484D+00
      0.3163926960D+01  0.3623119853D+00
 SP   3 1.00       0.000000000000
      0.7868272350D+01 -0.1193324198D+00  0.6899906659D-01
      0.1881288540D+01 -0.1608541517D+00  0.3164239610D+00
      0.5442492580D+00  0.1143456438D+01  0.7443082909D+00
 SP   1 1.00       0.000000000000
      0.1687144782D+00  0.1000000000D+01  0.1000000000D+01
 D   1 1.00       0.000000000000
      0.8000000000D+00  0.1000000000D+01
 ****
     21 0
 S   3 1.00       0.000000000000
      0.1873113696D+02  0.3349460434D-01
      0.2825394365D+01  0.2347269535D+00
      0.6401216923D+00  0.8137573261D+00
 S   1 1.00       0.000000000000
      0.1612777588D+00  0.1000000000D+01
 ****
     22 0
 S   6 1.00       0.000000000000
      0.3047524880D+04  0.1834737132D-02
      0.4573695180D+03  0.1403732281D-01
      0.1039486850D+03  0.6884262226D-01
      0.2921015530D+02  0.2321844432D+00
      0.9286662960D+01  0.4679413484D+00
      0.3163926960D+01  0.3623119853D+00
 SP   3 1.00       0.000000000000
      0.7868272350D+01 -0.1193324198D+00  0.6899906659D-01
      0.1881288540D+01 -0.1608541517D+00  0.3164239610D+00
      0.5442492580D+00  0.1143456438D+01  0.7443082909D+00
 SP   1 1.00       0.000000000000
      0.1687144782D+00  0.1000000000D+01  0.1000000000D+01
 D   1 1.00       0.000000000000
      0.8000000000D+00  0.1000000000D+01
 ****
     23 0
 S   3 1.00       0.000000000000
      0.1873113696D+02  0.3349460434D-01
      0.2825394365D+01  0.2347269535D+00
      0.6401216923D+00  0.8137573261D+00
 S   1 1.00       0.000000000000
      0.1612777588D+00  0.1000000000D+01
 ****
     24 0
 S   3 1.00       0.000000000000
      0.1873113696D+02  0.3349460434D-01
      0.2825394365D+01  0.2347269535D+00
      0.6401216923D+00  0.8137573261D+00
 S   1 1.00       0.000000000000
      0.1612777588D+00  0.1000000000D+01
 ****
     25 0
 S   6 1.00       0.000000000000
      0.3047524880D+04  0.1834737132D-02
      0.4573695180D+03  0.1403732281D-01
      0.1039486850D+03  0.6884262226D-01
      0.2921015530D+02  0.2321844432D+00
      0.9286662960D+01  0.4679413484D+00
      0.3163926960D+01  0.3623119853D+00
 SP   3 1.00       0.000000000000
      0.7868272350D+01 -0.1193324198D+00  0.6899906659D-01
      0.1881288540D+01 -0.1608541517D+00  0.3164239610D+00
      0.5442492580D+00  0.1143456438D+01  0.7443082909D+00
 SP   1 1.00       0.000000000000
      0.1687144782D+00  0.1000000000D+01  0.1000000000D+01
 D   1 1.00       0.000000000000
      0.8000000000D+00  0.1000000000D+01
 ****
     26 0
 S   3 1.00       0.000000000000
      0.1873113696D+02  0.3349460434D-01
      0.2825394365D+01  0.2347269535D+00
      0.6401216923D+00  0.8137573261D+00
 S   1 1.00       0.000000000000
      0.1612777588D+00  0.1000000000D+01
 ****
     27 0
 S   3 1.00       0.000000000000
      0.1873113696D+02  0.3349460434D-01
      0.2825394365D+01  0.2347269535D+00
      0.6401216923D+00  0.8137573261D+00
 S   1 1.00       0.000000000000
      0.1612777588D+00  0.1000000000D+01
 ****
     28 0
 S   6 1.00       0.000000000000
      0.3047524880D+04  0.1834737132D-02
      0.4573695180D+03  0.1403732281D-01
      0.1039486850D+03  0.6884262226D-01
      0.2921015530D+02  0.2321844432D+00
      0.9286662960D+01  0.4679413484D+00
      0.3163926960D+01  0.3623119853D+00
 SP   3 1.00       0.000000000000
      0.7868272350D+01 -0.1193324198D+00  0.6899906659D-01
      0.1881288540D+01 -0.1608541517D+00  0.3164239610D+00
      0.5442492580D+00  0.1143456438D+01  0.7443082909D+00
 SP   1 1.00       0.000000000000
      0.1687144782D+00  0.1000000000D+01  0.1000000000D+01
 D   1 1.00       0.000000000000
      0.8000000000D+00  0.1000000000D+01
 ****
     29 0
 S   6 1.00       0.000000000000
      0.3047524880D+04  0.1834737132D-02
      0.4573695180D+03  0.1403732281D-01
      0.1039486850D+03  0.6884262226D-01
      0.2921015530D+02  0.2321844432D+00
      0.9286662960D+01  0.4679413484D+00
      0.3163926960D+01  0.3623119853D+00
 SP   3 1.00       0.000000000000
      0.7868272350D+01 -0.1193324198D+00  0.6899906659D-01
      0.1881288540D+01 -0.1608541517D+00  0.3164239610D+00
      0.5442492580D+00  0.1143456438D+01  0.7443082909D+00
 SP   1 1.00       0.000000000000
      0.1687144782D+00  0.1000000000D+01  0.1000000000D+01
 D   1 1.00       0.000000000000
      0.8000000000D+00  0.1000000000D+01
 ****
     30 0
 S   3 1.00       0.000000000000
      0.1873113696D+02  0.3349460434D-01
      0.2825394365D+01  0.2347269535D+00
      0.6401216923D+00  0.8137573261D+00
 S   1 1.00       0.000000000000
      0.1612777588D+00  0.1000000000D+01
 ****
     31 0
 S   6 1.00       0.000000000000
      0.3047524880D+04  0.1834737132D-02
      0.4573695180D+03  0.1403732281D-01
      0.1039486850D+03  0.6884262226D-01
      0.2921015530D+02  0.2321844432D+00
      0.9286662960D+01  0.4679413484D+00
      0.3163926960D+01  0.3623119853D+00
 SP   3 1.00       0.000000000000
      0.7868272350D+01 -0.1193324198D+00  0.6899906659D-01
      0.1881288540D+01 -0.1608541517D+00  0.3164239610D+00
      0.5442492580D+00  0.1143456438D+01  0.7443082909D+00
 SP   1 1.00       0.000000000000
      0.1687144782D+00  0.1000000000D+01  0.1000000000D+01
 D   1 1.00       0.000000000000
      0.8000000000D+00  0.1000000000D+01
 ****
     32 0
 S   3 1.00       0.000000000000
      0.1873113696D+02  0.3349460434D-01
      0.2825394365D+01  0.2347269535D+00
      0.6401216923D+00  0.8137573261D+00
 S   1 1.00       0.000000000000
      0.1612777588D+00  0.1000000000D+01
 ****
     33 0
 S   3 1.00       0.000000000000
      0.1873113696D+02  0.3349460434D-01
      0.2825394365D+01  0.2347269535D+00
      0.6401216923D+00  0.8137573261D+00
 S   1 1.00       0.000000000000
      0.1612777588D+00  0.1000000000D+01
 ****
     34 0
 S   6 1.00       0.000000000000
      0.3047524880D+04  0.1834737132D-02
      0.4573695180D+03  0.1403732281D-01
      0.1039486850D+03  0.6884262226D-01
      0.2921015530D+02  0.2321844432D+00
      0.9286662960D+01  0.4679413484D+00
      0.3163926960D+01  0.3623119853D+00
 SP   3 1.00       0.000000000000
      0.7868272350D+01 -0.1193324198D+00  0.6899906659D-01
      0.1881288540D+01 -0.1608541517D+00  0.3164239610D+00
      0.5442492580D+00  0.1143456438D+01  0.7443082909D+00
 SP   1 1.00       0.000000000000
      0.1687144782D+00  0.1000000000D+01  0.1000000000D+01
 D   1 1.00       0.000000000000
      0.8000000000D+00  0.1000000000D+01
 ****
     35 0
 S   3 1.00       0.000000000000
      0.1873113696D+02  0.3349460434D-01
      0.2825394365D+01  0.2347269535D+00
      0.6401216923D+00  0.8137573261D+00
 S   1 1.00       0.000000000000
      0.1612777588D+00  0.1000000000D+01
 ****
     36 0
 S   3 1.00       0.000000000000
      0.1873113696D+02  0.3349460434D-01
      0.2825394365D+01  0.2347269535D+00
      0.6401216923D+00  0.8137573261D+00
 S   1 1.00       0.000000000000
      0.1612777588D+00  0.1000000000D+01
 ****
     37 0
 S   6 1.00       0.000000000000
      0.3047524880D+04  0.1834737132D-02
      0.4573695180D+03  0.1403732281D-01
      0.1039486850D+03  0.6884262226D-01
      0.2921015530D+02  0.2321844432D+00
      0.9286662960D+01  0.4679413484D+00
      0.3163926960D+01  0.3623119853D+00
 SP   3 1.00       0.000000000000
      0.7868272350D+01 -0.1193324198D+00  0.6899906659D-01
      0.1881288540D+01 -0.1608541517D+00  0.3164239610D+00
      0.5442492580D+00  0.1143456438D+01  0.7443082909D+00
 SP   1 1.00       0.000000000000
      0.1687144782D+00  0.1000000000D+01  0.1000000000D+01
 D   1 1.00       0.000000000000
      0.8000000000D+00  0.1000000000D+01
 ****
     38 0
 S   3 1.00       0.000000000000
      0.1873113696D+02  0.3349460434D-01
      0.2825394365D+01  0.2347269535D+00
      0.6401216923D+00  0.8137573261D+00
 S   1 1.00       0.000000000000
      0.1612777588D+00  0.1000000000D+01
 ****
     39 0
 S   6 1.00       0.000000000000
      0.3047524880D+04  0.1834737132D-02
      0.4573695180D+03  0.1403732281D-01
      0.1039486850D+03  0.6884262226D-01
      0.2921015530D+02  0.2321844432D+00
      0.9286662960D+01  0.4679413484D+00
      0.3163926960D+01  0.3623119853D+00
 SP   3 1.00       0.000000000000
      0.7868272350D+01 -0.1193324198D+00  0.6899906659D-01
      0.1881288540D+01 -0.1608541517D+00  0.3164239610D+00
      0.5442492580D+00  0.1143456438D+01  0.7443082909D+00
 SP   1 1.00       0.000000000000
      0.1687144782D+00  0.1000000000D+01  0.1000000000D+01
 D   1 1.00       0.000000000000
      0.8000000000D+00  0.1000000000D+01
 ****
     40 0
 S   3 1.00       0.000000000000
      0.1873113696D+02  0.3349460434D-01
      0.2825394365D+01  0.2347269535D+00
      0.6401216923D+00  0.8137573261D+00
 S   1 1.00       0.000000000000
      0.1612777588D+00  0.1000000000D+01
 ****
     41 0
 S   3 1.00       0.000000000000
      0.1873113696D+02  0.3349460434D-01
      0.2825394365D+01  0.2347269535D+00
      0.6401216923D+00  0.8137573261D+00
 S   1 1.00       0.000000000000
      0.1612777588D+00  0.1000000000D+01
 ****
     42 0
 S   3 1.00       0.000000000000
      0.1873113696D+02  0.3349460434D-01
      0.2825394365D+01  0.2347269535D+00
      0.6401216923D+00  0.8137573261D+00
 S   1 1.00       0.000000000000
      0.1612777588D+00  0.1000000000D+01
 ****
     43 0
 S   6 1.00       0.000000000000
      0.3047524880D+04  0.1834737132D-02
      0.4573695180D+03  0.1403732281D-01
      0.1039486850D+03  0.6884262226D-01
      0.2921015530D+02  0.2321844432D+00
      0.9286662960D+01  0.4679413484D+00
      0.3163926960D+01  0.3623119853D+00
 SP   3 1.00       0.000000000000
      0.7868272350D+01 -0.1193324198D+00  0.6899906659D-01
      0.1881288540D+01 -0.1608541517D+00  0.3164239610D+00
      0.5442492580D+00  0.1143456438D+01  0.7443082909D+00
 SP   1 1.00       0.000000000000
      0.1687144782D+00  0.1000000000D+01  0.1000000000D+01
 D   1 1.00       0.000000000000
      0.8000000000D+00  0.1000000000D+01
 ****
     44 0
 S   3 1.00       0.000000000000
      0.1873113696D+02  0.3349460434D-01
      0.2825394365D+01  0.2347269535D+00
      0.6401216923D+00  0.8137573261D+00
 S   1 1.00       0.000000000000
      0.1612777588D+00  0.1000000000D+01
 ****
     45 0
 S   6 1.00       0.000000000000
      0.3047524880D+04  0.1834737132D-02
      0.4573695180D+03  0.1403732281D-01
      0.1039486850D+03  0.6884262226D-01
      0.2921015530D+02  0.2321844432D+00
      0.9286662960D+01  0.4679413484D+00
      0.3163926960D+01  0.3623119853D+00
 SP   3 1.00       0.000000000000
      0.7868272350D+01 -0.1193324198D+00  0.6899906659D-01
      0.1881288540D+01 -0.1608541517D+00  0.3164239610D+00
      0.5442492580D+00  0.1143456438D+01  0.7443082909D+00
 SP   1 1.00       0.000000000000
      0.1687144782D+00  0.1000000000D+01  0.1000000000D+01
 D   1 1.00       0.000000000000
      0.8000000000D+00  0.1000000000D+01
 ****
     46 0
 S   3 1.00       0.000000000000
      0.1873113696D+02  0.3349460434D-01
      0.2825394365D+01  0.2347269535D+00
      0.6401216923D+00  0.8137573261D+00
 S   1 1.00       0.000000000000
      0.1612777588D+00  0.1000000000D+01
 ****
     47 0
 S   3 1.00       0.000000000000
      0.1873113696D+02  0.3349460434D-01
      0.2825394365D+01  0.2347269535D+00
      0.6401216923D+00  0.8137573261D+00
 S   1 1.00       0.000000000000
      0.1612777588D+00  0.1000000000D+01
 ****
     48 0
 S   3 1.00       0.000000000000
      0.1873113696D+02  0.3349460434D-01
      0.2825394365D+01  0.2347269535D+00
      0.6401216923D+00  0.8137573261D+00
 S   1 1.00       0.000000000000
      0.1612777588D+00  0.1000000000D+01
 ****
     49 0
 S   6 1.00       0.000000000000
      0.3047524880D+04  0.1834737132D-02
      0.4573695180D+03  0.1403732281D-01
      0.1039486850D+03  0.6884262226D-01
      0.2921015530D+02  0.2321844432D+00
      0.9286662960D+01  0.4679413484D+00
      0.3163926960D+01  0.3623119853D+00
 SP   3 1.00       0.000000000000
      0.7868272350D+01 -0.1193324198D+00  0.6899906659D-01
      0.1881288540D+01 -0.1608541517D+00  0.3164239610D+00
      0.5442492580D+00  0.1143456438D+01  0.7443082909D+00
 SP   1 1.00       0.000000000000
      0.1687144782D+00  0.1000000000D+01  0.1000000000D+01
 D   1 1.00       0.000000000000
      0.8000000000D+00  0.1000000000D+01
 ****
     50 0
 S   3 1.00       0.000000000000
      0.1873113696D+02  0.3349460434D-01
      0.2825394365D+01  0.2347269535D+00
      0.6401216923D+00  0.8137573261D+00
 S   1 1.00       0.000000000000
      0.1612777588D+00  0.1000000000D+01
 ****
     51 0
 S   3 1.00       0.000000000000
      0.1873113696D+02  0.3349460434D-01
      0.2825394365D+01  0.2347269535D+00
      0.6401216923D+00  0.8137573261D+00
 S   1 1.00       0.000000000000
      0.1612777588D+00  0.1000000000D+01
 ****
     52 0
 S   3 1.00       0.000000000000
      0.1873113696D+02  0.3349460434D-01
      0.2825394365D+01  0.2347269535D+00
      0.6401216923D+00  0.8137573261D+00
 S   1 1.00       0.000000000000
      0.1612777588D+00  0.1000000000D+01
 ****
     53 0
 S   6 1.00       0.000000000000
      0.5484671660D+04  0.1831074430D-02
      0.8252349460D+03  0.1395017220D-01
      0.1880469580D+03  0.6844507810D-01
      0.5296450000D+02  0.2327143360D+00
      0.1689757040D+02  0.4701928980D+00
      0.5799635340D+01  0.3585208530D+00
 SP   3 1.00       0.000000000000
      0.1553961625D+02 -0.1107775495D+00  0.7087426823D-01
      0.3599933586D+01 -0.1480262627D+00  0.3397528391D+00
      0.1013761750D+01  0.1130767015D+01  0.7271585773D+00
 SP   1 1.00       0.000000000000
      0.2700058226D+00  0.1000000000D+01  0.1000000000D+01
 D   1 1.00       0.000000000000
      0.8000000000D+00  0.1000000000D+01
 ****
     54 0
 S   6 1.00       0.000000000000
      0.5484671660D+04  0.1831074430D-02
      0.8252349460D+03  0.1395017220D-01
      0.1880469580D+03  0.6844507810D-01
      0.5296450000D+02  0.2327143360D+00
      0.1689757040D+02  0.4701928980D+00
      0.5799635340D+01  0.3585208530D+00
 SP   3 1.00       0.000000000000
      0.1553961625D+02 -0.1107775495D+00  0.7087426823D-01
      0.3599933586D+01 -0.1480262627D+00  0.3397528391D+00
      0.1013761750D+01  0.1130767015D+01  0.7271585773D+00
 SP   1 1.00       0.000000000000
      0.2700058226D+00  0.1000000000D+01  0.1000000000D+01
 D   1 1.00       0.000000000000
      0.8000000000D+00  0.1000000000D+01
 ****
     55 0
 S   3 1.00       0.000000000000
      0.1873113696D+02  0.3349460434D-01
      0.2825394365D+01  0.2347269535D+00
      0.6401216923D+00  0.8137573261D+00
 S   1 1.00       0.000000000000
      0.1612777588D+00  0.1000000000D+01
 ****
     56 0
 S   6 1.00       0.000000000000
      0.5484671660D+04  0.1831074430D-02
      0.8252349460D+03  0.1395017220D-01
      0.1880469580D+03  0.6844507810D-01
      0.5296450000D+02  0.2327143360D+00
      0.1689757040D+02  0.4701928980D+00
      0.5799635340D+01  0.3585208530D+00
 SP   3 1.00       0.000000000000
      0.1553961625D+02 -0.1107775495D+00  0.7087426823D-01
      0.3599933586D+01 -0.1480262627D+00  0.3397528391D+00
      0.1013761750D+01  0.1130767015D+01  0.7271585773D+00
 SP   1 1.00       0.000000000000
      0.2700058226D+00  0.1000000000D+01  0.1000000000D+01
 D   1 1.00       0.000000000000
      0.8000000000D+00  0.1000000000D+01
 ****
     57 0
 S   3 1.00       0.000000000000
      0.1873113696D+02  0.3349460434D-01
      0.2825394365D+01  0.2347269535D+00
      0.6401216923D+00  0.8137573261D+00
 S   1 1.00       0.000000000000
      0.1612777588D+00  0.1000000000D+01
 ****
     58 0
 S   6 1.00       0.000000000000
      0.3047524880D+04  0.1834737132D-02
      0.4573695180D+03  0.1403732281D-01
      0.1039486850D+03  0.6884262226D-01
      0.2921015530D+02  0.2321844432D+00
      0.9286662960D+01  0.4679413484D+00
      0.3163926960D+01  0.3623119853D+00
 SP   3 1.00       0.000000000000
      0.7868272350D+01 -0.1193324198D+00  0.6899906659D-01
      0.1881288540D+01 -0.1608541517D+00  0.3164239610D+00
      0.5442492580D+00  0.1143456438D+01  0.7443082909D+00
 SP   1 1.00       0.000000000000
      0.1687144782D+00  0.1000000000D+01  0.1000000000D+01
 D   1 1.00       0.000000000000
      0.8000000000D+00  0.1000000000D+01
 ****
     59 0
 S   3 1.00       0.000000000000
      0.1873113696D+02  0.3349460434D-01
      0.2825394365D+01  0.2347269535D+00
      0.6401216923D+00  0.8137573261D+00
 S   1 1.00       0.000000000000
      0.1612777588D+00  0.1000000000D+01
 ****
     60 0
 S   3 1.00       0.000000000000
      0.1873113696D+02  0.3349460434D-01
      0.2825394365D+01  0.2347269535D+00
      0.6401216923D+00  0.8137573261D+00
 S   1 1.00       0.000000000000
      0.1612777588D+00  0.1000000000D+01
 ****
     61 0
 S   6 1.00       0.000000000000
      0.3047524880D+04  0.1834737132D-02
      0.4573695180D+03  0.1403732281D-01
      0.1039486850D+03  0.6884262226D-01
      0.2921015530D+02  0.2321844432D+00
      0.9286662960D+01  0.4679413484D+00
      0.3163926960D+01  0.3623119853D+00
 SP   3 1.00       0.000000000000
      0.7868272350D+01 -0.1193324198D+00  0.6899906659D-01
      0.1881288540D+01 -0.1608541517D+00  0.3164239610D+00
      0.5442492580D+00  0.1143456438D+01  0.7443082909D+00
 SP   1 1.00       0.000000000000
      0.1687144782D+00  0.1000000000D+01  0.1000000000D+01
 D   1 1.00       0.000000000000
      0.8000000000D+00  0.1000000000D+01
 ****
     62 0
 S   3 1.00       0.000000000000
      0.1873113696D+02  0.3349460434D-01
      0.2825394365D+01  0.2347269535D+00
      0.6401216923D+00  0.8137573261D+00
 S   1 1.00       0.000000000000
      0.1612777588D+00  0.1000000000D+01
 ****
     63 0
 S   3 1.00       0.000000000000
      0.1873113696D+02  0.3349460434D-01
      0.2825394365D+01  0.2347269535D+00
      0.6401216923D+00  0.8137573261D+00
 S   1 1.00       0.000000000000
      0.1612777588D+00  0.1000000000D+01
 ****
     64 0
 S   6 1.00       0.000000000000
      0.3047524880D+04  0.1834737132D-02
      0.4573695180D+03  0.1403732281D-01
      0.1039486850D+03  0.6884262226D-01
      0.2921015530D+02  0.2321844432D+00
      0.9286662960D+01  0.4679413484D+00
      0.3163926960D+01  0.3623119853D+00
 SP   3 1.00       0.000000000000
      0.7868272350D+01 -0.1193324198D+00  0.6899906659D-01
      0.1881288540D+01 -0.1608541517D+00  0.3164239610D+00
      0.5442492580D+00  0.1143456438D+01  0.7443082909D+00
 SP   1 1.00       0.000000000000
      0.1687144782D+00  0.1000000000D+01  0.1000000000D+01
 D   1 1.00       0.000000000000
      0.8000000000D+00  0.1000000000D+01
 ****
     65 0
 S   3 1.00       0.000000000000
      0.1873113696D+02  0.3349460434D-01
      0.2825394365D+01  0.2347269535D+00
      0.6401216923D+00  0.8137573261D+00
 S   1 1.00       0.000000000000
      0.1612777588D+00  0.1000000000D+01
 ****
     66 0
 S   3 1.00       0.000000000000
      0.1873113696D+02  0.3349460434D-01
      0.2825394365D+01  0.2347269535D+00
      0.6401216923D+00  0.8137573261D+00
 S   1 1.00       0.000000000000
      0.1612777588D+00  0.1000000000D+01
 ****
     67 0
 S   6 1.00       0.000000000000
      0.3047524880D+04  0.1834737132D-02
      0.4573695180D+03  0.1403732281D-01
      0.1039486850D+03  0.6884262226D-01
      0.2921015530D+02  0.2321844432D+00
      0.9286662960D+01  0.4679413484D+00
      0.3163926960D+01  0.3623119853D+00
 SP   3 1.00       0.000000000000
      0.7868272350D+01 -0.1193324198D+00  0.6899906659D-01
      0.1881288540D+01 -0.1608541517D+00  0.3164239610D+00
      0.5442492580D+00  0.1143456438D+01  0.7443082909D+00
 SP   1 1.00       0.000000000000
      0.1687144782D+00  0.1000000000D+01  0.1000000000D+01
 D   1 1.00       0.000000000000
      0.8000000000D+00  0.1000000000D+01
 ****
     68 0
 S   3 1.00       0.000000000000
      0.1873113696D+02  0.3349460434D-01
      0.2825394365D+01  0.2347269535D+00
      0.6401216923D+00  0.8137573261D+00
 S   1 1.00       0.000000000000
      0.1612777588D+00  0.1000000000D+01
 ****
     69 0
 S   6 1.00       0.000000000000
      0.3047524880D+04  0.1834737132D-02
      0.4573695180D+03  0.1403732281D-01
      0.1039486850D+03  0.6884262226D-01
      0.2921015530D+02  0.2321844432D+00
      0.9286662960D+01  0.4679413484D+00
      0.3163926960D+01  0.3623119853D+00
 SP   3 1.00       0.000000000000
      0.7868272350D+01 -0.1193324198D+00  0.6899906659D-01
      0.1881288540D+01 -0.1608541517D+00  0.3164239610D+00
      0.5442492580D+00  0.1143456438D+01  0.7443082909D+00
 SP   1 1.00       0.000000000000
      0.1687144782D+00  0.1000000000D+01  0.1000000000D+01
 D   1 1.00       0.000000000000
      0.8000000000D+00  0.1000000000D+01
 ****
     70 0
 S   3 1.00       0.000000000000
      0.1873113696D+02  0.3349460434D-01
      0.2825394365D+01  0.2347269535D+00
      0.6401216923D+00  0.8137573261D+00
 S   1 1.00       0.000000000000
      0.1612777588D+00  0.1000000000D+01
 ****
     71 0
 S   3 1.00       0.000000000000
      0.1873113696D+02  0.3349460434D-01
      0.2825394365D+01  0.2347269535D+00
      0.6401216923D+00  0.8137573261D+00
 S   1 1.00       0.000000000000
      0.1612777588D+00  0.1000000000D+01
 ****
     72 0
 S   3 1.00       0.000000000000
      0.1873113696D+02  0.3349460434D-01
      0.2825394365D+01  0.2347269535D+00
      0.6401216923D+00  0.8137573261D+00
 S   1 1.00       0.000000000000
      0.1612777588D+00  0.1000000000D+01
 ****
     73 0
 S   6 1.00       0.000000000000
      0.3047524880D+04  0.1834737132D-02
      0.4573695180D+03  0.1403732281D-01
      0.1039486850D+03  0.6884262226D-01
      0.2921015530D+02  0.2321844432D+00
      0.9286662960D+01  0.4679413484D+00
      0.3163926960D+01  0.3623119853D+00
 SP   3 1.00       0.000000000000
      0.7868272350D+01 -0.1193324198D+00  0.6899906659D-01
      0.1881288540D+01 -0.1608541517D+00  0.3164239610D+00
      0.5442492580D+00  0.1143456438D+01  0.7443082909D+00
 SP   1 1.00       0.000000000000
      0.1687144782D+00  0.1000000000D+01  0.1000000000D+01
 D   1 1.00       0.000000000000
      0.8000000000D+00  0.1000000000D+01
 ****
     74 0
 S   3 1.00       0.000000000000
      0.1873113696D+02  0.3349460434D-01
      0.2825394365D+01  0.2347269535D+00
      0.6401216923D+00  0.8137573261D+00
 S   1 1.00       0.000000000000
      0.1612777588D+00  0.1000000000D+01
 ****
     75 0
 S   3 1.00       0.000000000000
      0.1873113696D+02  0.3349460434D-01
      0.2825394365D+01  0.2347269535D+00
      0.6401216923D+00  0.8137573261D+00
 S   1 1.00       0.000000000000
      0.1612777588D+00  0.1000000000D+01
 ****
     76 0
 S   3 1.00       0.000000000000
      0.1873113696D+02  0.3349460434D-01
      0.2825394365D+01  0.2347269535D+00
      0.6401216923D+00  0.8137573261D+00
 S   1 1.00       0.000000000000
      0.1612777588D+00  0.1000000000D+01
 ****

 AO basis set (Overlap normalization):
 Atom C1       Shell     1 S   6     bf    1 -     1          1.886842184040         -1.693460442841         -3.193517374837
      0.3047524880D+04  0.1834737132D-02
      0.4573695180D+03  0.1403732281D-01
      0.1039486850D+03  0.6884262226D-01
      0.2921015530D+02  0.2321844432D+00
      0.9286662960D+01  0.4679413484D+00
      0.3163926960D+01  0.3623119853D+00
 Atom C1       Shell     2 SP   3    bf    2 -     5          1.886842184040         -1.693460442841         -3.193517374837
      0.7868272350D+01 -0.1193324198D+00  0.6899906659D-01
      0.1881288540D+01 -0.1608541517D+00  0.3164239610D+00
      0.5442492580D+00  0.1143456438D+01  0.7443082909D+00
 Atom C1       Shell     3 SP   1    bf    6 -     9          1.886842184040         -1.693460442841         -3.193517374837
      0.1687144782D+00  0.1000000000D+01  0.1000000000D+01
 Atom C1       Shell     4 D   1     bf   10 -    15          1.886842184040         -1.693460442841         -3.193517374837
      0.8000000000D+00  0.1000000000D+01
 Atom H2       Shell     5 S   3     bf   16 -    16          2.182354552036          0.133824886731         -4.126360290191
      0.1873113696D+02  0.3349460434D-01
      0.2825394365D+01  0.2347269535D+00
      0.6401216923D+00  0.8137573261D+00
 Atom H2       Shell     6 S   1     bf   17 -    17          2.182354552036          0.133824886731         -4.126360290191
      0.1612777588D+00  0.1000000000D+01
 Atom C3       Shell     7 S   6     bf   18 -    18          4.176739670798         -3.398917226221         -3.708383086318
      0.3047524880D+04  0.1834737132D-02
      0.4573695180D+03  0.1403732281D-01
      0.1039486850D+03  0.6884262226D-01
      0.2921015530D+02  0.2321844432D+00
      0.9286662960D+01  0.4679413484D+00
      0.3163926960D+01  0.3623119853D+00
 Atom C3       Shell     8 SP   3    bf   19 -    22          4.176739670798         -3.398917226221         -3.708383086318
      0.7868272350D+01 -0.1193324198D+00  0.6899906659D-01
      0.1881288540D+01 -0.1608541517D+00  0.3164239610D+00
      0.5442492580D+00  0.1143456438D+01  0.7443082909D+00
 Atom C3       Shell     9 SP   1    bf   23 -    26          4.176739670798         -3.398917226221         -3.708383086318
      0.1687144782D+00  0.1000000000D+01  0.1000000000D+01
 Atom C3       Shell    10 D   1     bf   27 -    32          4.176739670798         -3.398917226221         -3.708383086318
      0.8000000000D+00  0.1000000000D+01
 Atom H4       Shell    11 S   3     bf   33 -    33          4.443212881872         -3.617568989981         -5.747927557395
      0.1873113696D+02  0.3349460434D-01
      0.2825394365D+01  0.2347269535D+00
      0.6401216923D+00  0.8137573261D+00
 Atom H4       Shell    12 S   1     bf   34 -    34          4.443212881872         -3.617568989981         -5.747927557395
      0.1612777588D+00  0.1000000000D+01
 Atom H5       Shell    13 S   3     bf   35 -    35          3.731526505575         -5.289910325992         -2.957258711443
      0.1873113696D+02  0.3349460434D-01
      0.2825394365D+01  0.2347269535D+00
      0.6401216923D+00  0.8137573261D+00
 Atom H5       Shell    14 S   1     bf   36 -    36          3.731526505575         -5.289910325992         -2.957258711443
      0.1612777588D+00  0.1000000000D+01
 Atom C6       Shell    15 S   6     bf   37 -    37          6.583671959877         -2.431938978304         -2.488884004489
      0.3047524880D+04  0.1834737132D-02
      0.4573695180D+03  0.1403732281D-01
      0.1039486850D+03  0.6884262226D-01
      0.2921015530D+02  0.2321844432D+00
      0.9286662960D+01  0.4679413484D+00
      0.3163926960D+01  0.3623119853D+00
 Atom C6       Shell    16 SP   3    bf   38 -    41          6.583671959877         -2.431938978304         -2.488884004489
      0.7868272350D+01 -0.1193324198D+00  0.6899906659D-01
      0.1881288540D+01 -0.1608541517D+00  0.3164239610D+00
      0.5442492580D+00  0.1143456438D+01  0.7443082909D+00
 Atom C6       Shell    17 SP   1    bf   42 -    45          6.583671959877         -2.431938978304         -2.488884004489
      0.1687144782D+00  0.1000000000D+01  0.1000000000D+01
 Atom C6       Shell    18 D   1     bf   46 -    51          6.583671959877         -2.431938978304         -2.488884004489
      0.8000000000D+00  0.1000000000D+01
 Atom C7       Shell    19 S   6     bf   52 -    52          6.468400196449         -1.734062796176          0.319893482282
      0.3047524880D+04  0.1834737132D-02
      0.4573695180D+03  0.1403732281D-01
      0.1039486850D+03  0.6884262226D-01
      0.2921015530D+02  0.2321844432D+00
      0.9286662960D+01  0.4679413484D+00
      0.3163926960D+01  0.3623119853D+00
 Atom C7       Shell    20 SP   3    bf   53 -    56          6.468400196449         -1.734062796176          0.319893482282
      0.7868272350D+01 -0.1193324198D+00  0.6899906659D-01
      0.1881288540D+01 -0.1608541517D+00  0.3164239610D+00
      0.5442492580D+00  0.1143456438D+01  0.7443082909D+00
 Atom C7       Shell    21 SP   1    bf   57 -    60          6.468400196449         -1.734062796176          0.319893482282
      0.1687144782D+00  0.1000000000D+01  0.1000000000D+01
 Atom C7       Shell    22 D   1     bf   61 -    66          6.468400196449         -1.734062796176          0.319893482282
      0.8000000000D+00  0.1000000000D+01
 Atom C8       Shell    23 S   6     bf   67 -    67          4.020117694918         -0.159709996251          0.794441300902
      0.3047524880D+04  0.1834737132D-02
      0.4573695180D+03  0.1403732281D-01
      0.1039486850D+03  0.6884262226D-01
      0.2921015530D+02  0.2321844432D+00
      0.9286662960D+01  0.4679413484D+00
      0.3163926960D+01  0.3623119853D+00
 Atom C8       Shell    24 SP   3    bf   68 -    71          4.020117694918         -0.159709996251          0.794441300902
      0.7868272350D+01 -0.1193324198D+00  0.6899906659D-01
      0.1881288540D+01 -0.1608541517D+00  0.3164239610D+00
      0.5442492580D+00  0.1143456438D+01  0.7443082909D+00
 Atom C8       Shell    25 SP   1    bf   72 -    75          4.020117694918         -0.159709996251          0.794441300902
      0.1687144782D+00  0.1000000000D+01  0.1000000000D+01
 Atom C8       Shell    26 D   1     bf   76 -    81          4.020117694918         -0.159709996251          0.794441300902
      0.8000000000D+00  0.1000000000D+01
 Atom H9       Shell    27 S   3     bf   82 -    82          4.302464813378          1.738066162091          0.000000000000
      0.1873113696D+02  0.3349460434D-01
      0.2825394365D+01  0.2347269535D+00
      0.6401216923D+00  0.8137573261D+00
 Atom H9       Shell    28 S   1     bf   83 -    83          4.302464813378          1.738066162091          0.000000000000
      0.1612777588D+00  0.1000000000D+01
 Atom H10      Shell    29 S   3     bf   84 -    84          3.750218164701          0.092522238685          2.830216354160
      0.1873113696D+02  0.3349460434D-01
      0.2825394365D+01  0.2347269535D+00
      0.6401216923D+00  0.8137573261D+00
 Atom H10      Shell    30 S   1     bf   85 -    85          3.750218164701          0.092522238685          2.830216354160
      0.1612777588D+00  0.1000000000D+01
 Atom C11      Shell    31 S   6     bf   86 -    86          1.595898965963         -1.272080843757         -0.352062668187
      0.3047524880D+04  0.1834737132D-02
      0.4573695180D+03  0.1403732281D-01
      0.1039486850D+03  0.6884262226D-01
      0.2921015530D+02  0.2321844432D+00
      0.9286662960D+01  0.4679413484D+00
      0.3163926960D+01  0.3623119853D+00
 Atom C11      Shell    32 SP   3    bf   87 -    90          1.595898965963         -1.272080843757         -0.352062668187
      0.7868272350D+01 -0.1193324198D+00  0.6899906659D-01
      0.1881288540D+01 -0.1608541517D+00  0.3164239610D+00
      0.5442492580D+00  0.1143456438D+01  0.7443082909D+00
 Atom C11      Shell    33 SP   1    bf   91 -    94          1.595898965963         -1.272080843757         -0.352062668187
      0.1687144782D+00  0.1000000000D+01  0.1000000000D+01
 Atom C11      Shell    34 D   1     bf   95 -   100          1.595898965963         -1.272080843757         -0.352062668187
      0.8000000000D+00  0.1000000000D+01
 Atom H12      Shell    35 S   3     bf  101 -   101          1.125418537179         -3.082348131255          0.555806911608
      0.1873113696D+02  0.3349460434D-01
      0.2825394365D+01  0.2347269535D+00
      0.6401216923D+00  0.8137573261D+00
 Atom H12      Shell    36 S   1     bf  102 -   102          1.125418537179         -3.082348131255          0.555806911608
      0.1612777588D+00  0.1000000000D+01
 Atom H13      Shell    37 S   3     bf  103 -   103          0.000000000000          0.000000000000          0.000000000000
      0.1873113696D+02  0.3349460434D-01
      0.2825394365D+01  0.2347269535D+00
      0.6401216923D+00  0.8137573261D+00
 Atom H13      Shell    38 S   1     bf  104 -   104          0.000000000000          0.000000000000          0.000000000000
      0.1612777588D+00  0.1000000000D+01
 Atom C14      Shell    39 S   6     bf  105 -   105          8.710084665742         -2.234472405096         -3.849102638844
      0.3047524880D+04  0.1834737132D-02
      0.4573695180D+03  0.1403732281D-01
      0.1039486850D+03  0.6884262226D-01
      0.2921015530D+02  0.2321844432D+00
      0.9286662960D+01  0.4679413484D+00
      0.3163926960D+01  0.3623119853D+00
 Atom C14      Shell    40 SP   3    bf  106 -   109          8.710084665742         -2.234472405096         -3.849102638844
      0.7868272350D+01 -0.1193324198D+00  0.6899906659D-01
      0.1881288540D+01 -0.1608541517D+00  0.3164239610D+00
      0.5442492580D+00  0.1143456438D+01  0.7443082909D+00
 Atom C14      Shell    41 SP   1    bf  110 -   113          8.710084665742         -2.234472405096         -3.849102638844
      0.1687144782D+00  0.1000000000D+01  0.1000000000D+01
 Atom C14      Shell    42 D   1     bf  114 -   119          8.710084665742         -2.234472405096         -3.849102638844
      0.8000000000D+00  0.1000000000D+01
 Atom H15      Shell    43 S   3     bf  120 -   120          8.680362089364         -2.706577374744         -5.854917841710
      0.1873113696D+02  0.3349460434D-01
      0.2825394365D+01  0.2347269535D+00
      0.6401216923D+00  0.8137573261D+00
 Atom H15      Shell    44 S   1     bf  121 -   121          8.680362089364         -2.706577374744         -5.854917841710
      0.1612777588D+00  0.1000000000D+01
 Atom C16      Shell    45 S   6     bf  122 -   122         11.236728081778         -1.423075555364         -2.850688626631
      0.3047524880D+04  0.1834737132D-02
      0.4573695180D+03  0.1403732281D-01
      0.1039486850D+03  0.6884262226D-01
      0.2921015530D+02  0.2321844432D+00
      0.9286662960D+01  0.4679413484D+00
      0.3163926960D+01  0.3623119853D+00
 Atom C16      Shell    46 SP   3    bf  123 -   126         11.236728081778         -1.423075555364         -2.850688626631
      0.7868272350D+01 -0.1193324198D+00  0.6899906659D-01
      0.1881288540D+01 -0.1608541517D+00  0.3164239610D+00
      0.5442492580D+00  0.1143456438D+01  0.7443082909D+00
 Atom C16      Shell    47 SP   1    bf  127 -   130         11.236728081778         -1.423075555364         -2.850688626631
      0.1687144782D+00  0.1000000000D+01  0.1000000000D+01
 Atom C16      Shell    48 D   1     bf  131 -   136         11.236728081778         -1.423075555364         -2.850688626631
      0.8000000000D+00  0.1000000000D+01
 Atom H17      Shell    49 S   3     bf  137 -   137         11.793340848198          0.368466568164         -3.755655076861
      0.1873113696D+02  0.3349460434D-01
      0.2825394365D+01  0.2347269535D+00
      0.6401216923D+00  0.8137573261D+00
 Atom H17      Shell    50 S   1     bf  138 -   138         11.793340848198          0.368466568164         -3.755655076861
      0.1612777588D+00  0.1000000000D+01
 Atom C18      Shell    51 S   6     bf  139 -   139         11.356817569701         -1.142553874554          0.036332233679
      0.3047524880D+04  0.1834737132D-02
      0.4573695180D+03  0.1403732281D-01
      0.1039486850D+03  0.6884262226D-01
      0.2921015530D+02  0.2321844432D+00
      0.9286662960D+01  0.4679413484D+00
      0.3163926960D+01  0.3623119853D+00
 Atom C18      Shell    52 SP   3    bf  140 -   143         11.356817569701         -1.142553874554          0.036332233679
      0.7868272350D+01 -0.1193324198D+00  0.6899906659D-01
      0.1881288540D+01 -0.1608541517D+00  0.3164239610D+00
      0.5442492580D+00  0.1143456438D+01  0.7443082909D+00
 Atom C18      Shell    53 SP   1    bf  144 -   147         11.356817569701         -1.142553874554          0.036332233679
      0.1687144782D+00  0.1000000000D+01  0.1000000000D+01
 Atom C18      Shell    54 D   1     bf  148 -   153         11.356817569701         -1.142553874554          0.036332233679
      0.8000000000D+00  0.1000000000D+01
 Atom H19      Shell    55 S   3     bf  154 -   154         11.654681701869         -3.040737552336          0.806532449002
      0.1873113696D+02  0.3349460434D-01
      0.2825394365D+01  0.2347269535D+00
      0.6401216923D+00  0.8137573261D+00
 Atom H19      Shell    56 S   1     bf  155 -   155         11.654681701869         -3.040737552336          0.806532449002
      0.1612777588D+00  0.1000000000D+01
 Atom C20      Shell    57 S   6     bf  156 -   156          8.813243983857         -0.067016302714          1.035154747990
      0.3047524880D+04  0.1834737132D-02
      0.4573695180D+03  0.1403732281D-01
      0.1039486850D+03  0.6884262226D-01
      0.2921015530D+02  0.2321844432D+00
      0.9286662960D+01  0.4679413484D+00
      0.3163926960D+01  0.3623119853D+00
 Atom C20      Shell    58 SP   3    bf  157 -   160          8.813243983857         -0.067016302714          1.035154747990
      0.7868272350D+01 -0.1193324198D+00  0.6899906659D-01
      0.1881288540D+01 -0.1608541517D+00  0.3164239610D+00
      0.5442492580D+00  0.1143456438D+01  0.7443082909D+00
 Atom C20      Shell    59 SP   1    bf  161 -   164          8.813243983857         -0.067016302714          1.035154747990
      0.1687144782D+00  0.1000000000D+01  0.1000000000D+01
 Atom C20      Shell    60 D   1     bf  165 -   170          8.813243983857         -0.067016302714          1.035154747990
      0.8000000000D+00  0.1000000000D+01
 Atom H21      Shell    61 S   3     bf  171 -   171          8.528886329073          1.744117102963          0.044346316544
      0.1873113696D+02  0.3349460434D-01
      0.2825394365D+01  0.2347269535D+00
      0.6401216923D+00  0.8137573261D+00
 Atom H21      Shell    62 S   1     bf  172 -   172          8.528886329073          1.744117102963          0.044346316544
      0.1612777588D+00  0.1000000000D+01
 Atom C22      Shell    63 S   6     bf  173 -   173          8.965969212170          0.553711337608          3.885075578893
      0.3047524880D+04  0.1834737132D-02
      0.4573695180D+03  0.1403732281D-01
      0.1039486850D+03  0.6884262226D-01
      0.2921015530D+02  0.2321844432D+00
      0.9286662960D+01  0.4679413484D+00
      0.3163926960D+01  0.3623119853D+00
 Atom C22      Shell    64 SP   3    bf  174 -   177          8.965969212170          0.553711337608          3.885075578893
      0.7868272350D+01 -0.1193324198D+00  0.6899906659D-01
      0.1881288540D+01 -0.1608541517D+00  0.3164239610D+00
      0.5442492580D+00  0.1143456438D+01  0.7443082909D+00
 Atom C22      Shell    65 SP   1    bf  178 -   181          8.965969212170          0.553711337608          3.885075578893
      0.1687144782D+00  0.1000000000D+01  0.1000000000D+01
 Atom C22      Shell    66 D   1     bf  182 -   187          8.965969212170          0.553711337608          3.885075578893
      0.8000000000D+00  0.1000000000D+01
 Atom H23      Shell    67 S   3     bf  188 -   188          9.036104810222         -1.201595003863          4.980113933897
      0.1873113696D+02  0.3349460434D-01
      0.2825394365D+01  0.2347269535D+00
      0.6401216923D+00  0.8137573261D+00
 Atom H23      Shell    68 S   1     bf  189 -   189          9.036104810222         -1.201595003863          4.980113933897
      0.1612777588D+00  0.1000000000D+01
 Atom H24      Shell    69 S   3     bf  190 -   190          7.238389348260          1.528290366388          4.477943704934
      0.1873113696D+02  0.3349460434D-01
      0.2825394365D+01  0.2347269535D+00
      0.6401216923D+00  0.8137573261D+00
 Atom H24      Shell    70 S   1     bf  191 -   191          7.238389348260          1.528290366388          4.477943704934
      0.1612777588D+00  0.1000000000D+01
 Atom C25      Shell    71 S   6     bf  192 -   192         11.247963618576          2.206329205128          4.621349616542
      0.3047524880D+04  0.1834737132D-02
      0.4573695180D+03  0.1403732281D-01
      0.1039486850D+03  0.6884262226D-01
      0.2921015530D+02  0.2321844432D+00
      0.9286662960D+01  0.4679413484D+00
      0.3163926960D+01  0.3623119853D+00
 Atom C25      Shell    72 SP   3    bf  193 -   196         11.247963618576          2.206329205128          4.621349616542
      0.7868272350D+01 -0.1193324198D+00  0.6899906659D-01
      0.1881288540D+01 -0.1608541517D+00  0.3164239610D+00
      0.5442492580D+00  0.1143456438D+01  0.7443082909D+00
 Atom C25      Shell    73 SP   1    bf  197 -   200         11.247963618576          2.206329205128          4.621349616542
      0.1687144782D+00  0.1000000000D+01  0.1000000000D+01
 Atom C25      Shell    74 D   1     bf  201 -   206         11.247963618576          2.206329205128          4.621349616542
      0.8000000000D+00  0.1000000000D+01
 Atom H26      Shell    75 S   3     bf  207 -   207         11.048584000015          4.083147147923          3.751561174166
      0.1873113696D+02  0.3349460434D-01
      0.2825394365D+01  0.2347269535D+00
      0.6401216923D+00  0.8137573261D+00
 Atom H26      Shell    76 S   1     bf  208 -   208         11.048584000015          4.083147147923          3.751561174166
      0.1612777588D+00  0.1000000000D+01
 Atom H27      Shell    77 S   3     bf  209 -   209         11.208248756222          2.501664316812          6.667806743608
      0.1873113696D+02  0.3349460434D-01
      0.2825394365D+01  0.2347269535D+00
      0.6401216923D+00  0.8137573261D+00
 Atom H27      Shell    78 S   1     bf  210 -   210         11.208248756222          2.501664316812          6.667806743608
      0.1612777588D+00  0.1000000000D+01
 Atom C28      Shell    79 S   6     bf  211 -   211         13.768081999247          1.035905592874          3.745340271326
      0.3047524880D+04  0.1834737132D-02
      0.4573695180D+03  0.1403732281D-01
      0.1039486850D+03  0.6884262226D-01
      0.2921015530D+02  0.2321844432D+00
      0.9286662960D+01  0.4679413484D+00
      0.3163926960D+01  0.3623119853D+00
 Atom C28      Shell    80 SP   3    bf  212 -   215         13.768081999247          1.035905592874          3.745340271326
      0.7868272350D+01 -0.1193324198D+00  0.6899906659D-01
      0.1881288540D+01 -0.1608541517D+00  0.3164239610D+00
      0.5442492580D+00  0.1143456438D+01  0.7443082909D+00
 Atom C28      Shell    81 SP   1    bf  216 -   219         13.768081999247          1.035905592874          3.745340271326
      0.1687144782D+00  0.1000000000D+01  0.1000000000D+01
 Atom C28      Shell    82 D   1     bf  220 -   225         13.768081999247          1.035905592874          3.745340271326
      0.8000000000D+00  0.1000000000D+01
 Atom C29      Shell    83 S   6     bf  226 -   226         13.535864949826          0.605822973469          0.844716519804
      0.3047524880D+04  0.1834737132D-02
      0.4573695180D+03  0.1403732281D-01
      0.1039486850D+03  0.6884262226D-01
      0.2921015530D+02  0.2321844432D+00
      0.9286662960D+01  0.4679413484D+00
      0.3163926960D+01  0.3623119853D+00
 Atom C29      Shell    84 SP   3    bf  227 -   230         13.535864949826          0.605822973469          0.844716519804
      0.7868272350D+01 -0.1193324198D+00  0.6899906659D-01
      0.1881288540D+01 -0.1608541517D+00  0.3164239610D+00
      0.5442492580D+00  0.1143456438D+01  0.7443082909D+00
 Atom C29      Shell    85 SP   1    bf  231 -   234         13.535864949826          0.605822973469          0.844716519804
      0.1687144782D+00  0.1000000000D+01  0.1000000000D+01
 Atom C29      Shell    86 D   1     bf  235 -   240         13.535864949826          0.605822973469          0.844716519804
      0.8000000000D+00  0.1000000000D+01
 Atom H30      Shell    87 S   3     bf  241 -   241         13.075509522484          2.482540704087          0.055746240619
      0.1873113696D+02  0.3349460434D-01
      0.2825394365D+01  0.2347269535D+00
      0.6401216923D+00  0.8137573261D+00
 Atom H30      Shell    88 S   1     bf  242 -   242         13.075509522484          2.482540704087          0.055746240619
      0.1612777588D+00  0.1000000000D+01
 Atom C31      Shell    89 S   6     bf  243 -   243         16.247781972526          0.000000000000          0.000000000000
      0.3047524880D+04  0.1834737132D-02
      0.4573695180D+03  0.1403732281D-01
      0.1039486850D+03  0.6884262226D-01
      0.2921015530D+02  0.2321844432D+00
      0.9286662960D+01  0.4679413484D+00
      0.3163926960D+01  0.3623119853D+00
 Atom C31      Shell    90 SP   3    bf  244 -   247         16.247781972526          0.000000000000          0.000000000000
      0.7868272350D+01 -0.1193324198D+00  0.6899906659D-01
      0.1881288540D+01 -0.1608541517D+00  0.3164239610D+00
      0.5442492580D+00  0.1143456438D+01  0.7443082909D+00
 Atom C31      Shell    91 SP   1    bf  248 -   251         16.247781972526          0.000000000000          0.000000000000
      0.1687144782D+00  0.1000000000D+01  0.1000000000D+01
 Atom C31      Shell    92 D   1     bf  252 -   257         16.247781972526          0.000000000000          0.000000000000
      0.8000000000D+00  0.1000000000D+01
 Atom H32      Shell    93 S   3     bf  258 -   258         16.555446243316          0.375903264107         -2.007477160308
      0.1873113696D+02  0.3349460434D-01
      0.2825394365D+01  0.2347269535D+00
      0.6401216923D+00  0.8137573261D+00
 Atom H32      Shell    94 S   1     bf  259 -   259         16.555446243316          0.375903264107         -2.007477160308
      0.1612777588D+00  0.1000000000D+01
 Atom H33      Shell    95 S   3     bf  260 -   260         16.669200688940         -2.005827958517          0.281048101819
      0.1873113696D+02  0.3349460434D-01
      0.2825394365D+01  0.2347269535D+00
      0.6401216923D+00  0.8137573261D+00
 Atom H33      Shell    96 S   1     bf  261 -   261         16.669200688940         -2.005827958517          0.281048101819
      0.1612777588D+00  0.1000000000D+01
 Atom C34      Shell    97 S   6     bf  262 -   262         17.902832276626          1.698716867257          1.726268677432
      0.3047524880D+04  0.1834737132D-02
      0.4573695180D+03  0.1403732281D-01
      0.1039486850D+03  0.6884262226D-01
      0.2921015530D+02  0.2321844432D+00
      0.9286662960D+01  0.4679413484D+00
      0.3163926960D+01  0.3623119853D+00
 Atom C34      Shell    98 SP   3    bf  263 -   266         17.902832276626          1.698716867257          1.726268677432
      0.7868272350D+01 -0.1193324198D+00  0.6899906659D-01
      0.1881288540D+01 -0.1608541517D+00  0.3164239610D+00
      0.5442492580D+00  0.1143456438D+01  0.7443082909D+00
 Atom C34      Shell    99 SP   1    bf  267 -   270         17.902832276626          1.698716867257          1.726268677432
      0.1687144782D+00  0.1000000000D+01  0.1000000000D+01
 Atom C34      Shell   100 D   1     bf  271 -   276         17.902832276626          1.698716867257          1.726268677432
      0.8000000000D+00  0.1000000000D+01
 Atom H35      Shell   101 S   3     bf  277 -   277         19.437327313107          0.602886792593          2.586195035963
      0.1873113696D+02  0.3349460434D-01
      0.2825394365D+01  0.2347269535D+00
      0.6401216923D+00  0.8137573261D+00
 Atom H35      Shell   102 S   1     bf  278 -   278         19.437327313107          0.602886792593          2.586195035963
      0.1612777588D+00  0.1000000000D+01
 Atom H36      Shell   103 S   3     bf  279 -   279         18.805768253920          3.207931487683          0.638548286878
      0.1873113696D+02  0.3349460434D-01
      0.2825394365D+01  0.2347269535D+00
      0.6401216923D+00  0.8137573261D+00
 Atom H36      Shell   104 S   1     bf  280 -   280         18.805768253920          3.207931487683          0.638548286878
      0.1612777588D+00  0.1000000000D+01
 Atom C37      Shell   105 S   6     bf  281 -   281         16.135049944329          2.819879665596          3.820223220472
      0.3047524880D+04  0.1834737132D-02
      0.4573695180D+03  0.1403732281D-01
      0.1039486850D+03  0.6884262226D-01
      0.2921015530D+02  0.2321844432D+00
      0.9286662960D+01  0.4679413484D+00
      0.3163926960D+01  0.3623119853D+00
 Atom C37      Shell   106 SP   3    bf  282 -   285         16.135049944329          2.819879665596          3.820223220472
      0.7868272350D+01 -0.1193324198D+00  0.6899906659D-01
      0.1881288540D+01 -0.1608541517D+00  0.3164239610D+00
      0.5442492580D+00  0.1143456438D+01  0.7443082909D+00
[...]
 1645 Fit      -0.004055
 1646 Fit      -0.003396
 1647 Fit       0.001019
 1648 Fit       0.001375
 1649 Fit       0.002030
 1650 Fit      -0.000921
 1651 Fit       0.000306
 1652 Fit       0.000222
 1653 Fit       0.000767
 1654 Fit      -0.002426
 1655 Fit      -0.001445
 1656 Fit      -0.000385
 1657 Fit      -0.002247
 1658 Fit      -0.002419
 1659 Fit      -0.003436
 1660 Fit      -0.002593
 1661 Fit      -0.001945
 1662 Fit      -0.002143
 1663 Fit      -0.003508
 1664 Fit      -0.002420
 1665 Fit       0.000284
 1666 Fit       0.001028
 1667 Fit      -0.003732
 1668 Fit      -0.002071
 1669 Fit      -0.000567
 1670 Fit       0.000931
 1671 Fit       0.001379
 1672 Fit      -0.000163
 1673 Fit      -0.001845
 1674 Fit      -0.002323
 1675 Fit      -0.000561
 1676 Fit      -0.000113
 1677 Fit       0.000233
 1678 Fit      -0.002671
 1679 Fit       0.002845
 1680 Fit       0.001126
 1681 Fit      -0.001180
 1682 Fit       0.000623
 1683 Fit      -0.001247
 1684 Fit      -0.003451
 1685 Fit      -0.001829
 1686 Fit      -0.002793
 1687 Fit       0.003948
 1688 Fit      -0.000760
 1689 Fit       0.004169
 1690 Fit       0.003930
 1691 Fit       0.001073
 1692 Fit      -0.004728
 1693 Fit       0.001317
 1694 Fit       0.001748
 1695 Fit      -0.001002
 1696 Fit      -0.007932
 1697 Fit      -0.001298
 1698 Fit      -0.007016
 1699 Fit      -0.007437
 1700 Fit       0.009767
 1701 Fit       0.005523
 1702 Fit       0.006959
 1703 Fit       0.008699
 1704 Fit      -0.000618
 1705 Fit      -0.001449
 1706 Fit       0.004683
 1707 Fit       0.008527
 1708 Fit       0.008013
 1709 Fit       0.004028
 1710 Fit      -0.001840
 1711 Fit      -0.004834
 1712 Fit       0.001392
 1713 Fit       0.006452
 1714 Fit       0.002781
 1715 Fit       0.020809
 1716 Fit       0.014488
 1717 Fit       0.010929
 1718 Fit       0.007382
 1719 Fit       0.017445
 1720 Fit       0.012199
 1721 Fit       0.010051
 1722 Fit       0.009274
 1723 Fit       0.009600
 1724 Fit       0.008556
 1725 Fit       0.005958
 1726 Fit       0.005767
 1727 Fit       0.006485
 1728 Fit       0.005513
 1729 Fit       0.005672
 1730 Fit       0.006345
 1731 Fit       0.005692
 1732 Fit       0.005329
 1733 Fit       0.006784
 1734 Fit       0.006011
 1735 Fit       0.005361
 1736 Fit       0.006691
 1737 Fit       0.006310
 1738 Fit       0.005472
 1739 Fit       0.008741
 1740 Fit       0.008333
 1741 Fit       0.008417
 1742 Fit       0.009233
 1743 Fit       0.007665
 1744 Fit       0.007172
 1745 Fit       0.007410
 1746 Fit       0.007935
 1747 Fit       0.008922
 1748 Fit       0.006103
 1749 Fit       0.007265
 1750 Fit       0.006224
 1751 Fit       0.004907
 1752 Fit       0.002327
 1753 Fit       0.008941
 1754 Fit       0.007629
 1755 Fit       0.009323
 1756 Fit       0.008245
 1757 Fit       0.011144
 1758 Fit       0.012258
 1759 Fit       0.011675
 1760 Fit       0.015813
 1761 Fit       0.017154
 1762 Fit       0.006208
 1763 Fit       0.005536
 1764 Fit       0.005691
 1765 Fit       0.004845
 1766 Fit       0.004069
 1767 Fit       0.004131
 1768 Fit       0.004508
 1769 Fit       0.003202
 1770 Fit       0.001803
 1771 Fit       0.000908
 1772 Fit       0.002258
 1773 Fit       0.002636
 1774 Fit      -0.000073
 1775 Fit      -0.003215
 1776 Fit      -0.006284
 1777 Fit      -0.006742
 1778 Fit       0.001727
 1779 Fit       0.001548
 1780 Fit      -0.000091
 1781 Fit       0.003142
 1782 Fit       0.001734
 1783 Fit       0.001408
 1784 Fit       0.014076
 1785 Fit      -0.000378
 1786 Fit       0.003002
 1787 Fit       0.002437
 1788 Fit       0.002607
 1789 Fit       0.012768
 1790 Fit       0.014851
 1791 Fit       0.006040
 1792 Fit       0.004242
 1793 Fit       0.004115
 1794 Fit       0.004820
 1795 Fit       0.007114
 1796 Fit       0.009191
 1797 Fit       0.008566
 1798 Fit       0.006638
 1799 Fit       0.003076
 1800 Fit       0.005556
 1801 Fit       0.006491
 1802 Fit       0.005431
 1803 Fit      -0.000689
 1804 Fit       0.003472
 1805 Fit       0.004950
 1806 Fit       0.003997
 1807 Fit       0.001480
 1808 Fit       0.003454
 1809 Fit       0.000684
 1810 Fit       0.006274
 1811 Fit       0.006526
 1812 Fit       0.006682
 1813 Fit       0.007412
 1814 Fit       0.006408
 1815 Fit       0.003764
 1816 Fit       0.004270
 1817 Fit       0.006207
 1818 Fit       0.004187
 1819 Fit       0.004951
 1820 Fit       0.005272
 1821 Fit       0.003587
 1822 Fit       0.005701
 1823 Fit       0.004587
 1824 Fit       0.005686
 1825 Fit       0.003769
 1826 Fit       0.005751
 1827 Fit       0.007503
 1828 Fit       0.004428
 1829 Fit       0.006106
 1830 Fit       0.005199
 1831 Fit       0.006100
 1832 Fit       0.001161
 1833 Fit       0.003074
 1834 Fit       0.001114
 1835 Fit       0.002808
 1836 Fit       0.002724
 1837 Fit       0.003002
 1838 Fit       0.003763
 1839 Fit       0.004019
 1840 Fit       0.004425
 1841 Fit       0.005242
 1842 Fit       0.004561
 1843 Fit       0.004980
 1844 Fit       0.005740
 1845 Fit       0.002274
 1846 Fit       0.003893
 1847 Fit       0.004678
 1848 Fit       0.002092
 1849 Fit       0.003528
 1850 Fit       0.004097
 1851 Fit       0.003282
 1852 Fit       0.004860
 1853 Fit       0.006529
 1854 Fit       0.002786
 1855 Fit       0.004901
 1856 Fit       0.007148
 1857 Fit      -0.009108
 1858 Fit      -0.008679
 1859 Fit       0.001078
 1860 Fit      -0.018336
 1861 Fit      -0.012233
 1862 Fit      -0.008192
 1863 Fit      -0.004507
 1864 Fit      -0.002006
 1865 Fit       0.000174
 1866 Fit      -0.014235
 1867 Fit      -0.009145
 1868 Fit      -0.004454
 1869 Fit      -0.002382
 1870 Fit      -0.010856
 1871 Fit      -0.012929
 1872 Fit      -0.008301
 1873 Fit      -0.006026
 1874 Fit      -0.014061
 1875 Fit      -0.010586
 1876 Fit      -0.017402
 1877 Fit      -0.003643
 1878 Fit      -0.004865
 1879 Fit      -0.006960
 1880 Fit       0.000716
 1881 Fit       0.001399
 1882 Fit      -0.001301
 1883 Fit      -0.001099
 1884 Fit      -0.000235
 1885 Fit      -0.002872
 1886 Fit      -0.004035
 1887 Fit      -0.003086
 1888 Fit      -0.006451
 1889 Fit      -0.002447
 1890 Fit       0.000139
 1891 Fit       0.000909
 1892 Fit       0.000608
 1893 Fit       0.000717
 1894 Fit      -0.002923
 1895 Fit      -0.000586
 1896 Fit       0.000418
 1897 Fit       0.000667
 1898 Fit       0.000869
 1899 Fit      -0.003221
 1900 Fit      -0.000944
 1901 Fit      -0.000469
 1902 Fit       0.002676
 1903 Fit       0.001370
 1904 Fit       0.002649
 1905 Fit       0.003874
 1906 Fit       0.000926
 1907 Fit       0.002389
 1908 Fit       0.004005
 1909 Fit       0.000815
 1910 Fit      -0.000957
 1911 Fit      -0.001696
 1912 Fit      -0.001907
 1913 Fit      -0.002965
 1914 Fit      -0.002534
 1915 Fit      -0.003808
 1916 Fit      -0.006591
 1917 Fit       0.002757
 1918 Fit      -0.000172
 1919 Fit       0.003399
 1920 Fit       0.000305
 1921 Fit      -0.002957
 1922 Fit      -0.001139
 1923 Fit      -0.006089
 1924 Fit      -0.002732
 1925 Fit      -0.001245
 1926 Fit      -0.004055
 1927 Fit      -0.002329
 1928 Fit      -0.000611
 1929 Fit      -0.006718
 1930 Fit      -0.004020
 1931 Fit      -0.001730
 1932 Fit       0.002565
 1933 Fit       0.000844
 1934 Fit       0.003753
 1935 Fit       0.001963
 1936 Fit       0.001011
 1937 Fit       0.003087
 1938 Fit       0.001248
 1939 Fit      -0.000329
 1940 Fit      -0.000976
 1941 Fit      -0.000666
 1942 Fit      -0.000781
 1943 Fit      -0.000118
 1944 Fit      -0.000476
 1945 Fit       0.000571
 1946 Fit       0.001148
 1947 Fit      -0.000698
 1948 Fit      -0.000438
 1949 Fit      -0.001286
 1950 Fit      -0.000719
 1951 Fit      -0.000742
 1952 Fit      -0.001163
 1953 Fit      -0.000853
 1954 Fit       0.000225
 1955 Fit      -0.000306
 1956 Fit      -0.000648
 1957 Fit      -0.000322
 1958 Fit       0.000184
 1959 Fit       0.000941
 1960 Fit       0.001183
 1961 Fit       0.000771
 1962 Fit       0.001575
 1963 Fit       0.002063
 1964 Fit       0.002194
 1965 Fit       0.001334
 1966 Fit       0.002602
 1967 Fit       0.002793
 1968 Fit       0.001013
 1969 Fit       0.001969
 1970 Fit       0.001825
 1971 Fit       0.000480
 1972 Fit      -0.000265
 1973 Fit      -0.000101
 1974 Fit       0.000673
 1975 Fit       0.001641
 1976 Fit       0.000125
 1977 Fit      -0.000514
 1978 Fit      -0.000115
 1979 Fit       0.000925
 1980 Fit       0.001474
 1981 Fit       0.001566
 1982 Fit       0.003511
 1983 Fit       0.003809
 1984 Fit       0.002946
 1985 Fit       0.000756
 1986 Fit       0.003978
 1987 Fit       0.002984
 1988 Fit       0.003756
 1989 Fit       0.009062
 1990 Fit       0.007787
 1991 Fit       0.005716
 1992 Fit       0.003597
 1993 Fit       0.002209
 1994 Fit       0.003138
 1995 Fit       0.004088
 1996 Fit       0.007061
 1997 Fit       0.007900
 1998 Fit       0.007660
 1999 Fit       0.006377
 2000 Fit       0.005660
 2001 Fit       0.008891
 2002 Fit       0.007562
 2003 Fit       0.006152
 2004 Fit       0.004641
 2005 Fit       0.003736
 2006 Fit       0.004551
 2007 Fit       0.010147
 2008 Fit       0.008289
 2009 Fit       0.015121
 2010 Fit       0.011650
 2011 Fit       0.008201
 2012 Fit       0.016059
 2013 Fit       0.010936
 2014 Fit       0.006669
 2015 Fit       0.001477
 2016 Fit       0.001256
 2017 Fit       0.001145
 2018 Fit      -0.001800
 2019 Fit      -0.004971
 2020 Fit       0.000786
 2021 Fit      -0.027215
 2022 Fit      -0.022409
 2023 Fit      -0.022091
 2024 Fit      -0.018721
 2025 Fit      -0.016017
 2026 Fit      -0.009559
 2027 Fit      -0.015627
 2028 Fit      -0.013745
 2029 Fit      -0.010529
 2030 Fit      -0.003366
 2031 Fit       0.004014
 2032 Fit      -0.006180
 2033 Fit      -0.006873
 2034 Fit      -0.014222
 2035 Fit      -0.006019
 2036 Fit      -0.010587
 2037 Fit      -0.015805
 2038 Fit      -0.019345
 2039 Fit       0.000075
 2040 Fit      -0.003745
 2041 Fit      -0.010244
 2042 Fit      -0.017081
 2043 Fit      -0.021754
 2044 Fit      -0.026198
 2045 Fit       0.001245
 2046 Fit      -0.007536
 2047 Fit      -0.015736
 2048 Fit      -0.021852
 2049 Fit      -0.024724
 2050 Fit      -0.007554
 2051 Fit      -0.017003
 2052 Fit      -0.007331
 2053 Fit       0.009406
 2054 Fit       0.012206
 2055 Fit       0.010409
 2056 Fit       0.016054
 2057 Fit       0.017718
 2058 Fit       0.015923
 2059 Fit       0.010908
 2060 Fit       0.002379
 2061 Fit       0.019015
 2062 Fit       0.019802
 2063 Fit       0.017588
 2064 Fit       0.011906
 2065 Fit       0.002999
 2066 Fit       0.003326
 2067 Fit       0.017848
 2068 Fit       0.018028
 2069 Fit       0.012715
 2070 Fit       0.012097
 2071 Fit       0.000008
 2072 Fit      -0.013988
 2073 Fit      -0.010799
 2074 Fit      -0.000825
 2075 Fit      -0.018573
 2076 Fit      -0.020030
 2077 Fit      -0.016325
 2078 Fit      -0.008008
 2079 Fit      -0.020812
 2080 Fit      -0.023343
 2081 Fit      -0.020697
 2082 Fit      -0.013702
 2083 Fit      -0.004486
 2084 Fit      -0.016880
 2085 Fit      -0.022643
 2086 Fit      -0.024222
 2087 Fit      -0.021065
 2088 Fit      -0.015010
 2089 Fit      -0.009377
 2090 Fit      -0.006719
 2091 Fit      -0.013005
 2092 Fit      -0.017211
 2093 Fit      -0.022583
 2094 Fit      -0.022239
 2095 Fit      -0.017508
 2096 Fit      -0.014306
 2097 Fit      -0.020043
 2098 Fit       0.012494
 2099 Fit       0.019370
 2100 Fit       0.023628
 2101 Fit       0.001895
 2102 Fit       0.011308
 2103 Fit       0.017388
 2104 Fit       0.020943
 2105 Fit       0.022914
 2106 Fit       0.005627
 2107 Fit       0.012270
 2108 Fit       0.015720
 2109 Fit       0.016757
 2110 Fit       0.003067
 2111 Fit       0.006873
 2112 Fit       0.006042
 2113 Fit       0.000458
 2114 Fit       0.001332
 2115 Fit       0.001503
 2116 Fit       0.000966
 2117 Fit       0.001420
 2118 Fit       0.001886
 2119 Fit      -0.000264
 2120 Fit       0.000670
 2121 Fit       0.001391
 2122 Fit      -0.000027
 2123 Fit      -0.000798
 2124 Fit      -0.001716
 2125 Fit      -0.001483
 2126 Fit       0.001021
 2127 Fit      -0.000256
 2128 Fit       0.000344
 2129 Fit       0.001591
 2130 Fit       0.001028
 2131 Fit      -0.000389
 2132 Fit       0.000306
 2133 Fit       0.001496
 2134 Fit      -0.001066
 2135 Fit      -0.000279
 2136 Fit      -0.001532
 2137 Fit      -0.001458
 2138 Fit      -0.000674
 2139 Fit      -0.000555
 2140 Fit      -0.001124
 2141 Fit       0.000372
 2142 Fit       0.000395
 2143 Fit      -0.000430
 2144 Fit       0.001374
 2145 Fit      -0.001194
 2146 Fit      -0.002179
 2147 Fit      -0.001145
 2148 Fit      -0.002886
 2149 Fit      -0.000023
 2150 Fit       0.000607
 2151 Fit      -0.000204
 2152 Fit      -0.000880
 2153 Fit      -0.000405
 2154 Fit      -0.000555
 2155 Fit       0.000187
 2156 Fit       0.001131
 2157 Fit       0.000297
 2158 Fit      -0.001186
 2159 Fit      -0.002139
 2160 Fit      -0.000271
 2161 Fit       0.000915
 2162 Fit      -0.001537
 2163 Fit      -0.002187
 2164 Fit      -0.000737
 2165 Fit      -0.000153
 2166 Fit      -0.000230
 2167 Fit      -0.000382
 2168 Fit       0.000587
 2169 Fit       0.000872
 2170 Fit       0.000565
 2171 Fit       0.001398
 2172 Fit       0.001394
 2173 Fit       0.001047
 2174 Fit      -0.000350
 2175 Fit      -0.000952
 2176 Fit      -0.000089
 2177 Fit       0.000058
 2178 Fit      -0.000565
 2179 Fit      -0.000787
 2180 Fit      -0.000024
 2181 Fit       0.000700
 2182 Fit      -0.000168
 2183 Fit      -0.001046
 2184 Fit      -0.000230
 2185 Fit      -0.002779
 2186 Fit      -0.002813
 2187 Fit      -0.003175
 2188 Fit      -0.003067
 2189 Fit      -0.002858
 2190 Fit      -0.003196
 2191 Fit      -0.003010
 2192 Fit      -0.002633
 2193 Fit      -0.002172
 2194 Fit      -0.001563
 2195 Fit      -0.001791
 2196 Fit       0.000585
 2197 Fit       0.000772
 2198 Fit      -0.000217
 2199 Fit      -0.001400
 2200 Fit       0.001467
 2201 Fit       0.000215
 2202 Fit      -0.000368
 2203 Fit      -0.001323
 2204 Fit      -0.002382
 2205 Fit       0.000600
 2206 Fit      -0.001105
 2207 Fit      -0.001457
 2208 Fit      -0.002170
 2209 Fit      -0.001114
 2210 Fit      -0.002732
 2211 Fit      -0.002687
 2212 Fit      -0.000991
 2213 Fit      -0.001487
 2214 Fit      -0.002282
 2215 Fit      -0.000752
 2216 Fit       0.000237
 2217 Fit      -0.000425
 2218 Fit      -0.001384
 2219 Fit      -0.002229
 2220 Fit       0.000699
 2221 Fit       0.000563
 2222 Fit      -0.000321
 2223 Fit      -0.001163
 2224 Fit      -0.000909
 2225 Fit      -0.000042
 2226 Fit       0.000785
 2227 Fit       0.000023
 2228 Fit      -0.002498
 2229 Fit      -0.002332
 2230 Fit      -0.000855
 2231 Fit       0.000073
 2232 Fit      -0.001007
 2233 Fit       0.000361
 2234 Fit       0.001185
 2235 Fit      -0.000886
 2236 Fit       0.000455
 2237 Fit       0.001147
 2238 Fit       0.001200
 2239 Fit      -0.001962
 2240 Fit      -0.000492
 2241 Fit       0.000194
 2242 Fit      -0.000042
 2243 Fit      -0.001438
 2244 Fit      -0.001684
 2245 Fit      -0.002722
 2246 Fit      -0.003469
 2247 Fit      -0.003343
 2248 Fit      -0.003679
 2249 Fit      -0.003391
 2250 Fit      -0.003535
 2251 Fit      -0.003300
 2252 Fit      -0.003590
 2253 Fit      -0.002858
 2254 Fit       0.000709
 2255 Fit       0.000934
 2256 Fit       0.001570
 2257 Fit      -0.000685
 2258 Fit       0.000125
 2259 Fit       0.000310
 2260 Fit       0.000881
 2261 Fit      -0.001624
 2262 Fit      -0.000985
 2263 Fit      -0.000220
 2264 Fit      -0.001151
 2265 Fit      -0.000969
 2266 Fit      -0.002102
 2267 Fit      -0.001482
 2268 Fit      -0.002733
 2269 Fit      -0.001030
 2270 Fit      -0.000793
 2271 Fit      -0.002363
 2272 Fit      -0.001498
 2273 Fit       0.000156
 2274 Fit       0.000913
 2275 Fit      -0.003095
 2276 Fit      -0.001813
 2277 Fit      -0.000616
 2278 Fit       0.000316
 2279 Fit       0.000721
 2280 Fit      -0.000328
 2281 Fit      -0.001624
 2282 Fit      -0.002102
 2283 Fit      -0.000866
 2284 Fit      -0.000489
 2285 Fit      -0.000159
 2286 Fit       0.000216
 2287 Fit      -0.001655
 2288 Fit      -0.000495
 2289 Fit      -0.002135
 2290 Fit      -0.002161
 2291 Fit      -0.003226
 -----------------------------------------------------------------
 Leave Link  602 at Thu Apr 27 16:41:26 2017, MaxMem=    33554432 cpu:         3.4
 (Enter /home/michal/g09/l9999.exe)

 Test job not archived.
 1\1\GINC-LINUX\SP\RHF\6-31G(d)\C27H46O3\MICHAL\27-Apr-2017\0\\#P HF/6-
 31G* SCF(Conver=6) NoSymm Test Pop=mk IOp(6/33=2) GFInput GFPrint\\MEP
  - Input generated by R.E.D.-III.x MOLECULE\\0,1\C,0,0.99847388,-0.896
 14067,-1.68993661\H,0,1.15485229,0.07081708,-2.18357582\C,0,2.21023544
 ,-1.79862953,-1.96239181\H,0,2.35124699,-1.91433506,-3.04167226\H,0,1.
 97463878,-2.79929998,-1.56491391\C,0,3.48392915,-1.28692668,-1.3170606
 9\C,0,3.42292996,-0.91762651,0.16928034\C,0,2.12735466,-0.08451489,0.4
 2040023\H,0,2.27676632,0.919745,0.\H,0,1.98452998,0.04896066,1.4976859
 9\C,0,0.84451336,-0.67315619,-0.18630354\H,0,0.59554584,-1.63110838,0.
 29412035\H,0,0.,0.,0.\C,0,4.60917829,-1.18243187,-2.03685739\H,0,4.593
 44978,-1.43225906,-3.09828908\C,0,5.9462204,-0.75305915,-1.50851945\H,
 0,6.24076719,0.19498411,-1.98740707\C,0,6.00976902,-0.60461347,0.01922
 619\H,0,6.16739193,-1.60908901,0.42679859\C,0,4.66376785,-0.0354635,0.
 5477803\H,0,4.51329226,0.92294702,0.02346706\C,0,4.74458656,0.29301142
 ,2.05589345\H,0,4.78170072,-0.63585669,2.63536279\H,0,3.83039067,0.808
 73643,2.36962575\C,0,5.95216599,1.16753913,2.44551289\H,0,5.84665884,2
 .16070841,1.98524067\H,0,5.93114979,1.32382374,3.52845136\C,0,7.285755
 2,0.54817763,1.98194871\C,0,7.16287123,0.32058771,0.44700473\H,0,6.919
 26163,1.31370396,0.02949964\C,0,8.59795591,0.,0.\H,0,8.76076483,0.1989
 1944,-1.06231116\H,0,8.82096109,-1.06143844,0.14872425\C,0,9.47377081,
 0.89892225,0.91350204\H,0,10.28579061,0.31903395,1.36855547\H,0,9.9515
 8395,1.69756423,0.3379052\C,0,8.53830069,1.49221605,2.02157506\H,0,8.1
 8663888,2.47831651,1.67773958\C,0,7.5771872,-0.76291458,2.74799025\H,0
 ,6.81653303,-1.52731559,2.57043941\H,0,8.54007282,-1.19683402,2.463479
 63\H,0,7.60709531,-0.58142083,3.82733797\C,0,9.27825836,1.72770812,3.3
 6431381\H,0,9.69766788,0.76304788,3.68846245\C,0,8.35732847,2.2480634,
 4.48283346\H,0,7.81924803,3.14757734,4.15842296\H,0,8.92937417,2.51110
 281,5.37778152\H,0,7.61494337,1.50691805,4.78766828\C,0,3.37099597,-2.
 22811316,0.99912098\H,0,3.18322128,-2.02134439,2.05724781\H,0,2.571255
 79,-2.88906466,0.65374727\H,0,4.3087417,-2.78508888,0.91637304\O,0,6.9
 9252917,-1.61105779,-2.03073605\O,0,6.82409998,-2.95426062,-1.48870561
 \H,0,6.422978,-3.41075104,-2.24635766\O,0,-0.19128635,-1.40912264,-2.2
 9509552\H,0,-0.40929922,-2.25614182,-1.88130165\C,0,10.46938868,2.6996
 6601,3.16128991\H,0,10.98692886,2.44729033,2.23100679\H,0,10.07274396,
 3.71757616,3.02192026\C,0,11.49992736,2.70731488,4.3024149\H,0,10.9992
 3787,2.90771501,5.25734644\H,0,11.93426045,1.70296572,4.3993344\C,0,12
 .62059138,3.75157485,4.14049923\H,0,13.24447127,3.73859883,5.04665475\
 H,0,12.16222634,4.75053399,4.10394258\C,0,13.54984486,3.59785967,2.917
 38467\H,0,12.93281559,3.63008179,2.00809951\C,0,14.53180479,4.7784622,
 2.8474627\H,0,15.18337803,4.79808284,3.73064259\H,0,15.17457339,4.7101
 1845,1.96235448\H,0,14.00184588,5.73697892,2.80408919\C,0,14.31183837,
 2.26320875,2.92357814\H,0,14.92881609,2.17167011,3.82707901\H,0,14.979
 18387,2.18953093,2.0573642\H,0,13.63706775,1.40163915,2.89263097\\Vers
 ion=EM64L-G09RevD.01\HF=-1273.6832187\RMSD=5.129e-07\Dipole=-0.5118426
 ,-0.2227371,0.4325373\Quadrupole=-14.9530033,10.6141216,4.3388817,3.51
 00034,-1.2930522,1.0383209\PG=C01 [X(C27H46O3)]\\@


 BE LIKE A POSTAGE STAMP.  STICK TO ONE THING UNTIL
 YOU GET THERE -- JOSH BILLINGS
 Job cpu time:       0 days  0 hours 11 minutes 34.3 seconds.
 File lengths (MBytes):  RWF=    159 Int=      0 D2E=      0 Chk=     11 Scr=      1
 Normal termination of Gaussian 09 at Thu Apr 27 16:41:26 2017.
