 Entering Gaussian System, Link 0=/home/michal/g09/g09
 Input=JOB2-gau_m1-16-3.com
 Output=JOB2-gau_m1-16-3.log
 Initial command:
 /home/michal/g09/l1.exe "/home/michal/gauss_scratch/Gau-2250.inp" -scrdir="/home/michal/gauss_scratch/"
 Entering Link 1 = /home/michal/g09/l1.exe PID=      2251.
  
 Copyright (c) 1988,1990,1992,1993,1995,1998,2003,2009,2013,
            Gaussian, Inc.  All Rights Reserved.
  
 This is part of the Gaussian(R) 09 program.  It is based on
 the Gaussian(R) 03 system (copyright 2003, Gaussian, Inc.),
 the Gaussian(R) 98 system (copyright 1998, Gaussian, Inc.),
 the Gaussian(R) 94 system (copyright 1995, Gaussian, Inc.),
 the Gaussian 92(TM) system (copyright 1992, Gaussian, Inc.),
 the Gaussian 90(TM) system (copyright 1990, Gaussian, Inc.),
 the Gaussian 88(TM) system (copyright 1988, Gaussian, Inc.),
 the Gaussian 86(TM) system (copyright 1986, Carnegie Mellon
 University), and the Gaussian 82(TM) system (copyright 1983,
 Carnegie Mellon University). Gaussian is a federally registered
 trademark of Gaussian, Inc.
  
 This software contains proprietary and confidential information,
 including trade secrets, belonging to Gaussian, Inc.
  
 This software is provided under written license and may be
 used, copied, transmitted, or stored only in accord with that
 written license.
  
 The following legend is applicable only to US Government
 contracts under FAR:
  
                    RESTRICTED RIGHTS LEGEND
  
 Use, reproduction and disclosure by the US Government is
 subject to restrictions as set forth in subparagraphs (a)
 and (c) of the Commercial Computer Software - Restricted
 Rights clause in FAR 52.227-19.
  
 Gaussian, Inc.
 340 Quinnipiac St., Bldg. 40, Wallingford CT 06492
  
  
 ---------------------------------------------------------------
 Warning -- This program may not be used in any manner that
 competes with the business of Gaussian, Inc. or will provide
 assistance to any competitor of Gaussian, Inc.  The licensee
 of this program is prohibited from giving any competitor of
 Gaussian, Inc. access to this program.  By using this program,
 the user acknowledges that Gaussian, Inc. is engaged in the
 business of creating and licensing software in the field of
 computational chemistry and represents and warrants to the
 licensee that it is not a competitor of Gaussian, Inc. and that
 it will not use this program in any manner prohibited above.
 ---------------------------------------------------------------
  

 Cite this work as:
 Gaussian 09, Revision D.01,
 M. J. Frisch, G. W. Trucks, H. B. Schlegel, G. E. Scuseria, 
 M. A. Robb, J. R. Cheeseman, G. Scalmani, V. Barone, B. Mennucci, 
 G. A. Petersson, H. Nakatsuji, M. Caricato, X. Li, H. P. Hratchian, 
 A. F. Izmaylov, J. Bloino, G. Zheng, J. L. Sonnenberg, M. Hada, 
 M. Ehara, K. Toyota, R. Fukuda, J. Hasegawa, M. Ishida, T. Nakajima, 
 Y. Honda, O. Kitao, H. Nakai, T. Vreven, J. A. Montgomery, Jr., 
 J. E. Peralta, F. Ogliaro, M. Bearpark, J. J. Heyd, E. Brothers, 
 K. N. Kudin, V. N. Staroverov, T. Keith, R. Kobayashi, J. Normand, 
 K. Raghavachari, A. Rendell, J. C. Burant, S. S. Iyengar, J. Tomasi, 
 M. Cossi, N. Rega, J. M. Millam, M. Klene, J. E. Knox, J. B. Cross, 
 V. Bakken, C. Adamo, J. Jaramillo, R. Gomperts, R. E. Stratmann, 
 O. Yazyev, A. J. Austin, R. Cammi, C. Pomelli, J. W. Ochterski, 
 R. L. Martin, K. Morokuma, V. G. Zakrzewski, G. A. Voth, 
 P. Salvador, J. J. Dannenberg, S. Dapprich, A. D. Daniels, 
 O. Farkas, J. B. Foresman, J. V. Ortiz, J. Cioslowski, 
 and D. J. Fox, Gaussian, Inc., Wallingford CT, 2013.
 
 ******************************************
 Gaussian 09:  EM64L-G09RevD.01 24-Apr-2013
                27-Apr-2017 
 ******************************************
 %Mem=256MB
 %NProc=12
 Will use up to   12 processors via shared memory.
 ----------------------------------------------------------------------
 #P HF/6-31G* SCF(Conver=6) NoSymm Test Pop=mk IOp(6/33=2) GFInput GFPr
 int
 ----------------------------------------------------------------------
 1/38=1/1;
 2/12=2,15=1,17=6,18=5,40=1/2;
 3/5=1,6=6,7=1,11=9,16=1,24=110,25=1,30=1/1,2,3;
 4//1;
 5/5=2,6=6,38=5/2;
 6/7=2,8=2,9=2,10=2,15=8,20=1,28=1,33=2/1,2;
 99/5=1,9=1/99;
 Leave Link    1 at Thu Apr 27 16:01:14 2017, MaxMem=    33554432 cpu:         0.6
 (Enter /home/michal/g09/l101.exe)
 ----------------------------------------------
 MEP - Input generated by R.E.D.-III.x MOLECULE
 ----------------------------------------------
 Symbolic Z-matrix:
 Charge =  0 Multiplicity = 1
 C                    -1.0052    1.97688   1.69438 
 H                    -0.99252   0.996     2.18515 
 C                     0.32472   2.69209   1.97181 
 H                     0.47891   2.78222   3.05172 
 H                     0.23846   3.71779   1.57777 
 C                     1.51124   2.00172   1.32664 
 C                     1.4004    1.6526   -0.16176 
 C                    -0.00183   1.01658  -0.41728 
 H                     0.        0.        0. 
 H                    -0.16088   0.90857  -1.49514 
 C                    -1.18688   1.78313   0.18978 
 H                    -1.2933    2.76848  -0.28786 
 H                    -2.11975   1.24019   0. 
 C                     2.60597   1.72816   2.049 
 H                     2.62358   1.97222   3.11173 
 C                     3.86573   1.10671   1.52201 
 H                     4.01011   0.11931   1.99015 
 C                     3.91458   0.96834  -0.00715 
 H                     4.21449   1.94543  -0.40074 
 C                     2.5018    0.60292  -0.54503 
 H                     2.21313  -0.32742  -0.02804 
 C                     2.53455   0.27584  -2.0565 
 H                     2.70819   1.1924   -2.6305 
 H                     1.55442  -0.09803  -2.37206 
 C                     3.60169  -0.7642   -2.44899 
 H                     3.34898  -1.73404  -1.99681 
 H                     3.57037  -0.90843  -3.535 
 C                     5.00697  -0.34487  -1.97971 
 C                     4.92428  -0.10835  -0.44197 
 H                     4.54084  -1.05637  -0.02593 
 C                     6.39633   0.        0. 
 H                     6.53299  -0.24576   1.05622 
 H                     6.76196   1.02436  -0.12434 
 C                     7.14022  -0.98669  -0.94397 
 H                     7.99326  -0.49445  -1.42192 
 H                     7.54972  -1.84433  -0.39857 
 C                     6.09794  -1.46903  -2.00036 
 H                     5.59383  -2.34321  -1.56034 
 C                     5.46405   0.92515  -2.7344 
 H                     4.86098   1.79853  -2.47352 
 H                     6.50505   1.18058  -2.52173 
 H                     5.37292   0.78335  -3.81531 
 C                     6.74521  -2.02731  -3.30185 
 H                     7.44979  -2.7878   -2.9263 
 C                     7.58806  -1.04401  -4.13908 
 H                     6.96303  -0.38249  -4.74663 
 H                     8.24265  -1.59197  -4.82419 
 H                     8.2328   -0.41572  -3.51798 
 C                     1.53886   2.96098  -0.98492 
 H                     1.32244   2.78923  -2.04381 
 H                     0.844     3.72944  -0.63517 
 H                     2.54766   3.37536  -0.90079 
 O                     5.02699   1.78933   2.05902 
 O                     5.06761   3.14896   1.53315 
 H                     4.74113   3.65243   2.29683 
 O                    -2.10874   2.65614   2.29916 
 H                    -2.19913   3.52757   1.88851 
 C                     5.73035  -2.78479  -4.18823 
 H                     5.06418  -3.37269  -3.54147 
 H                     5.08813  -2.06296  -4.71126 
 C                     6.35715  -3.73226  -5.22439 
 H                     6.97436  -3.15858  -5.92568 
 H                     7.03633  -4.42291  -4.70605 
 C                     5.29692  -4.52733  -6.00343 
 H                     4.61074  -3.81674  -6.48692 
 H                     4.68691  -5.0955   -5.28616 
 C                     5.81716  -5.50725  -7.08096 
 H                     4.92326  -5.9782   -7.51629 
 C                     6.55325  -4.79303  -8.22674 
 H                     7.49449  -4.34603  -7.88659 
 H                     6.7981   -5.49632  -9.03089 
 H                     5.93972  -3.99322  -8.65808 
 C                     6.67861  -6.63543  -6.48961 
 H                     7.62489  -6.25402  -6.08898 
 H                     6.92488  -7.38001  -7.25524 
 H                     6.15557  -7.15289  -5.67671 
 
 NAtoms=     76 NQM=       76 NQMF=       0 NMMI=      0 NMMIF=      0
                NMic=       0 NMicF=      0.
                    Isotopes and Nuclear Properties:
 (Nuclear quadrupole moments (NQMom) in fm**2, nuclear magnetic moments (NMagM)
  in nuclear magnetons)

  Atom         1           2           3           4           5           6           7           8           9          10
 IAtWgt=          12           1          12           1           1          12          12          12           1           1
 AtmWgt=  12.0000000   1.0078250  12.0000000   1.0078250   1.0078250  12.0000000  12.0000000  12.0000000   1.0078250   1.0078250
 NucSpn=           0           1           0           1           1           0           0           0           1           1
 AtZEff=   0.0000000   0.0000000   0.0000000   0.0000000   0.0000000   0.0000000   0.0000000   0.0000000   0.0000000   0.0000000
 NQMom=    0.0000000   0.0000000   0.0000000   0.0000000   0.0000000   0.0000000   0.0000000   0.0000000   0.0000000   0.0000000
 NMagM=    0.0000000   2.7928460   0.0000000   2.7928460   2.7928460   0.0000000   0.0000000   0.0000000   2.7928460   2.7928460
 AtZNuc=   6.0000000   1.0000000   6.0000000   1.0000000   1.0000000   6.0000000   6.0000000   6.0000000   1.0000000   1.0000000

  Atom        11          12          13          14          15          16          17          18          19          20
 IAtWgt=          12           1           1          12           1          12           1          12           1          12
 AtmWgt=  12.0000000   1.0078250   1.0078250  12.0000000   1.0078250  12.0000000   1.0078250  12.0000000   1.0078250  12.0000000
 NucSpn=           0           1           1           0           1           0           1           0           1           0
 AtZEff=   0.0000000   0.0000000   0.0000000   0.0000000   0.0000000   0.0000000   0.0000000   0.0000000   0.0000000   0.0000000
 NQMom=    0.0000000   0.0000000   0.0000000   0.0000000   0.0000000   0.0000000   0.0000000   0.0000000   0.0000000   0.0000000
 NMagM=    0.0000000   2.7928460   2.7928460   0.0000000   2.7928460   0.0000000   2.7928460   0.0000000   2.7928460   0.0000000
 AtZNuc=   6.0000000   1.0000000   1.0000000   6.0000000   1.0000000   6.0000000   1.0000000   6.0000000   1.0000000   6.0000000

  Atom        21          22          23          24          25          26          27          28          29          30
 IAtWgt=           1          12           1           1          12           1           1          12          12           1
 AtmWgt=   1.0078250  12.0000000   1.0078250   1.0078250  12.0000000   1.0078250   1.0078250  12.0000000  12.0000000   1.0078250
 NucSpn=           1           0           1           1           0           1           1           0           0           1
 AtZEff=   0.0000000   0.0000000   0.0000000   0.0000000   0.0000000   0.0000000   0.0000000   0.0000000   0.0000000   0.0000000
 NQMom=    0.0000000   0.0000000   0.0000000   0.0000000   0.0000000   0.0000000   0.0000000   0.0000000   0.0000000   0.0000000
 NMagM=    2.7928460   0.0000000   2.7928460   2.7928460   0.0000000   2.7928460   2.7928460   0.0000000   0.0000000   2.7928460
 AtZNuc=   1.0000000   6.0000000   1.0000000   1.0000000   6.0000000   1.0000000   1.0000000   6.0000000   6.0000000   1.0000000

  Atom        31          32          33          34          35          36          37          38          39          40
 IAtWgt=          12           1           1          12           1           1          12           1          12           1
 AtmWgt=  12.0000000   1.0078250   1.0078250  12.0000000   1.0078250   1.0078250  12.0000000   1.0078250  12.0000000   1.0078250
 NucSpn=           0           1           1           0           1           1           0           1           0           1
 AtZEff=   0.0000000   0.0000000   0.0000000   0.0000000   0.0000000   0.0000000   0.0000000   0.0000000   0.0000000   0.0000000
 NQMom=    0.0000000   0.0000000   0.0000000   0.0000000   0.0000000   0.0000000   0.0000000   0.0000000   0.0000000   0.0000000
 NMagM=    0.0000000   2.7928460   2.7928460   0.0000000   2.7928460   2.7928460   0.0000000   2.7928460   0.0000000   2.7928460
 AtZNuc=   6.0000000   1.0000000   1.0000000   6.0000000   1.0000000   1.0000000   6.0000000   1.0000000   6.0000000   1.0000000

  Atom        41          42          43          44          45          46          47          48          49          50
 IAtWgt=           1           1          12           1          12           1           1           1          12           1
 AtmWgt=   1.0078250   1.0078250  12.0000000   1.0078250  12.0000000   1.0078250   1.0078250   1.0078250  12.0000000   1.0078250
 NucSpn=           1           1           0           1           0           1           1           1           0           1
 AtZEff=   0.0000000   0.0000000   0.0000000   0.0000000   0.0000000   0.0000000   0.0000000   0.0000000   0.0000000   0.0000000
 NQMom=    0.0000000   0.0000000   0.0000000   0.0000000   0.0000000   0.0000000   0.0000000   0.0000000   0.0000000   0.0000000
 NMagM=    2.7928460   2.7928460   0.0000000   2.7928460   0.0000000   2.7928460   2.7928460   2.7928460   0.0000000   2.7928460
 AtZNuc=   1.0000000   1.0000000   6.0000000   1.0000000   6.0000000   1.0000000   1.0000000   1.0000000   6.0000000   1.0000000

  Atom        51          52          53          54          55          56          57          58          59          60
 IAtWgt=           1           1          16          16           1          16           1          12           1           1
 AtmWgt=   1.0078250   1.0078250  15.9949146  15.9949146   1.0078250  15.9949146   1.0078250  12.0000000   1.0078250   1.0078250
 NucSpn=           1           1           0           0           1           0           1           0           1           1
 AtZEff=   0.0000000   0.0000000   0.0000000   0.0000000   0.0000000   0.0000000   0.0000000   0.0000000   0.0000000   0.0000000
 NQMom=    0.0000000   0.0000000   0.0000000   0.0000000   0.0000000   0.0000000   0.0000000   0.0000000   0.0000000   0.0000000
 NMagM=    2.7928460   2.7928460   0.0000000   0.0000000   2.7928460   0.0000000   2.7928460   0.0000000   2.7928460   2.7928460
 AtZNuc=   1.0000000   1.0000000   8.0000000   8.0000000   1.0000000   8.0000000   1.0000000   6.0000000   1.0000000   1.0000000

  Atom        61          62          63          64          65          66          67          68          69          70
 IAtWgt=          12           1           1          12           1           1          12           1          12           1
 AtmWgt=  12.0000000   1.0078250   1.0078250  12.0000000   1.0078250   1.0078250  12.0000000   1.0078250  12.0000000   1.0078250
 NucSpn=           0           1           1           0           1           1           0           1           0           1
 AtZEff=   0.0000000   0.0000000   0.0000000   0.0000000   0.0000000   0.0000000   0.0000000   0.0000000   0.0000000   0.0000000
 NQMom=    0.0000000   0.0000000   0.0000000   0.0000000   0.0000000   0.0000000   0.0000000   0.0000000   0.0000000   0.0000000
 NMagM=    0.0000000   2.7928460   2.7928460   0.0000000   2.7928460   2.7928460   0.0000000   2.7928460   0.0000000   2.7928460
 AtZNuc=   6.0000000   1.0000000   1.0000000   6.0000000   1.0000000   1.0000000   6.0000000   1.0000000   6.0000000   1.0000000

  Atom        71          72          73          74          75          76
 IAtWgt=           1           1          12           1           1           1
 AtmWgt=   1.0078250   1.0078250  12.0000000   1.0078250   1.0078250   1.0078250
 NucSpn=           1           1           0           1           1           1
 AtZEff=   0.0000000   0.0000000   0.0000000   0.0000000   0.0000000   0.0000000
 NQMom=    0.0000000   0.0000000   0.0000000   0.0000000   0.0000000   0.0000000
 NMagM=    2.7928460   2.7928460   0.0000000   2.7928460   2.7928460   2.7928460
 AtZNuc=   1.0000000   1.0000000   6.0000000   1.0000000   1.0000000   1.0000000
 Leave Link  101 at Thu Apr 27 16:01:14 2017, MaxMem=    33554432 cpu:         1.0
 (Enter /home/michal/g09/l202.exe)
 Symmetry turned off by external request.
 Stoichiometry    C27H46O3
 Framework group  C1[X(C27H46O3)]
 Deg. of freedom   222
 Full point group                 C1      NOp   1
                          Input orientation:                          
 ---------------------------------------------------------------------
 Center     Atomic      Atomic             Coordinates (Angstroms)
 Number     Number       Type             X           Y           Z
 ---------------------------------------------------------------------
      1          6           0       -1.005199    1.976876    1.694381
      2          1           0       -0.992517    0.995996    2.185150
      3          6           0        0.324716    2.692086    1.971805
      4          1           0        0.478913    2.782216    3.051720
      5          1           0        0.238464    3.717791    1.577771
      6          6           0        1.511235    2.001716    1.326639
      7          6           0        1.400402    1.652600   -0.161756
      8          6           0       -0.001826    1.016577   -0.417280
      9          1           0        0.000000    0.000000    0.000000
     10          1           0       -0.160876    0.908566   -1.495138
     11          6           0       -1.186878    1.783132    0.189776
     12          1           0       -1.293300    2.768481   -0.287862
     13          1           0       -2.119751    1.240187    0.000000
     14          6           0        2.605975    1.728161    2.048996
     15          1           0        2.623577    1.972222    3.111730
     16          6           0        3.865725    1.106705    1.522006
     17          1           0        4.010115    0.119307    1.990151
     18          6           0        3.914580    0.968340   -0.007155
     19          1           0        4.214492    1.945432   -0.400739
     20          6           0        2.501798    0.602918   -0.545030
     21          1           0        2.213126   -0.327421   -0.028035
     22          6           0        2.534549    0.275842   -2.056499
     23          1           0        2.708187    1.192403   -2.630504
     24          1           0        1.554422   -0.098034   -2.372056
     25          6           0        3.601688   -0.764196   -2.448995
     26          1           0        3.348982   -1.734038   -1.996807
     27          1           0        3.570368   -0.908425   -3.535000
     28          6           0        5.006973   -0.344868   -1.979714
     29          6           0        4.924275   -0.108354   -0.441971
     30          1           0        4.540836   -1.056368   -0.025932
     31          6           0        6.396332    0.000000    0.000000
     32          1           0        6.532986   -0.245759    1.056216
     33          1           0        6.761961    1.024364   -0.124342
     34          6           0        7.140222   -0.986687   -0.943974
     35          1           0        7.993264   -0.494448   -1.421921
     36          1           0        7.549719   -1.844327   -0.398569
     37          6           0        6.097941   -1.469027   -2.000361
     38          1           0        5.593826   -2.343213   -1.560344
     39          6           0        5.464052    0.925152   -2.734399
     40          1           0        4.860982    1.798532   -2.473522
     41          1           0        6.505052    1.180576   -2.521734
     42          1           0        5.372925    0.783354   -3.815313
     43          6           0        6.745206   -2.027308   -3.301850
     44          1           0        7.449789   -2.787800   -2.926303
     45          6           0        7.588058   -1.044007   -4.139083
     46          1           0        6.963030   -0.382486   -4.746628
     47          1           0        8.242652   -1.591973   -4.824185
     48          1           0        8.232804   -0.415720   -3.517985
     49          6           0        1.538858    2.960980   -0.984920
     50          1           0        1.322435    2.789232   -2.043807
     51          1           0        0.843996    3.729438   -0.635171
     52          1           0        2.547662    3.375357   -0.900787
     53          8           0        5.026993    1.789333    2.059020
     54          8           0        5.067613    3.148959    1.533148
     55          1           0        4.741128    3.652432    2.296827
     56          8           0       -2.108737    2.656142    2.299159
     57          1           0       -2.199130    3.527573    1.888506
     58          6           0        5.730354   -2.784786   -4.188234
     59          1           0        5.064185   -3.372694   -3.541465
     60          1           0        5.088132   -2.062960   -4.711255
     61          6           0        6.357151   -3.732255   -5.224392
     62          1           0        6.974360   -3.158579   -5.925676
     63          1           0        7.036331   -4.422908   -4.706053
     64          6           0        5.296917   -4.527335   -6.003427
     65          1           0        4.610744   -3.816741   -6.486917
     66          1           0        4.686911   -5.095498   -5.286162
     67          6           0        5.817156   -5.507250   -7.080958
     68          1           0        4.923257   -5.978203   -7.516294
     69          6           0        6.553248   -4.793025   -8.226735
     70          1           0        7.494495   -4.346030   -7.886594
     71          1           0        6.798096   -5.496318   -9.030893
     72          1           0        5.939722   -3.993225   -8.658079
     73          6           0        6.678613   -6.635426   -6.489613
     74          1           0        7.624889   -6.254022   -6.088984
     75          1           0        6.924879   -7.380011   -7.255244
     76          1           0        6.155568   -7.152887   -5.676711
 ---------------------------------------------------------------------
 Rotational constants (GHZ):      0.2791378      0.0600379      0.0526219
 Leave Link  202 at Thu Apr 27 16:01:14 2017, MaxMem=    33554432 cpu:         0.0
 (Enter /home/michal/g09/l301.exe)
 Standard basis: 6-31G(d) (6D, 7F)
 Ernie: Thresh=  0.10000D-02 Tol=  0.10000D-05 Strict=F.
 AO basis set in the form of general basis input (Overlap normalization):
      1 0
 S   6 1.00       0.000000000000
      0.3047524880D+04  0.1834737132D-02
      0.4573695180D+03  0.1403732281D-01
      0.1039486850D+03  0.6884262226D-01
      0.2921015530D+02  0.2321844432D+00
      0.9286662960D+01  0.4679413484D+00
      0.3163926960D+01  0.3623119853D+00
 SP   3 1.00       0.000000000000
      0.7868272350D+01 -0.1193324198D+00  0.6899906659D-01
      0.1881288540D+01 -0.1608541517D+00  0.3164239610D+00
      0.5442492580D+00  0.1143456438D+01  0.7443082909D+00
 SP   1 1.00       0.000000000000
      0.1687144782D+00  0.1000000000D+01  0.1000000000D+01
 D   1 1.00       0.000000000000
      0.8000000000D+00  0.1000000000D+01
 ****
      2 0
 S   3 1.00       0.000000000000
      0.1873113696D+02  0.3349460434D-01
      0.2825394365D+01  0.2347269535D+00
      0.6401216923D+00  0.8137573261D+00
 S   1 1.00       0.000000000000
      0.1612777588D+00  0.1000000000D+01
 ****
      3 0
 S   6 1.00       0.000000000000
      0.3047524880D+04  0.1834737132D-02
      0.4573695180D+03  0.1403732281D-01
      0.1039486850D+03  0.6884262226D-01
      0.2921015530D+02  0.2321844432D+00
      0.9286662960D+01  0.4679413484D+00
      0.3163926960D+01  0.3623119853D+00
 SP   3 1.00       0.000000000000
      0.7868272350D+01 -0.1193324198D+00  0.6899906659D-01
      0.1881288540D+01 -0.1608541517D+00  0.3164239610D+00
      0.5442492580D+00  0.1143456438D+01  0.7443082909D+00
 SP   1 1.00       0.000000000000
      0.1687144782D+00  0.1000000000D+01  0.1000000000D+01
 D   1 1.00       0.000000000000
      0.8000000000D+00  0.1000000000D+01
 ****
      4 0
 S   3 1.00       0.000000000000
      0.1873113696D+02  0.3349460434D-01
      0.2825394365D+01  0.2347269535D+00
      0.6401216923D+00  0.8137573261D+00
 S   1 1.00       0.000000000000
      0.1612777588D+00  0.1000000000D+01
 ****
      5 0
 S   3 1.00       0.000000000000
      0.1873113696D+02  0.3349460434D-01
      0.2825394365D+01  0.2347269535D+00
      0.6401216923D+00  0.8137573261D+00
 S   1 1.00       0.000000000000
      0.1612777588D+00  0.1000000000D+01
 ****
      6 0
 S   6 1.00       0.000000000000
      0.3047524880D+04  0.1834737132D-02
      0.4573695180D+03  0.1403732281D-01
      0.1039486850D+03  0.6884262226D-01
      0.2921015530D+02  0.2321844432D+00
      0.9286662960D+01  0.4679413484D+00
      0.3163926960D+01  0.3623119853D+00
 SP   3 1.00       0.000000000000
      0.7868272350D+01 -0.1193324198D+00  0.6899906659D-01
      0.1881288540D+01 -0.1608541517D+00  0.3164239610D+00
      0.5442492580D+00  0.1143456438D+01  0.7443082909D+00
 SP   1 1.00       0.000000000000
      0.1687144782D+00  0.1000000000D+01  0.1000000000D+01
 D   1 1.00       0.000000000000
      0.8000000000D+00  0.1000000000D+01
 ****
      7 0
 S   6 1.00       0.000000000000
      0.3047524880D+04  0.1834737132D-02
      0.4573695180D+03  0.1403732281D-01
      0.1039486850D+03  0.6884262226D-01
      0.2921015530D+02  0.2321844432D+00
      0.9286662960D+01  0.4679413484D+00
      0.3163926960D+01  0.3623119853D+00
 SP   3 1.00       0.000000000000
      0.7868272350D+01 -0.1193324198D+00  0.6899906659D-01
      0.1881288540D+01 -0.1608541517D+00  0.3164239610D+00
      0.5442492580D+00  0.1143456438D+01  0.7443082909D+00
 SP   1 1.00       0.000000000000
      0.1687144782D+00  0.1000000000D+01  0.1000000000D+01
 D   1 1.00       0.000000000000
      0.8000000000D+00  0.1000000000D+01
 ****
      8 0
 S   6 1.00       0.000000000000
      0.3047524880D+04  0.1834737132D-02
      0.4573695180D+03  0.1403732281D-01
      0.1039486850D+03  0.6884262226D-01
      0.2921015530D+02  0.2321844432D+00
      0.9286662960D+01  0.4679413484D+00
      0.3163926960D+01  0.3623119853D+00
 SP   3 1.00       0.000000000000
      0.7868272350D+01 -0.1193324198D+00  0.6899906659D-01
      0.1881288540D+01 -0.1608541517D+00  0.3164239610D+00
      0.5442492580D+00  0.1143456438D+01  0.7443082909D+00
 SP   1 1.00       0.000000000000
      0.1687144782D+00  0.1000000000D+01  0.1000000000D+01
 D   1 1.00       0.000000000000
      0.8000000000D+00  0.1000000000D+01
 ****
      9 0
 S   3 1.00       0.000000000000
      0.1873113696D+02  0.3349460434D-01
      0.2825394365D+01  0.2347269535D+00
      0.6401216923D+00  0.8137573261D+00
 S   1 1.00       0.000000000000
      0.1612777588D+00  0.1000000000D+01
 ****
     10 0
 S   3 1.00       0.000000000000
      0.1873113696D+02  0.3349460434D-01
      0.2825394365D+01  0.2347269535D+00
      0.6401216923D+00  0.8137573261D+00
 S   1 1.00       0.000000000000
      0.1612777588D+00  0.1000000000D+01
 ****
     11 0
 S   6 1.00       0.000000000000
      0.3047524880D+04  0.1834737132D-02
      0.4573695180D+03  0.1403732281D-01
      0.1039486850D+03  0.6884262226D-01
      0.2921015530D+02  0.2321844432D+00
      0.9286662960D+01  0.4679413484D+00
      0.3163926960D+01  0.3623119853D+00
 SP   3 1.00       0.000000000000
      0.7868272350D+01 -0.1193324198D+00  0.6899906659D-01
      0.1881288540D+01 -0.1608541517D+00  0.3164239610D+00
      0.5442492580D+00  0.1143456438D+01  0.7443082909D+00
 SP   1 1.00       0.000000000000
      0.1687144782D+00  0.1000000000D+01  0.1000000000D+01
 D   1 1.00       0.000000000000
      0.8000000000D+00  0.1000000000D+01
 ****
     12 0
 S   3 1.00       0.000000000000
      0.1873113696D+02  0.3349460434D-01
      0.2825394365D+01  0.2347269535D+00
      0.6401216923D+00  0.8137573261D+00
 S   1 1.00       0.000000000000
      0.1612777588D+00  0.1000000000D+01
 ****
     13 0
 S   3 1.00       0.000000000000
      0.1873113696D+02  0.3349460434D-01
      0.2825394365D+01  0.2347269535D+00
      0.6401216923D+00  0.8137573261D+00
 S   1 1.00       0.000000000000
      0.1612777588D+00  0.1000000000D+01
 ****
     14 0
 S   6 1.00       0.000000000000
      0.3047524880D+04  0.1834737132D-02
      0.4573695180D+03  0.1403732281D-01
      0.1039486850D+03  0.6884262226D-01
      0.2921015530D+02  0.2321844432D+00
      0.9286662960D+01  0.4679413484D+00
      0.3163926960D+01  0.3623119853D+00
 SP   3 1.00       0.000000000000
      0.7868272350D+01 -0.1193324198D+00  0.6899906659D-01
      0.1881288540D+01 -0.1608541517D+00  0.3164239610D+00
      0.5442492580D+00  0.1143456438D+01  0.7443082909D+00
 SP   1 1.00       0.000000000000
      0.1687144782D+00  0.1000000000D+01  0.1000000000D+01
 D   1 1.00       0.000000000000
      0.8000000000D+00  0.1000000000D+01
 ****
     15 0
 S   3 1.00       0.000000000000
      0.1873113696D+02  0.3349460434D-01
      0.2825394365D+01  0.2347269535D+00
      0.6401216923D+00  0.8137573261D+00
 S   1 1.00       0.000000000000
      0.1612777588D+00  0.1000000000D+01
 ****
     16 0
 S   6 1.00       0.000000000000
      0.3047524880D+04  0.1834737132D-02
      0.4573695180D+03  0.1403732281D-01
      0.1039486850D+03  0.6884262226D-01
      0.2921015530D+02  0.2321844432D+00
      0.9286662960D+01  0.4679413484D+00
      0.3163926960D+01  0.3623119853D+00
 SP   3 1.00       0.000000000000
      0.7868272350D+01 -0.1193324198D+00  0.6899906659D-01
      0.1881288540D+01 -0.1608541517D+00  0.3164239610D+00
      0.5442492580D+00  0.1143456438D+01  0.7443082909D+00
 SP   1 1.00       0.000000000000
      0.1687144782D+00  0.1000000000D+01  0.1000000000D+01
 D   1 1.00       0.000000000000
      0.8000000000D+00  0.1000000000D+01
 ****
     17 0
 S   3 1.00       0.000000000000
      0.1873113696D+02  0.3349460434D-01
      0.2825394365D+01  0.2347269535D+00
      0.6401216923D+00  0.8137573261D+00
 S   1 1.00       0.000000000000
      0.1612777588D+00  0.1000000000D+01
 ****
     18 0
 S   6 1.00       0.000000000000
      0.3047524880D+04  0.1834737132D-02
      0.4573695180D+03  0.1403732281D-01
      0.1039486850D+03  0.6884262226D-01
      0.2921015530D+02  0.2321844432D+00
      0.9286662960D+01  0.4679413484D+00
      0.3163926960D+01  0.3623119853D+00
 SP   3 1.00       0.000000000000
      0.7868272350D+01 -0.1193324198D+00  0.6899906659D-01
      0.1881288540D+01 -0.1608541517D+00  0.3164239610D+00
      0.5442492580D+00  0.1143456438D+01  0.7443082909D+00
 SP   1 1.00       0.000000000000
      0.1687144782D+00  0.1000000000D+01  0.1000000000D+01
 D   1 1.00       0.000000000000
      0.8000000000D+00  0.1000000000D+01
 ****
     19 0
 S   3 1.00       0.000000000000
      0.1873113696D+02  0.3349460434D-01
      0.2825394365D+01  0.2347269535D+00
      0.6401216923D+00  0.8137573261D+00
 S   1 1.00       0.000000000000
      0.1612777588D+00  0.1000000000D+01
 ****
     20 0
 S   6 1.00       0.000000000000
      0.3047524880D+04  0.1834737132D-02
      0.4573695180D+03  0.1403732281D-01
      0.1039486850D+03  0.6884262226D-01
      0.2921015530D+02  0.2321844432D+00
      0.9286662960D+01  0.4679413484D+00
      0.3163926960D+01  0.3623119853D+00
 SP   3 1.00       0.000000000000
      0.7868272350D+01 -0.1193324198D+00  0.6899906659D-01
      0.1881288540D+01 -0.1608541517D+00  0.3164239610D+00
      0.5442492580D+00  0.1143456438D+01  0.7443082909D+00
 SP   1 1.00       0.000000000000
      0.1687144782D+00  0.1000000000D+01  0.1000000000D+01
 D   1 1.00       0.000000000000
      0.8000000000D+00  0.1000000000D+01
 ****
     21 0
 S   3 1.00       0.000000000000
      0.1873113696D+02  0.3349460434D-01
      0.2825394365D+01  0.2347269535D+00
      0.6401216923D+00  0.8137573261D+00
 S   1 1.00       0.000000000000
      0.1612777588D+00  0.1000000000D+01
 ****
     22 0
 S   6 1.00       0.000000000000
      0.3047524880D+04  0.1834737132D-02
      0.4573695180D+03  0.1403732281D-01
      0.1039486850D+03  0.6884262226D-01
      0.2921015530D+02  0.2321844432D+00
      0.9286662960D+01  0.4679413484D+00
      0.3163926960D+01  0.3623119853D+00
 SP   3 1.00       0.000000000000
      0.7868272350D+01 -0.1193324198D+00  0.6899906659D-01
      0.1881288540D+01 -0.1608541517D+00  0.3164239610D+00
      0.5442492580D+00  0.1143456438D+01  0.7443082909D+00
 SP   1 1.00       0.000000000000
      0.1687144782D+00  0.1000000000D+01  0.1000000000D+01
 D   1 1.00       0.000000000000
      0.8000000000D+00  0.1000000000D+01
 ****
     23 0
 S   3 1.00       0.000000000000
      0.1873113696D+02  0.3349460434D-01
      0.2825394365D+01  0.2347269535D+00
      0.6401216923D+00  0.8137573261D+00
 S   1 1.00       0.000000000000
      0.1612777588D+00  0.1000000000D+01
 ****
     24 0
 S   3 1.00       0.000000000000
      0.1873113696D+02  0.3349460434D-01
      0.2825394365D+01  0.2347269535D+00
      0.6401216923D+00  0.8137573261D+00
 S   1 1.00       0.000000000000
      0.1612777588D+00  0.1000000000D+01
 ****
     25 0
 S   6 1.00       0.000000000000
      0.3047524880D+04  0.1834737132D-02
      0.4573695180D+03  0.1403732281D-01
      0.1039486850D+03  0.6884262226D-01
      0.2921015530D+02  0.2321844432D+00
      0.9286662960D+01  0.4679413484D+00
      0.3163926960D+01  0.3623119853D+00
 SP   3 1.00       0.000000000000
      0.7868272350D+01 -0.1193324198D+00  0.6899906659D-01
      0.1881288540D+01 -0.1608541517D+00  0.3164239610D+00
      0.5442492580D+00  0.1143456438D+01  0.7443082909D+00
 SP   1 1.00       0.000000000000
      0.1687144782D+00  0.1000000000D+01  0.1000000000D+01
 D   1 1.00       0.000000000000
      0.8000000000D+00  0.1000000000D+01
 ****
     26 0
 S   3 1.00       0.000000000000
      0.1873113696D+02  0.3349460434D-01
      0.2825394365D+01  0.2347269535D+00
      0.6401216923D+00  0.8137573261D+00
 S   1 1.00       0.000000000000
      0.1612777588D+00  0.1000000000D+01
 ****
     27 0
 S   3 1.00       0.000000000000
      0.1873113696D+02  0.3349460434D-01
      0.2825394365D+01  0.2347269535D+00
      0.6401216923D+00  0.8137573261D+00
 S   1 1.00       0.000000000000
      0.1612777588D+00  0.1000000000D+01
 ****
     28 0
 S   6 1.00       0.000000000000
      0.3047524880D+04  0.1834737132D-02
      0.4573695180D+03  0.1403732281D-01
      0.1039486850D+03  0.6884262226D-01
      0.2921015530D+02  0.2321844432D+00
      0.9286662960D+01  0.4679413484D+00
      0.3163926960D+01  0.3623119853D+00
 SP   3 1.00       0.000000000000
      0.7868272350D+01 -0.1193324198D+00  0.6899906659D-01
      0.1881288540D+01 -0.1608541517D+00  0.3164239610D+00
      0.5442492580D+00  0.1143456438D+01  0.7443082909D+00
 SP   1 1.00       0.000000000000
      0.1687144782D+00  0.1000000000D+01  0.1000000000D+01
 D   1 1.00       0.000000000000
      0.8000000000D+00  0.1000000000D+01
 ****
     29 0
 S   6 1.00       0.000000000000
      0.3047524880D+04  0.1834737132D-02
      0.4573695180D+03  0.1403732281D-01
      0.1039486850D+03  0.6884262226D-01
      0.2921015530D+02  0.2321844432D+00
      0.9286662960D+01  0.4679413484D+00
      0.3163926960D+01  0.3623119853D+00
 SP   3 1.00       0.000000000000
      0.7868272350D+01 -0.1193324198D+00  0.6899906659D-01
      0.1881288540D+01 -0.1608541517D+00  0.3164239610D+00
      0.5442492580D+00  0.1143456438D+01  0.7443082909D+00
 SP   1 1.00       0.000000000000
      0.1687144782D+00  0.1000000000D+01  0.1000000000D+01
 D   1 1.00       0.000000000000
      0.8000000000D+00  0.1000000000D+01
 ****
     30 0
 S   3 1.00       0.000000000000
      0.1873113696D+02  0.3349460434D-01
      0.2825394365D+01  0.2347269535D+00
      0.6401216923D+00  0.8137573261D+00
 S   1 1.00       0.000000000000
      0.1612777588D+00  0.1000000000D+01
 ****
     31 0
 S   6 1.00       0.000000000000
      0.3047524880D+04  0.1834737132D-02
      0.4573695180D+03  0.1403732281D-01
      0.1039486850D+03  0.6884262226D-01
      0.2921015530D+02  0.2321844432D+00
      0.9286662960D+01  0.4679413484D+00
      0.3163926960D+01  0.3623119853D+00
 SP   3 1.00       0.000000000000
      0.7868272350D+01 -0.1193324198D+00  0.6899906659D-01
      0.1881288540D+01 -0.1608541517D+00  0.3164239610D+00
      0.5442492580D+00  0.1143456438D+01  0.7443082909D+00
 SP   1 1.00       0.000000000000
      0.1687144782D+00  0.1000000000D+01  0.1000000000D+01
 D   1 1.00       0.000000000000
      0.8000000000D+00  0.1000000000D+01
 ****
     32 0
 S   3 1.00       0.000000000000
      0.1873113696D+02  0.3349460434D-01
      0.2825394365D+01  0.2347269535D+00
      0.6401216923D+00  0.8137573261D+00
 S   1 1.00       0.000000000000
      0.1612777588D+00  0.1000000000D+01
 ****
     33 0
 S   3 1.00       0.000000000000
      0.1873113696D+02  0.3349460434D-01
      0.2825394365D+01  0.2347269535D+00
      0.6401216923D+00  0.8137573261D+00
 S   1 1.00       0.000000000000
      0.1612777588D+00  0.1000000000D+01
 ****
     34 0
 S   6 1.00       0.000000000000
      0.3047524880D+04  0.1834737132D-02
      0.4573695180D+03  0.1403732281D-01
      0.1039486850D+03  0.6884262226D-01
      0.2921015530D+02  0.2321844432D+00
      0.9286662960D+01  0.4679413484D+00
      0.3163926960D+01  0.3623119853D+00
 SP   3 1.00       0.000000000000
      0.7868272350D+01 -0.1193324198D+00  0.6899906659D-01
      0.1881288540D+01 -0.1608541517D+00  0.3164239610D+00
      0.5442492580D+00  0.1143456438D+01  0.7443082909D+00
 SP   1 1.00       0.000000000000
      0.1687144782D+00  0.1000000000D+01  0.1000000000D+01
 D   1 1.00       0.000000000000
      0.8000000000D+00  0.1000000000D+01
 ****
     35 0
 S   3 1.00       0.000000000000
      0.1873113696D+02  0.3349460434D-01
      0.2825394365D+01  0.2347269535D+00
      0.6401216923D+00  0.8137573261D+00
 S   1 1.00       0.000000000000
      0.1612777588D+00  0.1000000000D+01
 ****
     36 0
 S   3 1.00       0.000000000000
      0.1873113696D+02  0.3349460434D-01
      0.2825394365D+01  0.2347269535D+00
      0.6401216923D+00  0.8137573261D+00
 S   1 1.00       0.000000000000
      0.1612777588D+00  0.1000000000D+01
 ****
     37 0
 S   6 1.00       0.000000000000
      0.3047524880D+04  0.1834737132D-02
      0.4573695180D+03  0.1403732281D-01
      0.1039486850D+03  0.6884262226D-01
      0.2921015530D+02  0.2321844432D+00
      0.9286662960D+01  0.4679413484D+00
      0.3163926960D+01  0.3623119853D+00
 SP   3 1.00       0.000000000000
      0.7868272350D+01 -0.1193324198D+00  0.6899906659D-01
      0.1881288540D+01 -0.1608541517D+00  0.3164239610D+00
      0.5442492580D+00  0.1143456438D+01  0.7443082909D+00
 SP   1 1.00       0.000000000000
      0.1687144782D+00  0.1000000000D+01  0.1000000000D+01
 D   1 1.00       0.000000000000
      0.8000000000D+00  0.1000000000D+01
 ****
     38 0
 S   3 1.00       0.000000000000
      0.1873113696D+02  0.3349460434D-01
      0.2825394365D+01  0.2347269535D+00
      0.6401216923D+00  0.8137573261D+00
 S   1 1.00       0.000000000000
      0.1612777588D+00  0.1000000000D+01
 ****
     39 0
 S   6 1.00       0.000000000000
      0.3047524880D+04  0.1834737132D-02
      0.4573695180D+03  0.1403732281D-01
      0.1039486850D+03  0.6884262226D-01
      0.2921015530D+02  0.2321844432D+00
      0.9286662960D+01  0.4679413484D+00
      0.3163926960D+01  0.3623119853D+00
 SP   3 1.00       0.000000000000
      0.7868272350D+01 -0.1193324198D+00  0.6899906659D-01
      0.1881288540D+01 -0.1608541517D+00  0.3164239610D+00
      0.5442492580D+00  0.1143456438D+01  0.7443082909D+00
 SP   1 1.00       0.000000000000
      0.1687144782D+00  0.1000000000D+01  0.1000000000D+01
 D   1 1.00       0.000000000000
      0.8000000000D+00  0.1000000000D+01
 ****
     40 0
 S   3 1.00       0.000000000000
      0.1873113696D+02  0.3349460434D-01
      0.2825394365D+01  0.2347269535D+00
      0.6401216923D+00  0.8137573261D+00
 S   1 1.00       0.000000000000
      0.1612777588D+00  0.1000000000D+01
 ****
     41 0
 S   3 1.00       0.000000000000
      0.1873113696D+02  0.3349460434D-01
      0.2825394365D+01  0.2347269535D+00
      0.6401216923D+00  0.8137573261D+00
 S   1 1.00       0.000000000000
      0.1612777588D+00  0.1000000000D+01
 ****
     42 0
 S   3 1.00       0.000000000000
      0.1873113696D+02  0.3349460434D-01
      0.2825394365D+01  0.2347269535D+00
      0.6401216923D+00  0.8137573261D+00
 S   1 1.00       0.000000000000
      0.1612777588D+00  0.1000000000D+01
 ****
     43 0
 S   6 1.00       0.000000000000
      0.3047524880D+04  0.1834737132D-02
      0.4573695180D+03  0.1403732281D-01
      0.1039486850D+03  0.6884262226D-01
      0.2921015530D+02  0.2321844432D+00
      0.9286662960D+01  0.4679413484D+00
      0.3163926960D+01  0.3623119853D+00
 SP   3 1.00       0.000000000000
      0.7868272350D+01 -0.1193324198D+00  0.6899906659D-01
      0.1881288540D+01 -0.1608541517D+00  0.3164239610D+00
      0.5442492580D+00  0.1143456438D+01  0.7443082909D+00
 SP   1 1.00       0.000000000000
      0.1687144782D+00  0.1000000000D+01  0.1000000000D+01
 D   1 1.00       0.000000000000
      0.8000000000D+00  0.1000000000D+01
 ****
     44 0
 S   3 1.00       0.000000000000
      0.1873113696D+02  0.3349460434D-01
      0.2825394365D+01  0.2347269535D+00
      0.6401216923D+00  0.8137573261D+00
 S   1 1.00       0.000000000000
      0.1612777588D+00  0.1000000000D+01
 ****
     45 0
 S   6 1.00       0.000000000000
      0.3047524880D+04  0.1834737132D-02
      0.4573695180D+03  0.1403732281D-01
      0.1039486850D+03  0.6884262226D-01
      0.2921015530D+02  0.2321844432D+00
      0.9286662960D+01  0.4679413484D+00
      0.3163926960D+01  0.3623119853D+00
 SP   3 1.00       0.000000000000
      0.7868272350D+01 -0.1193324198D+00  0.6899906659D-01
      0.1881288540D+01 -0.1608541517D+00  0.3164239610D+00
      0.5442492580D+00  0.1143456438D+01  0.7443082909D+00
 SP   1 1.00       0.000000000000
      0.1687144782D+00  0.1000000000D+01  0.1000000000D+01
 D   1 1.00       0.000000000000
      0.8000000000D+00  0.1000000000D+01
 ****
     46 0
 S   3 1.00       0.000000000000
      0.1873113696D+02  0.3349460434D-01
      0.2825394365D+01  0.2347269535D+00
      0.6401216923D+00  0.8137573261D+00
 S   1 1.00       0.000000000000
      0.1612777588D+00  0.1000000000D+01
 ****
     47 0
 S   3 1.00       0.000000000000
      0.1873113696D+02  0.3349460434D-01
      0.2825394365D+01  0.2347269535D+00
      0.6401216923D+00  0.8137573261D+00
 S   1 1.00       0.000000000000
      0.1612777588D+00  0.1000000000D+01
 ****
     48 0
 S   3 1.00       0.000000000000
      0.1873113696D+02  0.3349460434D-01
      0.2825394365D+01  0.2347269535D+00
      0.6401216923D+00  0.8137573261D+00
 S   1 1.00       0.000000000000
      0.1612777588D+00  0.1000000000D+01
 ****
     49 0
 S   6 1.00       0.000000000000
      0.3047524880D+04  0.1834737132D-02
      0.4573695180D+03  0.1403732281D-01
      0.1039486850D+03  0.6884262226D-01
      0.2921015530D+02  0.2321844432D+00
      0.9286662960D+01  0.4679413484D+00
      0.3163926960D+01  0.3623119853D+00
 SP   3 1.00       0.000000000000
      0.7868272350D+01 -0.1193324198D+00  0.6899906659D-01
      0.1881288540D+01 -0.1608541517D+00  0.3164239610D+00
      0.5442492580D+00  0.1143456438D+01  0.7443082909D+00
 SP   1 1.00       0.000000000000
      0.1687144782D+00  0.1000000000D+01  0.1000000000D+01
 D   1 1.00       0.000000000000
      0.8000000000D+00  0.1000000000D+01
 ****
     50 0
 S   3 1.00       0.000000000000
      0.1873113696D+02  0.3349460434D-01
      0.2825394365D+01  0.2347269535D+00
      0.6401216923D+00  0.8137573261D+00
 S   1 1.00       0.000000000000
      0.1612777588D+00  0.1000000000D+01
 ****
     51 0
 S   3 1.00       0.000000000000
      0.1873113696D+02  0.3349460434D-01
      0.2825394365D+01  0.2347269535D+00
      0.6401216923D+00  0.8137573261D+00
 S   1 1.00       0.000000000000
      0.1612777588D+00  0.1000000000D+01
 ****
     52 0
 S   3 1.00       0.000000000000
      0.1873113696D+02  0.3349460434D-01
      0.2825394365D+01  0.2347269535D+00
      0.6401216923D+00  0.8137573261D+00
 S   1 1.00       0.000000000000
      0.1612777588D+00  0.1000000000D+01
 ****
     53 0
 S   6 1.00       0.000000000000
      0.5484671660D+04  0.1831074430D-02
      0.8252349460D+03  0.1395017220D-01
      0.1880469580D+03  0.6844507810D-01
      0.5296450000D+02  0.2327143360D+00
      0.1689757040D+02  0.4701928980D+00
      0.5799635340D+01  0.3585208530D+00
 SP   3 1.00       0.000000000000
      0.1553961625D+02 -0.1107775495D+00  0.7087426823D-01
      0.3599933586D+01 -0.1480262627D+00  0.3397528391D+00
      0.1013761750D+01  0.1130767015D+01  0.7271585773D+00
 SP   1 1.00       0.000000000000
      0.2700058226D+00  0.1000000000D+01  0.1000000000D+01
 D   1 1.00       0.000000000000
      0.8000000000D+00  0.1000000000D+01
 ****
     54 0
 S   6 1.00       0.000000000000
      0.5484671660D+04  0.1831074430D-02
      0.8252349460D+03  0.1395017220D-01
      0.1880469580D+03  0.6844507810D-01
      0.5296450000D+02  0.2327143360D+00
      0.1689757040D+02  0.4701928980D+00
      0.5799635340D+01  0.3585208530D+00
 SP   3 1.00       0.000000000000
      0.1553961625D+02 -0.1107775495D+00  0.7087426823D-01
      0.3599933586D+01 -0.1480262627D+00  0.3397528391D+00
      0.1013761750D+01  0.1130767015D+01  0.7271585773D+00
 SP   1 1.00       0.000000000000
      0.2700058226D+00  0.1000000000D+01  0.1000000000D+01
 D   1 1.00       0.000000000000
      0.8000000000D+00  0.1000000000D+01
 ****
     55 0
 S   3 1.00       0.000000000000
      0.1873113696D+02  0.3349460434D-01
      0.2825394365D+01  0.2347269535D+00
      0.6401216923D+00  0.8137573261D+00
 S   1 1.00       0.000000000000
      0.1612777588D+00  0.1000000000D+01
 ****
     56 0
 S   6 1.00       0.000000000000
      0.5484671660D+04  0.1831074430D-02
      0.8252349460D+03  0.1395017220D-01
      0.1880469580D+03  0.6844507810D-01
      0.5296450000D+02  0.2327143360D+00
      0.1689757040D+02  0.4701928980D+00
      0.5799635340D+01  0.3585208530D+00
 SP   3 1.00       0.000000000000
      0.1553961625D+02 -0.1107775495D+00  0.7087426823D-01
      0.3599933586D+01 -0.1480262627D+00  0.3397528391D+00
      0.1013761750D+01  0.1130767015D+01  0.7271585773D+00
 SP   1 1.00       0.000000000000
      0.2700058226D+00  0.1000000000D+01  0.1000000000D+01
 D   1 1.00       0.000000000000
      0.8000000000D+00  0.1000000000D+01
 ****
     57 0
 S   3 1.00       0.000000000000
      0.1873113696D+02  0.3349460434D-01
      0.2825394365D+01  0.2347269535D+00
      0.6401216923D+00  0.8137573261D+00
 S   1 1.00       0.000000000000
      0.1612777588D+00  0.1000000000D+01
 ****
     58 0
 S   6 1.00       0.000000000000
      0.3047524880D+04  0.1834737132D-02
      0.4573695180D+03  0.1403732281D-01
      0.1039486850D+03  0.6884262226D-01
      0.2921015530D+02  0.2321844432D+00
      0.9286662960D+01  0.4679413484D+00
      0.3163926960D+01  0.3623119853D+00
 SP   3 1.00       0.000000000000
      0.7868272350D+01 -0.1193324198D+00  0.6899906659D-01
      0.1881288540D+01 -0.1608541517D+00  0.3164239610D+00
      0.5442492580D+00  0.1143456438D+01  0.7443082909D+00
 SP   1 1.00       0.000000000000
      0.1687144782D+00  0.1000000000D+01  0.1000000000D+01
 D   1 1.00       0.000000000000
      0.8000000000D+00  0.1000000000D+01
 ****
     59 0
 S   3 1.00       0.000000000000
      0.1873113696D+02  0.3349460434D-01
      0.2825394365D+01  0.2347269535D+00
      0.6401216923D+00  0.8137573261D+00
 S   1 1.00       0.000000000000
      0.1612777588D+00  0.1000000000D+01
 ****
     60 0
 S   3 1.00       0.000000000000
      0.1873113696D+02  0.3349460434D-01
      0.2825394365D+01  0.2347269535D+00
      0.6401216923D+00  0.8137573261D+00
 S   1 1.00       0.000000000000
      0.1612777588D+00  0.1000000000D+01
 ****
     61 0
 S   6 1.00       0.000000000000
      0.3047524880D+04  0.1834737132D-02
      0.4573695180D+03  0.1403732281D-01
      0.1039486850D+03  0.6884262226D-01
      0.2921015530D+02  0.2321844432D+00
      0.9286662960D+01  0.4679413484D+00
      0.3163926960D+01  0.3623119853D+00
 SP   3 1.00       0.000000000000
      0.7868272350D+01 -0.1193324198D+00  0.6899906659D-01
      0.1881288540D+01 -0.1608541517D+00  0.3164239610D+00
      0.5442492580D+00  0.1143456438D+01  0.7443082909D+00
 SP   1 1.00       0.000000000000
      0.1687144782D+00  0.1000000000D+01  0.1000000000D+01
 D   1 1.00       0.000000000000
      0.8000000000D+00  0.1000000000D+01
 ****
     62 0
 S   3 1.00       0.000000000000
      0.1873113696D+02  0.3349460434D-01
      0.2825394365D+01  0.2347269535D+00
      0.6401216923D+00  0.8137573261D+00
 S   1 1.00       0.000000000000
      0.1612777588D+00  0.1000000000D+01
 ****
     63 0
 S   3 1.00       0.000000000000
      0.1873113696D+02  0.3349460434D-01
      0.2825394365D+01  0.2347269535D+00
      0.6401216923D+00  0.8137573261D+00
 S   1 1.00       0.000000000000
      0.1612777588D+00  0.1000000000D+01
 ****
     64 0
 S   6 1.00       0.000000000000
      0.3047524880D+04  0.1834737132D-02
      0.4573695180D+03  0.1403732281D-01
      0.1039486850D+03  0.6884262226D-01
      0.2921015530D+02  0.2321844432D+00
      0.9286662960D+01  0.4679413484D+00
      0.3163926960D+01  0.3623119853D+00
 SP   3 1.00       0.000000000000
      0.7868272350D+01 -0.1193324198D+00  0.6899906659D-01
      0.1881288540D+01 -0.1608541517D+00  0.3164239610D+00
      0.5442492580D+00  0.1143456438D+01  0.7443082909D+00
 SP   1 1.00       0.000000000000
      0.1687144782D+00  0.1000000000D+01  0.1000000000D+01
 D   1 1.00       0.000000000000
      0.8000000000D+00  0.1000000000D+01
 ****
     65 0
 S   3 1.00       0.000000000000
      0.1873113696D+02  0.3349460434D-01
      0.2825394365D+01  0.2347269535D+00
      0.6401216923D+00  0.8137573261D+00
 S   1 1.00       0.000000000000
      0.1612777588D+00  0.1000000000D+01
 ****
     66 0
 S   3 1.00       0.000000000000
      0.1873113696D+02  0.3349460434D-01
      0.2825394365D+01  0.2347269535D+00
      0.6401216923D+00  0.8137573261D+00
 S   1 1.00       0.000000000000
      0.1612777588D+00  0.1000000000D+01
 ****
     67 0
 S   6 1.00       0.000000000000
      0.3047524880D+04  0.1834737132D-02
      0.4573695180D+03  0.1403732281D-01
      0.1039486850D+03  0.6884262226D-01
      0.2921015530D+02  0.2321844432D+00
      0.9286662960D+01  0.4679413484D+00
      0.3163926960D+01  0.3623119853D+00
 SP   3 1.00       0.000000000000
      0.7868272350D+01 -0.1193324198D+00  0.6899906659D-01
      0.1881288540D+01 -0.1608541517D+00  0.3164239610D+00
      0.5442492580D+00  0.1143456438D+01  0.7443082909D+00
 SP   1 1.00       0.000000000000
      0.1687144782D+00  0.1000000000D+01  0.1000000000D+01
 D   1 1.00       0.000000000000
      0.8000000000D+00  0.1000000000D+01
 ****
     68 0
 S   3 1.00       0.000000000000
      0.1873113696D+02  0.3349460434D-01
      0.2825394365D+01  0.2347269535D+00
      0.6401216923D+00  0.8137573261D+00
 S   1 1.00       0.000000000000
      0.1612777588D+00  0.1000000000D+01
 ****
     69 0
 S   6 1.00       0.000000000000
      0.3047524880D+04  0.1834737132D-02
      0.4573695180D+03  0.1403732281D-01
      0.1039486850D+03  0.6884262226D-01
      0.2921015530D+02  0.2321844432D+00
      0.9286662960D+01  0.4679413484D+00
      0.3163926960D+01  0.3623119853D+00
 SP   3 1.00       0.000000000000
      0.7868272350D+01 -0.1193324198D+00  0.6899906659D-01
      0.1881288540D+01 -0.1608541517D+00  0.3164239610D+00
      0.5442492580D+00  0.1143456438D+01  0.7443082909D+00
 SP   1 1.00       0.000000000000
      0.1687144782D+00  0.1000000000D+01  0.1000000000D+01
 D   1 1.00       0.000000000000
      0.8000000000D+00  0.1000000000D+01
 ****
     70 0
 S   3 1.00       0.000000000000
      0.1873113696D+02  0.3349460434D-01
      0.2825394365D+01  0.2347269535D+00
      0.6401216923D+00  0.8137573261D+00
 S   1 1.00       0.000000000000
      0.1612777588D+00  0.1000000000D+01
 ****
     71 0
 S   3 1.00       0.000000000000
      0.1873113696D+02  0.3349460434D-01
      0.2825394365D+01  0.2347269535D+00
      0.6401216923D+00  0.8137573261D+00
 S   1 1.00       0.000000000000
      0.1612777588D+00  0.1000000000D+01
 ****
     72 0
 S   3 1.00       0.000000000000
      0.1873113696D+02  0.3349460434D-01
      0.2825394365D+01  0.2347269535D+00
      0.6401216923D+00  0.8137573261D+00
 S   1 1.00       0.000000000000
      0.1612777588D+00  0.1000000000D+01
 ****
     73 0
 S   6 1.00       0.000000000000
      0.3047524880D+04  0.1834737132D-02
      0.4573695180D+03  0.1403732281D-01
      0.1039486850D+03  0.6884262226D-01
      0.2921015530D+02  0.2321844432D+00
      0.9286662960D+01  0.4679413484D+00
      0.3163926960D+01  0.3623119853D+00
 SP   3 1.00       0.000000000000
      0.7868272350D+01 -0.1193324198D+00  0.6899906659D-01
      0.1881288540D+01 -0.1608541517D+00  0.3164239610D+00
      0.5442492580D+00  0.1143456438D+01  0.7443082909D+00
 SP   1 1.00       0.000000000000
      0.1687144782D+00  0.1000000000D+01  0.1000000000D+01
 D   1 1.00       0.000000000000
      0.8000000000D+00  0.1000000000D+01
 ****
     74 0
 S   3 1.00       0.000000000000
      0.1873113696D+02  0.3349460434D-01
      0.2825394365D+01  0.2347269535D+00
      0.6401216923D+00  0.8137573261D+00
 S   1 1.00       0.000000000000
      0.1612777588D+00  0.1000000000D+01
 ****
     75 0
 S   3 1.00       0.000000000000
      0.1873113696D+02  0.3349460434D-01
      0.2825394365D+01  0.2347269535D+00
      0.6401216923D+00  0.8137573261D+00
 S   1 1.00       0.000000000000
      0.1612777588D+00  0.1000000000D+01
 ****
     76 0
 S   3 1.00       0.000000000000
      0.1873113696D+02  0.3349460434D-01
      0.2825394365D+01  0.2347269535D+00
      0.6401216923D+00  0.8137573261D+00
 S   1 1.00       0.000000000000
      0.1612777588D+00  0.1000000000D+01
 ****

 AO basis set (Overlap normalization):
 Atom C1       Shell     1 S   6     bf    1 -     1         -1.899551272585          3.735754087496          3.201916130354
      0.3047524880D+04  0.1834737132D-02
      0.4573695180D+03  0.1403732281D-01
      0.1039486850D+03  0.6884262226D-01
      0.2921015530D+02  0.2321844432D+00
      0.9286662960D+01  0.4679413484D+00
      0.3163926960D+01  0.3623119853D+00
 Atom C1       Shell     2 SP   3    bf    2 -     5         -1.899551272585          3.735754087496          3.201916130354
      0.7868272350D+01 -0.1193324198D+00  0.6899906659D-01
      0.1881288540D+01 -0.1608541517D+00  0.3164239610D+00
      0.5442492580D+00  0.1143456438D+01  0.7443082909D+00
 Atom C1       Shell     3 SP   1    bf    6 -     9         -1.899551272585          3.735754087496          3.201916130354
      0.1687144782D+00  0.1000000000D+01  0.1000000000D+01
 Atom C1       Shell     4 D   1     bf   10 -    15         -1.899551272585          3.735754087496          3.201916130354
      0.8000000000D+00  0.1000000000D+01
 Atom H2       Shell     5 S   3     bf   16 -    16         -1.875584688624          1.882159877319          4.129334908097
      0.1873113696D+02  0.3349460434D-01
      0.2825394365D+01  0.2347269535D+00
      0.6401216923D+00  0.8137573261D+00
 Atom H2       Shell     6 S   1     bf   17 -    17         -1.875584688624          1.882159877319          4.129334908097
      0.1612777588D+00  0.1000000000D+01
 Atom C3       Shell     7 S   6     bf   18 -    18          0.613625104651          5.087305039408          3.726172117756
      0.3047524880D+04  0.1834737132D-02
      0.4573695180D+03  0.1403732281D-01
      0.1039486850D+03  0.6884262226D-01
      0.2921015530D+02  0.2321844432D+00
      0.9286662960D+01  0.4679413484D+00
      0.3163926960D+01  0.3623119853D+00
 Atom C3       Shell     8 SP   3    bf   19 -    22          0.613625104651          5.087305039408          3.726172117756
      0.7868272350D+01 -0.1193324198D+00  0.6899906659D-01
      0.1881288540D+01 -0.1608541517D+00  0.3164239610D+00
      0.5442492580D+00  0.1143456438D+01  0.7443082909D+00
 Atom C3       Shell     9 SP   1    bf   23 -    26          0.613625104651          5.087305039408          3.726172117756
      0.1687144782D+00  0.1000000000D+01  0.1000000000D+01
 Atom C3       Shell    10 D   1     bf   27 -    32          0.613625104651          5.087305039408          3.726172117756
      0.8000000000D+00  0.1000000000D+01
 Atom H4       Shell    11 S   3     bf   33 -    33          0.905015261855          5.257626528197          5.766915336606
      0.1873113696D+02  0.3349460434D-01
      0.2825394365D+01  0.2347269535D+00
      0.6401216923D+00  0.8137573261D+00
 Atom H4       Shell    12 S   1     bf   34 -    34          0.905015261855          5.257626528197          5.766915336606
      0.1612777588D+00  0.1000000000D+01
 Atom H5       Shell    13 S   3     bf   35 -    35          0.450632049395          7.025607565198          2.981555543943
      0.1873113696D+02  0.3349460434D-01
      0.2825394365D+01  0.2347269535D+00
      0.6401216923D+00  0.8137573261D+00
 Atom H5       Shell    14 S   1     bf   36 -    36          0.450632049395          7.025607565198          2.981555543943
      0.1612777588D+00  0.1000000000D+01
 Atom C6       Shell    15 S   6     bf   37 -    37          2.855820650377          3.782694468897          2.506984443897
      0.3047524880D+04  0.1834737132D-02
      0.4573695180D+03  0.1403732281D-01
      0.1039486850D+03  0.6884262226D-01
      0.2921015530D+02  0.2321844432D+00
      0.9286662960D+01  0.4679413484D+00
      0.3163926960D+01  0.3623119853D+00
 Atom C6       Shell    16 SP   3    bf   38 -    41          2.855820650377          3.782694468897          2.506984443897
      0.7868272350D+01 -0.1193324198D+00  0.6899906659D-01
      0.1881288540D+01 -0.1608541517D+00  0.3164239610D+00
      0.5442492580D+00  0.1143456438D+01  0.7443082909D+00
 Atom C6       Shell    17 SP   1    bf   42 -    45          2.855820650377          3.782694468897          2.506984443897
      0.1687144782D+00  0.1000000000D+01  0.1000000000D+01
 Atom C6       Shell    18 D   1     bf   46 -    51          2.855820650377          3.782694468897          2.506984443897
      0.8000000000D+00  0.1000000000D+01
 Atom C7       Shell    19 S   6     bf   52 -    52          2.646376822863          3.122961463899         -0.305674559248
      0.3047524880D+04  0.1834737132D-02
      0.4573695180D+03  0.1403732281D-01
      0.1039486850D+03  0.6884262226D-01
      0.2921015530D+02  0.2321844432D+00
      0.9286662960D+01  0.4679413484D+00
      0.3163926960D+01  0.3623119853D+00
 Atom C7       Shell    20 SP   3    bf   53 -    56          2.646376822863          3.122961463899         -0.305674559248
      0.7868272350D+01 -0.1193324198D+00  0.6899906659D-01
      0.1881288540D+01 -0.1608541517D+00  0.3164239610D+00
      0.5442492580D+00  0.1143456438D+01  0.7443082909D+00
 Atom C7       Shell    21 SP   1    bf   57 -    60          2.646376822863          3.122961463899         -0.305674559248
      0.1687144782D+00  0.1000000000D+01  0.1000000000D+01
 Atom C7       Shell    22 D   1     bf   61 -    66          2.646376822863          3.122961463899         -0.305674559248
      0.8000000000D+00  0.1000000000D+01
 Atom C8       Shell    23 S   6     bf   67 -    67         -0.003450866686          1.921051839532         -0.788544448299
      0.3047524880D+04  0.1834737132D-02
      0.4573695180D+03  0.1403732281D-01
      0.1039486850D+03  0.6884262226D-01
      0.2921015530D+02  0.2321844432D+00
      0.9286662960D+01  0.4679413484D+00
      0.3163926960D+01  0.3623119853D+00
 Atom C8       Shell    24 SP   3    bf   68 -    71         -0.003450866686          1.921051839532         -0.788544448299
      0.7868272350D+01 -0.1193324198D+00  0.6899906659D-01
      0.1881288540D+01 -0.1608541517D+00  0.3164239610D+00
      0.5442492580D+00  0.1143456438D+01  0.7443082909D+00
 Atom C8       Shell    25 SP   1    bf   72 -    75         -0.003450866686          1.921051839532         -0.788544448299
      0.1687144782D+00  0.1000000000D+01  0.1000000000D+01
 Atom C8       Shell    26 D   1     bf   76 -    81         -0.003450866686          1.921051839532         -0.788544448299
      0.8000000000D+00  0.1000000000D+01
 Atom H9       Shell    27 S   3     bf   82 -    82          0.000000000000          0.000000000000          0.000000000000
      0.1873113696D+02  0.3349460434D-01
      0.2825394365D+01  0.2347269535D+00
      0.6401216923D+00  0.8137573261D+00
 Atom H9       Shell    28 S   1     bf   83 -    83          0.000000000000          0.000000000000          0.000000000000
      0.1612777588D+00  0.1000000000D+01
 Atom H10      Shell    29 S   3     bf   84 -    84         -0.304011845916          1.716940800268         -2.825401388665
      0.1873113696D+02  0.3349460434D-01
      0.2825394365D+01  0.2347269535D+00
      0.6401216923D+00  0.8137573261D+00
 Atom H10      Shell    30 S   1     bf   85 -    85         -0.304011845916          1.716940800268         -2.825401388665
      0.1612777588D+00  0.1000000000D+01
 Atom C11      Shell    31 S   6     bf   86 -    86         -2.242874486531          3.369632008059          0.358623778423
      0.3047524880D+04  0.1834737132D-02
      0.4573695180D+03  0.1403732281D-01
      0.1039486850D+03  0.6884262226D-01
      0.2921015530D+02  0.2321844432D+00
      0.9286662960D+01  0.4679413484D+00
      0.3163926960D+01  0.3623119853D+00
 Atom C11      Shell    32 SP   3    bf   87 -    90         -2.242874486531          3.369632008059          0.358623778423
      0.7868272350D+01 -0.1193324198D+00  0.6899906659D-01
      0.1881288540D+01 -0.1608541517D+00  0.3164239610D+00
      0.5442492580D+00  0.1143456438D+01  0.7443082909D+00
 Atom C11      Shell    33 SP   1    bf   91 -    94         -2.242874486531          3.369632008059          0.358623778423
      0.1687144782D+00  0.1000000000D+01  0.1000000000D+01
 Atom C11      Shell    34 D   1     bf   95 -   100         -2.242874486531          3.369632008059          0.358623778423
      0.8000000000D+00  0.1000000000D+01
 Atom H12      Shell    35 S   3     bf  101 -   101         -2.443982675380          5.231670724022         -0.543981062161
      0.1873113696D+02  0.3349460434D-01
      0.2825394365D+01  0.2347269535D+00
      0.6401216923D+00  0.8137573261D+00
 Atom H12      Shell    36 S   1     bf  102 -   102         -2.443982675380          5.231670724022         -0.543981062161
      0.1612777588D+00  0.1000000000D+01
 Atom H13      Shell    37 S   3     bf  103 -   103         -4.005748897705          2.343613859154          0.000000000000
      0.1873113696D+02  0.3349460434D-01
      0.2825394365D+01  0.2347269535D+00
      0.6401216923D+00  0.8137573261D+00
 Atom H13      Shell    38 S   1     bf  104 -   104         -4.005748897705          2.343613859154          0.000000000000
      0.1612777588D+00  0.1000000000D+01
 Atom C14      Shell    39 S   6     bf  105 -   105          4.924578662304          3.265751759424          3.872041344070
      0.3047524880D+04  0.1834737132D-02
      0.4573695180D+03  0.1403732281D-01
      0.1039486850D+03  0.6884262226D-01
      0.2921015530D+02  0.2321844432D+00
      0.9286662960D+01  0.4679413484D+00
      0.3163926960D+01  0.3623119853D+00
 Atom C14      Shell    40 SP   3    bf  106 -   109          4.924578662304          3.265751759424          3.872041344070
      0.7868272350D+01 -0.1193324198D+00  0.6899906659D-01
      0.1881288540D+01 -0.1608541517D+00  0.3164239610D+00
      0.5442492580D+00  0.1143456438D+01  0.7443082909D+00
 Atom C14      Shell    41 SP   1    bf  110 -   113          4.924578662304          3.265751759424          3.872041344070
      0.1687144782D+00  0.1000000000D+01  0.1000000000D+01
 Atom C14      Shell    42 D   1     bf  114 -   119          4.924578662304          3.265751759424          3.872041344070
      0.8000000000D+00  0.1000000000D+01
 Atom H15      Shell    43 S   3     bf  120 -   120          4.957842604353          3.726958546183          5.880317971916
      0.1873113696D+02  0.3349460434D-01
      0.2825394365D+01  0.2347269535D+00
      0.6401216923D+00  0.8137573261D+00
 Atom H15      Shell    44 S   1     bf  121 -   121          4.957842604353          3.726958546183          5.880317971916
      0.1612777588D+00  0.1000000000D+01
 Atom C16      Shell    45 S   6     bf  122 -   122          7.305162178659          2.091369605560          2.876175230705
      0.3047524880D+04  0.1834737132D-02
      0.4573695180D+03  0.1403732281D-01
      0.1039486850D+03  0.6884262226D-01
      0.2921015530D+02  0.2321844432D+00
      0.9286662960D+01  0.4679413484D+00
      0.3163926960D+01  0.3623119853D+00
 Atom C16      Shell    46 SP   3    bf  123 -   126          7.305162178659          2.091369605560          2.876175230705
      0.7868272350D+01 -0.1193324198D+00  0.6899906659D-01
      0.1881288540D+01 -0.1608541517D+00  0.3164239610D+00
      0.5442492580D+00  0.1143456438D+01  0.7443082909D+00
 Atom C16      Shell    47 SP   1    bf  127 -   130          7.305162178659          2.091369605560          2.876175230705
      0.1687144782D+00  0.1000000000D+01  0.1000000000D+01
 Atom C16      Shell    48 D   1     bf  131 -   136          7.305162178659          2.091369605560          2.876175230705
      0.8000000000D+00  0.1000000000D+01
 Atom H17      Shell    49 S   3     bf  137 -   137          7.578019111377          0.225458425010          3.760841184568
      0.1873113696D+02  0.3349460434D-01
      0.2825394365D+01  0.2347269535D+00
      0.6401216923D+00  0.8137573261D+00
 Atom H17      Shell    50 S   1     bf  138 -   138          7.578019111377          0.225458425010          3.760841184568
      0.1612777588D+00  0.1000000000D+01
 Atom C18      Shell    51 S   6     bf  139 -   139          7.397484937854          1.829896477553         -0.013520801508
      0.3047524880D+04  0.1834737132D-02
      0.4573695180D+03  0.1403732281D-01
      0.1039486850D+03  0.6884262226D-01
      0.2921015530D+02  0.2321844432D+00
      0.9286662960D+01  0.4679413484D+00
      0.3163926960D+01  0.3623119853D+00
 Atom C18      Shell    52 SP   3    bf  140 -   143          7.397484937854          1.829896477553         -0.013520801508
      0.7868272350D+01 -0.1193324198D+00  0.6899906659D-01
      0.1881288540D+01 -0.1608541517D+00  0.3164239610D+00
      0.5442492580D+00  0.1143456438D+01  0.7443082909D+00
 Atom C18      Shell    53 SP   1    bf  144 -   147          7.397484937854          1.829896477553         -0.013520801508
      0.1687144782D+00  0.1000000000D+01  0.1000000000D+01
 Atom C18      Shell    54 D   1     bf  148 -   153          7.397484937854          1.829896477553         -0.013520801508
      0.8000000000D+00  0.1000000000D+01
 Atom H19      Shell    55 S   3     bf  154 -   154          7.964234743272          3.676334275967         -0.757286563924
      0.1873113696D+02  0.3349460434D-01
      0.2825394365D+01  0.2347269535D+00
      0.6401216923D+00  0.8137573261D+00
 Atom H19      Shell    56 S   1     bf  155 -   155          7.964234743272          3.676334275967         -0.757286563924
      0.1612777588D+00  0.1000000000D+01
 Atom C20      Shell    57 S   6     bf  156 -   156          4.727713702308          1.139349201388         -1.029956508241
      0.3047524880D+04  0.1834737132D-02
      0.4573695180D+03  0.1403732281D-01
      0.1039486850D+03  0.6884262226D-01
      0.2921015530D+02  0.2321844432D+00
      0.9286662960D+01  0.4679413484D+00
      0.3163926960D+01  0.3623119853D+00
 Atom C20      Shell    58 SP   3    bf  157 -   160          4.727713702308          1.139349201388         -1.029956508241
      0.7868272350D+01 -0.1193324198D+00  0.6899906659D-01
      0.1881288540D+01 -0.1608541517D+00  0.3164239610D+00
      0.5442492580D+00  0.1143456438D+01  0.7443082909D+00
 Atom C20      Shell    59 SP   1    bf  161 -   164          4.727713702308          1.139349201388         -1.029956508241
      0.1687144782D+00  0.1000000000D+01  0.1000000000D+01
 Atom C20      Shell    60 D   1     bf  165 -   170          4.727713702308          1.139349201388         -1.029956508241
      0.8000000000D+00  0.1000000000D+01
 Atom H21      Shell    61 S   3     bf  171 -   171          4.182201111603         -0.618735906772         -0.052978661108
      0.1873113696D+02  0.3349460434D-01
      0.2825394365D+01  0.2347269535D+00
      0.6401216923D+00  0.8137573261D+00
 Atom H21      Shell    62 S   1     bf  172 -   172          4.182201111603         -0.618735906772         -0.052978661108
      0.1612777588D+00  0.1000000000D+01
 Atom C22      Shell    63 S   6     bf  173 -   173          4.789604066194          0.521265155646         -3.886219978142
      0.3047524880D+04  0.1834737132D-02
      0.4573695180D+03  0.1403732281D-01
      0.1039486850D+03  0.6884262226D-01
      0.2921015530D+02  0.2321844432D+00
      0.9286662960D+01  0.4679413484D+00
      0.3163926960D+01  0.3623119853D+00
 Atom C22      Shell    64 SP   3    bf  174 -   177          4.789604066194          0.521265155646         -3.886219978142
      0.7868272350D+01 -0.1193324198D+00  0.6899906659D-01
      0.1881288540D+01 -0.1608541517D+00  0.3164239610D+00
      0.5442492580D+00  0.1143456438D+01  0.7443082909D+00
 Atom C22      Shell    65 SP   1    bf  178 -   181          4.789604066194          0.521265155646         -3.886219978142
      0.1687144782D+00  0.1000000000D+01  0.1000000000D+01
 Atom C22      Shell    66 D   1     bf  182 -   187          4.789604066194          0.521265155646         -3.886219978142
      0.8000000000D+00  0.1000000000D+01
 Atom H23      Shell    67 S   3     bf  188 -   188          5.117730990751          2.253314467524         -4.970932075871
      0.1873113696D+02  0.3349460434D-01
      0.2825394365D+01  0.2347269535D+00
      0.6401216923D+00  0.8137573261D+00
 Atom H23      Shell    68 S   1     bf  189 -   189          5.117730990751          2.253314467524         -4.970932075871
      0.1612777588D+00  0.1000000000D+01
 Atom H24      Shell    69 S   3     bf  190 -   190          2.937432196186         -0.185256712513         -4.482536136279
      0.1873113696D+02  0.3349460434D-01
      0.2825394365D+01  0.2347269535D+00
      0.6401216923D+00  0.8137573261D+00
 Atom H24      Shell    70 S   1     bf  191 -   191          2.937432196186         -0.185256712513         -4.482536136279
      0.1612777588D+00  0.1000000000D+01
 Atom C25      Shell    71 S   6     bf  192 -   192          6.806204238457         -1.444120773901         -4.627929813012
      0.3047524880D+04  0.1834737132D-02
      0.4573695180D+03  0.1403732281D-01
      0.1039486850D+03  0.6884262226D-01
      0.2921015530D+02  0.2321844432D+00
      0.9286662960D+01  0.4679413484D+00
      0.3163926960D+01  0.3623119853D+00
 Atom C25      Shell    72 SP   3    bf  193 -   196          6.806204238457         -1.444120773901         -4.627929813012
      0.7868272350D+01 -0.1193324198D+00  0.6899906659D-01
      0.1881288540D+01 -0.1608541517D+00  0.3164239610D+00
      0.5442492580D+00  0.1143456438D+01  0.7443082909D+00
 Atom C25      Shell    73 SP   1    bf  197 -   200          6.806204238457         -1.444120773901         -4.627929813012
      0.1687144782D+00  0.1000000000D+01  0.1000000000D+01
 Atom C25      Shell    74 D   1     bf  201 -   206          6.806204238457         -1.444120773901         -4.627929813012
      0.8000000000D+00  0.1000000000D+01
 Atom H26      Shell    75 S   3     bf  207 -   207          6.328659106320         -3.276856394893         -3.773417500955
      0.1873113696D+02  0.3349460434D-01
      0.2825394365D+01  0.2347269535D+00
      0.6401216923D+00  0.8137573261D+00
 Atom H26      Shell    76 S   1     bf  208 -   208          6.328659106320         -3.276856394893         -3.773417500955
      0.1612777588D+00  0.1000000000D+01
 Atom H27      Shell    77 S   3     bf  209 -   209          6.747017997078         -1.716674462267         -6.680182503360
      0.1873113696D+02  0.3349460434D-01
      0.2825394365D+01  0.2347269535D+00
      0.6401216923D+00  0.8137573261D+00
 Atom H27      Shell    78 S   1     bf  210 -   210          6.747017997078         -1.716674462267         -6.680182503360
      0.1612777588D+00  0.1000000000D+01
 Atom C28      Shell    79 S   6     bf  211 -   211          9.461807157835         -0.651705712948         -3.741117054672
      0.3047524880D+04  0.1834737132D-02
      0.4573695180D+03  0.1403732281D-01
      0.1039486850D+03  0.6884262226D-01
      0.2921015530D+02  0.2321844432D+00
      0.9286662960D+01  0.4679413484D+00
      0.3163926960D+01  0.3623119853D+00
 Atom C28      Shell    80 SP   3    bf  212 -   215          9.461807157835         -0.651705712948         -3.741117054672
      0.7868272350D+01 -0.1193324198D+00  0.6899906659D-01
      0.1881288540D+01 -0.1608541517D+00  0.3164239610D+00
      0.5442492580D+00  0.1143456438D+01  0.7443082909D+00
 Atom C28      Shell    81 SP   1    bf  216 -   219          9.461807157835         -0.651705712948         -3.741117054672
      0.1687144782D+00  0.1000000000D+01  0.1000000000D+01
 Atom C28      Shell    82 D   1     bf  220 -   225          9.461807157835         -0.651705712948         -3.741117054672
      0.8000000000D+00  0.1000000000D+01
 Atom C29      Shell    83 S   6     bf  226 -   226          9.305531190810         -0.204758478334         -0.835204205369
      0.3047524880D+04  0.1834737132D-02
      0.4573695180D+03  0.1403732281D-01
      0.1039486850D+03  0.6884262226D-01
      0.2921015530D+02  0.2321844432D+00
      0.9286662960D+01  0.4679413484D+00
      0.3163926960D+01  0.3623119853D+00
 Atom C29      Shell    84 SP   3    bf  227 -   230          9.305531190810         -0.204758478334         -0.835204205369
      0.7868272350D+01 -0.1193324198D+00  0.6899906659D-01
      0.1881288540D+01 -0.1608541517D+00  0.3164239610D+00
      0.5442492580D+00  0.1143456438D+01  0.7443082909D+00
 Atom C29      Shell    85 SP   1    bf  231 -   234          9.305531190810         -0.204758478334         -0.835204205369
      0.1687144782D+00  0.1000000000D+01  0.1000000000D+01
 Atom C29      Shell    86 D   1     bf  235 -   240          9.305531190810         -0.204758478334         -0.835204205369
      0.8000000000D+00  0.1000000000D+01
 Atom H30      Shell    87 S   3     bf  241 -   241          8.580937021266         -1.996245421859         -0.049004037927
      0.1873113696D+02  0.3349460434D-01
      0.2825394365D+01  0.2347269535D+00
      0.6401216923D+00  0.8137573261D+00
 Atom H30      Shell    88 S   1     bf  242 -   242          8.580937021266         -1.996245421859         -0.049004037927
      0.1612777588D+00  0.1000000000D+01
 Atom C31      Shell    89 S   6     bf  243 -   243         12.087316528698          0.000000000000          0.000000000000
      0.3047524880D+04  0.1834737132D-02
      0.4573695180D+03  0.1403732281D-01
      0.1039486850D+03  0.6884262226D-01
      0.2921015530D+02  0.2321844432D+00
      0.9286662960D+01  0.4679413484D+00
      0.3163926960D+01  0.3623119853D+00
 Atom C31      Shell    90 SP   3    bf  244 -   247         12.087316528698          0.000000000000          0.000000000000
      0.7868272350D+01 -0.1193324198D+00  0.6899906659D-01
      0.1881288540D+01 -0.1608541517D+00  0.3164239610D+00
      0.5442492580D+00  0.1143456438D+01  0.7443082909D+00
 Atom C31      Shell    91 SP   1    bf  248 -   251         12.087316528698          0.000000000000          0.000000000000
      0.1687144782D+00  0.1000000000D+01  0.1000000000D+01
 Atom C31      Shell    92 D   1     bf  252 -   257         12.087316528698          0.000000000000          0.000000000000
      0.8000000000D+00  0.1000000000D+01
 Atom H32      Shell    93 S   3     bf  258 -   258         12.345554653435         -0.464416713363          1.995959884240
      0.1873113696D+02  0.3349460434D-01
      0.2825394365D+01  0.2347269535D+00
      0.6401216923D+00  0.8137573261D+00
 Atom H32      Shell    94 S   1     bf  259 -   259         12.345554653435         -0.464416713363          1.995959884240
      0.1612777588D+00  0.1000000000D+01
 Atom H33      Shell    95 S   3     bf  260 -   260         12.778254071103          1.935767760538         -0.234973139398
      0.1873113696D+02  0.3349460434D-01
      0.2825394365D+01  0.2347269535D+00
      0.6401216923D+00  0.8137573261D+00
 Atom H33      Shell    96 S   1     bf  261 -   261         12.778254071103          1.935767760538         -0.234973139398
      0.1612777588D+00  0.1000000000D+01
 Atom C34      Shell    97 S   6     bf  262 -   262         13.493063182039         -1.864568057700         -1.783852941277
      0.3047524880D+04  0.1834737132D-02
      0.4573695180D+03  0.1403732281D-01
      0.1039486850D+03  0.6884262226D-01
      0.2921015530D+02  0.2321844432D+00
      0.9286662960D+01  0.4679413484D+00
      0.3163926960D+01  0.3623119853D+00
 Atom C34      Shell    98 SP   3    bf  263 -   266         13.493063182039         -1.864568057700         -1.783852941277
      0.7868272350D+01 -0.1193324198D+00  0.6899906659D-01
      0.1881288540D+01 -0.1608541517D+00  0.3164239610D+00
      0.5442492580D+00  0.1143456438D+01  0.7443082909D+00
 Atom C34      Shell    99 SP   1    bf  267 -   270         13.493063182039         -1.864568057700         -1.783852941277
      0.1687144782D+00  0.1000000000D+01  0.1000000000D+01
 Atom C34      Shell   100 D   1     bf  271 -   276         13.493063182039         -1.864568057700         -1.783852941277
      0.8000000000D+00  0.1000000000D+01
 Atom H35      Shell   101 S   3     bf  277 -   277         15.105080661539         -0.934371325850         -2.687041423777
      0.1873113696D+02  0.3349460434D-01
      0.2825394365D+01  0.2347269535D+00
      0.6401216923D+00  0.8137573261D+00
 Atom H35      Shell   102 S   1     bf  278 -   278         15.105080661539         -0.934371325850         -2.687041423777
      0.1612777588D+00  0.1000000000D+01
 Atom H36      Shell   103 S   3     bf  279 -   279         14.266901290243         -3.485273345226         -0.753185688140
      0.1873113696D+02  0.3349460434D-01
      0.2825394365D+01  0.2347269535D+00
      0.6401216923D+00  0.8137573261D+00
 Atom H36      Shell   104 S   1     bf  280 -   280         14.266901290243         -3.485273345226         -0.753185688140
      0.1612777588D+00  0.1000000000D+01
 Atom C37      Shell   105 S   6     bf  281 -   281         11.523439144796         -2.776059108657         -3.780134154549
      0.3047524880D+04  0.1834737132D-02
      0.4573695180D+03  0.1403732281D-01
      0.1039486850D+03  0.6884262226D-01
      0.2921015530D+02  0.2321844432D+00
      0.9286662960D+01  0.4679413484D+00
      0.3163926960D+01  0.3623119853D+00
 Atom C37      Shell   106 SP   3    bf  282 -   285         11.523439144796         -2.776059108657         -3.780134154549
      0.7868272350D+01 -0.1193324198D+00  0.6899906659D-01
      0.1881288540D+01 -0.1608541517D+00  0.3164239610D+00
      0.5442492580D+00  0.1143456438D+01  0.7443082909D+00
[...]
 1627 Fit       0.002145
 1628 Fit       0.000315
 1629 Fit      -0.001066
 1630 Fit       0.000901
 1631 Fit       0.000075
 1632 Fit      -0.001658
 1633 Fit      -0.002289
 1634 Fit      -0.002658
 1635 Fit      -0.003154
 1636 Fit      -0.002003
 1637 Fit      -0.002712
 1638 Fit      -0.001037
 1639 Fit       0.001206
 1640 Fit      -0.001401
 1641 Fit       0.001404
 1642 Fit       0.002230
 1643 Fit      -0.000554
 1644 Fit       0.000770
 1645 Fit       0.001787
 1646 Fit       0.001589
 1647 Fit      -0.001021
 1648 Fit      -0.000960
 1649 Fit      -0.000718
 1650 Fit      -0.000181
 1651 Fit      -0.000414
 1652 Fit      -0.001463
 1653 Fit      -0.000923
 1654 Fit       0.000847
 1655 Fit       0.001582
 1656 Fit       0.001666
 1657 Fit       0.000755
 1658 Fit       0.001580
 1659 Fit       0.002375
 1660 Fit       0.002494
 1661 Fit       0.001350
 1662 Fit      -0.000857
 1663 Fit       0.002892
 1664 Fit       0.002298
 1665 Fit       0.000460
 1666 Fit       0.002851
 1667 Fit       0.002212
 1668 Fit       0.000936
 1669 Fit      -0.000868
 1670 Fit       0.001367
 1671 Fit       0.000789
 1672 Fit      -0.000284
 1673 Fit      -0.001766
 1674 Fit      -0.007526
 1675 Fit      -0.005885
 1676 Fit      -0.001058
 1677 Fit      -0.005713
 1678 Fit      -0.000074
 1679 Fit       0.001821
 1680 Fit       0.000646
 1681 Fit      -0.011952
 1682 Fit      -0.002498
 1683 Fit       0.002162
 1684 Fit       0.004232
 1685 Fit       0.003206
 1686 Fit       0.000926
 1687 Fit       0.004977
 1688 Fit       0.010938
 1689 Fit       0.007719
 1690 Fit       0.006492
 1691 Fit       0.004257
 1692 Fit       0.002727
 1693 Fit       0.008074
 1694 Fit       0.005853
 1695 Fit       0.000388
 1696 Fit      -0.005142
 1697 Fit      -0.000992
 1698 Fit       0.004708
 1699 Fit       0.007444
 1700 Fit       0.003439
 1701 Fit      -0.004137
 1702 Fit       0.000470
 1703 Fit       0.008258
 1704 Fit       0.008644
 1705 Fit       0.009117
 1706 Fit       0.010398
 1707 Fit       0.013265
 1708 Fit       0.008402
 1709 Fit       0.011822
 1710 Fit       0.015924
 1711 Fit       0.023369
 1712 Fit       0.005274
 1713 Fit       0.006081
 1714 Fit       0.005612
 1715 Fit       0.004771
 1716 Fit       0.005920
 1717 Fit       0.006328
 1718 Fit       0.006674
 1719 Fit       0.005471
 1720 Fit       0.006179
 1721 Fit       0.007038
 1722 Fit       0.005302
 1723 Fit       0.005817
 1724 Fit       0.006527
 1725 Fit       0.005713
 1726 Fit       0.008577
 1727 Fit       0.007678
 1728 Fit       0.007251
 1729 Fit       0.007104
 1730 Fit       0.008995
 1731 Fit       0.008287
 1732 Fit       0.008337
 1733 Fit       0.008661
 1734 Fit       0.006677
 1735 Fit       0.005691
 1736 Fit       0.007175
 1737 Fit       0.016785
 1738 Fit       0.014671
 1739 Fit       0.009682
 1740 Fit       0.012044
 1741 Fit       0.010413
 1742 Fit       0.007315
 1743 Fit       0.009050
 1744 Fit       0.007342
 1745 Fit       0.008849
 1746 Fit      -0.004984
 1747 Fit      -0.005549
 1748 Fit      -0.002262
 1749 Fit       0.000738
 1750 Fit       0.003427
 1751 Fit       0.001308
 1752 Fit       0.000964
 1753 Fit       0.002161
 1754 Fit       0.003557
 1755 Fit       0.004834
 1756 Fit       0.003879
 1757 Fit       0.004152
 1758 Fit       0.004991
 1759 Fit       0.005797
 1760 Fit       0.005473
 1761 Fit       0.006303
 1762 Fit       0.001127
 1763 Fit       0.002046
 1764 Fit       0.002743
 1765 Fit      -0.000032
 1766 Fit       0.002668
 1767 Fit       0.002802
 1768 Fit       0.006570
 1769 Fit       0.004621
 1770 Fit       0.009000
 1771 Fit       0.008958
 1772 Fit       0.006616
 1773 Fit       0.004577
 1774 Fit       0.003864
 1775 Fit       0.010027
 1776 Fit       0.015064
 1777 Fit       0.011964
 1778 Fit       0.002239
 1779 Fit       0.002548
 1780 Fit       0.002424
 1781 Fit      -0.002338
 1782 Fit       0.000354
 1783 Fit       0.003162
 1784 Fit       0.000501
 1785 Fit       0.004351
 1786 Fit       0.004583
 1787 Fit       0.002393
 1788 Fit      -0.002948
 1789 Fit       0.005963
 1790 Fit       0.006222
 1791 Fit       0.004701
 1792 Fit       0.004143
 1793 Fit       0.006646
 1794 Fit       0.006469
 1795 Fit       0.006495
 1796 Fit       0.006680
 1797 Fit       0.004164
 1798 Fit       0.003518
 1799 Fit       0.003654
 1800 Fit       0.005199
 1801 Fit       0.004647
 1802 Fit       0.004066
 1803 Fit       0.005761
 1804 Fit       0.004778
 1805 Fit       0.007219
 1806 Fit       0.005464
 1807 Fit       0.003573
 1808 Fit       0.008504
 1809 Fit       0.008513
 1810 Fit       0.006986
 1811 Fit       0.005167
 1812 Fit       0.005559
 1813 Fit       0.004273
 1814 Fit       0.001942
 1815 Fit      -0.000245
 1816 Fit       0.005531
 1817 Fit       0.005022
 1818 Fit       0.004844
 1819 Fit       0.004274
 1820 Fit       0.004123
 1821 Fit       0.004302
 1822 Fit       0.003335
 1823 Fit       0.002683
 1824 Fit       0.002722
 1825 Fit       0.003989
 1826 Fit       0.004024
 1827 Fit       0.003235
 1828 Fit       0.001504
 1829 Fit       0.005741
 1830 Fit       0.004679
 1831 Fit       0.004222
 1832 Fit       0.006532
 1833 Fit       0.004344
 1834 Fit       0.002020
 1835 Fit       0.005985
 1836 Fit       0.004511
 1837 Fit      -0.010361
 1838 Fit      -0.014348
 1839 Fit      -0.000128
 1840 Fit      -0.010390
 1841 Fit      -0.011660
 1842 Fit      -0.010702
 1843 Fit      -0.003168
 1844 Fit      -0.005469
 1845 Fit      -0.009908
 1846 Fit      -0.016965
 1847 Fit      -0.000924
 1848 Fit      -0.003102
 1849 Fit      -0.005865
 1850 Fit       0.000080
 1851 Fit      -0.019290
 1852 Fit      -0.011720
 1853 Fit      -0.016343
 1854 Fit      -0.006926
 1855 Fit      -0.009818
 1856 Fit      -0.015297
 1857 Fit      -0.007424
 1858 Fit      -0.006553
 1859 Fit      -0.008394
 1860 Fit      -0.003788
 1861 Fit      -0.007482
 1862 Fit      -0.003821
 1863 Fit      -0.003739
 1864 Fit      -0.004557
 1865 Fit      -0.004445
 1866 Fit      -0.001686
 1867 Fit      -0.000905
 1868 Fit      -0.000953
 1869 Fit      -0.002929
 1870 Fit      -0.004569
 1871 Fit      -0.001169
 1872 Fit      -0.001945
 1873 Fit      -0.004658
 1874 Fit       0.000399
 1875 Fit       0.000161
 1876 Fit      -0.000525
 1877 Fit      -0.002114
 1878 Fit      -0.004690
 1879 Fit       0.000750
 1880 Fit       0.000298
 1881 Fit      -0.000718
 1882 Fit      -0.002444
 1883 Fit       0.000313
 1884 Fit      -0.000852
 1885 Fit      -0.002722
 1886 Fit       0.003899
 1887 Fit       0.002389
 1888 Fit       0.001121
 1889 Fit       0.003953
 1890 Fit       0.002783
 1891 Fit       0.001572
 1892 Fit      -0.013608
 1893 Fit      -0.007089
 1894 Fit      -0.004620
 1895 Fit      -0.003512
 1896 Fit      -0.003177
 1897 Fit      -0.001546
 1898 Fit      -0.001872
 1899 Fit      -0.005210
 1900 Fit      -0.002449
 1901 Fit       0.000952
 1902 Fit       0.000037
 1903 Fit       0.003010
 1904 Fit      -0.002345
 1905 Fit      -0.005011
 1906 Fit      -0.007559
 1907 Fit      -0.001452
 1908 Fit      -0.003285
 1909 Fit      -0.002877
 1910 Fit      -0.000947
 1911 Fit       0.000198
 1912 Fit       0.001998
 1913 Fit       0.003612
 1914 Fit       0.001821
 1915 Fit       0.002725
 1916 Fit       0.004359
 1917 Fit       0.004057
 1918 Fit       0.000847
 1919 Fit       0.000485
 1920 Fit      -0.000581
 1921 Fit      -0.002113
 1922 Fit       0.001118
 1923 Fit       0.001166
 1924 Fit       0.000601
 1925 Fit      -0.000509
 1926 Fit      -0.000247
 1927 Fit      -0.002851
 1928 Fit      -0.001315
 1929 Fit      -0.002432
 1930 Fit      -0.002852
 1931 Fit      -0.003050
 1932 Fit      -0.003469
 1933 Fit      -0.002845
 1934 Fit      -0.003255
 1935 Fit      -0.002978
 1936 Fit      -0.002438
 1937 Fit      -0.002457
 1938 Fit      -0.001664
 1939 Fit      -0.000406
 1940 Fit      -0.002275
 1941 Fit      -0.001424
 1942 Fit       0.000729
 1943 Fit       0.003256
 1944 Fit       0.004592
 1945 Fit      -0.000665
 1946 Fit       0.001443
 1947 Fit       0.002035
 1948 Fit       0.000035
 1949 Fit      -0.002241
 1950 Fit      -0.000271
 1951 Fit      -0.001095
 1952 Fit      -0.000882
 1953 Fit      -0.002311
 1954 Fit       0.000863
 1955 Fit       0.000307
 1956 Fit       0.000170
 1957 Fit      -0.001475
 1958 Fit       0.001562
 1959 Fit       0.000742
 1960 Fit      -0.001044
 1961 Fit      -0.001582
 1962 Fit      -0.000813
 1963 Fit      -0.000621
 1964 Fit      -0.002621
 1965 Fit      -0.002518
 1966 Fit      -0.001919
 1967 Fit      -0.001829
 1968 Fit      -0.002349
 1969 Fit       0.004518
 1970 Fit       0.003939
 1971 Fit       0.002437
 1972 Fit       0.004153
 1973 Fit       0.006370
 1974 Fit       0.008242
 1975 Fit       0.003002
 1976 Fit       0.002960
 1977 Fit       0.004273
 1978 Fit       0.003792
 1979 Fit       0.003699
 1980 Fit       0.004898
 1981 Fit       0.006454
 1982 Fit       0.007806
 1983 Fit       0.009241
 1984 Fit       0.005506
 1985 Fit       0.006466
 1986 Fit       0.007721
 1987 Fit       0.007620
 1988 Fit       0.006938
 1989 Fit       0.007820
 1990 Fit       0.012301
 1991 Fit       0.017950
 1992 Fit       0.005752
 1993 Fit       0.009180
 1994 Fit       0.012666
 1995 Fit       0.006226
 1996 Fit       0.008759
 1997 Fit      -0.003158
 1998 Fit       0.001718
 1999 Fit      -0.004081
 2000 Fit      -0.000703
 2001 Fit       0.001644
 2002 Fit       0.000944
 2003 Fit       0.001545
 2004 Fit      -0.006973
 2005 Fit      -0.013495
 2006 Fit      -0.004160
 2007 Fit       0.004603
 2008 Fit      -0.004727
 2009 Fit      -0.011725
 2010 Fit      -0.018663
 2011 Fit      -0.013383
 2012 Fit      -0.012079
 2013 Fit      -0.017602
 2014 Fit      -0.023022
 2015 Fit      -0.021184
 2016 Fit      -0.020575
 2017 Fit      -0.026412
 2018 Fit      -0.015263
 2019 Fit      -0.003735
 2020 Fit      -0.022018
 2021 Fit      -0.014007
 2022 Fit      -0.003676
 2023 Fit      -0.024701
 2024 Fit      -0.019823
 2025 Fit      -0.012805
 2026 Fit      -0.004199
 2027 Fit       0.004039
 2028 Fit      -0.020673
 2029 Fit      -0.015022
 2030 Fit      -0.008068
 2031 Fit      -0.002389
 2032 Fit       0.000101
 2033 Fit      -0.018948
 2034 Fit      -0.014621
 2035 Fit      -0.009482
 2036 Fit      -0.013697
 2037 Fit       0.012126
 2038 Fit       0.004841
 2039 Fit       0.013787
 2040 Fit       0.018245
 2041 Fit       0.017367
 2042 Fit       0.005560
 2043 Fit       0.013625
 2044 Fit       0.018362
 2045 Fit       0.019709
 2046 Fit       0.005455
 2047 Fit       0.012749
 2048 Fit       0.016643
 2049 Fit       0.017360
 2050 Fit       0.014289
 2051 Fit       0.006627
 2052 Fit       0.011106
 2053 Fit       0.011508
 2054 Fit      -0.020085
 2055 Fit      -0.014683
 2056 Fit      -0.018160
 2057 Fit      -0.022757
 2058 Fit      -0.022120
 2059 Fit      -0.016476
 2060 Fit      -0.006062
 2061 Fit      -0.007122
 2062 Fit      -0.010710
 2063 Fit      -0.016847
 2064 Fit      -0.022416
 2065 Fit      -0.024356
 2066 Fit      -0.021459
 2067 Fit      -0.007818
 2068 Fit      -0.016607
 2069 Fit      -0.022273
 2070 Fit      -0.023142
 2071 Fit      -0.018874
 2072 Fit      -0.001398
 2073 Fit      -0.011900
 2074 Fit      -0.018512
 2075 Fit      -0.020191
 2076 Fit      -0.016760
 2077 Fit      -0.005169
 2078 Fit      -0.012902
 2079 Fit      -0.013523
 2080 Fit      -0.002618
 2081 Fit       0.006694
 2082 Fit       0.006366
 2083 Fit       0.001227
 2084 Fit       0.016606
 2085 Fit       0.014851
 2086 Fit       0.010444
 2087 Fit       0.002511
 2088 Fit       0.022285
 2089 Fit       0.019934
 2090 Fit       0.015630
 2091 Fit       0.008526
 2092 Fit       0.025838
 2093 Fit       0.022619
 2094 Fit       0.017764
 2095 Fit       0.010090
 2096 Fit      -0.001552
 2097 Fit       0.003368
 2098 Fit       0.002688
 2099 Fit       0.001663
 2100 Fit       0.002155
 2101 Fit       0.002849
 2102 Fit       0.001585
 2103 Fit      -0.001054
 2104 Fit       0.004816
 2105 Fit       0.004866
 2106 Fit       0.003968
 2107 Fit       0.001938
 2108 Fit       0.003471
 2109 Fit       0.001007
 2110 Fit       0.002343
 2111 Fit       0.001809
 2112 Fit       0.000463
 2113 Fit       0.000496
 2114 Fit       0.001257
 2115 Fit       0.001115
 2116 Fit       0.001247
 2117 Fit       0.000709
 2118 Fit       0.000931
 2119 Fit       0.001305
 2120 Fit       0.000569
 2121 Fit       0.001523
 2122 Fit       0.000815
 2123 Fit      -0.000833
 2124 Fit      -0.000402
 2125 Fit       0.001313
 2126 Fit      -0.000128
 2127 Fit       0.003570
 2128 Fit       0.003263
 2129 Fit       0.002263
 2130 Fit       0.001000
 2131 Fit       0.003068
 2132 Fit       0.003046
 2133 Fit       0.002218
 2134 Fit       0.001143
 2135 Fit       0.002741
 2136 Fit       0.002022
 2137 Fit       0.001082
 2138 Fit       0.002099
 2139 Fit       0.002554
 2140 Fit       0.002769
 2141 Fit      -0.000855
 2142 Fit       0.000536
 2143 Fit       0.001459
 2144 Fit       0.001996
 2145 Fit      -0.000507
 2146 Fit       0.000506
 2147 Fit       0.001085
 2148 Fit       0.000961
 2149 Fit       0.000594
 2150 Fit       0.001092
 2151 Fit       0.000808
 2152 Fit       0.000919
 2153 Fit       0.001248
 2154 Fit       0.001448
 2155 Fit       0.001155
 2156 Fit       0.000400
 2157 Fit       0.001063
 2158 Fit       0.001356
 2159 Fit       0.001265
 2160 Fit       0.000958
 2161 Fit       0.000516
 2162 Fit       0.000772
 2163 Fit      -0.001801
 2164 Fit      -0.001882
 2165 Fit      -0.001813
 2166 Fit      -0.001844
 2167 Fit      -0.001421
 2168 Fit      -0.000003
 2169 Fit      -0.002233
 2170 Fit      -0.001915
 2171 Fit      -0.000770
 2172 Fit      -0.001905
 2173 Fit      -0.001201
 2174 Fit       0.001676
 2175 Fit       0.001129
 2176 Fit       0.001803
 2177 Fit       0.002188
 2178 Fit       0.000058
 2179 Fit       0.000008
 2180 Fit       0.000559
 2181 Fit       0.000427
 2182 Fit      -0.000270
 2183 Fit      -0.001134
 2184 Fit      -0.001401
 2185 Fit      -0.001062
 2186 Fit       0.001206
 2187 Fit       0.002251
 2188 Fit       0.001102
 2189 Fit      -0.000430
 2190 Fit      -0.000671
 2191 Fit      -0.000244
 2192 Fit       0.001074
 2193 Fit       0.001909
 2194 Fit       0.001781
 2195 Fit       0.000734
 2196 Fit      -0.000020
 2197 Fit      -0.001320
 2198 Fit      -0.000393
 2199 Fit       0.000981
 2200 Fit       0.001183
 2201 Fit       0.000042
 2202 Fit       0.000340
 2203 Fit       0.001907
 2204 Fit       0.000344
 2205 Fit       0.001895
 2206 Fit       0.002745
 2207 Fit       0.002599
 2208 Fit       0.001563
 2209 Fit      -0.000494
 2210 Fit       0.001162
 2211 Fit       0.001925
 2212 Fit       0.001498
 2213 Fit       0.000204
 2214 Fit      -0.000953
 2215 Fit       0.000421
 2216 Fit      -0.000075
 2217 Fit      -0.001273
 2218 Fit      -0.000153
 2219 Fit      -0.001482
 2220 Fit      -0.001884
 2221 Fit      -0.002245
 2222 Fit      -0.001824
 2223 Fit      -0.002147
 2224 Fit      -0.002282
 2225 Fit      -0.000881
 2226 Fit      -0.001890
 2227 Fit      -0.001935
 2228 Fit       0.000915
 2229 Fit       0.000968
 2230 Fit      -0.000468
 2231 Fit       0.000739
 2232 Fit       0.001427
 2233 Fit      -0.000527
 2234 Fit      -0.000031
 2235 Fit       0.000981
 2236 Fit      -0.001249
 2237 Fit      -0.001414
 2238 Fit      -0.001218
 2239 Fit      -0.001087
 2240 Fit      -0.001393
 2241 Fit      -0.000160
 2242 Fit       0.000295
 2243 Fit       0.000485
 2244 Fit       0.000164
 2245 Fit      -0.000651
 2246 Fit      -0.000324
 2247 Fit       0.001091
 2248 Fit       0.001490
 2249 Fit       0.001481
 2250 Fit       0.000831
 2251 Fit       0.002050
 2252 Fit       0.002057
 2253 Fit       0.001192
 2254 Fit      -0.000262
 2255 Fit       0.002373
 2256 Fit       0.001797
 2257 Fit       0.000481
 2258 Fit       0.002572
 2259 Fit       0.001953
 2260 Fit       0.000944
 2261 Fit      -0.000387
 2262 Fit       0.001649
 2263 Fit       0.001040
 2264 Fit       0.000111
 2265 Fit      -0.001080
 2266 Fit       0.000419
 2267 Fit      -0.000305
 -----------------------------------------------------------------
 Leave Link  602 at Thu Apr 27 16:02:18 2017, MaxMem=    33554432 cpu:         3.6
 (Enter /home/michal/g09/l9999.exe)

 Test job not archived.
 1\1\GINC-LINUX\SP\RHF\6-31G(d)\C27H46O3\MICHAL\27-Apr-2017\0\\#P HF/6-
 31G* SCF(Conver=6) NoSymm Test Pop=mk IOp(6/33=2) GFInput GFPrint\\MEP
  - Input generated by R.E.D.-III.x MOLECULE\\0,1\C,0,-1.00519924,1.976
 87592,1.69438104\H,0,-0.99251667,0.99599611,2.18514992\C,0,0.32471642,
 2.69208588,1.97180536\H,0,0.47891345,2.78221613,3.05172016\H,0,0.23846
 421,3.7177914,1.57777124\C,0,1.5112352,2.0017157,1.32663903\C,0,1.4004
 023,1.65260003,-0.16175601\C,0,-0.00182612,1.01657685,-0.41727975\H,0,
 0.,0.,0.\H,0,-0.16087614,0.90856594,-1.49513802\C,0,-1.18687806,1.7831
 3246,0.18977553\H,0,-1.29329993,2.76848091,-0.28786238\H,0,-2.11975102
 ,1.24018704,0.\C,0,2.60597479,1.7281614,2.04899603\H,0,2.62357731,1.97
 222152,3.11173025\C,0,3.86572533,1.10670513,1.52200638\H,0,4.010115,0.
 11930746,1.99015144\C,0,3.91458043,0.96833951,-0.0071549\H,0,4.2144915
 1,1.94543231,-0.40073879\C,0,2.50179834,0.60291763,-0.54502951\H,0,2.2
 1312551,-0.32742094,-0.0280351\C,0,2.53454931,0.27584164,-2.05649904\H
 ,0,2.7081866,1.19240266,-2.63050396\H,0,1.55442217,-0.09803363,-2.3720
 5596\C,0,3.60168816,-0.7641958,-2.44899498\H,0,3.34898216,-1.73403772,
 -1.99680654\H,0,3.57036815,-0.908425,-3.53500033\C,0,5.0069727,-0.3448
 6781,-1.97971388\C,0,4.92427502,-0.10835352,-0.44197103\H,0,4.5408363,
 -1.05636758,-0.02593182\C,0,6.39633242,0.,0.\H,0,6.53298615,-0.2457587
 4,1.05621648\H,0,6.76196082,1.02436418,-0.12434243\C,0,7.14022151,-0.9
 8668692,-0.94397432\H,0,7.99326442,-0.49444801,-1.42192108\H,0,7.54971
 9,-1.84432722,-0.3985687\C,0,6.09794136,-1.46902721,-2.00036084\H,0,5.
 59382581,-2.34321331,-1.56034396\C,0,5.4640515,0.92515191,-2.73439884\
 H,0,4.86098196,1.79853173,-2.47352244\H,0,6.50505244,1.18057601,-2.521
 73384\H,0,5.37292467,0.78335358,-3.81531264\C,0,6.74520591,-2.02730772
 ,-3.3018499\H,0,7.44978856,-2.78779973,-2.92630341\C,0,7.58805834,-1.0
 4400692,-4.13908274\H,0,6.96302977,-0.38248637,-4.74662837\H,0,8.24265
 185,-1.59197329,-4.82418533\H,0,8.23280402,-0.41572004,-3.51798481\C,0
 ,1.53885811,2.96098034,-0.98492017\H,0,1.32243533,2.78923208,-2.043806
 62\H,0,0.84399586,3.72943835,-0.63517053\H,0,2.54766173,3.37535697,-0.
 90078743\O,0,5.02699314,1.78933289,2.05902031\O,0,5.06761334,3.1489587
 3,1.53314811\H,0,4.74112805,3.65243198,2.29682659\O,0,-2.1087372,2.656
 14178,2.29915944\H,0,-2.19912954,3.52757334,1.88850621\C,0,5.73035359,
 -2.78478562,-4.18823373\H,0,5.06418466,-3.37269426,-3.54146503\H,0,5.0
 8813197,-2.06295993,-4.71125511\C,0,6.35715128,-3.73225503,-5.22439242
 \H,0,6.9743603,-3.15857928,-5.92567642\H,0,7.0363314,-4.42290815,-4.70
 605268\C,0,5.29691684,-4.52733498,-6.0034272\H,0,4.610744,-3.8167405,-
 6.48691709\H,0,4.68691066,-5.09549776,-5.28616242\C,0,5.81715624,-5.50
 725014,-7.08095812\H,0,4.92325716,-5.97820295,-7.51629434\C,0,6.553247
 72,-4.79302513,-8.22673516\H,0,7.49449487,-4.34602995,-7.88659353\H,0,
 6.79809556,-5.49631848,-9.0308932\H,0,5.93972205,-3.99322483,-8.658078
 99\C,0,6.67861323,-6.635426,-6.48961344\H,0,7.62488857,-6.25402225,-6.
 08898387\H,0,6.92487879,-7.38001129,-7.2552437\H,0,6.15556829,-7.15288
 696,-5.67671074\\Version=EM64L-G09RevD.01\HF=-1273.6783721\RMSD=5.344e
 -07\Dipole=-0.4629985,0.2400769,-0.456465\Quadrupole=-13.0752567,10.95
 56409,2.1196157,-2.9939768,3.0852291,0.3951428\PG=C01 [X(C27H46O3)]\\@


 THEORY:  SUPPOSITION WHICH HAS SCIENTIFIC BASIS,
          BUT NOT EXPERIMENTALLY PROVEN.
 FACT:    A THEORY WHICH HAS BEEN PROVEN BY ENOUGH 
          MONEY TO PAY FOR THE EXPERIMENTS.

                          --  THE WIZARD OF ID
 Job cpu time:       0 days  0 hours 12 minutes  1.9 seconds.
 File lengths (MBytes):  RWF=    159 Int=      0 D2E=      0 Chk=     11 Scr=      1
 Normal termination of Gaussian 09 at Thu Apr 27 16:02:18 2017.
