 Entering Gaussian System, Link 0=/home/michal/g09/g09
 Input=JOB2-gau_m1-6-2.com
 Output=JOB2-gau_m1-6-2.log
 Initial command:
 /home/michal/g09/l1.exe "/home/michal/gauss_scratch/Gau-29506.inp" -scrdir="/home/michal/gauss_scratch/"
 Entering Link 1 = /home/michal/g09/l1.exe PID=     29507.
  
 Copyright (c) 1988,1990,1992,1993,1995,1998,2003,2009,2013,
            Gaussian, Inc.  All Rights Reserved.
  
 This is part of the Gaussian(R) 09 program.  It is based on
 the Gaussian(R) 03 system (copyright 2003, Gaussian, Inc.),
 the Gaussian(R) 98 system (copyright 1998, Gaussian, Inc.),
 the Gaussian(R) 94 system (copyright 1995, Gaussian, Inc.),
 the Gaussian 92(TM) system (copyright 1992, Gaussian, Inc.),
 the Gaussian 90(TM) system (copyright 1990, Gaussian, Inc.),
 the Gaussian 88(TM) system (copyright 1988, Gaussian, Inc.),
 the Gaussian 86(TM) system (copyright 1986, Carnegie Mellon
 University), and the Gaussian 82(TM) system (copyright 1983,
 Carnegie Mellon University). Gaussian is a federally registered
 trademark of Gaussian, Inc.
  
 This software contains proprietary and confidential information,
 including trade secrets, belonging to Gaussian, Inc.
  
 This software is provided under written license and may be
 used, copied, transmitted, or stored only in accord with that
 written license.
  
 The following legend is applicable only to US Government
 contracts under FAR:
  
                    RESTRICTED RIGHTS LEGEND
  
 Use, reproduction and disclosure by the US Government is
 subject to restrictions as set forth in subparagraphs (a)
 and (c) of the Commercial Computer Software - Restricted
 Rights clause in FAR 52.227-19.
  
 Gaussian, Inc.
 340 Quinnipiac St., Bldg. 40, Wallingford CT 06492
  
  
 ---------------------------------------------------------------
 Warning -- This program may not be used in any manner that
 competes with the business of Gaussian, Inc. or will provide
 assistance to any competitor of Gaussian, Inc.  The licensee
 of this program is prohibited from giving any competitor of
 Gaussian, Inc. access to this program.  By using this program,
 the user acknowledges that Gaussian, Inc. is engaged in the
 business of creating and licensing software in the field of
 computational chemistry and represents and warrants to the
 licensee that it is not a competitor of Gaussian, Inc. and that
 it will not use this program in any manner prohibited above.
 ---------------------------------------------------------------
  

 Cite this work as:
 Gaussian 09, Revision D.01,
 M. J. Frisch, G. W. Trucks, H. B. Schlegel, G. E. Scuseria, 
 M. A. Robb, J. R. Cheeseman, G. Scalmani, V. Barone, B. Mennucci, 
 G. A. Petersson, H. Nakatsuji, M. Caricato, X. Li, H. P. Hratchian, 
 A. F. Izmaylov, J. Bloino, G. Zheng, J. L. Sonnenberg, M. Hada, 
 M. Ehara, K. Toyota, R. Fukuda, J. Hasegawa, M. Ishida, T. Nakajima, 
 Y. Honda, O. Kitao, H. Nakai, T. Vreven, J. A. Montgomery, Jr., 
 J. E. Peralta, F. Ogliaro, M. Bearpark, J. J. Heyd, E. Brothers, 
 K. N. Kudin, V. N. Staroverov, T. Keith, R. Kobayashi, J. Normand, 
 K. Raghavachari, A. Rendell, J. C. Burant, S. S. Iyengar, J. Tomasi, 
 M. Cossi, N. Rega, J. M. Millam, M. Klene, J. E. Knox, J. B. Cross, 
 V. Bakken, C. Adamo, J. Jaramillo, R. Gomperts, R. E. Stratmann, 
 O. Yazyev, A. J. Austin, R. Cammi, C. Pomelli, J. W. Ochterski, 
 R. L. Martin, K. Morokuma, V. G. Zakrzewski, G. A. Voth, 
 P. Salvador, J. J. Dannenberg, S. Dapprich, A. D. Daniels, 
 O. Farkas, J. B. Foresman, J. V. Ortiz, J. Cioslowski, 
 and D. J. Fox, Gaussian, Inc., Wallingford CT, 2013.
 
 ******************************************
 Gaussian 09:  EM64L-G09RevD.01 24-Apr-2013
                27-Apr-2017 
 ******************************************
 %Mem=256MB
 %NProc=12
 Will use up to   12 processors via shared memory.
 ----------------------------------------------------------------------
 #P HF/6-31G* SCF(Conver=6) NoSymm Test Pop=mk IOp(6/33=2) GFInput GFPr
 int
 ----------------------------------------------------------------------
 1/38=1/1;
 2/12=2,15=1,17=6,18=5,40=1/2;
 3/5=1,6=6,7=1,11=9,16=1,24=110,25=1,30=1/1,2,3;
 4//1;
 5/5=2,6=6,38=5/2;
 6/7=2,8=2,9=2,10=2,15=8,20=1,28=1,33=2/1,2;
 99/5=1,9=1/99;
 Leave Link    1 at Thu Apr 27 15:16:17 2017, MaxMem=    33554432 cpu:         0.6
 (Enter /home/michal/g09/l101.exe)
 ----------------------------------------------
 MEP - Input generated by R.E.D.-III.x MOLECULE
 ----------------------------------------------
 Symbolic Z-matrix:
 Charge =  0 Multiplicity = 1
 C                     7.517     2.21588   0.06994 
 H                     7.35514   2.18544   1.15438 
 C                     6.82176   1.00769  -0.57361 
 H                     7.20458   0.08162  -0.13321 
 H                     7.10346   0.99144  -1.63909 
 C                     5.31083   1.0627   -0.45258 
 C                     4.61573   2.36112  -0.8771 
 C                     5.40943   3.56546  -0.28107 
 H                     5.21136   3.6078    0.79901 
 H                     5.02393   4.49918  -0.70336 
 C                     6.9307    3.5114   -0.48893 
 H                     7.1759    3.58318  -1.55907 
 H                     7.40553   4.36961   0. 
 C                     4.63184   0.        0. 
 H                     5.17589  -0.89086   0.31574 
 C                     3.13863  -0.10023   0.10749 
 H                     2.85416  -0.19611   1.16804 
 C                     2.37442   1.0694   -0.53135 
 H                     2.31645   0.85877  -1.60475 
 C                     3.15591   2.39311  -0.30344 
 H                     3.27185   2.49226   0.78873 
 C                     2.33966   3.61788  -0.77506 
 H                     2.29102   3.63096  -1.86931 
 H                     2.85704   4.53878  -0.48449 
 C                     0.9046    3.67132  -0.21598 
 H                     0.94279   3.80999   0.8743 
 H                     0.40803   4.55717  -0.6238 
 C                     0.11823   2.38077  -0.5218 
 C                     0.95669   1.20167   0.05292 
 H                     1.09558   1.44439   1.12143 
 C                     0.        0.        0. 
 H                     0.27465  -0.78582   0.70829 
 H                     0.01694  -0.46415  -0.99136 
 C                    -1.38688   0.62317   0.3124 
 H                    -2.13328   0.30041  -0.42345 
 H                    -1.7568    0.29564   1.28879 
 C                    -1.21977   2.18024   0.27259 
 H                    -1.01793   2.52714   1.29882 
 C                    -0.13254   2.23787  -2.0408 
 H                     0.7964    2.1635   -2.61177 
 H                    -0.7245    1.34842  -2.27514 
 H                    -0.67979   3.10488  -2.42525 
 C                    -2.5087    2.90507  -0.19579 
 H                    -2.76562   2.52036  -1.1947 
 C                    -2.34764   4.43181  -0.30273 
 H                    -2.0142    4.85888   0.65168 
 H                    -3.29431   4.91188  -0.56777 
 H                    -1.62214   4.71811  -1.0672 
 C                     4.62934   2.44175  -2.42694 
 H                     4.27547   3.41619  -2.77747 
 H                     5.63796   2.30341  -2.8259 
 H                     3.99817   1.66508  -2.86832 
 O                     2.68604  -1.39224  -0.37148 
 O                     2.93602  -1.4848   -1.80505 
 H                     3.73222  -2.04086  -1.81877 
 O                     8.93818   2.14793  -0.0733 
 H                     9.15795   2.20096  -1.01409 
 C                    -3.68929   2.55409   0.74428 
 H                    -3.72621   1.4679    0.88778 
 H                    -3.48318   2.98489   1.73496 
 C                    -5.07453   3.00639   0.25136 
 H                    -5.14122   4.10031   0.23737 
 H                    -5.19613   2.68539  -0.793 
 C                    -6.24988   2.43167   1.06367 
 H                    -6.213     1.33433   1.00305 
 H                    -7.19143   2.73054   0.5793 
 C                    -6.32597   2.83396   2.55208 
 H                    -5.39275   2.52001   3.04129 
 C                    -6.47091   4.35209   2.74311 
 H                    -7.37944   4.72158   2.24975 
 H                    -6.54397   4.60733   3.80646 
 H                    -5.62004   4.90373   2.33035 
 C                    -7.48044   2.0913    3.24377 
 H                    -8.44531   2.36812   2.79956 
 H                    -7.52572   2.33193   4.3121 
 H                    -7.3704    1.00488   3.14892 
 
 NAtoms=     76 NQM=       76 NQMF=       0 NMMI=      0 NMMIF=      0
                NMic=       0 NMicF=      0.
                    Isotopes and Nuclear Properties:
 (Nuclear quadrupole moments (NQMom) in fm**2, nuclear magnetic moments (NMagM)
  in nuclear magnetons)

  Atom         1           2           3           4           5           6           7           8           9          10
 IAtWgt=          12           1          12           1           1          12          12          12           1           1
 AtmWgt=  12.0000000   1.0078250  12.0000000   1.0078250   1.0078250  12.0000000  12.0000000  12.0000000   1.0078250   1.0078250
 NucSpn=           0           1           0           1           1           0           0           0           1           1
 AtZEff=   0.0000000   0.0000000   0.0000000   0.0000000   0.0000000   0.0000000   0.0000000   0.0000000   0.0000000   0.0000000
 NQMom=    0.0000000   0.0000000   0.0000000   0.0000000   0.0000000   0.0000000   0.0000000   0.0000000   0.0000000   0.0000000
 NMagM=    0.0000000   2.7928460   0.0000000   2.7928460   2.7928460   0.0000000   0.0000000   0.0000000   2.7928460   2.7928460
 AtZNuc=   6.0000000   1.0000000   6.0000000   1.0000000   1.0000000   6.0000000   6.0000000   6.0000000   1.0000000   1.0000000

  Atom        11          12          13          14          15          16          17          18          19          20
 IAtWgt=          12           1           1          12           1          12           1          12           1          12
 AtmWgt=  12.0000000   1.0078250   1.0078250  12.0000000   1.0078250  12.0000000   1.0078250  12.0000000   1.0078250  12.0000000
 NucSpn=           0           1           1           0           1           0           1           0           1           0
 AtZEff=   0.0000000   0.0000000   0.0000000   0.0000000   0.0000000   0.0000000   0.0000000   0.0000000   0.0000000   0.0000000
 NQMom=    0.0000000   0.0000000   0.0000000   0.0000000   0.0000000   0.0000000   0.0000000   0.0000000   0.0000000   0.0000000
 NMagM=    0.0000000   2.7928460   2.7928460   0.0000000   2.7928460   0.0000000   2.7928460   0.0000000   2.7928460   0.0000000
 AtZNuc=   6.0000000   1.0000000   1.0000000   6.0000000   1.0000000   6.0000000   1.0000000   6.0000000   1.0000000   6.0000000

  Atom        21          22          23          24          25          26          27          28          29          30
 IAtWgt=           1          12           1           1          12           1           1          12          12           1
 AtmWgt=   1.0078250  12.0000000   1.0078250   1.0078250  12.0000000   1.0078250   1.0078250  12.0000000  12.0000000   1.0078250
 NucSpn=           1           0           1           1           0           1           1           0           0           1
 AtZEff=   0.0000000   0.0000000   0.0000000   0.0000000   0.0000000   0.0000000   0.0000000   0.0000000   0.0000000   0.0000000
 NQMom=    0.0000000   0.0000000   0.0000000   0.0000000   0.0000000   0.0000000   0.0000000   0.0000000   0.0000000   0.0000000
 NMagM=    2.7928460   0.0000000   2.7928460   2.7928460   0.0000000   2.7928460   2.7928460   0.0000000   0.0000000   2.7928460
 AtZNuc=   1.0000000   6.0000000   1.0000000   1.0000000   6.0000000   1.0000000   1.0000000   6.0000000   6.0000000   1.0000000

  Atom        31          32          33          34          35          36          37          38          39          40
 IAtWgt=          12           1           1          12           1           1          12           1          12           1
 AtmWgt=  12.0000000   1.0078250   1.0078250  12.0000000   1.0078250   1.0078250  12.0000000   1.0078250  12.0000000   1.0078250
 NucSpn=           0           1           1           0           1           1           0           1           0           1
 AtZEff=   0.0000000   0.0000000   0.0000000   0.0000000   0.0000000   0.0000000   0.0000000   0.0000000   0.0000000   0.0000000
 NQMom=    0.0000000   0.0000000   0.0000000   0.0000000   0.0000000   0.0000000   0.0000000   0.0000000   0.0000000   0.0000000
 NMagM=    0.0000000   2.7928460   2.7928460   0.0000000   2.7928460   2.7928460   0.0000000   2.7928460   0.0000000   2.7928460
 AtZNuc=   6.0000000   1.0000000   1.0000000   6.0000000   1.0000000   1.0000000   6.0000000   1.0000000   6.0000000   1.0000000

  Atom        41          42          43          44          45          46          47          48          49          50
 IAtWgt=           1           1          12           1          12           1           1           1          12           1
 AtmWgt=   1.0078250   1.0078250  12.0000000   1.0078250  12.0000000   1.0078250   1.0078250   1.0078250  12.0000000   1.0078250
 NucSpn=           1           1           0           1           0           1           1           1           0           1
 AtZEff=   0.0000000   0.0000000   0.0000000   0.0000000   0.0000000   0.0000000   0.0000000   0.0000000   0.0000000   0.0000000
 NQMom=    0.0000000   0.0000000   0.0000000   0.0000000   0.0000000   0.0000000   0.0000000   0.0000000   0.0000000   0.0000000
 NMagM=    2.7928460   2.7928460   0.0000000   2.7928460   0.0000000   2.7928460   2.7928460   2.7928460   0.0000000   2.7928460
 AtZNuc=   1.0000000   1.0000000   6.0000000   1.0000000   6.0000000   1.0000000   1.0000000   1.0000000   6.0000000   1.0000000

  Atom        51          52          53          54          55          56          57          58          59          60
 IAtWgt=           1           1          16          16           1          16           1          12           1           1
 AtmWgt=   1.0078250   1.0078250  15.9949146  15.9949146   1.0078250  15.9949146   1.0078250  12.0000000   1.0078250   1.0078250
 NucSpn=           1           1           0           0           1           0           1           0           1           1
 AtZEff=   0.0000000   0.0000000   0.0000000   0.0000000   0.0000000   0.0000000   0.0000000   0.0000000   0.0000000   0.0000000
 NQMom=    0.0000000   0.0000000   0.0000000   0.0000000   0.0000000   0.0000000   0.0000000   0.0000000   0.0000000   0.0000000
 NMagM=    2.7928460   2.7928460   0.0000000   0.0000000   2.7928460   0.0000000   2.7928460   0.0000000   2.7928460   2.7928460
 AtZNuc=   1.0000000   1.0000000   8.0000000   8.0000000   1.0000000   8.0000000   1.0000000   6.0000000   1.0000000   1.0000000

  Atom        61          62          63          64          65          66          67          68          69          70
 IAtWgt=          12           1           1          12           1           1          12           1          12           1
 AtmWgt=  12.0000000   1.0078250   1.0078250  12.0000000   1.0078250   1.0078250  12.0000000   1.0078250  12.0000000   1.0078250
 NucSpn=           0           1           1           0           1           1           0           1           0           1
 AtZEff=   0.0000000   0.0000000   0.0000000   0.0000000   0.0000000   0.0000000   0.0000000   0.0000000   0.0000000   0.0000000
 NQMom=    0.0000000   0.0000000   0.0000000   0.0000000   0.0000000   0.0000000   0.0000000   0.0000000   0.0000000   0.0000000
 NMagM=    0.0000000   2.7928460   2.7928460   0.0000000   2.7928460   2.7928460   0.0000000   2.7928460   0.0000000   2.7928460
 AtZNuc=   6.0000000   1.0000000   1.0000000   6.0000000   1.0000000   1.0000000   6.0000000   1.0000000   6.0000000   1.0000000

  Atom        71          72          73          74          75          76
 IAtWgt=           1           1          12           1           1           1
 AtmWgt=   1.0078250   1.0078250  12.0000000   1.0078250   1.0078250   1.0078250
 NucSpn=           1           1           0           1           1           1
 AtZEff=   0.0000000   0.0000000   0.0000000   0.0000000   0.0000000   0.0000000
 NQMom=    0.0000000   0.0000000   0.0000000   0.0000000   0.0000000   0.0000000
 NMagM=    2.7928460   2.7928460   0.0000000   2.7928460   2.7928460   2.7928460
 AtZNuc=   1.0000000   1.0000000   6.0000000   1.0000000   1.0000000   1.0000000
 Leave Link  101 at Thu Apr 27 15:16:17 2017, MaxMem=    33554432 cpu:         1.0
 (Enter /home/michal/g09/l202.exe)
 Symmetry turned off by external request.
 Stoichiometry    C27H46O3
 Framework group  C1[X(C27H46O3)]
 Deg. of freedom   222
 Full point group                 C1      NOp   1
                          Input orientation:                          
 ---------------------------------------------------------------------
 Center     Atomic      Atomic             Coordinates (Angstroms)
 Number     Number       Type             X           Y           Z
 ---------------------------------------------------------------------
      1          6           0        7.516995    2.215876    0.069936
      2          1           0        7.355138    2.185439    1.154380
      3          6           0        6.821757    1.007692   -0.573614
      4          1           0        7.204575    0.081617   -0.133208
      5          1           0        7.103459    0.991439   -1.639086
      6          6           0        5.310832    1.062697   -0.452581
      7          6           0        4.615728    2.361119   -0.877103
      8          6           0        5.409427    3.565456   -0.281071
      9          1           0        5.211362    3.607803    0.799005
     10          1           0        5.023933    4.499182   -0.703364
     11          6           0        6.930701    3.511400   -0.488928
     12          1           0        7.175897    3.583182   -1.559066
     13          1           0        7.405530    4.369611    0.000000
     14          6           0        4.631842    0.000000    0.000000
     15          1           0        5.175892   -0.890858    0.315736
     16          6           0        3.138634   -0.100231    0.107486
     17          1           0        2.854159   -0.196111    1.168035
     18          6           0        2.374415    1.069396   -0.531347
     19          1           0        2.316448    0.858774   -1.604749
     20          6           0        3.155912    2.393111   -0.303438
     21          1           0        3.271855    2.492262    0.788734
     22          6           0        2.339664    3.617881   -0.775064
     23          1           0        2.291023    3.630955   -1.869307
     24          1           0        2.857038    4.538779   -0.484488
     25          6           0        0.904605    3.671319   -0.215977
     26          1           0        0.942789    3.809994    0.874303
     27          1           0        0.408033    4.557166   -0.623799
     28          6           0        0.118228    2.380765   -0.521801
     29          6           0        0.956687    1.201666    0.052924
     30          1           0        1.095583    1.444390    1.121432
     31          6           0        0.000000    0.000000    0.000000
     32          1           0        0.274647   -0.785816    0.708292
     33          1           0        0.016944   -0.464149   -0.991357
     34          6           0       -1.386881    0.623173    0.312401
     35          1           0       -2.133276    0.300406   -0.423448
     36          1           0       -1.756796    0.295644    1.288794
     37          6           0       -1.219768    2.180241    0.272587
     38          1           0       -1.017933    2.527143    1.298818
     39          6           0       -0.132536    2.237871   -2.040797
     40          1           0        0.796403    2.163500   -2.611769
     41          1           0       -0.724496    1.348420   -2.275145
     42          1           0       -0.679792    3.104881   -2.425246
     43          6           0       -2.508701    2.905070   -0.195793
     44          1           0       -2.765623    2.520365   -1.194698
     45          6           0       -2.347636    4.431806   -0.302731
     46          1           0       -2.014196    4.858876    0.651682
     47          1           0       -3.294311    4.911884   -0.567769
     48          1           0       -1.622140    4.718112   -1.067205
     49          6           0        4.629342    2.441746   -2.426939
     50          1           0        4.275474    3.416191   -2.777470
     51          1           0        5.637964    2.303409   -2.825898
     52          1           0        3.998174    1.665078   -2.868318
     53          8           0        2.686042   -1.392241   -0.371484
     54          8           0        2.936017   -1.484798   -1.805054
     55          1           0        3.732220   -2.040859   -1.818767
     56          8           0        8.938179    2.147929   -0.073300
     57          1           0        9.157954    2.200957   -1.014090
     58          6           0       -3.689288    2.554093    0.744284
     59          1           0       -3.726205    1.467901    0.887777
     60          1           0       -3.483179    2.984890    1.734958
     61          6           0       -5.074526    3.006391    0.251364
     62          1           0       -5.141220    4.100306    0.237371
     63          1           0       -5.196128    2.685391   -0.793001
     64          6           0       -6.249876    2.431668    1.063674
     65          1           0       -6.213003    1.334327    1.003051
     66          1           0       -7.191433    2.730540    0.579300
     67          6           0       -6.325967    2.833958    2.552080
     68          1           0       -5.392745    2.520011    3.041287
     69          6           0       -6.470907    4.352088    2.743110
     70          1           0       -7.379437    4.721579    2.249747
     71          1           0       -6.543968    4.607332    3.806461
     72          1           0       -5.620041    4.903734    2.330346
     73          6           0       -7.480438    2.091301    3.243767
     74          1           0       -8.445314    2.368120    2.799563
     75          1           0       -7.525718    2.331934    4.312100
     76          1           0       -7.370396    1.004877    3.148917
 ---------------------------------------------------------------------
 Rotational constants (GHZ):      0.3694040      0.0537611      0.0506920
 Leave Link  202 at Thu Apr 27 15:16:17 2017, MaxMem=    33554432 cpu:         0.0
 (Enter /home/michal/g09/l301.exe)
 Standard basis: 6-31G(d) (6D, 7F)
 Ernie: Thresh=  0.10000D-02 Tol=  0.10000D-05 Strict=F.
 AO basis set in the form of general basis input (Overlap normalization):
      1 0
 S   6 1.00       0.000000000000
      0.3047524880D+04  0.1834737132D-02
      0.4573695180D+03  0.1403732281D-01
      0.1039486850D+03  0.6884262226D-01
      0.2921015530D+02  0.2321844432D+00
      0.9286662960D+01  0.4679413484D+00
      0.3163926960D+01  0.3623119853D+00
 SP   3 1.00       0.000000000000
      0.7868272350D+01 -0.1193324198D+00  0.6899906659D-01
      0.1881288540D+01 -0.1608541517D+00  0.3164239610D+00
      0.5442492580D+00  0.1143456438D+01  0.7443082909D+00
 SP   1 1.00       0.000000000000
      0.1687144782D+00  0.1000000000D+01  0.1000000000D+01
 D   1 1.00       0.000000000000
      0.8000000000D+00  0.1000000000D+01
 ****
      2 0
 S   3 1.00       0.000000000000
      0.1873113696D+02  0.3349460434D-01
      0.2825394365D+01  0.2347269535D+00
      0.6401216923D+00  0.8137573261D+00
 S   1 1.00       0.000000000000
      0.1612777588D+00  0.1000000000D+01
 ****
      3 0
 S   6 1.00       0.000000000000
      0.3047524880D+04  0.1834737132D-02
      0.4573695180D+03  0.1403732281D-01
      0.1039486850D+03  0.6884262226D-01
      0.2921015530D+02  0.2321844432D+00
      0.9286662960D+01  0.4679413484D+00
      0.3163926960D+01  0.3623119853D+00
 SP   3 1.00       0.000000000000
      0.7868272350D+01 -0.1193324198D+00  0.6899906659D-01
      0.1881288540D+01 -0.1608541517D+00  0.3164239610D+00
      0.5442492580D+00  0.1143456438D+01  0.7443082909D+00
 SP   1 1.00       0.000000000000
      0.1687144782D+00  0.1000000000D+01  0.1000000000D+01
 D   1 1.00       0.000000000000
      0.8000000000D+00  0.1000000000D+01
 ****
      4 0
 S   3 1.00       0.000000000000
      0.1873113696D+02  0.3349460434D-01
      0.2825394365D+01  0.2347269535D+00
      0.6401216923D+00  0.8137573261D+00
 S   1 1.00       0.000000000000
      0.1612777588D+00  0.1000000000D+01
 ****
      5 0
 S   3 1.00       0.000000000000
      0.1873113696D+02  0.3349460434D-01
      0.2825394365D+01  0.2347269535D+00
      0.6401216923D+00  0.8137573261D+00
 S   1 1.00       0.000000000000
      0.1612777588D+00  0.1000000000D+01
 ****
      6 0
 S   6 1.00       0.000000000000
      0.3047524880D+04  0.1834737132D-02
      0.4573695180D+03  0.1403732281D-01
      0.1039486850D+03  0.6884262226D-01
      0.2921015530D+02  0.2321844432D+00
      0.9286662960D+01  0.4679413484D+00
      0.3163926960D+01  0.3623119853D+00
 SP   3 1.00       0.000000000000
      0.7868272350D+01 -0.1193324198D+00  0.6899906659D-01
      0.1881288540D+01 -0.1608541517D+00  0.3164239610D+00
      0.5442492580D+00  0.1143456438D+01  0.7443082909D+00
 SP   1 1.00       0.000000000000
      0.1687144782D+00  0.1000000000D+01  0.1000000000D+01
 D   1 1.00       0.000000000000
      0.8000000000D+00  0.1000000000D+01
 ****
      7 0
 S   6 1.00       0.000000000000
      0.3047524880D+04  0.1834737132D-02
      0.4573695180D+03  0.1403732281D-01
      0.1039486850D+03  0.6884262226D-01
      0.2921015530D+02  0.2321844432D+00
      0.9286662960D+01  0.4679413484D+00
      0.3163926960D+01  0.3623119853D+00
 SP   3 1.00       0.000000000000
      0.7868272350D+01 -0.1193324198D+00  0.6899906659D-01
      0.1881288540D+01 -0.1608541517D+00  0.3164239610D+00
      0.5442492580D+00  0.1143456438D+01  0.7443082909D+00
 SP   1 1.00       0.000000000000
      0.1687144782D+00  0.1000000000D+01  0.1000000000D+01
 D   1 1.00       0.000000000000
      0.8000000000D+00  0.1000000000D+01
 ****
      8 0
 S   6 1.00       0.000000000000
      0.3047524880D+04  0.1834737132D-02
      0.4573695180D+03  0.1403732281D-01
      0.1039486850D+03  0.6884262226D-01
      0.2921015530D+02  0.2321844432D+00
      0.9286662960D+01  0.4679413484D+00
      0.3163926960D+01  0.3623119853D+00
 SP   3 1.00       0.000000000000
      0.7868272350D+01 -0.1193324198D+00  0.6899906659D-01
      0.1881288540D+01 -0.1608541517D+00  0.3164239610D+00
      0.5442492580D+00  0.1143456438D+01  0.7443082909D+00
 SP   1 1.00       0.000000000000
      0.1687144782D+00  0.1000000000D+01  0.1000000000D+01
 D   1 1.00       0.000000000000
      0.8000000000D+00  0.1000000000D+01
 ****
      9 0
 S   3 1.00       0.000000000000
      0.1873113696D+02  0.3349460434D-01
      0.2825394365D+01  0.2347269535D+00
      0.6401216923D+00  0.8137573261D+00
 S   1 1.00       0.000000000000
      0.1612777588D+00  0.1000000000D+01
 ****
     10 0
 S   3 1.00       0.000000000000
      0.1873113696D+02  0.3349460434D-01
      0.2825394365D+01  0.2347269535D+00
      0.6401216923D+00  0.8137573261D+00
 S   1 1.00       0.000000000000
      0.1612777588D+00  0.1000000000D+01
 ****
     11 0
 S   6 1.00       0.000000000000
      0.3047524880D+04  0.1834737132D-02
      0.4573695180D+03  0.1403732281D-01
      0.1039486850D+03  0.6884262226D-01
      0.2921015530D+02  0.2321844432D+00
      0.9286662960D+01  0.4679413484D+00
      0.3163926960D+01  0.3623119853D+00
 SP   3 1.00       0.000000000000
      0.7868272350D+01 -0.1193324198D+00  0.6899906659D-01
      0.1881288540D+01 -0.1608541517D+00  0.3164239610D+00
      0.5442492580D+00  0.1143456438D+01  0.7443082909D+00
 SP   1 1.00       0.000000000000
      0.1687144782D+00  0.1000000000D+01  0.1000000000D+01
 D   1 1.00       0.000000000000
      0.8000000000D+00  0.1000000000D+01
 ****
     12 0
 S   3 1.00       0.000000000000
      0.1873113696D+02  0.3349460434D-01
      0.2825394365D+01  0.2347269535D+00
      0.6401216923D+00  0.8137573261D+00
 S   1 1.00       0.000000000000
      0.1612777588D+00  0.1000000000D+01
 ****
     13 0
 S   3 1.00       0.000000000000
      0.1873113696D+02  0.3349460434D-01
      0.2825394365D+01  0.2347269535D+00
      0.6401216923D+00  0.8137573261D+00
 S   1 1.00       0.000000000000
      0.1612777588D+00  0.1000000000D+01
 ****
     14 0
 S   6 1.00       0.000000000000
      0.3047524880D+04  0.1834737132D-02
      0.4573695180D+03  0.1403732281D-01
      0.1039486850D+03  0.6884262226D-01
      0.2921015530D+02  0.2321844432D+00
      0.9286662960D+01  0.4679413484D+00
      0.3163926960D+01  0.3623119853D+00
 SP   3 1.00       0.000000000000
      0.7868272350D+01 -0.1193324198D+00  0.6899906659D-01
      0.1881288540D+01 -0.1608541517D+00  0.3164239610D+00
      0.5442492580D+00  0.1143456438D+01  0.7443082909D+00
 SP   1 1.00       0.000000000000
      0.1687144782D+00  0.1000000000D+01  0.1000000000D+01
 D   1 1.00       0.000000000000
      0.8000000000D+00  0.1000000000D+01
 ****
     15 0
 S   3 1.00       0.000000000000
      0.1873113696D+02  0.3349460434D-01
      0.2825394365D+01  0.2347269535D+00
      0.6401216923D+00  0.8137573261D+00
 S   1 1.00       0.000000000000
      0.1612777588D+00  0.1000000000D+01
 ****
     16 0
 S   6 1.00       0.000000000000
      0.3047524880D+04  0.1834737132D-02
      0.4573695180D+03  0.1403732281D-01
      0.1039486850D+03  0.6884262226D-01
      0.2921015530D+02  0.2321844432D+00
      0.9286662960D+01  0.4679413484D+00
      0.3163926960D+01  0.3623119853D+00
 SP   3 1.00       0.000000000000
      0.7868272350D+01 -0.1193324198D+00  0.6899906659D-01
      0.1881288540D+01 -0.1608541517D+00  0.3164239610D+00
      0.5442492580D+00  0.1143456438D+01  0.7443082909D+00
 SP   1 1.00       0.000000000000
      0.1687144782D+00  0.1000000000D+01  0.1000000000D+01
 D   1 1.00       0.000000000000
      0.8000000000D+00  0.1000000000D+01
 ****
     17 0
 S   3 1.00       0.000000000000
      0.1873113696D+02  0.3349460434D-01
      0.2825394365D+01  0.2347269535D+00
      0.6401216923D+00  0.8137573261D+00
 S   1 1.00       0.000000000000
      0.1612777588D+00  0.1000000000D+01
 ****
     18 0
 S   6 1.00       0.000000000000
      0.3047524880D+04  0.1834737132D-02
      0.4573695180D+03  0.1403732281D-01
      0.1039486850D+03  0.6884262226D-01
      0.2921015530D+02  0.2321844432D+00
      0.9286662960D+01  0.4679413484D+00
      0.3163926960D+01  0.3623119853D+00
 SP   3 1.00       0.000000000000
      0.7868272350D+01 -0.1193324198D+00  0.6899906659D-01
      0.1881288540D+01 -0.1608541517D+00  0.3164239610D+00
      0.5442492580D+00  0.1143456438D+01  0.7443082909D+00
 SP   1 1.00       0.000000000000
      0.1687144782D+00  0.1000000000D+01  0.1000000000D+01
 D   1 1.00       0.000000000000
      0.8000000000D+00  0.1000000000D+01
 ****
     19 0
 S   3 1.00       0.000000000000
      0.1873113696D+02  0.3349460434D-01
      0.2825394365D+01  0.2347269535D+00
      0.6401216923D+00  0.8137573261D+00
 S   1 1.00       0.000000000000
      0.1612777588D+00  0.1000000000D+01
 ****
     20 0
 S   6 1.00       0.000000000000
      0.3047524880D+04  0.1834737132D-02
      0.4573695180D+03  0.1403732281D-01
      0.1039486850D+03  0.6884262226D-01
      0.2921015530D+02  0.2321844432D+00
      0.9286662960D+01  0.4679413484D+00
      0.3163926960D+01  0.3623119853D+00
 SP   3 1.00       0.000000000000
      0.7868272350D+01 -0.1193324198D+00  0.6899906659D-01
      0.1881288540D+01 -0.1608541517D+00  0.3164239610D+00
      0.5442492580D+00  0.1143456438D+01  0.7443082909D+00
 SP   1 1.00       0.000000000000
      0.1687144782D+00  0.1000000000D+01  0.1000000000D+01
 D   1 1.00       0.000000000000
      0.8000000000D+00  0.1000000000D+01
 ****
     21 0
 S   3 1.00       0.000000000000
      0.1873113696D+02  0.3349460434D-01
      0.2825394365D+01  0.2347269535D+00
      0.6401216923D+00  0.8137573261D+00
 S   1 1.00       0.000000000000
      0.1612777588D+00  0.1000000000D+01
 ****
     22 0
 S   6 1.00       0.000000000000
      0.3047524880D+04  0.1834737132D-02
      0.4573695180D+03  0.1403732281D-01
      0.1039486850D+03  0.6884262226D-01
      0.2921015530D+02  0.2321844432D+00
      0.9286662960D+01  0.4679413484D+00
      0.3163926960D+01  0.3623119853D+00
 SP   3 1.00       0.000000000000
      0.7868272350D+01 -0.1193324198D+00  0.6899906659D-01
      0.1881288540D+01 -0.1608541517D+00  0.3164239610D+00
      0.5442492580D+00  0.1143456438D+01  0.7443082909D+00
 SP   1 1.00       0.000000000000
      0.1687144782D+00  0.1000000000D+01  0.1000000000D+01
 D   1 1.00       0.000000000000
      0.8000000000D+00  0.1000000000D+01
 ****
     23 0
 S   3 1.00       0.000000000000
      0.1873113696D+02  0.3349460434D-01
      0.2825394365D+01  0.2347269535D+00
      0.6401216923D+00  0.8137573261D+00
 S   1 1.00       0.000000000000
      0.1612777588D+00  0.1000000000D+01
 ****
     24 0
 S   3 1.00       0.000000000000
      0.1873113696D+02  0.3349460434D-01
      0.2825394365D+01  0.2347269535D+00
      0.6401216923D+00  0.8137573261D+00
 S   1 1.00       0.000000000000
      0.1612777588D+00  0.1000000000D+01
 ****
     25 0
 S   6 1.00       0.000000000000
      0.3047524880D+04  0.1834737132D-02
      0.4573695180D+03  0.1403732281D-01
      0.1039486850D+03  0.6884262226D-01
      0.2921015530D+02  0.2321844432D+00
      0.9286662960D+01  0.4679413484D+00
      0.3163926960D+01  0.3623119853D+00
 SP   3 1.00       0.000000000000
      0.7868272350D+01 -0.1193324198D+00  0.6899906659D-01
      0.1881288540D+01 -0.1608541517D+00  0.3164239610D+00
      0.5442492580D+00  0.1143456438D+01  0.7443082909D+00
 SP   1 1.00       0.000000000000
      0.1687144782D+00  0.1000000000D+01  0.1000000000D+01
 D   1 1.00       0.000000000000
      0.8000000000D+00  0.1000000000D+01
 ****
     26 0
 S   3 1.00       0.000000000000
      0.1873113696D+02  0.3349460434D-01
      0.2825394365D+01  0.2347269535D+00
      0.6401216923D+00  0.8137573261D+00
 S   1 1.00       0.000000000000
      0.1612777588D+00  0.1000000000D+01
 ****
     27 0
 S   3 1.00       0.000000000000
      0.1873113696D+02  0.3349460434D-01
      0.2825394365D+01  0.2347269535D+00
      0.6401216923D+00  0.8137573261D+00
 S   1 1.00       0.000000000000
      0.1612777588D+00  0.1000000000D+01
 ****
     28 0
 S   6 1.00       0.000000000000
      0.3047524880D+04  0.1834737132D-02
      0.4573695180D+03  0.1403732281D-01
      0.1039486850D+03  0.6884262226D-01
      0.2921015530D+02  0.2321844432D+00
      0.9286662960D+01  0.4679413484D+00
      0.3163926960D+01  0.3623119853D+00
 SP   3 1.00       0.000000000000
      0.7868272350D+01 -0.1193324198D+00  0.6899906659D-01
      0.1881288540D+01 -0.1608541517D+00  0.3164239610D+00
      0.5442492580D+00  0.1143456438D+01  0.7443082909D+00
 SP   1 1.00       0.000000000000
      0.1687144782D+00  0.1000000000D+01  0.1000000000D+01
 D   1 1.00       0.000000000000
      0.8000000000D+00  0.1000000000D+01
 ****
     29 0
 S   6 1.00       0.000000000000
      0.3047524880D+04  0.1834737132D-02
      0.4573695180D+03  0.1403732281D-01
      0.1039486850D+03  0.6884262226D-01
      0.2921015530D+02  0.2321844432D+00
      0.9286662960D+01  0.4679413484D+00
      0.3163926960D+01  0.3623119853D+00
 SP   3 1.00       0.000000000000
      0.7868272350D+01 -0.1193324198D+00  0.6899906659D-01
      0.1881288540D+01 -0.1608541517D+00  0.3164239610D+00
      0.5442492580D+00  0.1143456438D+01  0.7443082909D+00
 SP   1 1.00       0.000000000000
      0.1687144782D+00  0.1000000000D+01  0.1000000000D+01
 D   1 1.00       0.000000000000
      0.8000000000D+00  0.1000000000D+01
 ****
     30 0
 S   3 1.00       0.000000000000
      0.1873113696D+02  0.3349460434D-01
      0.2825394365D+01  0.2347269535D+00
      0.6401216923D+00  0.8137573261D+00
 S   1 1.00       0.000000000000
      0.1612777588D+00  0.1000000000D+01
 ****
     31 0
 S   6 1.00       0.000000000000
      0.3047524880D+04  0.1834737132D-02
      0.4573695180D+03  0.1403732281D-01
      0.1039486850D+03  0.6884262226D-01
      0.2921015530D+02  0.2321844432D+00
      0.9286662960D+01  0.4679413484D+00
      0.3163926960D+01  0.3623119853D+00
 SP   3 1.00       0.000000000000
      0.7868272350D+01 -0.1193324198D+00  0.6899906659D-01
      0.1881288540D+01 -0.1608541517D+00  0.3164239610D+00
      0.5442492580D+00  0.1143456438D+01  0.7443082909D+00
 SP   1 1.00       0.000000000000
      0.1687144782D+00  0.1000000000D+01  0.1000000000D+01
 D   1 1.00       0.000000000000
      0.8000000000D+00  0.1000000000D+01
 ****
     32 0
 S   3 1.00       0.000000000000
      0.1873113696D+02  0.3349460434D-01
      0.2825394365D+01  0.2347269535D+00
      0.6401216923D+00  0.8137573261D+00
 S   1 1.00       0.000000000000
      0.1612777588D+00  0.1000000000D+01
 ****
     33 0
 S   3 1.00       0.000000000000
      0.1873113696D+02  0.3349460434D-01
      0.2825394365D+01  0.2347269535D+00
      0.6401216923D+00  0.8137573261D+00
 S   1 1.00       0.000000000000
      0.1612777588D+00  0.1000000000D+01
 ****
     34 0
 S   6 1.00       0.000000000000
      0.3047524880D+04  0.1834737132D-02
      0.4573695180D+03  0.1403732281D-01
      0.1039486850D+03  0.6884262226D-01
      0.2921015530D+02  0.2321844432D+00
      0.9286662960D+01  0.4679413484D+00
      0.3163926960D+01  0.3623119853D+00
 SP   3 1.00       0.000000000000
      0.7868272350D+01 -0.1193324198D+00  0.6899906659D-01
      0.1881288540D+01 -0.1608541517D+00  0.3164239610D+00
      0.5442492580D+00  0.1143456438D+01  0.7443082909D+00
 SP   1 1.00       0.000000000000
      0.1687144782D+00  0.1000000000D+01  0.1000000000D+01
 D   1 1.00       0.000000000000
      0.8000000000D+00  0.1000000000D+01
 ****
     35 0
 S   3 1.00       0.000000000000
      0.1873113696D+02  0.3349460434D-01
      0.2825394365D+01  0.2347269535D+00
      0.6401216923D+00  0.8137573261D+00
 S   1 1.00       0.000000000000
      0.1612777588D+00  0.1000000000D+01
 ****
     36 0
 S   3 1.00       0.000000000000
      0.1873113696D+02  0.3349460434D-01
      0.2825394365D+01  0.2347269535D+00
      0.6401216923D+00  0.8137573261D+00
 S   1 1.00       0.000000000000
      0.1612777588D+00  0.1000000000D+01
 ****
     37 0
 S   6 1.00       0.000000000000
      0.3047524880D+04  0.1834737132D-02
      0.4573695180D+03  0.1403732281D-01
      0.1039486850D+03  0.6884262226D-01
      0.2921015530D+02  0.2321844432D+00
      0.9286662960D+01  0.4679413484D+00
      0.3163926960D+01  0.3623119853D+00
 SP   3 1.00       0.000000000000
      0.7868272350D+01 -0.1193324198D+00  0.6899906659D-01
      0.1881288540D+01 -0.1608541517D+00  0.3164239610D+00
      0.5442492580D+00  0.1143456438D+01  0.7443082909D+00
 SP   1 1.00       0.000000000000
      0.1687144782D+00  0.1000000000D+01  0.1000000000D+01
 D   1 1.00       0.000000000000
      0.8000000000D+00  0.1000000000D+01
 ****
     38 0
 S   3 1.00       0.000000000000
      0.1873113696D+02  0.3349460434D-01
      0.2825394365D+01  0.2347269535D+00
      0.6401216923D+00  0.8137573261D+00
 S   1 1.00       0.000000000000
      0.1612777588D+00  0.1000000000D+01
 ****
     39 0
 S   6 1.00       0.000000000000
      0.3047524880D+04  0.1834737132D-02
      0.4573695180D+03  0.1403732281D-01
      0.1039486850D+03  0.6884262226D-01
      0.2921015530D+02  0.2321844432D+00
      0.9286662960D+01  0.4679413484D+00
      0.3163926960D+01  0.3623119853D+00
 SP   3 1.00       0.000000000000
      0.7868272350D+01 -0.1193324198D+00  0.6899906659D-01
      0.1881288540D+01 -0.1608541517D+00  0.3164239610D+00
      0.5442492580D+00  0.1143456438D+01  0.7443082909D+00
 SP   1 1.00       0.000000000000
      0.1687144782D+00  0.1000000000D+01  0.1000000000D+01
 D   1 1.00       0.000000000000
      0.8000000000D+00  0.1000000000D+01
 ****
     40 0
 S   3 1.00       0.000000000000
      0.1873113696D+02  0.3349460434D-01
      0.2825394365D+01  0.2347269535D+00
      0.6401216923D+00  0.8137573261D+00
 S   1 1.00       0.000000000000
      0.1612777588D+00  0.1000000000D+01
 ****
     41 0
 S   3 1.00       0.000000000000
      0.1873113696D+02  0.3349460434D-01
      0.2825394365D+01  0.2347269535D+00
      0.6401216923D+00  0.8137573261D+00
 S   1 1.00       0.000000000000
      0.1612777588D+00  0.1000000000D+01
 ****
     42 0
 S   3 1.00       0.000000000000
      0.1873113696D+02  0.3349460434D-01
      0.2825394365D+01  0.2347269535D+00
      0.6401216923D+00  0.8137573261D+00
 S   1 1.00       0.000000000000
      0.1612777588D+00  0.1000000000D+01
 ****
     43 0
 S   6 1.00       0.000000000000
      0.3047524880D+04  0.1834737132D-02
      0.4573695180D+03  0.1403732281D-01
      0.1039486850D+03  0.6884262226D-01
      0.2921015530D+02  0.2321844432D+00
      0.9286662960D+01  0.4679413484D+00
      0.3163926960D+01  0.3623119853D+00
 SP   3 1.00       0.000000000000
      0.7868272350D+01 -0.1193324198D+00  0.6899906659D-01
      0.1881288540D+01 -0.1608541517D+00  0.3164239610D+00
      0.5442492580D+00  0.1143456438D+01  0.7443082909D+00
 SP   1 1.00       0.000000000000
      0.1687144782D+00  0.1000000000D+01  0.1000000000D+01
 D   1 1.00       0.000000000000
      0.8000000000D+00  0.1000000000D+01
 ****
     44 0
 S   3 1.00       0.000000000000
      0.1873113696D+02  0.3349460434D-01
      0.2825394365D+01  0.2347269535D+00
      0.6401216923D+00  0.8137573261D+00
 S   1 1.00       0.000000000000
      0.1612777588D+00  0.1000000000D+01
 ****
     45 0
 S   6 1.00       0.000000000000
      0.3047524880D+04  0.1834737132D-02
      0.4573695180D+03  0.1403732281D-01
      0.1039486850D+03  0.6884262226D-01
      0.2921015530D+02  0.2321844432D+00
      0.9286662960D+01  0.4679413484D+00
      0.3163926960D+01  0.3623119853D+00
 SP   3 1.00       0.000000000000
      0.7868272350D+01 -0.1193324198D+00  0.6899906659D-01
      0.1881288540D+01 -0.1608541517D+00  0.3164239610D+00
      0.5442492580D+00  0.1143456438D+01  0.7443082909D+00
 SP   1 1.00       0.000000000000
      0.1687144782D+00  0.1000000000D+01  0.1000000000D+01
 D   1 1.00       0.000000000000
      0.8000000000D+00  0.1000000000D+01
 ****
     46 0
 S   3 1.00       0.000000000000
      0.1873113696D+02  0.3349460434D-01
      0.2825394365D+01  0.2347269535D+00
      0.6401216923D+00  0.8137573261D+00
 S   1 1.00       0.000000000000
      0.1612777588D+00  0.1000000000D+01
 ****
     47 0
 S   3 1.00       0.000000000000
      0.1873113696D+02  0.3349460434D-01
      0.2825394365D+01  0.2347269535D+00
      0.6401216923D+00  0.8137573261D+00
 S   1 1.00       0.000000000000
      0.1612777588D+00  0.1000000000D+01
 ****
     48 0
 S   3 1.00       0.000000000000
      0.1873113696D+02  0.3349460434D-01
      0.2825394365D+01  0.2347269535D+00
      0.6401216923D+00  0.8137573261D+00
 S   1 1.00       0.000000000000
      0.1612777588D+00  0.1000000000D+01
 ****
     49 0
 S   6 1.00       0.000000000000
      0.3047524880D+04  0.1834737132D-02
      0.4573695180D+03  0.1403732281D-01
      0.1039486850D+03  0.6884262226D-01
      0.2921015530D+02  0.2321844432D+00
      0.9286662960D+01  0.4679413484D+00
      0.3163926960D+01  0.3623119853D+00
 SP   3 1.00       0.000000000000
      0.7868272350D+01 -0.1193324198D+00  0.6899906659D-01
      0.1881288540D+01 -0.1608541517D+00  0.3164239610D+00
      0.5442492580D+00  0.1143456438D+01  0.7443082909D+00
 SP   1 1.00       0.000000000000
      0.1687144782D+00  0.1000000000D+01  0.1000000000D+01
 D   1 1.00       0.000000000000
      0.8000000000D+00  0.1000000000D+01
 ****
     50 0
 S   3 1.00       0.000000000000
      0.1873113696D+02  0.3349460434D-01
      0.2825394365D+01  0.2347269535D+00
      0.6401216923D+00  0.8137573261D+00
 S   1 1.00       0.000000000000
      0.1612777588D+00  0.1000000000D+01
 ****
     51 0
 S   3 1.00       0.000000000000
      0.1873113696D+02  0.3349460434D-01
      0.2825394365D+01  0.2347269535D+00
      0.6401216923D+00  0.8137573261D+00
 S   1 1.00       0.000000000000
      0.1612777588D+00  0.1000000000D+01
 ****
     52 0
 S   3 1.00       0.000000000000
      0.1873113696D+02  0.3349460434D-01
      0.2825394365D+01  0.2347269535D+00
      0.6401216923D+00  0.8137573261D+00
 S   1 1.00       0.000000000000
      0.1612777588D+00  0.1000000000D+01
 ****
     53 0
 S   6 1.00       0.000000000000
      0.5484671660D+04  0.1831074430D-02
      0.8252349460D+03  0.1395017220D-01
      0.1880469580D+03  0.6844507810D-01
      0.5296450000D+02  0.2327143360D+00
      0.1689757040D+02  0.4701928980D+00
      0.5799635340D+01  0.3585208530D+00
 SP   3 1.00       0.000000000000
      0.1553961625D+02 -0.1107775495D+00  0.7087426823D-01
      0.3599933586D+01 -0.1480262627D+00  0.3397528391D+00
      0.1013761750D+01  0.1130767015D+01  0.7271585773D+00
 SP   1 1.00       0.000000000000
      0.2700058226D+00  0.1000000000D+01  0.1000000000D+01
 D   1 1.00       0.000000000000
      0.8000000000D+00  0.1000000000D+01
 ****
     54 0
 S   6 1.00       0.000000000000
      0.5484671660D+04  0.1831074430D-02
      0.8252349460D+03  0.1395017220D-01
      0.1880469580D+03  0.6844507810D-01
      0.5296450000D+02  0.2327143360D+00
      0.1689757040D+02  0.4701928980D+00
      0.5799635340D+01  0.3585208530D+00
 SP   3 1.00       0.000000000000
      0.1553961625D+02 -0.1107775495D+00  0.7087426823D-01
      0.3599933586D+01 -0.1480262627D+00  0.3397528391D+00
      0.1013761750D+01  0.1130767015D+01  0.7271585773D+00
 SP   1 1.00       0.000000000000
      0.2700058226D+00  0.1000000000D+01  0.1000000000D+01
 D   1 1.00       0.000000000000
      0.8000000000D+00  0.1000000000D+01
 ****
     55 0
 S   3 1.00       0.000000000000
      0.1873113696D+02  0.3349460434D-01
      0.2825394365D+01  0.2347269535D+00
      0.6401216923D+00  0.8137573261D+00
 S   1 1.00       0.000000000000
      0.1612777588D+00  0.1000000000D+01
 ****
     56 0
 S   6 1.00       0.000000000000
      0.5484671660D+04  0.1831074430D-02
      0.8252349460D+03  0.1395017220D-01
      0.1880469580D+03  0.6844507810D-01
      0.5296450000D+02  0.2327143360D+00
      0.1689757040D+02  0.4701928980D+00
      0.5799635340D+01  0.3585208530D+00
 SP   3 1.00       0.000000000000
      0.1553961625D+02 -0.1107775495D+00  0.7087426823D-01
      0.3599933586D+01 -0.1480262627D+00  0.3397528391D+00
      0.1013761750D+01  0.1130767015D+01  0.7271585773D+00
 SP   1 1.00       0.000000000000
      0.2700058226D+00  0.1000000000D+01  0.1000000000D+01
 D   1 1.00       0.000000000000
      0.8000000000D+00  0.1000000000D+01
 ****
     57 0
 S   3 1.00       0.000000000000
      0.1873113696D+02  0.3349460434D-01
      0.2825394365D+01  0.2347269535D+00
      0.6401216923D+00  0.8137573261D+00
 S   1 1.00       0.000000000000
      0.1612777588D+00  0.1000000000D+01
 ****
     58 0
 S   6 1.00       0.000000000000
      0.3047524880D+04  0.1834737132D-02
      0.4573695180D+03  0.1403732281D-01
      0.1039486850D+03  0.6884262226D-01
      0.2921015530D+02  0.2321844432D+00
      0.9286662960D+01  0.4679413484D+00
      0.3163926960D+01  0.3623119853D+00
 SP   3 1.00       0.000000000000
      0.7868272350D+01 -0.1193324198D+00  0.6899906659D-01
      0.1881288540D+01 -0.1608541517D+00  0.3164239610D+00
      0.5442492580D+00  0.1143456438D+01  0.7443082909D+00
 SP   1 1.00       0.000000000000
      0.1687144782D+00  0.1000000000D+01  0.1000000000D+01
 D   1 1.00       0.000000000000
      0.8000000000D+00  0.1000000000D+01
 ****
     59 0
 S   3 1.00       0.000000000000
      0.1873113696D+02  0.3349460434D-01
      0.2825394365D+01  0.2347269535D+00
      0.6401216923D+00  0.8137573261D+00
 S   1 1.00       0.000000000000
      0.1612777588D+00  0.1000000000D+01
 ****
     60 0
 S   3 1.00       0.000000000000
      0.1873113696D+02  0.3349460434D-01
      0.2825394365D+01  0.2347269535D+00
      0.6401216923D+00  0.8137573261D+00
 S   1 1.00       0.000000000000
      0.1612777588D+00  0.1000000000D+01
 ****
     61 0
 S   6 1.00       0.000000000000
      0.3047524880D+04  0.1834737132D-02
      0.4573695180D+03  0.1403732281D-01
      0.1039486850D+03  0.6884262226D-01
      0.2921015530D+02  0.2321844432D+00
      0.9286662960D+01  0.4679413484D+00
      0.3163926960D+01  0.3623119853D+00
 SP   3 1.00       0.000000000000
      0.7868272350D+01 -0.1193324198D+00  0.6899906659D-01
      0.1881288540D+01 -0.1608541517D+00  0.3164239610D+00
      0.5442492580D+00  0.1143456438D+01  0.7443082909D+00
 SP   1 1.00       0.000000000000
      0.1687144782D+00  0.1000000000D+01  0.1000000000D+01
 D   1 1.00       0.000000000000
      0.8000000000D+00  0.1000000000D+01
 ****
     62 0
 S   3 1.00       0.000000000000
      0.1873113696D+02  0.3349460434D-01
      0.2825394365D+01  0.2347269535D+00
      0.6401216923D+00  0.8137573261D+00
 S   1 1.00       0.000000000000
      0.1612777588D+00  0.1000000000D+01
 ****
     63 0
 S   3 1.00       0.000000000000
      0.1873113696D+02  0.3349460434D-01
      0.2825394365D+01  0.2347269535D+00
      0.6401216923D+00  0.8137573261D+00
 S   1 1.00       0.000000000000
      0.1612777588D+00  0.1000000000D+01
 ****
     64 0
 S   6 1.00       0.000000000000
      0.3047524880D+04  0.1834737132D-02
      0.4573695180D+03  0.1403732281D-01
      0.1039486850D+03  0.6884262226D-01
      0.2921015530D+02  0.2321844432D+00
      0.9286662960D+01  0.4679413484D+00
      0.3163926960D+01  0.3623119853D+00
 SP   3 1.00       0.000000000000
      0.7868272350D+01 -0.1193324198D+00  0.6899906659D-01
      0.1881288540D+01 -0.1608541517D+00  0.3164239610D+00
      0.5442492580D+00  0.1143456438D+01  0.7443082909D+00
 SP   1 1.00       0.000000000000
      0.1687144782D+00  0.1000000000D+01  0.1000000000D+01
 D   1 1.00       0.000000000000
      0.8000000000D+00  0.1000000000D+01
 ****
     65 0
 S   3 1.00       0.000000000000
      0.1873113696D+02  0.3349460434D-01
      0.2825394365D+01  0.2347269535D+00
      0.6401216923D+00  0.8137573261D+00
 S   1 1.00       0.000000000000
      0.1612777588D+00  0.1000000000D+01
 ****
     66 0
 S   3 1.00       0.000000000000
      0.1873113696D+02  0.3349460434D-01
      0.2825394365D+01  0.2347269535D+00
      0.6401216923D+00  0.8137573261D+00
 S   1 1.00       0.000000000000
      0.1612777588D+00  0.1000000000D+01
 ****
     67 0
 S   6 1.00       0.000000000000
      0.3047524880D+04  0.1834737132D-02
      0.4573695180D+03  0.1403732281D-01
      0.1039486850D+03  0.6884262226D-01
      0.2921015530D+02  0.2321844432D+00
      0.9286662960D+01  0.4679413484D+00
      0.3163926960D+01  0.3623119853D+00
 SP   3 1.00       0.000000000000
      0.7868272350D+01 -0.1193324198D+00  0.6899906659D-01
      0.1881288540D+01 -0.1608541517D+00  0.3164239610D+00
      0.5442492580D+00  0.1143456438D+01  0.7443082909D+00
 SP   1 1.00       0.000000000000
      0.1687144782D+00  0.1000000000D+01  0.1000000000D+01
 D   1 1.00       0.000000000000
      0.8000000000D+00  0.1000000000D+01
 ****
     68 0
 S   3 1.00       0.000000000000
      0.1873113696D+02  0.3349460434D-01
      0.2825394365D+01  0.2347269535D+00
      0.6401216923D+00  0.8137573261D+00
 S   1 1.00       0.000000000000
      0.1612777588D+00  0.1000000000D+01
 ****
     69 0
 S   6 1.00       0.000000000000
      0.3047524880D+04  0.1834737132D-02
      0.4573695180D+03  0.1403732281D-01
      0.1039486850D+03  0.6884262226D-01
      0.2921015530D+02  0.2321844432D+00
      0.9286662960D+01  0.4679413484D+00
      0.3163926960D+01  0.3623119853D+00
 SP   3 1.00       0.000000000000
      0.7868272350D+01 -0.1193324198D+00  0.6899906659D-01
      0.1881288540D+01 -0.1608541517D+00  0.3164239610D+00
      0.5442492580D+00  0.1143456438D+01  0.7443082909D+00
 SP   1 1.00       0.000000000000
      0.1687144782D+00  0.1000000000D+01  0.1000000000D+01
 D   1 1.00       0.000000000000
      0.8000000000D+00  0.1000000000D+01
 ****
     70 0
 S   3 1.00       0.000000000000
      0.1873113696D+02  0.3349460434D-01
      0.2825394365D+01  0.2347269535D+00
      0.6401216923D+00  0.8137573261D+00
 S   1 1.00       0.000000000000
      0.1612777588D+00  0.1000000000D+01
 ****
     71 0
 S   3 1.00       0.000000000000
      0.1873113696D+02  0.3349460434D-01
      0.2825394365D+01  0.2347269535D+00
      0.6401216923D+00  0.8137573261D+00
 S   1 1.00       0.000000000000
      0.1612777588D+00  0.1000000000D+01
 ****
     72 0
 S   3 1.00       0.000000000000
      0.1873113696D+02  0.3349460434D-01
      0.2825394365D+01  0.2347269535D+00
      0.6401216923D+00  0.8137573261D+00
 S   1 1.00       0.000000000000
      0.1612777588D+00  0.1000000000D+01
 ****
     73 0
 S   6 1.00       0.000000000000
      0.3047524880D+04  0.1834737132D-02
      0.4573695180D+03  0.1403732281D-01
      0.1039486850D+03  0.6884262226D-01
      0.2921015530D+02  0.2321844432D+00
      0.9286662960D+01  0.4679413484D+00
      0.3163926960D+01  0.3623119853D+00
 SP   3 1.00       0.000000000000
      0.7868272350D+01 -0.1193324198D+00  0.6899906659D-01
      0.1881288540D+01 -0.1608541517D+00  0.3164239610D+00
      0.5442492580D+00  0.1143456438D+01  0.7443082909D+00
 SP   1 1.00       0.000000000000
      0.1687144782D+00  0.1000000000D+01  0.1000000000D+01
 D   1 1.00       0.000000000000
      0.8000000000D+00  0.1000000000D+01
 ****
     74 0
 S   3 1.00       0.000000000000
      0.1873113696D+02  0.3349460434D-01
      0.2825394365D+01  0.2347269535D+00
      0.6401216923D+00  0.8137573261D+00
 S   1 1.00       0.000000000000
      0.1612777588D+00  0.1000000000D+01
 ****
     75 0
 S   3 1.00       0.000000000000
      0.1873113696D+02  0.3349460434D-01
      0.2825394365D+01  0.2347269535D+00
      0.6401216923D+00  0.8137573261D+00
 S   1 1.00       0.000000000000
      0.1612777588D+00  0.1000000000D+01
 ****
     76 0
 S   3 1.00       0.000000000000
      0.1873113696D+02  0.3349460434D-01
      0.2825394365D+01  0.2347269535D+00
      0.6401216923D+00  0.8137573261D+00
 S   1 1.00       0.000000000000
      0.1612777588D+00  0.1000000000D+01
 ****

 AO basis set (Overlap normalization):
 Atom C1       Shell     1 S   6     bf    1 -     1         14.205062723750          4.187399672605          0.132160661617
      0.3047524880D+04  0.1834737132D-02
      0.4573695180D+03  0.1403732281D-01
      0.1039486850D+03  0.6884262226D-01
      0.2921015530D+02  0.2321844432D+00
      0.9286662960D+01  0.4679413484D+00
      0.3163926960D+01  0.3623119853D+00
 Atom C1       Shell     2 SP   3    bf    2 -     5         14.205062723750          4.187399672605          0.132160661617
      0.7868272350D+01 -0.1193324198D+00  0.6899906659D-01
      0.1881288540D+01 -0.1608541517D+00  0.3164239610D+00
      0.5442492580D+00  0.1143456438D+01  0.7443082909D+00
 Atom C1       Shell     3 SP   1    bf    6 -     9         14.205062723750          4.187399672605          0.132160661617
      0.1687144782D+00  0.1000000000D+01  0.1000000000D+01
 Atom C1       Shell     4 D   1     bf   10 -    15         14.205062723750          4.187399672605          0.132160661617
      0.8000000000D+00  0.1000000000D+01
 Atom H2       Shell     5 S   3     bf   16 -    16         13.899197094293          4.129880661004          2.181461221801
      0.1873113696D+02  0.3349460434D-01
      0.2825394365D+01  0.2347269535D+00
      0.6401216923D+00  0.8137573261D+00
 Atom H2       Shell     6 S   1     bf   17 -    17         13.899197094293          4.129880661004          2.181461221801
      0.1612777588D+00  0.1000000000D+01
 Atom C3       Shell     7 S   6     bf   18 -    18         12.891253004219          1.904262529909         -1.083972780174
      0.3047524880D+04  0.1834737132D-02
      0.4573695180D+03  0.1403732281D-01
      0.1039486850D+03  0.6884262226D-01
      0.2921015530D+02  0.2321844432D+00
      0.9286662960D+01  0.4679413484D+00
      0.3163926960D+01  0.3623119853D+00
 Atom C3       Shell     8 SP   3    bf   19 -    22         12.891253004219          1.904262529909         -1.083972780174
      0.7868272350D+01 -0.1193324198D+00  0.6899906659D-01
      0.1881288540D+01 -0.1608541517D+00  0.3164239610D+00
      0.5442492580D+00  0.1143456438D+01  0.7443082909D+00
 Atom C3       Shell     9 SP   1    bf   23 -    26         12.891253004219          1.904262529909         -1.083972780174
      0.1687144782D+00  0.1000000000D+01  0.1000000000D+01
 Atom C3       Shell    10 D   1     bf   27 -    32         12.891253004219          1.904262529909         -1.083972780174
      0.8000000000D+00  0.1000000000D+01
 Atom H4       Shell    11 S   3     bf   33 -    33         13.614674315239          0.154233607712         -0.251727092244
      0.1873113696D+02  0.3349460434D-01
      0.2825394365D+01  0.2347269535D+00
      0.6401216923D+00  0.8137573261D+00
 Atom H4       Shell    12 S   1     bf   34 -    34         13.614674315239          0.154233607712         -0.251727092244
      0.1612777588D+00  0.1000000000D+01
 Atom H5       Shell    13 S   3     bf   35 -    35         13.423592427435          1.873548527613         -3.097422760076
      0.1873113696D+02  0.3349460434D-01
      0.2825394365D+01  0.2347269535D+00
      0.6401216923D+00  0.8137573261D+00
 Atom H5       Shell    14 S   1     bf   36 -    36         13.423592427435          1.873548527613         -3.097422760076
      0.1612777588D+00  0.1000000000D+01
 Atom C6       Shell    15 S   6     bf   37 -    37         10.036018527991          2.008206008780         -0.855255050016
      0.3047524880D+04  0.1834737132D-02
      0.4573695180D+03  0.1403732281D-01
      0.1039486850D+03  0.6884262226D-01
      0.2921015530D+02  0.2321844432D+00
      0.9286662960D+01  0.4679413484D+00
      0.3163926960D+01  0.3623119853D+00
 Atom C6       Shell    16 SP   3    bf   38 -    41         10.036018527991          2.008206008780         -0.855255050016
      0.7868272350D+01 -0.1193324198D+00  0.6899906659D-01
      0.1881288540D+01 -0.1608541517D+00  0.3164239610D+00
      0.5442492580D+00  0.1143456438D+01  0.7443082909D+00
 Atom C6       Shell    17 SP   1    bf   42 -    45         10.036018527991          2.008206008780         -0.855255050016
      0.1687144782D+00  0.1000000000D+01  0.1000000000D+01
 Atom C6       Shell    18 D   1     bf   46 -    51         10.036018527991          2.008206008780         -0.855255050016
      0.8000000000D+00  0.1000000000D+01
 Atom C7       Shell    19 S   6     bf   52 -    52          8.722462277426          4.461868409434         -1.657484857175
      0.3047524880D+04  0.1834737132D-02
      0.4573695180D+03  0.1403732281D-01
      0.1039486850D+03  0.6884262226D-01
      0.2921015530D+02  0.2321844432D+00
      0.9286662960D+01  0.4679413484D+00
      0.3163926960D+01  0.3623119853D+00
 Atom C7       Shell    20 SP   3    bf   53 -    56          8.722462277426          4.461868409434         -1.657484857175
      0.7868272350D+01 -0.1193324198D+00  0.6899906659D-01
      0.1881288540D+01 -0.1608541517D+00  0.3164239610D+00
      0.5442492580D+00  0.1143456438D+01  0.7443082909D+00
 Atom C7       Shell    21 SP   1    bf   57 -    60          8.722462277426          4.461868409434         -1.657484857175
      0.1687144782D+00  0.1000000000D+01  0.1000000000D+01
 Atom C7       Shell    22 D   1     bf   61 -    66          8.722462277426          4.461868409434         -1.657484857175
      0.8000000000D+00  0.1000000000D+01
 Atom C8       Shell    23 S   6     bf   67 -    67         10.222336227241          6.737734528477         -0.531147875300
      0.3047524880D+04  0.1834737132D-02
      0.4573695180D+03  0.1403732281D-01
      0.1039486850D+03  0.6884262226D-01
      0.2921015530D+02  0.2321844432D+00
      0.9286662960D+01  0.4679413484D+00
      0.3163926960D+01  0.3623119853D+00
 Atom C8       Shell    24 SP   3    bf   68 -    71         10.222336227241          6.737734528477         -0.531147875300
      0.7868272350D+01 -0.1193324198D+00  0.6899906659D-01
      0.1881288540D+01 -0.1608541517D+00  0.3164239610D+00
      0.5442492580D+00  0.1143456438D+01  0.7443082909D+00
 Atom C8       Shell    25 SP   1    bf   72 -    75         10.222336227241          6.737734528477         -0.531147875300
      0.1687144782D+00  0.1000000000D+01  0.1000000000D+01
 Atom C8       Shell    26 D   1     bf   76 -    81         10.222336227241          6.737734528477         -0.531147875300
      0.8000000000D+00  0.1000000000D+01
 Atom H9       Shell    27 S   3     bf   82 -    82          9.848047582937          6.817759743684          1.509901498080
      0.1873113696D+02  0.3349460434D-01
      0.2825394365D+01  0.2347269535D+00
      0.6401216923D+00  0.8137573261D+00
 Atom H9       Shell    28 S   1     bf   83 -    83          9.848047582937          6.817759743684          1.509901498080
      0.1612777588D+00  0.1000000000D+01
 Atom H10      Shell    29 S   3     bf   84 -    84          9.493857725631          8.502222595694         -1.329165823060
      0.1873113696D+02  0.3349460434D-01
      0.2825394365D+01  0.2347269535D+00
      0.6401216923D+00  0.8137573261D+00
 Atom H10      Shell    30 S   1     bf   85 -    85          9.493857725631          8.502222595694         -1.329165823060
      0.1612777588D+00  0.1000000000D+01
 Atom C11      Shell    31 S   6     bf   86 -    86         13.097126950095          6.635584059556         -0.923939716343
      0.3047524880D+04  0.1834737132D-02
      0.4573695180D+03  0.1403732281D-01
      0.1039486850D+03  0.6884262226D-01
      0.2921015530D+02  0.2321844432D+00
      0.9286662960D+01  0.4679413484D+00
      0.3163926960D+01  0.3623119853D+00
 Atom C11      Shell    32 SP   3    bf   87 -    90         13.097126950095          6.635584059556         -0.923939716343
      0.7868272350D+01 -0.1193324198D+00  0.6899906659D-01
      0.1881288540D+01 -0.1608541517D+00  0.3164239610D+00
      0.5442492580D+00  0.1143456438D+01  0.7443082909D+00
 Atom C11      Shell    33 SP   1    bf   91 -    94         13.097126950095          6.635584059556         -0.923939716343
      0.1687144782D+00  0.1000000000D+01  0.1000000000D+01
 Atom C11      Shell    34 D   1     bf   95 -   100         13.097126950095          6.635584059556         -0.923939716343
      0.8000000000D+00  0.1000000000D+01
 Atom H12      Shell    35 S   3     bf  101 -   101         13.560480125590          6.771232532005         -2.946207952066
      0.1873113696D+02  0.3349460434D-01
      0.2825394365D+01  0.2347269535D+00
      0.6401216923D+00  0.8137573261D+00
 Atom H12      Shell    36 S   1     bf  102 -   102         13.560480125590          6.771232532005         -2.946207952066
      0.1612777588D+00  0.1000000000D+01
 Atom H13      Shell    37 S   3     bf  103 -   103         13.994422964156          8.257368021656          0.000000000000
      0.1873113696D+02  0.3349460434D-01
      0.2825394365D+01  0.2347269535D+00
      0.6401216923D+00  0.8137573261D+00
 Atom H13      Shell    38 S   1     bf  104 -   104         13.994422964156          8.257368021656          0.000000000000
      0.1612777588D+00  0.1000000000D+01
 Atom C14      Shell    39 S   6     bf  105 -   105          8.752913664482          0.000000000000          0.000000000000
      0.3047524880D+04  0.1834737132D-02
      0.4573695180D+03  0.1403732281D-01
      0.1039486850D+03  0.6884262226D-01
      0.2921015530D+02  0.2321844432D+00
      0.9286662960D+01  0.4679413484D+00
      0.3163926960D+01  0.3623119853D+00
 Atom C14      Shell    40 SP   3    bf  106 -   109          8.752913664482          0.000000000000          0.000000000000
      0.7868272350D+01 -0.1193324198D+00  0.6899906659D-01
      0.1881288540D+01 -0.1608541517D+00  0.3164239610D+00
      0.5442492580D+00  0.1143456438D+01  0.7443082909D+00
 Atom C14      Shell    41 SP   1    bf  110 -   113          8.752913664482          0.000000000000          0.000000000000
      0.1687144782D+00  0.1000000000D+01  0.1000000000D+01
 Atom C14      Shell    42 D   1     bf  114 -   119          8.752913664482          0.000000000000          0.000000000000
      0.8000000000D+00  0.1000000000D+01
 Atom H15      Shell    43 S   3     bf  120 -   120          9.781018505675         -1.683477586598          0.596654929341
      0.1873113696D+02  0.3349460434D-01
      0.2825394365D+01  0.2347269535D+00
      0.6401216923D+00  0.8137573261D+00
 Atom H15      Shell    44 S   1     bf  121 -   121          9.781018505675         -1.683477586598          0.596654929341
      0.1612777588D+00  0.1000000000D+01
 Atom C16      Shell    45 S   6     bf  122 -   122          5.931158483494         -0.189408214059          0.203119594448
      0.3047524880D+04  0.1834737132D-02
      0.4573695180D+03  0.1403732281D-01
      0.1039486850D+03  0.6884262226D-01
      0.2921015530D+02  0.2321844432D+00
      0.9286662960D+01  0.4679413484D+00
      0.3163926960D+01  0.3623119853D+00
 Atom C16      Shell    46 SP   3    bf  123 -   126          5.931158483494         -0.189408214059          0.203119594448
      0.7868272350D+01 -0.1193324198D+00  0.6899906659D-01
      0.1881288540D+01 -0.1608541517D+00  0.3164239610D+00
      0.5442492580D+00  0.1143456438D+01  0.7443082909D+00
 Atom C16      Shell    47 SP   1    bf  127 -   130          5.931158483494         -0.189408214059          0.203119594448
      0.1687144782D+00  0.1000000000D+01  0.1000000000D+01
 Atom C16      Shell    48 D   1     bf  131 -   136          5.931158483494         -0.189408214059          0.203119594448
      0.8000000000D+00  0.1000000000D+01
 Atom H17      Shell    49 S   3     bf  137 -   137          5.393578112718         -0.370596799742          2.207266717159
      0.1873113696D+02  0.3349460434D-01
      0.2825394365D+01  0.2347269535D+00
      0.6401216923D+00  0.8137573261D+00
 Atom H17      Shell    50 S   1     bf  138 -   138          5.393578112718         -0.370596799742          2.207266717159
      0.1612777588D+00  0.1000000000D+01
 Atom C18      Shell    51 S   6     bf  139 -   139          4.486994132507          2.020865284144         -1.004100670578
      0.3047524880D+04  0.1834737132D-02
      0.4573695180D+03  0.1403732281D-01
      0.1039486850D+03  0.6884262226D-01
      0.2921015530D+02  0.2321844432D+00
      0.9286662960D+01  0.4679413484D+00
      0.3163926960D+01  0.3623119853D+00
 Atom C18      Shell    52 SP   3    bf  140 -   143          4.486994132507          2.020865284144         -1.004100670578
      0.7868272350D+01 -0.1193324198D+00  0.6899906659D-01
      0.1881288540D+01 -0.1608541517D+00  0.3164239610D+00
      0.5442492580D+00  0.1143456438D+01  0.7443082909D+00
 Atom C18      Shell    53 SP   1    bf  144 -   147          4.486994132507          2.020865284144         -1.004100670578
      0.1687144782D+00  0.1000000000D+01  0.1000000000D+01
 Atom C18      Shell    54 D   1     bf  148 -   153          4.486994132507          2.020865284144         -1.004100670578
      0.8000000000D+00  0.1000000000D+01
 Atom H19      Shell    55 S   3     bf  154 -   154          4.377452226584          1.622847310995         -3.032536632248
      0.1873113696D+02  0.3349460434D-01
      0.2825394365D+01  0.2347269535D+00
      0.6401216923D+00  0.8137573261D+00
 Atom H19      Shell    56 S   1     bf  155 -   155          4.377452226584          1.622847310995         -3.032536632248
      0.1612777588D+00  0.1000000000D+01
 Atom C20      Shell    57 S   6     bf  156 -   156          5.963809152720          4.522324017651         -0.573415209639
      0.3047524880D+04  0.1834737132D-02
      0.4573695180D+03  0.1403732281D-01
      0.1039486850D+03  0.6884262226D-01
      0.2921015530D+02  0.2321844432D+00
      0.9286662960D+01  0.4679413484D+00
      0.3163926960D+01  0.3623119853D+00
 Atom C20      Shell    58 SP   3    bf  157 -   160          5.963809152720          4.522324017651         -0.573415209639
      0.7868272350D+01 -0.1193324198D+00  0.6899906659D-01
      0.1881288540D+01 -0.1608541517D+00  0.3164239610D+00
      0.5442492580D+00  0.1143456438D+01  0.7443082909D+00
 Atom C20      Shell    59 SP   1    bf  161 -   164          5.963809152720          4.522324017651         -0.573415209639
      0.1687144782D+00  0.1000000000D+01  0.1000000000D+01
 Atom C20      Shell    60 D   1     bf  165 -   170          5.963809152720          4.522324017651         -0.573415209639
      0.8000000000D+00  0.1000000000D+01
 Atom H21      Shell    61 S   3     bf  171 -   171          6.182908989444          4.709692612501          1.490490722572
      0.1873113696D+02  0.3349460434D-01
      0.2825394365D+01  0.2347269535D+00
      0.6401216923D+00  0.8137573261D+00
 Atom H21      Shell    62 S   1     bf  172 -   172          6.182908989444          4.709692612501          1.490490722572
      0.1612777588D+00  0.1000000000D+01
 Atom C22      Shell    63 S   6     bf  173 -   173          4.421324977759          6.836804913877         -1.464658298616
      0.3047524880D+04  0.1834737132D-02
      0.4573695180D+03  0.1403732281D-01
      0.1039486850D+03  0.6884262226D-01
      0.2921015530D+02  0.2321844432D+00
      0.9286662960D+01  0.4679413484D+00
      0.3163926960D+01  0.3623119853D+00
 Atom C22      Shell    64 SP   3    bf  174 -   177          4.421324977759          6.836804913877         -1.464658298616
      0.7868272350D+01 -0.1193324198D+00  0.6899906659D-01
      0.1881288540D+01 -0.1608541517D+00  0.3164239610D+00
      0.5442492580D+00  0.1143456438D+01  0.7443082909D+00
 Atom C22      Shell    65 SP   1    bf  178 -   181          4.421324977759          6.836804913877         -1.464658298616
      0.1687144782D+00  0.1000000000D+01  0.1000000000D+01
 Atom C22      Shell    66 D   1     bf  182 -   187          4.421324977759          6.836804913877         -1.464658298616
      0.8000000000D+00  0.1000000000D+01
 Atom H23      Shell    67 S   3     bf  188 -   188          4.329406960108          6.861511174441         -3.532478458361
      0.1873113696D+02  0.3349460434D-01
      0.2825394365D+01  0.2347269535D+00
      0.6401216923D+00  0.8137573261D+00
 Atom H23      Shell    68 S   1     bf  189 -   189          4.329406960108          6.861511174441         -3.532478458361
      0.1612777588D+00  0.1000000000D+01
 Atom H24      Shell    69 S   3     bf  190 -   190          5.399020164932          8.577049533357         -0.915548878779
      0.1873113696D+02  0.3349460434D-01
      0.2825394365D+01  0.2347269535D+00
      0.6401216923D+00  0.8137573261D+00
 Atom H24      Shell    70 S   1     bf  191 -   191          5.399020164932          8.577049533357         -0.915548878779
      0.1612777588D+00  0.1000000000D+01
 Atom C25      Shell    71 S   6     bf  192 -   192          1.709455292699          6.937786700569         -0.408138306968
      0.3047524880D+04  0.1834737132D-02
      0.4573695180D+03  0.1403732281D-01
      0.1039486850D+03  0.6884262226D-01
      0.2921015530D+02  0.2321844432D+00
      0.9286662960D+01  0.4679413484D+00
      0.3163926960D+01  0.3623119853D+00
 Atom C25      Shell    72 SP   3    bf  193 -   196          1.709455292699          6.937786700569         -0.408138306968
      0.7868272350D+01 -0.1193324198D+00  0.6899906659D-01
      0.1881288540D+01 -0.1608541517D+00  0.3164239610D+00
      0.5442492580D+00  0.1143456438D+01  0.7443082909D+00
 Atom C25      Shell    73 SP   1    bf  197 -   200          1.709455292699          6.937786700569         -0.408138306968
      0.1687144782D+00  0.1000000000D+01  0.1000000000D+01
 Atom C25      Shell    74 D   1     bf  201 -   206          1.709455292699          6.937786700569         -0.408138306968
      0.8000000000D+00  0.1000000000D+01
 Atom H26      Shell    75 S   3     bf  207 -   207          1.781613313453          7.199844472047          1.652193642900
      0.1873113696D+02  0.3349460434D-01
      0.2825394365D+01  0.2347269535D+00
      0.6401216923D+00  0.8137573261D+00
 Atom H26      Shell    76 S   1     bf  208 -   208          1.781613313453          7.199844472047          1.652193642900
      0.1612777588D+00  0.1000000000D+01
 Atom H27      Shell    77 S   3     bf  209 -   209          0.771071379070          8.611795228564         -1.178809536530
      0.1873113696D+02  0.3349460434D-01
      0.2825394365D+01  0.2347269535D+00
      0.6401216923D+00  0.8137573261D+00
 Atom H27      Shell    78 S   1     bf  210 -   210          0.771071379070          8.611795228564         -1.178809536530
      0.1612777588D+00  0.1000000000D+01
 Atom C28      Shell    79 S   6     bf  211 -   211          0.223418257780          4.498994063527         -0.986061155941
      0.3047524880D+04  0.1834737132D-02
      0.4573695180D+03  0.1403732281D-01
      0.1039486850D+03  0.6884262226D-01
      0.2921015530D+02  0.2321844432D+00
      0.9286662960D+01  0.4679413484D+00
      0.3163926960D+01  0.3623119853D+00
 Atom C28      Shell    80 SP   3    bf  212 -   215          0.223418257780          4.498994063527         -0.986061155941
      0.7868272350D+01 -0.1193324198D+00  0.6899906659D-01
      0.1881288540D+01 -0.1608541517D+00  0.3164239610D+00
      0.5442492580D+00  0.1143456438D+01  0.7443082909D+00
 Atom C28      Shell    81 SP   1    bf  216 -   219          0.223418257780          4.498994063527         -0.986061155941
      0.1687144782D+00  0.1000000000D+01  0.1000000000D+01
 Atom C28      Shell    82 D   1     bf  220 -   225          0.223418257780          4.498994063527         -0.986061155941
      0.8000000000D+00  0.1000000000D+01
 Atom C29      Shell    83 S   6     bf  226 -   226          1.807875744591          2.270820285707          0.100011695781
      0.3047524880D+04  0.1834737132D-02
      0.4573695180D+03  0.1403732281D-01
      0.1039486850D+03  0.6884262226D-01
      0.2921015530D+02  0.2321844432D+00
      0.9286662960D+01  0.4679413484D+00
      0.3163926960D+01  0.3623119853D+00
 Atom C29      Shell    84 SP   3    bf  227 -   230          1.807875744591          2.270820285707          0.100011695781
      0.7868272350D+01 -0.1193324198D+00  0.6899906659D-01
      0.1881288540D+01 -0.1608541517D+00  0.3164239610D+00
      0.5442492580D+00  0.1143456438D+01  0.7443082909D+00
 Atom C29      Shell    85 SP   1    bf  231 -   234          1.807875744591          2.270820285707          0.100011695781
      0.1687144782D+00  0.1000000000D+01  0.1000000000D+01
 Atom C29      Shell    86 D   1     bf  235 -   240          1.807875744591          2.270820285707          0.100011695781
      0.8000000000D+00  0.1000000000D+01
 Atom H30      Shell    87 S   3     bf  241 -   241          2.070351315619          2.729500848777          2.119199980264
      0.1873113696D+02  0.3349460434D-01
      0.2825394365D+01  0.2347269535D+00
      0.6401216923D+00  0.8137573261D+00
 Atom H30      Shell    88 S   1     bf  242 -   242          2.070351315619          2.729500848777          2.119199980264
      0.1612777588D+00  0.1000000000D+01
 Atom C31      Shell    89 S   6     bf  243 -   243          0.000000000000          0.000000000000          0.000000000000
      0.3047524880D+04  0.1834737132D-02
      0.4573695180D+03  0.1403732281D-01
      0.1039486850D+03  0.6884262226D-01
      0.2921015530D+02  0.2321844432D+00
      0.9286662960D+01  0.4679413484D+00
      0.3163926960D+01  0.3623119853D+00
 Atom C31      Shell    90 SP   3    bf  244 -   247          0.000000000000          0.000000000000          0.000000000000
      0.7868272350D+01 -0.1193324198D+00  0.6899906659D-01
      0.1881288540D+01 -0.1608541517D+00  0.3164239610D+00
      0.5442492580D+00  0.1143456438D+01  0.7443082909D+00
 Atom C31      Shell    91 SP   1    bf  248 -   251          0.000000000000          0.000000000000          0.000000000000
      0.1687144782D+00  0.1000000000D+01  0.1000000000D+01
 Atom C31      Shell    92 D   1     bf  252 -   257          0.000000000000          0.000000000000          0.000000000000
      0.8000000000D+00  0.1000000000D+01
 Atom H32      Shell    93 S   3     bf  258 -   258          0.519008463595         -1.484977805627          1.338476957251
      0.1873113696D+02  0.3349460434D-01
      0.2825394365D+01  0.2347269535D+00
      0.6401216923D+00  0.8137573261D+00
 Atom H32      Shell    94 S   1     bf  259 -   259          0.519008463595         -1.484977805627          1.338476957251
      0.1612777588D+00  0.1000000000D+01
 Atom H33      Shell    95 S   3     bf  260 -   260          0.032020218794         -0.877114135805         -1.873392474029
      0.1873113696D+02  0.3349460434D-01
      0.2825394365D+01  0.2347269535D+00
      0.6401216923D+00  0.8137573261D+00
 Atom H33      Shell    96 S   1     bf  261 -   261          0.032020218794         -0.877114135805         -1.873392474029
      0.1612777588D+00  0.1000000000D+01
 Atom C34      Shell    97 S   6     bf  262 -   262         -2.620825382286          1.177626945916          0.590352522612
      0.3047524880D+04  0.1834737132D-02
      0.4573695180D+03  0.1403732281D-01
      0.1039486850D+03  0.6884262226D-01
      0.2921015530D+02  0.2321844432D+00
      0.9286662960D+01  0.4679413484D+00
      0.3163926960D+01  0.3623119853D+00
 Atom C34      Shell    98 SP   3    bf  263 -   266         -2.620825382286          1.177626945916          0.590352522612
      0.7868272350D+01 -0.1193324198D+00  0.6899906659D-01
      0.1881288540D+01 -0.1608541517D+00  0.3164239610D+00
      0.5442492580D+00  0.1143456438D+01  0.7443082909D+00
 Atom C34      Shell    99 SP   1    bf  267 -   270         -2.620825382286          1.177626945916          0.590352522612
      0.1687144782D+00  0.1000000000D+01  0.1000000000D+01
 Atom C34      Shell   100 D   1     bf  271 -   276         -2.620825382286          1.177626945916          0.590352522612
      0.8000000000D+00  0.1000000000D+01
 Atom H35      Shell   101 S   3     bf  277 -   277         -4.031308123954          0.567684407271         -0.800200921594
      0.1873113696D+02  0.3349460434D-01
      0.2825394365D+01  0.2347269535D+00
      0.6401216923D+00  0.8137573261D+00
 Atom H35      Shell   102 S   1     bf  278 -   278         -4.031308123954          0.567684407271         -0.800200921594
      0.1612777588D+00  0.1000000000D+01
 Atom H36      Shell   103 S   3     bf  279 -   279         -3.319863084582          0.558686740851          2.435467304864
      0.1873113696D+02  0.3349460434D-01
      0.2825394365D+01  0.2347269535D+00
      0.6401216923D+00  0.8137573261D+00
 Atom H36      Shell   104 S   1     bf  280 -   280         -3.319863084582          0.558686740851          2.435467304864
      0.1612777588D+00  0.1000000000D+01
 Atom C37      Shell   105 S   6     bf  281 -   281         -2.305027786911          4.120058885018          0.515115136433
      0.3047524880D+04  0.1834737132D-02
      0.4573695180D+03  0.1403732281D-01
      0.1039486850D+03  0.6884262226D-01
      0.2921015530D+02  0.2321844432D+00
      0.9286662960D+01  0.4679413484D+00
      0.3163926960D+01  0.3623119853D+00
 Atom C37      Shell   106 SP   3    bf  282 -   285         -2.305027786911          4.120058885018          0.515115136433
      0.7868272350D+01 -0.1193324198D+00  0.6899906659D-01
      0.1881288540D+01 -0.1608541517D+00  0.3164239610D+00
      0.5442492580D+00  0.1143456438D+01  0.7443082909D+00
[...]
 1646 Fit       0.001407
 1647 Fit       0.001689
 1648 Fit      -0.000447
 1649 Fit      -0.003638
 1650 Fit      -0.003285
 1651 Fit      -0.002921
 1652 Fit      -0.002118
 1653 Fit      -0.003488
 1654 Fit      -0.004135
 1655 Fit      -0.003707
 1656 Fit      -0.003764
 1657 Fit      -0.004057
 1658 Fit      -0.002447
 1659 Fit      -0.001942
 1660 Fit      -0.002807
 1661 Fit       0.000213
 1662 Fit       0.000196
 1663 Fit      -0.000854
 1664 Fit      -0.002764
 1665 Fit       0.001834
 1666 Fit       0.001275
 1667 Fit      -0.000125
 1668 Fit      -0.002445
 1669 Fit       0.000547
 1670 Fit      -0.002661
 1671 Fit       0.001354
 1672 Fit       0.001123
 1673 Fit       0.002190
 1674 Fit       0.001399
 1675 Fit       0.000215
 1676 Fit      -0.000505
 1677 Fit      -0.000225
 1678 Fit       0.000031
 1679 Fit      -0.000748
 1680 Fit      -0.001718
 1681 Fit      -0.002497
 1682 Fit      -0.003055
 1683 Fit      -0.003171
 1684 Fit      -0.001579
 1685 Fit      -0.003165
 1686 Fit      -0.002571
 1687 Fit      -0.002201
 1688 Fit      -0.000593
 1689 Fit      -0.000321
 1690 Fit      -0.001144
 1691 Fit      -0.002107
 1692 Fit      -0.000081
 1693 Fit       0.000928
 1694 Fit       0.000846
 1695 Fit      -0.000023
 1696 Fit      -0.001715
 1697 Fit       0.000311
 1698 Fit       0.001397
 1699 Fit       0.000982
 1700 Fit      -0.004903
 1701 Fit      -0.001047
 1702 Fit       0.003678
 1703 Fit       0.004155
 1704 Fit       0.001793
 1705 Fit      -0.002073
 1706 Fit      -0.011597
 1707 Fit      -0.002668
 1708 Fit       0.003860
 1709 Fit       0.003241
 1710 Fit       0.000893
 1711 Fit       0.000547
 1712 Fit      -0.004518
 1713 Fit      -0.012742
 1714 Fit       0.011413
 1715 Fit       0.008212
 1716 Fit       0.006936
 1717 Fit       0.000962
 1718 Fit       0.003295
 1719 Fit      -0.003847
 1720 Fit       0.007065
 1721 Fit       0.002121
 1722 Fit      -0.006188
 1723 Fit       0.008096
 1724 Fit       0.003893
 1725 Fit      -0.001797
 1726 Fit       0.007164
 1727 Fit       0.010588
 1728 Fit       0.021168
 1729 Fit       0.006431
 1730 Fit       0.009428
 1731 Fit       0.009958
 1732 Fit       0.012843
 1733 Fit       0.016539
 1734 Fit       0.009660
 1735 Fit       0.012065
 1736 Fit       0.005486
 1737 Fit       0.006150
 1738 Fit       0.006426
 1739 Fit       0.006092
 1740 Fit       0.005751
 1741 Fit       0.006282
 1742 Fit       0.007175
 1743 Fit       0.006685
 1744 Fit       0.006493
 1745 Fit       0.005335
 1746 Fit       0.005513
 1747 Fit       0.006065
 1748 Fit       0.006197
 1749 Fit       0.006868
 1750 Fit       0.007551
 1751 Fit       0.007723
 1752 Fit       0.008332
 1753 Fit       0.008328
 1754 Fit       0.008818
 1755 Fit       0.006012
 1756 Fit       0.005909
 1757 Fit       0.007178
 1758 Fit       0.009886
 1759 Fit       0.006430
 1760 Fit       0.020544
 1761 Fit       0.012044
 1762 Fit       0.008929
 1763 Fit       0.008510
 1764 Fit       0.016326
 1765 Fit       0.011664
 1766 Fit       0.010051
 1767 Fit       0.002640
 1768 Fit      -0.004466
 1769 Fit       0.001258
 1770 Fit       0.004477
 1771 Fit      -0.002886
 1772 Fit       0.002240
 1773 Fit       0.004550
 1774 Fit      -0.004538
 1775 Fit       0.001325
 1776 Fit       0.004051
 1777 Fit       0.005494
 1778 Fit      -0.001152
 1779 Fit       0.002546
 1780 Fit       0.004547
 1781 Fit       0.005999
 1782 Fit       0.004770
 1783 Fit       0.002413
 1784 Fit       0.000259
 1785 Fit       0.000653
 1786 Fit       0.002172
 1787 Fit       0.000907
 1788 Fit       0.014331
 1789 Fit       0.002427
 1790 Fit       0.002829
 1791 Fit       0.003784
 1792 Fit       0.002515
 1793 Fit       0.005638
 1794 Fit       0.005900
 1795 Fit       0.001287
 1796 Fit       0.007319
 1797 Fit       0.008594
 1798 Fit       0.013015
 1799 Fit       0.011593
 1800 Fit       0.005290
 1801 Fit       0.004584
 1802 Fit       0.006197
 1803 Fit       0.006639
 1804 Fit       0.004665
 1805 Fit       0.002969
 1806 Fit       0.003573
 1807 Fit      -0.001174
 1808 Fit      -0.002122
 1809 Fit       0.000775
 1810 Fit       0.006558
 1811 Fit       0.006526
 1812 Fit       0.007104
 1813 Fit       0.006414
 1814 Fit       0.007769
 1815 Fit       0.006090
 1816 Fit       0.006225
 1817 Fit       0.004384
 1818 Fit       0.005050
 1819 Fit       0.003952
 1820 Fit       0.004819
 1821 Fit       0.005245
 1822 Fit       0.005692
 1823 Fit       0.006234
 1824 Fit       0.004734
 1825 Fit       0.006604
 1826 Fit       0.004747
 1827 Fit       0.006996
 1828 Fit       0.004965
 1829 Fit       0.007924
 1830 Fit       0.005171
 1831 Fit       0.002676
 1832 Fit       0.000952
 1833 Fit       0.004564
 1834 Fit       0.005480
 1835 Fit       0.004289
 1836 Fit       0.003547
 1837 Fit       0.005678
 1838 Fit       0.005075
 1839 Fit       0.003543
 1840 Fit       0.002422
 1841 Fit       0.002432
 1842 Fit       0.000525
 1843 Fit       0.002529
 1844 Fit       0.001376
 1845 Fit       0.003651
 1846 Fit       0.003038
 1847 Fit       0.004224
 1848 Fit       0.004411
 1849 Fit       0.004264
 1850 Fit       0.005170
 1851 Fit       0.004200
 1852 Fit       0.006333
 1853 Fit       0.005495
 1854 Fit       0.004206
 1855 Fit       0.002583
 1856 Fit       0.002442
 1857 Fit       0.005200
 1858 Fit       0.000407
 1859 Fit      -0.008735
 1860 Fit      -0.009599
 1861 Fit      -0.014479
 1862 Fit      -0.024467
 1863 Fit      -0.000189
 1864 Fit      -0.002455
 1865 Fit      -0.001976
 1866 Fit      -0.004764
 1867 Fit      -0.006173
 1868 Fit      -0.007585
 1869 Fit      -0.008025
 1870 Fit      -0.010466
 1871 Fit      -0.015486
 1872 Fit      -0.016054
 1873 Fit      -0.010021
 1874 Fit      -0.016212
 1875 Fit      -0.003736
 1876 Fit      -0.008662
 1877 Fit      -0.016088
 1878 Fit      -0.010116
 1879 Fit      -0.002078
 1880 Fit      -0.004666
 1881 Fit      -0.006994
 1882 Fit      -0.008021
 1883 Fit      -0.003693
 1884 Fit      -0.001007
 1885 Fit      -0.002867
 1886 Fit      -0.005712
 1887 Fit      -0.000242
 1888 Fit      -0.001865
 1889 Fit      -0.004527
 1890 Fit       0.000330
 1891 Fit      -0.001340
 1892 Fit       0.000598
 1893 Fit       0.000612
 1894 Fit       0.000922
 1895 Fit       0.000259
 1896 Fit       0.000274
 1897 Fit       0.000007
 1898 Fit      -0.000207
 1899 Fit      -0.000129
 1900 Fit      -0.000885
 1901 Fit      -0.001909
 1902 Fit      -0.002212
 1903 Fit      -0.002648
 1904 Fit      -0.004319
 1905 Fit       0.002257
 1906 Fit       0.003441
 1907 Fit       0.003257
 1908 Fit       0.002565
 1909 Fit       0.000913
 1910 Fit       0.001971
 1911 Fit      -0.012785
 1912 Fit       0.001382
 1913 Fit      -0.002326
 1914 Fit      -0.006407
 1915 Fit      -0.000499
 1916 Fit      -0.001249
 1917 Fit      -0.002530
 1918 Fit      -0.003579
 1919 Fit      -0.003360
 1920 Fit      -0.002326
 1921 Fit      -0.006645
 1922 Fit       0.001601
 1923 Fit       0.001677
 1924 Fit      -0.001927
 1925 Fit      -0.000945
 1926 Fit       0.000270
 1927 Fit      -0.001421
 1928 Fit      -0.001026
 1929 Fit      -0.001992
 1930 Fit      -0.004883
 1931 Fit      -0.009102
 1932 Fit      -0.002550
 1933 Fit      -0.003300
 1934 Fit       0.004809
 1935 Fit       0.002609
 1936 Fit       0.002780
 1937 Fit       0.001755
 1938 Fit       0.000329
 1939 Fit      -0.001166
 1940 Fit       0.000649
 1941 Fit       0.000753
 1942 Fit      -0.000863
 1943 Fit       0.000340
 1944 Fit       0.000490
 1945 Fit       0.000625
 1946 Fit      -0.000133
 1947 Fit       0.000176
 1948 Fit      -0.000041
 1949 Fit      -0.000722
 1950 Fit      -0.000131
 1951 Fit      -0.000290
 1952 Fit      -0.001045
 1953 Fit      -0.000963
 1954 Fit       0.000449
 1955 Fit      -0.000882
 1956 Fit      -0.000635
 1957 Fit      -0.000224
 1958 Fit      -0.000183
 1959 Fit      -0.000623
 1960 Fit       0.002623
 1961 Fit       0.002935
 1962 Fit       0.002433
 1963 Fit       0.001840
 1964 Fit       0.001932
 1965 Fit       0.001679
 1966 Fit       0.001078
 1967 Fit       0.000870
 1968 Fit       0.000718
 1969 Fit       0.000278
 1970 Fit      -0.000388
 1971 Fit      -0.000002
 1972 Fit       0.001619
 1973 Fit       0.000272
 1974 Fit       0.001449
 1975 Fit      -0.000009
 1976 Fit       0.000860
 1977 Fit       0.000476
 1978 Fit      -0.000168
 1979 Fit      -0.000412
 1980 Fit       0.001430
 1981 Fit       0.003292
 1982 Fit       0.000995
 1983 Fit       0.003543
 1984 Fit       0.001271
 1985 Fit       0.009039
 1986 Fit       0.004239
 1987 Fit       0.003390
 1988 Fit       0.004304
 1989 Fit       0.005445
 1990 Fit       0.004644
 1991 Fit       0.003653
 1992 Fit       0.002354
 1993 Fit       0.003704
 1994 Fit       0.003173
 1995 Fit       0.008549
 1996 Fit       0.008498
 1997 Fit       0.007991
 1998 Fit       0.007143
 1999 Fit       0.007062
 2000 Fit       0.006542
 2001 Fit       0.005733
 2002 Fit       0.005635
 2003 Fit       0.005354
 2004 Fit       0.003833
 2005 Fit       0.014800
 2006 Fit       0.012602
 2007 Fit       0.008826
 2008 Fit       0.008786
 2009 Fit       0.013125
 2010 Fit       0.009286
 2011 Fit       0.007326
 2012 Fit       0.007147
 2013 Fit      -0.000320
 2014 Fit      -0.005039
 2015 Fit      -0.003040
 2016 Fit       0.002003
 2017 Fit       0.001469
 2018 Fit       0.000344
 2019 Fit       0.002120
 2020 Fit       0.002051
 2021 Fit      -0.007434
 2022 Fit      -0.015228
 2023 Fit      -0.013191
 2024 Fit      -0.007727
 2025 Fit      -0.020020
 2026 Fit      -0.016281
 2027 Fit      -0.009718
 2028 Fit      -0.001115
 2029 Fit      -0.023409
 2030 Fit      -0.018477
 2031 Fit      -0.009801
 2032 Fit      -0.026152
 2033 Fit      -0.021721
 2034 Fit      -0.012203
 2035 Fit      -0.022232
 2036 Fit      -0.022123
 2037 Fit      -0.016019
 2038 Fit      -0.004363
 2039 Fit       0.001090
 2040 Fit      -0.016339
 2041 Fit      -0.019307
 2042 Fit      -0.018797
 2043 Fit      -0.012975
 2044 Fit      -0.002194
 2045 Fit       0.001034
 2046 Fit      -0.005461
 2047 Fit      -0.011443
 2048 Fit      -0.014652
 2049 Fit      -0.009910
 2050 Fit       0.000008
 2051 Fit      -0.007461
 2052 Fit       0.008032
 2053 Fit      -0.000317
 2054 Fit       0.010422
 2055 Fit       0.016778
 2056 Fit       0.019419
 2057 Fit       0.017346
 2058 Fit       0.002695
 2059 Fit       0.012476
 2060 Fit       0.017995
 2061 Fit       0.019761
 2062 Fit       0.015765
 2063 Fit       0.008662
 2064 Fit       0.005431
 2065 Fit       0.014020
 2066 Fit       0.017403
 2067 Fit       0.010884
 2068 Fit       0.010206
 2069 Fit      -0.021499
 2070 Fit      -0.017574
 2071 Fit      -0.018240
 2072 Fit      -0.024284
 2073 Fit      -0.023126
 2074 Fit      -0.019372
 2075 Fit      -0.011671
 2076 Fit      -0.013436
 2077 Fit      -0.020479
 2078 Fit      -0.023657
 2079 Fit      -0.021419
 2080 Fit      -0.020866
 2081 Fit      -0.019190
 2082 Fit      -0.014551
 2083 Fit      -0.016426
 2084 Fit      -0.020482
 2085 Fit      -0.021532
 2086 Fit      -0.013167
 2087 Fit      -0.012848
 2088 Fit      -0.012391
 2089 Fit      -0.010466
 2090 Fit      -0.012678
 2091 Fit      -0.014143
 2092 Fit      -0.013805
 2093 Fit       0.000106
 2094 Fit       0.000964
 2095 Fit      -0.001871
 2096 Fit      -0.002657
 2097 Fit      -0.001396
 2098 Fit       0.004623
 2099 Fit       0.004948
 2100 Fit       0.005146
 2101 Fit       0.006024
 2102 Fit       0.002949
 2103 Fit       0.003794
 2104 Fit       0.014084
 2105 Fit       0.014543
 2106 Fit       0.015388
 2107 Fit       0.014038
 2108 Fit       0.013695
 2109 Fit       0.020102
 2110 Fit       0.021149
 2111 Fit       0.020594
 2112 Fit       0.023953
 2113 Fit      -0.000253
 2114 Fit      -0.000720
 2115 Fit      -0.001293
 2116 Fit      -0.000389
 2117 Fit       0.001784
 2118 Fit       0.001865
 2119 Fit       0.000864
 2120 Fit       0.002709
 2121 Fit       0.002166
 2122 Fit      -0.001096
 2123 Fit      -0.000632
 2124 Fit      -0.001428
 2125 Fit       0.001553
 2126 Fit       0.000187
 2127 Fit      -0.000555
 2128 Fit       0.001536
 2129 Fit      -0.000091
 2130 Fit      -0.000711
 2131 Fit      -0.000898
 2132 Fit      -0.000275
 2133 Fit      -0.001226
 2134 Fit      -0.000813
 2135 Fit      -0.000660
 2136 Fit      -0.000476
 2137 Fit      -0.000090
 2138 Fit       0.000472
 2139 Fit      -0.000334
 2140 Fit      -0.000368
 2141 Fit      -0.000009
 2142 Fit       0.000328
 2143 Fit       0.000627
 2144 Fit       0.000328
 2145 Fit      -0.003202
 2146 Fit      -0.002451
 2147 Fit      -0.001704
 2148 Fit       0.000436
 2149 Fit       0.000451
 2150 Fit       0.000380
 2151 Fit      -0.003091
 2152 Fit      -0.001415
 2153 Fit      -0.000342
 2154 Fit      -0.000074
 2155 Fit      -0.001966
 2156 Fit      -0.000903
 2157 Fit      -0.000498
 2158 Fit      -0.001870
 2159 Fit       0.001150
 2160 Fit       0.001213
 2161 Fit       0.000490
 2162 Fit      -0.001098
 2163 Fit      -0.002911
 2164 Fit      -0.000661
 2165 Fit       0.000374
 2166 Fit       0.000440
 2167 Fit      -0.000514
 2168 Fit      -0.002046
 2169 Fit      -0.000617
 2170 Fit      -0.000545
 2171 Fit      -0.001606
 2172 Fit       0.000210
 2173 Fit       0.000591
 2174 Fit       0.000384
 2175 Fit      -0.000192
 2176 Fit       0.001216
 2177 Fit       0.000866
 2178 Fit      -0.000352
 2179 Fit       0.000588
 2180 Fit      -0.000560
 2181 Fit      -0.000254
 2182 Fit       0.000098
 2183 Fit      -0.000695
 2184 Fit      -0.001282
 2185 Fit      -0.001697
 2186 Fit      -0.002232
 2187 Fit      -0.002526
 2188 Fit      -0.002232
 2189 Fit      -0.002528
 2190 Fit      -0.001790
 2191 Fit      -0.002149
 2192 Fit      -0.001492
 2193 Fit      -0.000709
 2194 Fit      -0.002145
 2195 Fit      -0.002142
 2196 Fit      -0.001074
 2197 Fit      -0.000453
 2198 Fit      -0.000270
 2199 Fit      -0.001084
 2200 Fit       0.000034
 2201 Fit       0.000765
 2202 Fit       0.001175
 2203 Fit      -0.000529
 2204 Fit       0.000571
 2205 Fit       0.001308
 2206 Fit       0.001824
 2207 Fit       0.000144
 2208 Fit       0.001698
 2209 Fit       0.001201
 2210 Fit       0.001132
 2211 Fit       0.001081
 2212 Fit       0.001214
 2213 Fit       0.001623
 2214 Fit       0.000175
 2215 Fit       0.000009
 2216 Fit      -0.000020
 2217 Fit      -0.000078
 2218 Fit      -0.000261
 2219 Fit      -0.000509
 2220 Fit       0.000458
 2221 Fit      -0.001633
 2222 Fit      -0.001776
 2223 Fit      -0.001959
 2224 Fit      -0.000368
 2225 Fit       0.001173
 2226 Fit       0.000442
 2227 Fit      -0.000752
 2228 Fit       0.001025
 2229 Fit       0.000204
 2230 Fit      -0.001408
 2231 Fit       0.001628
 2232 Fit       0.000063
 2233 Fit      -0.002642
 2234 Fit      -0.002486
 2235 Fit      -0.002140
 2236 Fit      -0.001402
 2237 Fit      -0.002212
 2238 Fit      -0.002457
 2239 Fit      -0.002719
 2240 Fit      -0.003101
 2241 Fit      -0.003268
 2242 Fit      -0.002784
 2243 Fit      -0.001584
 2244 Fit      -0.003240
 2245 Fit      -0.003466
 2246 Fit      -0.002299
 2247 Fit      -0.001080
 2248 Fit      -0.000686
 2249 Fit      -0.001052
 2250 Fit      -0.002084
 2251 Fit       0.000738
 2252 Fit       0.000569
 2253 Fit      -0.000007
 2254 Fit      -0.001187
 2255 Fit      -0.002686
 2256 Fit       0.001630
 2257 Fit       0.000880
 2258 Fit      -0.000327
 2259 Fit      -0.002104
 2260 Fit       0.000876
 2261 Fit       0.000858
 2262 Fit       0.001592
 2263 Fit       0.001011
 2264 Fit       0.000114
 2265 Fit      -0.000393
 2266 Fit      -0.000131
 2267 Fit       0.000288
 2268 Fit       0.001455
 2269 Fit      -0.000220
 2270 Fit      -0.001021
 2271 Fit      -0.001649
 2272 Fit      -0.002066
 2273 Fit      -0.002120
 2274 Fit      -0.001770
 2275 Fit      -0.000882
 2276 Fit      -0.002099
 2277 Fit      -0.002322
 2278 Fit      -0.001206
 2279 Fit      -0.000968
 2280 Fit      -0.001421
 2281 Fit      -0.001548
 2282 Fit      -0.000355
 2283 Fit       0.000130
 2284 Fit      -0.000052
 2285 Fit      -0.000583
 2286 Fit      -0.001369
 2287 Fit      -0.000081
 2288 Fit       0.000568
 2289 Fit       0.000622
 2290 Fit      -0.001894
 2291 Fit      -0.000300
 -----------------------------------------------------------------
 Leave Link  602 at Thu Apr 27 15:17:17 2017, MaxMem=    33554432 cpu:         3.7
 (Enter /home/michal/g09/l9999.exe)

 Test job not archived.
 1\1\GINC-LINUX\SP\RHF\6-31G(d)\C27H46O3\MICHAL\27-Apr-2017\0\\#P HF/6-
 31G* SCF(Conver=6) NoSymm Test Pop=mk IOp(6/33=2) GFInput GFPrint\\MEP
  - Input generated by R.E.D.-III.x MOLECULE\\0,1\C,0,7.51699544,2.2158
 7647,0.06993641\H,0,7.35513832,2.18543872,1.15437956\C,0,6.82175728,1.
 00769233,-0.57361369\H,0,7.20457535,0.08161691,-0.13320824\H,0,7.10345
 917,0.99143918,-1.63908553\C,0,5.31083227,1.06269685,-0.45258148\C,0,4
 .61572824,2.36111907,-0.87710321\C,0,5.40942735,3.56545555,-0.28107135
 \H,0,5.21136233,3.60780307,0.79900546\H,0,5.02393313,4.49918242,-0.703
 36426\C,0,6.93070108,3.51139985,-0.48892784\H,0,7.17589702,3.58318193,
 -1.5590661\H,0,7.40552968,4.36961096,0.\C,0,4.63184242,0.,0.\H,0,5.175
 89207,-0.89085797,0.31573619\C,0,3.13863389,-0.10023051,0.10748626\H,0
 ,2.85415861,-0.19611138,1.16803524\C,0,2.37441503,1.06939585,-0.531347
 19\H,0,2.31644795,0.85877381,-1.60474927\C,0,3.15591188,2.3931108,-0.3
 0343826\H,0,3.27185452,2.49226199,0.78873372\C,0,2.33966441,3.61788134
 ,-0.77506379\H,0,2.29102349,3.63095533,-1.86930709\H,0,2.85703842,4.53
 877913,-0.4844876\C,0,0.90460478,3.6713186,-0.21597749\H,0,0.94278916,
 3.8099936,0.87430322\H,0,0.4080334,4.55716576,-0.62379914\C,0,0.118227
 85,2.38076512,-0.52180109\C,0,0.95668664,1.20166634,0.05292391\H,0,1.0
 9558273,1.44438964,1.12143233\C,0,0.,0.,0.\H,0,0.27464745,-0.78581641,
 0.7082915\H,0,0.01694437,-0.46414881,-0.9913566\C,0,-1.38688106,0.6231
 7334,0.3124011\H,0,-2.13327638,0.30040565,-0.42344809\H,0,-1.75679588,
 0.29564429,1.28879379\C,0,-1.21976817,2.18024126,0.27258719\H,0,-1.017
 93252,2.52714281,1.29881786\C,0,-0.13253592,2.23787067,-2.0407969\H,0,
 0.79640276,2.16350048,-2.61176876\H,0,-0.72449588,1.34842027,-2.275144
 59\H,0,-0.6797915,3.10488078,-2.42524606\C,0,-2.50870074,2.90507013,-0
 .19579336\H,0,-2.76562291,2.52036471,-1.19469783\C,0,-2.34763571,4.431
 80579,-0.30273098\H,0,-2.01419599,4.85887563,0.65168232\H,0,-3.2943112
 ,4.91188386,-0.56776942\H,0,-1.62213987,4.71811175,-1.06720485\C,0,4.6
 2934178,2.441746,-2.42693898\H,0,4.27547375,3.41619075,-2.77747008\H,0
 ,5.63796371,2.30340866,-2.82589838\H,0,3.99817443,1.66507754,-2.868318
 18\O,0,2.68604153,-1.39224096,-0.37148386\O,0,2.93601724,-1.48479834,-
 1.80505379\H,0,3.73222038,-2.04085902,-1.81876737\O,0,8.938179,2.14792
 921,-0.07330046\H,0,9.15795383,2.20095738,-1.01409021\C,0,-3.68928769,
 2.55409336,0.74428427\H,0,-3.72620507,1.46790113,0.88777679\H,0,-3.483
 17878,2.98488969,1.73495801\C,0,-5.07452607,3.00639079,0.25136394\H,0,
 -5.14122032,4.10030632,0.2373706\H,0,-5.19612771,2.68539122,-0.7930005
 8\C,0,-6.24987641,2.43166782,1.06367357\H,0,-6.21300302,1.33432694,1.0
 0305107\H,0,-7.19143309,2.73054005,0.57929988\C,0,-6.32596702,2.833957
 65,2.55208038\H,0,-5.39274518,2.52001114,3.04128656\C,0,-6.4709071,4.3
 5208803,2.74310983\H,0,-7.37943743,4.7215793,2.24974725\H,0,-6.5439683
 4,4.60733154,3.80646088\H,0,-5.62004086,4.90373352,2.33034649\C,0,-7.4
 8043812,2.09130076,3.24376654\H,0,-8.4453135,2.36811996,2.79956295\H,0
 ,-7.52571775,2.33193445,4.31210021\H,0,-7.37039584,1.00487662,3.148917
 31\\Version=EM64L-G09RevD.01\HF=-1273.683594\RMSD=5.106e-07\Dipole=0.3
 024421,0.4711544,-0.4203549\Quadrupole=-5.5904856,2.8283038,2.7621818,
 -0.2381671,-10.3432964,-2.462589\PG=C01 [X(C27H46O3)]\\@


 HAPPINESS IS NOT HAVING WHAT YOU WANT --
 HAPPINESS IS WANTING WHAT YOU HAVE!

              -- FROM MRS. SEVERN'S DESK
 Job cpu time:       0 days  0 hours 11 minutes 20.4 seconds.
 File lengths (MBytes):  RWF=    159 Int=      0 D2E=      0 Chk=     11 Scr=      1
 Normal termination of Gaussian 09 at Thu Apr 27 15:17:17 2017.
