 Entering Gaussian System, Link 0=/home/michal/g09/g09
 Input=JOB2-gau_m1-7-4.com
 Output=JOB2-gau_m1-7-4.log
 Initial command:
 /home/michal/g09/l1.exe "/home/michal/gauss_scratch/Gau-30265.inp" -scrdir="/home/michal/gauss_scratch/"
 Entering Link 1 = /home/michal/g09/l1.exe PID=     30266.
  
 Copyright (c) 1988,1990,1992,1993,1995,1998,2003,2009,2013,
            Gaussian, Inc.  All Rights Reserved.
  
 This is part of the Gaussian(R) 09 program.  It is based on
 the Gaussian(R) 03 system (copyright 2003, Gaussian, Inc.),
 the Gaussian(R) 98 system (copyright 1998, Gaussian, Inc.),
 the Gaussian(R) 94 system (copyright 1995, Gaussian, Inc.),
 the Gaussian 92(TM) system (copyright 1992, Gaussian, Inc.),
 the Gaussian 90(TM) system (copyright 1990, Gaussian, Inc.),
 the Gaussian 88(TM) system (copyright 1988, Gaussian, Inc.),
 the Gaussian 86(TM) system (copyright 1986, Carnegie Mellon
 University), and the Gaussian 82(TM) system (copyright 1983,
 Carnegie Mellon University). Gaussian is a federally registered
 trademark of Gaussian, Inc.
  
 This software contains proprietary and confidential information,
 including trade secrets, belonging to Gaussian, Inc.
  
 This software is provided under written license and may be
 used, copied, transmitted, or stored only in accord with that
 written license.
  
 The following legend is applicable only to US Government
 contracts under FAR:
  
                    RESTRICTED RIGHTS LEGEND
  
 Use, reproduction and disclosure by the US Government is
 subject to restrictions as set forth in subparagraphs (a)
 and (c) of the Commercial Computer Software - Restricted
 Rights clause in FAR 52.227-19.
  
 Gaussian, Inc.
 340 Quinnipiac St., Bldg. 40, Wallingford CT 06492
  
  
 ---------------------------------------------------------------
 Warning -- This program may not be used in any manner that
 competes with the business of Gaussian, Inc. or will provide
 assistance to any competitor of Gaussian, Inc.  The licensee
 of this program is prohibited from giving any competitor of
 Gaussian, Inc. access to this program.  By using this program,
 the user acknowledges that Gaussian, Inc. is engaged in the
 business of creating and licensing software in the field of
 computational chemistry and represents and warrants to the
 licensee that it is not a competitor of Gaussian, Inc. and that
 it will not use this program in any manner prohibited above.
 ---------------------------------------------------------------
  

 Cite this work as:
 Gaussian 09, Revision D.01,
 M. J. Frisch, G. W. Trucks, H. B. Schlegel, G. E. Scuseria, 
 M. A. Robb, J. R. Cheeseman, G. Scalmani, V. Barone, B. Mennucci, 
 G. A. Petersson, H. Nakatsuji, M. Caricato, X. Li, H. P. Hratchian, 
 A. F. Izmaylov, J. Bloino, G. Zheng, J. L. Sonnenberg, M. Hada, 
 M. Ehara, K. Toyota, R. Fukuda, J. Hasegawa, M. Ishida, T. Nakajima, 
 Y. Honda, O. Kitao, H. Nakai, T. Vreven, J. A. Montgomery, Jr., 
 J. E. Peralta, F. Ogliaro, M. Bearpark, J. J. Heyd, E. Brothers, 
 K. N. Kudin, V. N. Staroverov, T. Keith, R. Kobayashi, J. Normand, 
 K. Raghavachari, A. Rendell, J. C. Burant, S. S. Iyengar, J. Tomasi, 
 M. Cossi, N. Rega, J. M. Millam, M. Klene, J. E. Knox, J. B. Cross, 
 V. Bakken, C. Adamo, J. Jaramillo, R. Gomperts, R. E. Stratmann, 
 O. Yazyev, A. J. Austin, R. Cammi, C. Pomelli, J. W. Ochterski, 
 R. L. Martin, K. Morokuma, V. G. Zakrzewski, G. A. Voth, 
 P. Salvador, J. J. Dannenberg, S. Dapprich, A. D. Daniels, 
 O. Farkas, J. B. Foresman, J. V. Ortiz, J. Cioslowski, 
 and D. J. Fox, Gaussian, Inc., Wallingford CT, 2013.
 
 ******************************************
 Gaussian 09:  EM64L-G09RevD.01 24-Apr-2013
                27-Apr-2017 
 ******************************************
 %Mem=256MB
 %NProc=12
 Will use up to   12 processors via shared memory.
 ----------------------------------------------------------------------
 #P HF/6-31G* SCF(Conver=6) NoSymm Test Pop=mk IOp(6/33=2) GFInput GFPr
 int
 ----------------------------------------------------------------------
 1/38=1/1;
 2/12=2,15=1,17=6,18=5,40=1/2;
 3/5=1,6=6,7=1,11=9,16=1,24=110,25=1,30=1/1,2,3;
 4//1;
 5/5=2,6=6,38=5/2;
 6/7=2,8=2,9=2,10=2,15=8,20=1,28=1,33=2/1,2;
 99/5=1,9=1/99;
 Leave Link    1 at Thu Apr 27 15:22:34 2017, MaxMem=    33554432 cpu:         0.6
 (Enter /home/michal/g09/l101.exe)
 ----------------------------------------------
 MEP - Input generated by R.E.D.-III.x MOLECULE
 ----------------------------------------------
 Symbolic Z-matrix:
 Charge =  0 Multiplicity = 1
 C                     0.99848  -0.9075   -1.68443 
 H                     1.15707   0.05729  -2.18171 
 C                     2.20841  -1.81314  -1.95253 
 H                     2.35202  -1.93224  -3.03076 
 H                     1.97131  -2.81291  -1.55333 
 C                     3.48182  -1.2983   -1.30802 
 C                     3.41639  -0.93352   0.17842 
 C                     2.12631  -0.09104   0.42587 
 H                     2.28227   0.90995   0. 
 H                     1.9813    0.04871   1.50235 
 C                     0.8424   -0.67712  -0.18158 
 H                     0.58847  -1.63183   0.30242 
 H                     0.        0.        0. 
 C                     4.60524  -1.19411  -2.03004 
 H                     4.59497  -1.45822  -3.08515 
 C                     5.94367  -0.77205  -1.49976 
 H                     6.26268   0.16582  -1.98045 
 C                     6.00664  -0.62974   0.02991 
 H                     6.16768  -1.63718   0.43575 
 C                     4.66139  -0.06445   0.56596 
 H                     4.51767   0.90131   0.05456 
 C                     4.74965   0.23944   2.0789 
 H                     4.79232  -0.69924   2.64194 
 H                     3.83425   0.74523   2.40451 
 C                     5.95447   1.11239   2.47921 
 H                     5.84262   2.11309   2.03723 
 H                     5.93758   1.24912   3.56481 
 C                     7.28965   0.5081    1.99977 
 C                     7.15685   0.29823   0.46324 
 H                     6.90043   1.29318   0.0603 
 C                     8.59125   0.        0. 
 H                     8.7412    0.22874  -1.05968 
 H                     8.82692  -1.06156   0.12528 
 C                     9.46788   0.89038   0.92119 
 H                     10.28393   0.307     1.36418 
 H                     9.93961   1.69923   0.35516 
 C                     8.53451   1.46246   2.04162 
 H                     8.17195   2.44885   1.71056 
 C                     7.59641  -0.80948   2.74831 
 H                     6.83707  -1.57544   2.5718 
 H                     8.55852  -1.23591   2.44929 
 H                     7.63736  -0.63951   3.82903 
 C                     9.28134   1.68975   3.38191 
 H                     9.70877   0.72476   3.69447 
 C                     8.36286   2.19337   4.50994 
 H                     7.81724   3.09225   4.19677 
 H                     8.93782   2.45162   5.40425 
 H                     7.62691   1.44465   4.81166 
 C                     3.34954  -2.24464   1.00647 
 H                     3.14652  -2.04023   2.06237 
 H                     2.55482  -2.90378   0.64759 
 H                     4.28645  -2.80529   0.937 
 O                     6.93854  -1.77662  -1.8225 
 O                     7.12489  -1.77054  -3.27012 
 H                     8.04289  -1.4578   -3.3245 
 O                    -0.1938   -1.4191   -2.28669 
 H                    -0.39239  -2.28165  -1.89585 
 C                     10.46528   2.67097   3.18135 
 H                     10.98338   2.42647   2.24919 
 H                     10.06156   3.68676   3.04724 
 C                     11.49805   2.68053   4.32045 
 H                     10.99908   2.8805    5.27628 
 H                     11.93424   1.67693   4.41682 
 C                     12.61662   3.72663   4.15566 
 H                     13.24204   3.71521   5.06069 
 H                     12.15656   4.72481   4.11942 
 C                     13.54416   3.57377   2.93111 
 H                     12.9259   3.60661   2.02261 
 C                     14.52577   4.75462   2.86055 
 H                     15.17865   4.77374   3.74272 
 H                     15.16721   4.68708   1.97443 
 H                     13.99557   5.71304   2.81868 
 C                     14.3063   2.23915   2.93533 
 H                     14.92442   2.14682   3.83793 
 H                     14.97265   2.1662    2.06829 
 H                     13.63148   1.37757   2.90483 
 
 NAtoms=     76 NQM=       76 NQMF=       0 NMMI=      0 NMMIF=      0
                NMic=       0 NMicF=      0.
                    Isotopes and Nuclear Properties:
 (Nuclear quadrupole moments (NQMom) in fm**2, nuclear magnetic moments (NMagM)
  in nuclear magnetons)

  Atom         1           2           3           4           5           6           7           8           9          10
 IAtWgt=          12           1          12           1           1          12          12          12           1           1
 AtmWgt=  12.0000000   1.0078250  12.0000000   1.0078250   1.0078250  12.0000000  12.0000000  12.0000000   1.0078250   1.0078250
 NucSpn=           0           1           0           1           1           0           0           0           1           1
 AtZEff=   0.0000000   0.0000000   0.0000000   0.0000000   0.0000000   0.0000000   0.0000000   0.0000000   0.0000000   0.0000000
 NQMom=    0.0000000   0.0000000   0.0000000   0.0000000   0.0000000   0.0000000   0.0000000   0.0000000   0.0000000   0.0000000
 NMagM=    0.0000000   2.7928460   0.0000000   2.7928460   2.7928460   0.0000000   0.0000000   0.0000000   2.7928460   2.7928460
 AtZNuc=   6.0000000   1.0000000   6.0000000   1.0000000   1.0000000   6.0000000   6.0000000   6.0000000   1.0000000   1.0000000

  Atom        11          12          13          14          15          16          17          18          19          20
 IAtWgt=          12           1           1          12           1          12           1          12           1          12
 AtmWgt=  12.0000000   1.0078250   1.0078250  12.0000000   1.0078250  12.0000000   1.0078250  12.0000000   1.0078250  12.0000000
 NucSpn=           0           1           1           0           1           0           1           0           1           0
 AtZEff=   0.0000000   0.0000000   0.0000000   0.0000000   0.0000000   0.0000000   0.0000000   0.0000000   0.0000000   0.0000000
 NQMom=    0.0000000   0.0000000   0.0000000   0.0000000   0.0000000   0.0000000   0.0000000   0.0000000   0.0000000   0.0000000
 NMagM=    0.0000000   2.7928460   2.7928460   0.0000000   2.7928460   0.0000000   2.7928460   0.0000000   2.7928460   0.0000000
 AtZNuc=   6.0000000   1.0000000   1.0000000   6.0000000   1.0000000   6.0000000   1.0000000   6.0000000   1.0000000   6.0000000

  Atom        21          22          23          24          25          26          27          28          29          30
 IAtWgt=           1          12           1           1          12           1           1          12          12           1
 AtmWgt=   1.0078250  12.0000000   1.0078250   1.0078250  12.0000000   1.0078250   1.0078250  12.0000000  12.0000000   1.0078250
 NucSpn=           1           0           1           1           0           1           1           0           0           1
 AtZEff=   0.0000000   0.0000000   0.0000000   0.0000000   0.0000000   0.0000000   0.0000000   0.0000000   0.0000000   0.0000000
 NQMom=    0.0000000   0.0000000   0.0000000   0.0000000   0.0000000   0.0000000   0.0000000   0.0000000   0.0000000   0.0000000
 NMagM=    2.7928460   0.0000000   2.7928460   2.7928460   0.0000000   2.7928460   2.7928460   0.0000000   0.0000000   2.7928460
 AtZNuc=   1.0000000   6.0000000   1.0000000   1.0000000   6.0000000   1.0000000   1.0000000   6.0000000   6.0000000   1.0000000

  Atom        31          32          33          34          35          36          37          38          39          40
 IAtWgt=          12           1           1          12           1           1          12           1          12           1
 AtmWgt=  12.0000000   1.0078250   1.0078250  12.0000000   1.0078250   1.0078250  12.0000000   1.0078250  12.0000000   1.0078250
 NucSpn=           0           1           1           0           1           1           0           1           0           1
 AtZEff=   0.0000000   0.0000000   0.0000000   0.0000000   0.0000000   0.0000000   0.0000000   0.0000000   0.0000000   0.0000000
 NQMom=    0.0000000   0.0000000   0.0000000   0.0000000   0.0000000   0.0000000   0.0000000   0.0000000   0.0000000   0.0000000
 NMagM=    0.0000000   2.7928460   2.7928460   0.0000000   2.7928460   2.7928460   0.0000000   2.7928460   0.0000000   2.7928460
 AtZNuc=   6.0000000   1.0000000   1.0000000   6.0000000   1.0000000   1.0000000   6.0000000   1.0000000   6.0000000   1.0000000

  Atom        41          42          43          44          45          46          47          48          49          50
 IAtWgt=           1           1          12           1          12           1           1           1          12           1
 AtmWgt=   1.0078250   1.0078250  12.0000000   1.0078250  12.0000000   1.0078250   1.0078250   1.0078250  12.0000000   1.0078250
 NucSpn=           1           1           0           1           0           1           1           1           0           1
 AtZEff=   0.0000000   0.0000000   0.0000000   0.0000000   0.0000000   0.0000000   0.0000000   0.0000000   0.0000000   0.0000000
 NQMom=    0.0000000   0.0000000   0.0000000   0.0000000   0.0000000   0.0000000   0.0000000   0.0000000   0.0000000   0.0000000
 NMagM=    2.7928460   2.7928460   0.0000000   2.7928460   0.0000000   2.7928460   2.7928460   2.7928460   0.0000000   2.7928460
 AtZNuc=   1.0000000   1.0000000   6.0000000   1.0000000   6.0000000   1.0000000   1.0000000   1.0000000   6.0000000   1.0000000

  Atom        51          52          53          54          55          56          57          58          59          60
 IAtWgt=           1           1          16          16           1          16           1          12           1           1
 AtmWgt=   1.0078250   1.0078250  15.9949146  15.9949146   1.0078250  15.9949146   1.0078250  12.0000000   1.0078250   1.0078250
 NucSpn=           1           1           0           0           1           0           1           0           1           1
 AtZEff=   0.0000000   0.0000000   0.0000000   0.0000000   0.0000000   0.0000000   0.0000000   0.0000000   0.0000000   0.0000000
 NQMom=    0.0000000   0.0000000   0.0000000   0.0000000   0.0000000   0.0000000   0.0000000   0.0000000   0.0000000   0.0000000
 NMagM=    2.7928460   2.7928460   0.0000000   0.0000000   2.7928460   0.0000000   2.7928460   0.0000000   2.7928460   2.7928460
 AtZNuc=   1.0000000   1.0000000   8.0000000   8.0000000   1.0000000   8.0000000   1.0000000   6.0000000   1.0000000   1.0000000

  Atom        61          62          63          64          65          66          67          68          69          70
 IAtWgt=          12           1           1          12           1           1          12           1          12           1
 AtmWgt=  12.0000000   1.0078250   1.0078250  12.0000000   1.0078250   1.0078250  12.0000000   1.0078250  12.0000000   1.0078250
 NucSpn=           0           1           1           0           1           1           0           1           0           1
 AtZEff=   0.0000000   0.0000000   0.0000000   0.0000000   0.0000000   0.0000000   0.0000000   0.0000000   0.0000000   0.0000000
 NQMom=    0.0000000   0.0000000   0.0000000   0.0000000   0.0000000   0.0000000   0.0000000   0.0000000   0.0000000   0.0000000
 NMagM=    0.0000000   2.7928460   2.7928460   0.0000000   2.7928460   2.7928460   0.0000000   2.7928460   0.0000000   2.7928460
 AtZNuc=   6.0000000   1.0000000   1.0000000   6.0000000   1.0000000   1.0000000   6.0000000   1.0000000   6.0000000   1.0000000

  Atom        71          72          73          74          75          76
 IAtWgt=           1           1          12           1           1           1
 AtmWgt=   1.0078250   1.0078250  12.0000000   1.0078250   1.0078250   1.0078250
 NucSpn=           1           1           0           1           1           1
 AtZEff=   0.0000000   0.0000000   0.0000000   0.0000000   0.0000000   0.0000000
 NQMom=    0.0000000   0.0000000   0.0000000   0.0000000   0.0000000   0.0000000
 NMagM=    2.7928460   2.7928460   0.0000000   2.7928460   2.7928460   2.7928460
 AtZNuc=   1.0000000   1.0000000   6.0000000   1.0000000   1.0000000   1.0000000
 Leave Link  101 at Thu Apr 27 15:22:34 2017, MaxMem=    33554432 cpu:         1.0
 (Enter /home/michal/g09/l202.exe)
 Symmetry turned off by external request.
 Stoichiometry    C27H46O3
 Framework group  C1[X(C27H46O3)]
 Deg. of freedom   222
 Full point group                 C1      NOp   1
                          Input orientation:                          
 ---------------------------------------------------------------------
 Center     Atomic      Atomic             Coordinates (Angstroms)
 Number     Number       Type             X           Y           Z
 ---------------------------------------------------------------------
      1          6           0        0.998476   -0.907495   -1.684430
      2          1           0        1.157070    0.057290   -2.181708
      3          6           0        2.208408   -1.813137   -1.952534
      4          1           0        2.352024   -1.932237   -3.030757
      5          1           0        1.971314   -2.812910   -1.553327
      6          6           0        3.481821   -1.298300   -1.308024
      7          6           0        3.416392   -0.933521    0.178421
      8          6           0        2.126310   -0.091040    0.425868
      9          1           0        2.282273    0.909950    0.000000
     10          1           0        1.981298    0.048710    1.502352
     11          6           0        0.842395   -0.677119   -0.181584
     12          1           0        0.588470   -1.631828    0.302417
     13          1           0        0.000000    0.000000    0.000000
     14          6           0        4.605239   -1.194110   -2.030042
     15          1           0        4.594972   -1.458216   -3.085152
     16          6           0        5.943673   -0.772052   -1.499756
     17          1           0        6.262684    0.165822   -1.980451
     18          6           0        6.006643   -0.629739    0.029913
     19          1           0        6.167684   -1.637182    0.435754
     20          6           0        4.661390   -0.064450    0.565963
     21          1           0        4.517665    0.901313    0.054555
     22          6           0        4.749646    0.239437    2.078897
     23          1           0        4.792320   -0.699240    2.641937
     24          1           0        3.834247    0.745235    2.404514
     25          6           0        5.954473    1.112392    2.479208
     26          1           0        5.842624    2.113093    2.037228
     27          1           0        5.937582    1.249122    3.564810
     28          6           0        7.289648    0.508098    1.999767
     29          6           0        7.156848    0.298228    0.463242
     30          1           0        6.900427    1.293180    0.060301
     31          6           0        8.591246    0.000000    0.000000
     32          1           0        8.741202    0.228744   -1.059681
     33          1           0        8.826916   -1.061564    0.125284
     34          6           0        9.467876    0.890381    0.921195
     35          1           0       10.283928    0.306998    1.364181
     36          1           0        9.939615    1.699235    0.355161
     37          6           0        8.534513    1.462458    2.041621
     38          1           0        8.171949    2.448846    1.710563
     39          6           0        7.596408   -0.809478    2.748312
     40          1           0        6.837074   -1.575444    2.571796
     41          1           0        8.558516   -1.235906    2.449292
     42          1           0        7.637364   -0.639513    3.829035
     43          6           0        9.281344    1.689753    3.381907
     44          1           0        9.708775    0.724765    3.694469
     45          6           0        8.362857    2.193373    4.509942
     46          1           0        7.817243    3.092251    4.196765
     47          1           0        8.937825    2.451617    5.404252
     48          1           0        7.626913    1.444652    4.811656
     49          6           0        3.349540   -2.244645    1.006471
     50          1           0        3.146518   -2.040233    2.062373
     51          1           0        2.554824   -2.903781    0.647590
     52          1           0        4.286448   -2.805287    0.937003
     53          8           0        6.938537   -1.776618   -1.822497
     54          8           0        7.124888   -1.770538   -3.270115
     55          1           0        8.042893   -1.457801   -3.324498
     56          8           0       -0.193799   -1.419096   -2.286688
     57          1           0       -0.392392   -2.281647   -1.895851
     58          6           0       10.465279    2.670970    3.181347
     59          1           0       10.983379    2.426471    2.249192
     60          1           0       10.061561    3.686760    3.047243
     61          6           0       11.498054    2.680525    4.320448
     62          1           0       10.999079    2.880503    5.276282
     63          1           0       11.934239    1.676932    4.416823
     64          6           0       12.616617    3.726634    4.155657
     65          1           0       13.242038    3.715213    5.060689
     66          1           0       12.156557    4.724807    4.119422
     67          6           0       13.544161    3.573771    2.931107
     68          1           0       12.925898    3.606610    2.022611
     69          6           0       14.525768    4.754621    2.860549
     70          1           0       15.178653    4.773740    3.742725
     71          1           0       15.167209    4.687076    1.974430
     72          1           0       13.995568    5.713045    2.818681
     73          6           0       14.306305    2.239154    2.935329
     74          1           0       14.924418    2.146818    3.837929
     75          1           0       14.972655    2.166203    2.068288
     76          1           0       13.631480    1.377566    2.904830
 ---------------------------------------------------------------------
 Rotational constants (GHZ):      0.3627673      0.0550777      0.0504347
 Leave Link  202 at Thu Apr 27 15:22:34 2017, MaxMem=    33554432 cpu:         0.5
 (Enter /home/michal/g09/l301.exe)
 Standard basis: 6-31G(d) (6D, 7F)
 Ernie: Thresh=  0.10000D-02 Tol=  0.10000D-05 Strict=F.
 AO basis set in the form of general basis input (Overlap normalization):
      1 0
 S   6 1.00       0.000000000000
      0.3047524880D+04  0.1834737132D-02
      0.4573695180D+03  0.1403732281D-01
      0.1039486850D+03  0.6884262226D-01
      0.2921015530D+02  0.2321844432D+00
      0.9286662960D+01  0.4679413484D+00
      0.3163926960D+01  0.3623119853D+00
 SP   3 1.00       0.000000000000
      0.7868272350D+01 -0.1193324198D+00  0.6899906659D-01
      0.1881288540D+01 -0.1608541517D+00  0.3164239610D+00
      0.5442492580D+00  0.1143456438D+01  0.7443082909D+00
 SP   1 1.00       0.000000000000
      0.1687144782D+00  0.1000000000D+01  0.1000000000D+01
 D   1 1.00       0.000000000000
      0.8000000000D+00  0.1000000000D+01
 ****
      2 0
 S   3 1.00       0.000000000000
      0.1873113696D+02  0.3349460434D-01
      0.2825394365D+01  0.2347269535D+00
      0.6401216923D+00  0.8137573261D+00
 S   1 1.00       0.000000000000
      0.1612777588D+00  0.1000000000D+01
 ****
      3 0
 S   6 1.00       0.000000000000
      0.3047524880D+04  0.1834737132D-02
      0.4573695180D+03  0.1403732281D-01
      0.1039486850D+03  0.6884262226D-01
      0.2921015530D+02  0.2321844432D+00
      0.9286662960D+01  0.4679413484D+00
      0.3163926960D+01  0.3623119853D+00
 SP   3 1.00       0.000000000000
      0.7868272350D+01 -0.1193324198D+00  0.6899906659D-01
      0.1881288540D+01 -0.1608541517D+00  0.3164239610D+00
      0.5442492580D+00  0.1143456438D+01  0.7443082909D+00
 SP   1 1.00       0.000000000000
      0.1687144782D+00  0.1000000000D+01  0.1000000000D+01
 D   1 1.00       0.000000000000
      0.8000000000D+00  0.1000000000D+01
 ****
      4 0
 S   3 1.00       0.000000000000
      0.1873113696D+02  0.3349460434D-01
      0.2825394365D+01  0.2347269535D+00
      0.6401216923D+00  0.8137573261D+00
 S   1 1.00       0.000000000000
      0.1612777588D+00  0.1000000000D+01
 ****
      5 0
 S   3 1.00       0.000000000000
      0.1873113696D+02  0.3349460434D-01
      0.2825394365D+01  0.2347269535D+00
      0.6401216923D+00  0.8137573261D+00
 S   1 1.00       0.000000000000
      0.1612777588D+00  0.1000000000D+01
 ****
      6 0
 S   6 1.00       0.000000000000
      0.3047524880D+04  0.1834737132D-02
      0.4573695180D+03  0.1403732281D-01
      0.1039486850D+03  0.6884262226D-01
      0.2921015530D+02  0.2321844432D+00
      0.9286662960D+01  0.4679413484D+00
      0.3163926960D+01  0.3623119853D+00
 SP   3 1.00       0.000000000000
      0.7868272350D+01 -0.1193324198D+00  0.6899906659D-01
      0.1881288540D+01 -0.1608541517D+00  0.3164239610D+00
      0.5442492580D+00  0.1143456438D+01  0.7443082909D+00
 SP   1 1.00       0.000000000000
      0.1687144782D+00  0.1000000000D+01  0.1000000000D+01
 D   1 1.00       0.000000000000
      0.8000000000D+00  0.1000000000D+01
 ****
      7 0
 S   6 1.00       0.000000000000
      0.3047524880D+04  0.1834737132D-02
      0.4573695180D+03  0.1403732281D-01
      0.1039486850D+03  0.6884262226D-01
      0.2921015530D+02  0.2321844432D+00
      0.9286662960D+01  0.4679413484D+00
      0.3163926960D+01  0.3623119853D+00
 SP   3 1.00       0.000000000000
      0.7868272350D+01 -0.1193324198D+00  0.6899906659D-01
      0.1881288540D+01 -0.1608541517D+00  0.3164239610D+00
      0.5442492580D+00  0.1143456438D+01  0.7443082909D+00
 SP   1 1.00       0.000000000000
      0.1687144782D+00  0.1000000000D+01  0.1000000000D+01
 D   1 1.00       0.000000000000
      0.8000000000D+00  0.1000000000D+01
 ****
      8 0
 S   6 1.00       0.000000000000
      0.3047524880D+04  0.1834737132D-02
      0.4573695180D+03  0.1403732281D-01
      0.1039486850D+03  0.6884262226D-01
      0.2921015530D+02  0.2321844432D+00
      0.9286662960D+01  0.4679413484D+00
      0.3163926960D+01  0.3623119853D+00
 SP   3 1.00       0.000000000000
      0.7868272350D+01 -0.1193324198D+00  0.6899906659D-01
      0.1881288540D+01 -0.1608541517D+00  0.3164239610D+00
      0.5442492580D+00  0.1143456438D+01  0.7443082909D+00
 SP   1 1.00       0.000000000000
      0.1687144782D+00  0.1000000000D+01  0.1000000000D+01
 D   1 1.00       0.000000000000
      0.8000000000D+00  0.1000000000D+01
 ****
      9 0
 S   3 1.00       0.000000000000
      0.1873113696D+02  0.3349460434D-01
      0.2825394365D+01  0.2347269535D+00
      0.6401216923D+00  0.8137573261D+00
 S   1 1.00       0.000000000000
      0.1612777588D+00  0.1000000000D+01
 ****
     10 0
 S   3 1.00       0.000000000000
      0.1873113696D+02  0.3349460434D-01
      0.2825394365D+01  0.2347269535D+00
      0.6401216923D+00  0.8137573261D+00
 S   1 1.00       0.000000000000
      0.1612777588D+00  0.1000000000D+01
 ****
     11 0
 S   6 1.00       0.000000000000
      0.3047524880D+04  0.1834737132D-02
      0.4573695180D+03  0.1403732281D-01
      0.1039486850D+03  0.6884262226D-01
      0.2921015530D+02  0.2321844432D+00
      0.9286662960D+01  0.4679413484D+00
      0.3163926960D+01  0.3623119853D+00
 SP   3 1.00       0.000000000000
      0.7868272350D+01 -0.1193324198D+00  0.6899906659D-01
      0.1881288540D+01 -0.1608541517D+00  0.3164239610D+00
      0.5442492580D+00  0.1143456438D+01  0.7443082909D+00
 SP   1 1.00       0.000000000000
      0.1687144782D+00  0.1000000000D+01  0.1000000000D+01
 D   1 1.00       0.000000000000
      0.8000000000D+00  0.1000000000D+01
 ****
     12 0
 S   3 1.00       0.000000000000
      0.1873113696D+02  0.3349460434D-01
      0.2825394365D+01  0.2347269535D+00
      0.6401216923D+00  0.8137573261D+00
 S   1 1.00       0.000000000000
      0.1612777588D+00  0.1000000000D+01
 ****
     13 0
 S   3 1.00       0.000000000000
      0.1873113696D+02  0.3349460434D-01
      0.2825394365D+01  0.2347269535D+00
      0.6401216923D+00  0.8137573261D+00
 S   1 1.00       0.000000000000
      0.1612777588D+00  0.1000000000D+01
 ****
     14 0
 S   6 1.00       0.000000000000
      0.3047524880D+04  0.1834737132D-02
      0.4573695180D+03  0.1403732281D-01
      0.1039486850D+03  0.6884262226D-01
      0.2921015530D+02  0.2321844432D+00
      0.9286662960D+01  0.4679413484D+00
      0.3163926960D+01  0.3623119853D+00
 SP   3 1.00       0.000000000000
      0.7868272350D+01 -0.1193324198D+00  0.6899906659D-01
      0.1881288540D+01 -0.1608541517D+00  0.3164239610D+00
      0.5442492580D+00  0.1143456438D+01  0.7443082909D+00
 SP   1 1.00       0.000000000000
      0.1687144782D+00  0.1000000000D+01  0.1000000000D+01
 D   1 1.00       0.000000000000
      0.8000000000D+00  0.1000000000D+01
 ****
     15 0
 S   3 1.00       0.000000000000
      0.1873113696D+02  0.3349460434D-01
      0.2825394365D+01  0.2347269535D+00
      0.6401216923D+00  0.8137573261D+00
 S   1 1.00       0.000000000000
      0.1612777588D+00  0.1000000000D+01
 ****
     16 0
 S   6 1.00       0.000000000000
      0.3047524880D+04  0.1834737132D-02
      0.4573695180D+03  0.1403732281D-01
      0.1039486850D+03  0.6884262226D-01
      0.2921015530D+02  0.2321844432D+00
      0.9286662960D+01  0.4679413484D+00
      0.3163926960D+01  0.3623119853D+00
 SP   3 1.00       0.000000000000
      0.7868272350D+01 -0.1193324198D+00  0.6899906659D-01
      0.1881288540D+01 -0.1608541517D+00  0.3164239610D+00
      0.5442492580D+00  0.1143456438D+01  0.7443082909D+00
 SP   1 1.00       0.000000000000
      0.1687144782D+00  0.1000000000D+01  0.1000000000D+01
 D   1 1.00       0.000000000000
      0.8000000000D+00  0.1000000000D+01
 ****
     17 0
 S   3 1.00       0.000000000000
      0.1873113696D+02  0.3349460434D-01
      0.2825394365D+01  0.2347269535D+00
      0.6401216923D+00  0.8137573261D+00
 S   1 1.00       0.000000000000
      0.1612777588D+00  0.1000000000D+01
 ****
     18 0
 S   6 1.00       0.000000000000
      0.3047524880D+04  0.1834737132D-02
      0.4573695180D+03  0.1403732281D-01
      0.1039486850D+03  0.6884262226D-01
      0.2921015530D+02  0.2321844432D+00
      0.9286662960D+01  0.4679413484D+00
      0.3163926960D+01  0.3623119853D+00
 SP   3 1.00       0.000000000000
      0.7868272350D+01 -0.1193324198D+00  0.6899906659D-01
      0.1881288540D+01 -0.1608541517D+00  0.3164239610D+00
      0.5442492580D+00  0.1143456438D+01  0.7443082909D+00
 SP   1 1.00       0.000000000000
      0.1687144782D+00  0.1000000000D+01  0.1000000000D+01
 D   1 1.00       0.000000000000
      0.8000000000D+00  0.1000000000D+01
 ****
     19 0
 S   3 1.00       0.000000000000
      0.1873113696D+02  0.3349460434D-01
      0.2825394365D+01  0.2347269535D+00
      0.6401216923D+00  0.8137573261D+00
 S   1 1.00       0.000000000000
      0.1612777588D+00  0.1000000000D+01
 ****
     20 0
 S   6 1.00       0.000000000000
      0.3047524880D+04  0.1834737132D-02
      0.4573695180D+03  0.1403732281D-01
      0.1039486850D+03  0.6884262226D-01
      0.2921015530D+02  0.2321844432D+00
      0.9286662960D+01  0.4679413484D+00
      0.3163926960D+01  0.3623119853D+00
 SP   3 1.00       0.000000000000
      0.7868272350D+01 -0.1193324198D+00  0.6899906659D-01
      0.1881288540D+01 -0.1608541517D+00  0.3164239610D+00
      0.5442492580D+00  0.1143456438D+01  0.7443082909D+00
 SP   1 1.00       0.000000000000
      0.1687144782D+00  0.1000000000D+01  0.1000000000D+01
 D   1 1.00       0.000000000000
      0.8000000000D+00  0.1000000000D+01
 ****
     21 0
 S   3 1.00       0.000000000000
      0.1873113696D+02  0.3349460434D-01
      0.2825394365D+01  0.2347269535D+00
      0.6401216923D+00  0.8137573261D+00
 S   1 1.00       0.000000000000
      0.1612777588D+00  0.1000000000D+01
 ****
     22 0
 S   6 1.00       0.000000000000
      0.3047524880D+04  0.1834737132D-02
      0.4573695180D+03  0.1403732281D-01
      0.1039486850D+03  0.6884262226D-01
      0.2921015530D+02  0.2321844432D+00
      0.9286662960D+01  0.4679413484D+00
      0.3163926960D+01  0.3623119853D+00
 SP   3 1.00       0.000000000000
      0.7868272350D+01 -0.1193324198D+00  0.6899906659D-01
      0.1881288540D+01 -0.1608541517D+00  0.3164239610D+00
      0.5442492580D+00  0.1143456438D+01  0.7443082909D+00
 SP   1 1.00       0.000000000000
      0.1687144782D+00  0.1000000000D+01  0.1000000000D+01
 D   1 1.00       0.000000000000
      0.8000000000D+00  0.1000000000D+01
 ****
     23 0
 S   3 1.00       0.000000000000
      0.1873113696D+02  0.3349460434D-01
      0.2825394365D+01  0.2347269535D+00
      0.6401216923D+00  0.8137573261D+00
 S   1 1.00       0.000000000000
      0.1612777588D+00  0.1000000000D+01
 ****
     24 0
 S   3 1.00       0.000000000000
      0.1873113696D+02  0.3349460434D-01
      0.2825394365D+01  0.2347269535D+00
      0.6401216923D+00  0.8137573261D+00
 S   1 1.00       0.000000000000
      0.1612777588D+00  0.1000000000D+01
 ****
     25 0
 S   6 1.00       0.000000000000
      0.3047524880D+04  0.1834737132D-02
      0.4573695180D+03  0.1403732281D-01
      0.1039486850D+03  0.6884262226D-01
      0.2921015530D+02  0.2321844432D+00
      0.9286662960D+01  0.4679413484D+00
      0.3163926960D+01  0.3623119853D+00
 SP   3 1.00       0.000000000000
      0.7868272350D+01 -0.1193324198D+00  0.6899906659D-01
      0.1881288540D+01 -0.1608541517D+00  0.3164239610D+00
      0.5442492580D+00  0.1143456438D+01  0.7443082909D+00
 SP   1 1.00       0.000000000000
      0.1687144782D+00  0.1000000000D+01  0.1000000000D+01
 D   1 1.00       0.000000000000
      0.8000000000D+00  0.1000000000D+01
 ****
     26 0
 S   3 1.00       0.000000000000
      0.1873113696D+02  0.3349460434D-01
      0.2825394365D+01  0.2347269535D+00
      0.6401216923D+00  0.8137573261D+00
 S   1 1.00       0.000000000000
      0.1612777588D+00  0.1000000000D+01
 ****
     27 0
 S   3 1.00       0.000000000000
      0.1873113696D+02  0.3349460434D-01
      0.2825394365D+01  0.2347269535D+00
      0.6401216923D+00  0.8137573261D+00
 S   1 1.00       0.000000000000
      0.1612777588D+00  0.1000000000D+01
 ****
     28 0
 S   6 1.00       0.000000000000
      0.3047524880D+04  0.1834737132D-02
      0.4573695180D+03  0.1403732281D-01
      0.1039486850D+03  0.6884262226D-01
      0.2921015530D+02  0.2321844432D+00
      0.9286662960D+01  0.4679413484D+00
      0.3163926960D+01  0.3623119853D+00
 SP   3 1.00       0.000000000000
      0.7868272350D+01 -0.1193324198D+00  0.6899906659D-01
      0.1881288540D+01 -0.1608541517D+00  0.3164239610D+00
      0.5442492580D+00  0.1143456438D+01  0.7443082909D+00
 SP   1 1.00       0.000000000000
      0.1687144782D+00  0.1000000000D+01  0.1000000000D+01
 D   1 1.00       0.000000000000
      0.8000000000D+00  0.1000000000D+01
 ****
     29 0
 S   6 1.00       0.000000000000
      0.3047524880D+04  0.1834737132D-02
      0.4573695180D+03  0.1403732281D-01
      0.1039486850D+03  0.6884262226D-01
      0.2921015530D+02  0.2321844432D+00
      0.9286662960D+01  0.4679413484D+00
      0.3163926960D+01  0.3623119853D+00
 SP   3 1.00       0.000000000000
      0.7868272350D+01 -0.1193324198D+00  0.6899906659D-01
      0.1881288540D+01 -0.1608541517D+00  0.3164239610D+00
      0.5442492580D+00  0.1143456438D+01  0.7443082909D+00
 SP   1 1.00       0.000000000000
      0.1687144782D+00  0.1000000000D+01  0.1000000000D+01
 D   1 1.00       0.000000000000
      0.8000000000D+00  0.1000000000D+01
 ****
     30 0
 S   3 1.00       0.000000000000
      0.1873113696D+02  0.3349460434D-01
      0.2825394365D+01  0.2347269535D+00
      0.6401216923D+00  0.8137573261D+00
 S   1 1.00       0.000000000000
      0.1612777588D+00  0.1000000000D+01
 ****
     31 0
 S   6 1.00       0.000000000000
      0.3047524880D+04  0.1834737132D-02
      0.4573695180D+03  0.1403732281D-01
      0.1039486850D+03  0.6884262226D-01
      0.2921015530D+02  0.2321844432D+00
      0.9286662960D+01  0.4679413484D+00
      0.3163926960D+01  0.3623119853D+00
 SP   3 1.00       0.000000000000
      0.7868272350D+01 -0.1193324198D+00  0.6899906659D-01
      0.1881288540D+01 -0.1608541517D+00  0.3164239610D+00
      0.5442492580D+00  0.1143456438D+01  0.7443082909D+00
 SP   1 1.00       0.000000000000
      0.1687144782D+00  0.1000000000D+01  0.1000000000D+01
 D   1 1.00       0.000000000000
      0.8000000000D+00  0.1000000000D+01
 ****
     32 0
 S   3 1.00       0.000000000000
      0.1873113696D+02  0.3349460434D-01
      0.2825394365D+01  0.2347269535D+00
      0.6401216923D+00  0.8137573261D+00
 S   1 1.00       0.000000000000
      0.1612777588D+00  0.1000000000D+01
 ****
     33 0
 S   3 1.00       0.000000000000
      0.1873113696D+02  0.3349460434D-01
      0.2825394365D+01  0.2347269535D+00
      0.6401216923D+00  0.8137573261D+00
 S   1 1.00       0.000000000000
      0.1612777588D+00  0.1000000000D+01
 ****
     34 0
 S   6 1.00       0.000000000000
      0.3047524880D+04  0.1834737132D-02
      0.4573695180D+03  0.1403732281D-01
      0.1039486850D+03  0.6884262226D-01
      0.2921015530D+02  0.2321844432D+00
      0.9286662960D+01  0.4679413484D+00
      0.3163926960D+01  0.3623119853D+00
 SP   3 1.00       0.000000000000
      0.7868272350D+01 -0.1193324198D+00  0.6899906659D-01
      0.1881288540D+01 -0.1608541517D+00  0.3164239610D+00
      0.5442492580D+00  0.1143456438D+01  0.7443082909D+00
 SP   1 1.00       0.000000000000
      0.1687144782D+00  0.1000000000D+01  0.1000000000D+01
 D   1 1.00       0.000000000000
      0.8000000000D+00  0.1000000000D+01
 ****
     35 0
 S   3 1.00       0.000000000000
      0.1873113696D+02  0.3349460434D-01
      0.2825394365D+01  0.2347269535D+00
      0.6401216923D+00  0.8137573261D+00
 S   1 1.00       0.000000000000
      0.1612777588D+00  0.1000000000D+01
 ****
     36 0
 S   3 1.00       0.000000000000
      0.1873113696D+02  0.3349460434D-01
      0.2825394365D+01  0.2347269535D+00
      0.6401216923D+00  0.8137573261D+00
 S   1 1.00       0.000000000000
      0.1612777588D+00  0.1000000000D+01
 ****
     37 0
 S   6 1.00       0.000000000000
      0.3047524880D+04  0.1834737132D-02
      0.4573695180D+03  0.1403732281D-01
      0.1039486850D+03  0.6884262226D-01
      0.2921015530D+02  0.2321844432D+00
      0.9286662960D+01  0.4679413484D+00
      0.3163926960D+01  0.3623119853D+00
 SP   3 1.00       0.000000000000
      0.7868272350D+01 -0.1193324198D+00  0.6899906659D-01
      0.1881288540D+01 -0.1608541517D+00  0.3164239610D+00
      0.5442492580D+00  0.1143456438D+01  0.7443082909D+00
 SP   1 1.00       0.000000000000
      0.1687144782D+00  0.1000000000D+01  0.1000000000D+01
 D   1 1.00       0.000000000000
      0.8000000000D+00  0.1000000000D+01
 ****
     38 0
 S   3 1.00       0.000000000000
      0.1873113696D+02  0.3349460434D-01
      0.2825394365D+01  0.2347269535D+00
      0.6401216923D+00  0.8137573261D+00
 S   1 1.00       0.000000000000
      0.1612777588D+00  0.1000000000D+01
 ****
     39 0
 S   6 1.00       0.000000000000
      0.3047524880D+04  0.1834737132D-02
      0.4573695180D+03  0.1403732281D-01
      0.1039486850D+03  0.6884262226D-01
      0.2921015530D+02  0.2321844432D+00
      0.9286662960D+01  0.4679413484D+00
      0.3163926960D+01  0.3623119853D+00
 SP   3 1.00       0.000000000000
      0.7868272350D+01 -0.1193324198D+00  0.6899906659D-01
      0.1881288540D+01 -0.1608541517D+00  0.3164239610D+00
      0.5442492580D+00  0.1143456438D+01  0.7443082909D+00
 SP   1 1.00       0.000000000000
      0.1687144782D+00  0.1000000000D+01  0.1000000000D+01
 D   1 1.00       0.000000000000
      0.8000000000D+00  0.1000000000D+01
 ****
     40 0
 S   3 1.00       0.000000000000
      0.1873113696D+02  0.3349460434D-01
      0.2825394365D+01  0.2347269535D+00
      0.6401216923D+00  0.8137573261D+00
 S   1 1.00       0.000000000000
      0.1612777588D+00  0.1000000000D+01
 ****
     41 0
 S   3 1.00       0.000000000000
      0.1873113696D+02  0.3349460434D-01
      0.2825394365D+01  0.2347269535D+00
      0.6401216923D+00  0.8137573261D+00
 S   1 1.00       0.000000000000
      0.1612777588D+00  0.1000000000D+01
 ****
     42 0
 S   3 1.00       0.000000000000
      0.1873113696D+02  0.3349460434D-01
      0.2825394365D+01  0.2347269535D+00
      0.6401216923D+00  0.8137573261D+00
 S   1 1.00       0.000000000000
      0.1612777588D+00  0.1000000000D+01
 ****
     43 0
 S   6 1.00       0.000000000000
      0.3047524880D+04  0.1834737132D-02
      0.4573695180D+03  0.1403732281D-01
      0.1039486850D+03  0.6884262226D-01
      0.2921015530D+02  0.2321844432D+00
      0.9286662960D+01  0.4679413484D+00
      0.3163926960D+01  0.3623119853D+00
 SP   3 1.00       0.000000000000
      0.7868272350D+01 -0.1193324198D+00  0.6899906659D-01
      0.1881288540D+01 -0.1608541517D+00  0.3164239610D+00
      0.5442492580D+00  0.1143456438D+01  0.7443082909D+00
 SP   1 1.00       0.000000000000
      0.1687144782D+00  0.1000000000D+01  0.1000000000D+01
 D   1 1.00       0.000000000000
      0.8000000000D+00  0.1000000000D+01
 ****
     44 0
 S   3 1.00       0.000000000000
      0.1873113696D+02  0.3349460434D-01
      0.2825394365D+01  0.2347269535D+00
      0.6401216923D+00  0.8137573261D+00
 S   1 1.00       0.000000000000
      0.1612777588D+00  0.1000000000D+01
 ****
     45 0
 S   6 1.00       0.000000000000
      0.3047524880D+04  0.1834737132D-02
      0.4573695180D+03  0.1403732281D-01
      0.1039486850D+03  0.6884262226D-01
      0.2921015530D+02  0.2321844432D+00
      0.9286662960D+01  0.4679413484D+00
      0.3163926960D+01  0.3623119853D+00
 SP   3 1.00       0.000000000000
      0.7868272350D+01 -0.1193324198D+00  0.6899906659D-01
      0.1881288540D+01 -0.1608541517D+00  0.3164239610D+00
      0.5442492580D+00  0.1143456438D+01  0.7443082909D+00
 SP   1 1.00       0.000000000000
      0.1687144782D+00  0.1000000000D+01  0.1000000000D+01
 D   1 1.00       0.000000000000
      0.8000000000D+00  0.1000000000D+01
 ****
     46 0
 S   3 1.00       0.000000000000
      0.1873113696D+02  0.3349460434D-01
      0.2825394365D+01  0.2347269535D+00
      0.6401216923D+00  0.8137573261D+00
 S   1 1.00       0.000000000000
      0.1612777588D+00  0.1000000000D+01
 ****
     47 0
 S   3 1.00       0.000000000000
      0.1873113696D+02  0.3349460434D-01
      0.2825394365D+01  0.2347269535D+00
      0.6401216923D+00  0.8137573261D+00
 S   1 1.00       0.000000000000
      0.1612777588D+00  0.1000000000D+01
 ****
     48 0
 S   3 1.00       0.000000000000
      0.1873113696D+02  0.3349460434D-01
      0.2825394365D+01  0.2347269535D+00
      0.6401216923D+00  0.8137573261D+00
 S   1 1.00       0.000000000000
      0.1612777588D+00  0.1000000000D+01
 ****
     49 0
 S   6 1.00       0.000000000000
      0.3047524880D+04  0.1834737132D-02
      0.4573695180D+03  0.1403732281D-01
      0.1039486850D+03  0.6884262226D-01
      0.2921015530D+02  0.2321844432D+00
      0.9286662960D+01  0.4679413484D+00
      0.3163926960D+01  0.3623119853D+00
 SP   3 1.00       0.000000000000
      0.7868272350D+01 -0.1193324198D+00  0.6899906659D-01
      0.1881288540D+01 -0.1608541517D+00  0.3164239610D+00
      0.5442492580D+00  0.1143456438D+01  0.7443082909D+00
 SP   1 1.00       0.000000000000
      0.1687144782D+00  0.1000000000D+01  0.1000000000D+01
 D   1 1.00       0.000000000000
      0.8000000000D+00  0.1000000000D+01
 ****
     50 0
 S   3 1.00       0.000000000000
      0.1873113696D+02  0.3349460434D-01
      0.2825394365D+01  0.2347269535D+00
      0.6401216923D+00  0.8137573261D+00
 S   1 1.00       0.000000000000
      0.1612777588D+00  0.1000000000D+01
 ****
     51 0
 S   3 1.00       0.000000000000
      0.1873113696D+02  0.3349460434D-01
      0.2825394365D+01  0.2347269535D+00
      0.6401216923D+00  0.8137573261D+00
 S   1 1.00       0.000000000000
      0.1612777588D+00  0.1000000000D+01
 ****
     52 0
 S   3 1.00       0.000000000000
      0.1873113696D+02  0.3349460434D-01
      0.2825394365D+01  0.2347269535D+00
      0.6401216923D+00  0.8137573261D+00
 S   1 1.00       0.000000000000
      0.1612777588D+00  0.1000000000D+01
 ****
     53 0
 S   6 1.00       0.000000000000
      0.5484671660D+04  0.1831074430D-02
      0.8252349460D+03  0.1395017220D-01
      0.1880469580D+03  0.6844507810D-01
      0.5296450000D+02  0.2327143360D+00
      0.1689757040D+02  0.4701928980D+00
      0.5799635340D+01  0.3585208530D+00
 SP   3 1.00       0.000000000000
      0.1553961625D+02 -0.1107775495D+00  0.7087426823D-01
      0.3599933586D+01 -0.1480262627D+00  0.3397528391D+00
      0.1013761750D+01  0.1130767015D+01  0.7271585773D+00
 SP   1 1.00       0.000000000000
      0.2700058226D+00  0.1000000000D+01  0.1000000000D+01
 D   1 1.00       0.000000000000
      0.8000000000D+00  0.1000000000D+01
 ****
     54 0
 S   6 1.00       0.000000000000
      0.5484671660D+04  0.1831074430D-02
      0.8252349460D+03  0.1395017220D-01
      0.1880469580D+03  0.6844507810D-01
      0.5296450000D+02  0.2327143360D+00
      0.1689757040D+02  0.4701928980D+00
      0.5799635340D+01  0.3585208530D+00
 SP   3 1.00       0.000000000000
      0.1553961625D+02 -0.1107775495D+00  0.7087426823D-01
      0.3599933586D+01 -0.1480262627D+00  0.3397528391D+00
      0.1013761750D+01  0.1130767015D+01  0.7271585773D+00
 SP   1 1.00       0.000000000000
      0.2700058226D+00  0.1000000000D+01  0.1000000000D+01
 D   1 1.00       0.000000000000
      0.8000000000D+00  0.1000000000D+01
 ****
     55 0
 S   3 1.00       0.000000000000
      0.1873113696D+02  0.3349460434D-01
      0.2825394365D+01  0.2347269535D+00
      0.6401216923D+00  0.8137573261D+00
 S   1 1.00       0.000000000000
      0.1612777588D+00  0.1000000000D+01
 ****
     56 0
 S   6 1.00       0.000000000000
      0.5484671660D+04  0.1831074430D-02
      0.8252349460D+03  0.1395017220D-01
      0.1880469580D+03  0.6844507810D-01
      0.5296450000D+02  0.2327143360D+00
      0.1689757040D+02  0.4701928980D+00
      0.5799635340D+01  0.3585208530D+00
 SP   3 1.00       0.000000000000
      0.1553961625D+02 -0.1107775495D+00  0.7087426823D-01
      0.3599933586D+01 -0.1480262627D+00  0.3397528391D+00
      0.1013761750D+01  0.1130767015D+01  0.7271585773D+00
 SP   1 1.00       0.000000000000
      0.2700058226D+00  0.1000000000D+01  0.1000000000D+01
 D   1 1.00       0.000000000000
      0.8000000000D+00  0.1000000000D+01
 ****
     57 0
 S   3 1.00       0.000000000000
      0.1873113696D+02  0.3349460434D-01
      0.2825394365D+01  0.2347269535D+00
      0.6401216923D+00  0.8137573261D+00
 S   1 1.00       0.000000000000
      0.1612777588D+00  0.1000000000D+01
 ****
     58 0
 S   6 1.00       0.000000000000
      0.3047524880D+04  0.1834737132D-02
      0.4573695180D+03  0.1403732281D-01
      0.1039486850D+03  0.6884262226D-01
      0.2921015530D+02  0.2321844432D+00
      0.9286662960D+01  0.4679413484D+00
      0.3163926960D+01  0.3623119853D+00
 SP   3 1.00       0.000000000000
      0.7868272350D+01 -0.1193324198D+00  0.6899906659D-01
      0.1881288540D+01 -0.1608541517D+00  0.3164239610D+00
      0.5442492580D+00  0.1143456438D+01  0.7443082909D+00
 SP   1 1.00       0.000000000000
      0.1687144782D+00  0.1000000000D+01  0.1000000000D+01
 D   1 1.00       0.000000000000
      0.8000000000D+00  0.1000000000D+01
 ****
     59 0
 S   3 1.00       0.000000000000
      0.1873113696D+02  0.3349460434D-01
      0.2825394365D+01  0.2347269535D+00
      0.6401216923D+00  0.8137573261D+00
 S   1 1.00       0.000000000000
      0.1612777588D+00  0.1000000000D+01
 ****
     60 0
 S   3 1.00       0.000000000000
      0.1873113696D+02  0.3349460434D-01
      0.2825394365D+01  0.2347269535D+00
      0.6401216923D+00  0.8137573261D+00
 S   1 1.00       0.000000000000
      0.1612777588D+00  0.1000000000D+01
 ****
     61 0
 S   6 1.00       0.000000000000
      0.3047524880D+04  0.1834737132D-02
      0.4573695180D+03  0.1403732281D-01
      0.1039486850D+03  0.6884262226D-01
      0.2921015530D+02  0.2321844432D+00
      0.9286662960D+01  0.4679413484D+00
      0.3163926960D+01  0.3623119853D+00
 SP   3 1.00       0.000000000000
      0.7868272350D+01 -0.1193324198D+00  0.6899906659D-01
      0.1881288540D+01 -0.1608541517D+00  0.3164239610D+00
      0.5442492580D+00  0.1143456438D+01  0.7443082909D+00
 SP   1 1.00       0.000000000000
      0.1687144782D+00  0.1000000000D+01  0.1000000000D+01
 D   1 1.00       0.000000000000
      0.8000000000D+00  0.1000000000D+01
 ****
     62 0
 S   3 1.00       0.000000000000
      0.1873113696D+02  0.3349460434D-01
      0.2825394365D+01  0.2347269535D+00
      0.6401216923D+00  0.8137573261D+00
 S   1 1.00       0.000000000000
      0.1612777588D+00  0.1000000000D+01
 ****
     63 0
 S   3 1.00       0.000000000000
      0.1873113696D+02  0.3349460434D-01
      0.2825394365D+01  0.2347269535D+00
      0.6401216923D+00  0.8137573261D+00
 S   1 1.00       0.000000000000
      0.1612777588D+00  0.1000000000D+01
 ****
     64 0
 S   6 1.00       0.000000000000
      0.3047524880D+04  0.1834737132D-02
      0.4573695180D+03  0.1403732281D-01
      0.1039486850D+03  0.6884262226D-01
      0.2921015530D+02  0.2321844432D+00
      0.9286662960D+01  0.4679413484D+00
      0.3163926960D+01  0.3623119853D+00
 SP   3 1.00       0.000000000000
      0.7868272350D+01 -0.1193324198D+00  0.6899906659D-01
      0.1881288540D+01 -0.1608541517D+00  0.3164239610D+00
      0.5442492580D+00  0.1143456438D+01  0.7443082909D+00
 SP   1 1.00       0.000000000000
      0.1687144782D+00  0.1000000000D+01  0.1000000000D+01
 D   1 1.00       0.000000000000
      0.8000000000D+00  0.1000000000D+01
 ****
     65 0
 S   3 1.00       0.000000000000
      0.1873113696D+02  0.3349460434D-01
      0.2825394365D+01  0.2347269535D+00
      0.6401216923D+00  0.8137573261D+00
 S   1 1.00       0.000000000000
      0.1612777588D+00  0.1000000000D+01
 ****
     66 0
 S   3 1.00       0.000000000000
      0.1873113696D+02  0.3349460434D-01
      0.2825394365D+01  0.2347269535D+00
      0.6401216923D+00  0.8137573261D+00
 S   1 1.00       0.000000000000
      0.1612777588D+00  0.1000000000D+01
 ****
     67 0
 S   6 1.00       0.000000000000
      0.3047524880D+04  0.1834737132D-02
      0.4573695180D+03  0.1403732281D-01
      0.1039486850D+03  0.6884262226D-01
      0.2921015530D+02  0.2321844432D+00
      0.9286662960D+01  0.4679413484D+00
      0.3163926960D+01  0.3623119853D+00
 SP   3 1.00       0.000000000000
      0.7868272350D+01 -0.1193324198D+00  0.6899906659D-01
      0.1881288540D+01 -0.1608541517D+00  0.3164239610D+00
      0.5442492580D+00  0.1143456438D+01  0.7443082909D+00
 SP   1 1.00       0.000000000000
      0.1687144782D+00  0.1000000000D+01  0.1000000000D+01
 D   1 1.00       0.000000000000
      0.8000000000D+00  0.1000000000D+01
 ****
     68 0
 S   3 1.00       0.000000000000
      0.1873113696D+02  0.3349460434D-01
      0.2825394365D+01  0.2347269535D+00
      0.6401216923D+00  0.8137573261D+00
 S   1 1.00       0.000000000000
      0.1612777588D+00  0.1000000000D+01
 ****
     69 0
 S   6 1.00       0.000000000000
      0.3047524880D+04  0.1834737132D-02
      0.4573695180D+03  0.1403732281D-01
      0.1039486850D+03  0.6884262226D-01
      0.2921015530D+02  0.2321844432D+00
      0.9286662960D+01  0.4679413484D+00
      0.3163926960D+01  0.3623119853D+00
 SP   3 1.00       0.000000000000
      0.7868272350D+01 -0.1193324198D+00  0.6899906659D-01
      0.1881288540D+01 -0.1608541517D+00  0.3164239610D+00
      0.5442492580D+00  0.1143456438D+01  0.7443082909D+00
 SP   1 1.00       0.000000000000
      0.1687144782D+00  0.1000000000D+01  0.1000000000D+01
 D   1 1.00       0.000000000000
      0.8000000000D+00  0.1000000000D+01
 ****
     70 0
 S   3 1.00       0.000000000000
      0.1873113696D+02  0.3349460434D-01
      0.2825394365D+01  0.2347269535D+00
      0.6401216923D+00  0.8137573261D+00
 S   1 1.00       0.000000000000
      0.1612777588D+00  0.1000000000D+01
 ****
     71 0
 S   3 1.00       0.000000000000
      0.1873113696D+02  0.3349460434D-01
      0.2825394365D+01  0.2347269535D+00
      0.6401216923D+00  0.8137573261D+00
 S   1 1.00       0.000000000000
      0.1612777588D+00  0.1000000000D+01
 ****
     72 0
 S   3 1.00       0.000000000000
      0.1873113696D+02  0.3349460434D-01
      0.2825394365D+01  0.2347269535D+00
      0.6401216923D+00  0.8137573261D+00
 S   1 1.00       0.000000000000
      0.1612777588D+00  0.1000000000D+01
 ****
     73 0
 S   6 1.00       0.000000000000
      0.3047524880D+04  0.1834737132D-02
      0.4573695180D+03  0.1403732281D-01
      0.1039486850D+03  0.6884262226D-01
      0.2921015530D+02  0.2321844432D+00
      0.9286662960D+01  0.4679413484D+00
      0.3163926960D+01  0.3623119853D+00
 SP   3 1.00       0.000000000000
      0.7868272350D+01 -0.1193324198D+00  0.6899906659D-01
      0.1881288540D+01 -0.1608541517D+00  0.3164239610D+00
      0.5442492580D+00  0.1143456438D+01  0.7443082909D+00
 SP   1 1.00       0.000000000000
      0.1687144782D+00  0.1000000000D+01  0.1000000000D+01
 D   1 1.00       0.000000000000
      0.8000000000D+00  0.1000000000D+01
 ****
     74 0
 S   3 1.00       0.000000000000
      0.1873113696D+02  0.3349460434D-01
      0.2825394365D+01  0.2347269535D+00
      0.6401216923D+00  0.8137573261D+00
 S   1 1.00       0.000000000000
      0.1612777588D+00  0.1000000000D+01
 ****
     75 0
 S   3 1.00       0.000000000000
      0.1873113696D+02  0.3349460434D-01
      0.2825394365D+01  0.2347269535D+00
      0.6401216923D+00  0.8137573261D+00
 S   1 1.00       0.000000000000
      0.1612777588D+00  0.1000000000D+01
 ****
     76 0
 S   3 1.00       0.000000000000
      0.1873113696D+02  0.3349460434D-01
      0.2825394365D+01  0.2347269535D+00
      0.6401216923D+00  0.8137573261D+00
 S   1 1.00       0.000000000000
      0.1612777588D+00  0.1000000000D+01
 ****

 AO basis set (Overlap normalization):
 Atom C1       Shell     1 S   6     bf    1 -     1          1.886846171362         -1.714917470497         -3.183112089215
      0.3047524880D+04  0.1834737132D-02
      0.4573695180D+03  0.1403732281D-01
      0.1039486850D+03  0.6884262226D-01
      0.2921015530D+02  0.2321844432D+00
      0.9286662960D+01  0.4679413484D+00
      0.3163926960D+01  0.3623119853D+00
 Atom C1       Shell     2 SP   3    bf    2 -     5          1.886846171362         -1.714917470497         -3.183112089215
      0.7868272350D+01 -0.1193324198D+00  0.6899906659D-01
      0.1881288540D+01 -0.1608541517D+00  0.3164239610D+00
      0.5442492580D+00  0.1143456438D+01  0.7443082909D+00
 Atom C1       Shell     3 SP   1    bf    6 -     9          1.886846171362         -1.714917470497         -3.183112089215
      0.1687144782D+00  0.1000000000D+01  0.1000000000D+01
 Atom C1       Shell     4 D   1     bf   10 -    15          1.886846171362         -1.714917470497         -3.183112089215
      0.8000000000D+00  0.1000000000D+01
 Atom H2       Shell     5 S   3     bf   16 -    16          2.186545851215          0.108262995968         -4.122829790446
      0.1873113696D+02  0.3349460434D-01
      0.2825394365D+01  0.2347269535D+00
      0.6401216923D+00  0.8137573261D+00
 Atom H2       Shell     6 S   1     bf   17 -    17          2.186545851215          0.108262995968         -4.122829790446
      0.1612777588D+00  0.1000000000D+01
 Atom C3       Shell     7 S   6     bf   18 -    18          4.173286895489         -3.426332050148         -3.689754411764
      0.3047524880D+04  0.1834737132D-02
      0.4573695180D+03  0.1403732281D-01
      0.1039486850D+03  0.6884262226D-01
      0.2921015530D+02  0.2321844432D+00
      0.9286662960D+01  0.4679413484D+00
      0.3163926960D+01  0.3623119853D+00
 Atom C3       Shell     8 SP   3    bf   19 -    22          4.173286895489         -3.426332050148         -3.689754411764
      0.7868272350D+01 -0.1193324198D+00  0.6899906659D-01
      0.1881288540D+01 -0.1608541517D+00  0.3164239610D+00
      0.5442492580D+00  0.1143456438D+01  0.7443082909D+00
 Atom C3       Shell     9 SP   1    bf   23 -    26          4.173286895489         -3.426332050148         -3.689754411764
      0.1687144782D+00  0.1000000000D+01  0.1000000000D+01
 Atom C3       Shell    10 D   1     bf   27 -    32          4.173286895489         -3.426332050148         -3.689754411764
      0.8000000000D+00  0.1000000000D+01
 Atom H4       Shell    11 S   3     bf   33 -    33          4.444681180180         -3.651398432575         -5.727300535251
      0.1873113696D+02  0.3349460434D-01
      0.2825394365D+01  0.2347269535D+00
      0.6401216923D+00  0.8137573261D+00
 Atom H4       Shell    12 S   1     bf   34 -    34          4.444681180180         -3.651398432575         -5.727300535251
      0.1612777588D+00  0.1000000000D+01
 Atom H5       Shell    13 S   3     bf   35 -    35          3.725243166184         -5.315629876606         -2.935361774440
      0.1873113696D+02  0.3349460434D-01
      0.2825394365D+01  0.2347269535D+00
      0.6401216923D+00  0.8137573261D+00
 Atom H5       Shell    14 S   1     bf   36 -    36          3.725243166184         -5.315629876606         -2.935361774440
      0.1612777588D+00  0.1000000000D+01
 Atom C6       Shell    15 S   6     bf   37 -    37          6.579688209319         -2.453431665093         -2.471807456495
      0.3047524880D+04  0.1834737132D-02
      0.4573695180D+03  0.1403732281D-01
      0.1039486850D+03  0.6884262226D-01
      0.2921015530D+02  0.2321844432D+00
      0.9286662960D+01  0.4679413484D+00
      0.3163926960D+01  0.3623119853D+00
 Atom C6       Shell    16 SP   3    bf   38 -    41          6.579688209319         -2.453431665093         -2.471807456495
      0.7868272350D+01 -0.1193324198D+00  0.6899906659D-01
      0.1881288540D+01 -0.1608541517D+00  0.3164239610D+00
      0.5442492580D+00  0.1143456438D+01  0.7443082909D+00
 Atom C6       Shell    17 SP   1    bf   42 -    45          6.579688209319         -2.453431665093         -2.471807456495
      0.1687144782D+00  0.1000000000D+01  0.1000000000D+01
 Atom C6       Shell    18 D   1     bf   46 -    51          6.579688209319         -2.453431665093         -2.471807456495
      0.8000000000D+00  0.1000000000D+01
 Atom C7       Shell    19 S   6     bf   52 -    52          6.456044807944         -1.764099350551          0.337167487760
      0.3047524880D+04  0.1834737132D-02
      0.4573695180D+03  0.1403732281D-01
      0.1039486850D+03  0.6884262226D-01
      0.2921015530D+02  0.2321844432D+00
      0.9286662960D+01  0.4679413484D+00
      0.3163926960D+01  0.3623119853D+00
 Atom C7       Shell    20 SP   3    bf   53 -    56          6.456044807944         -1.764099350551          0.337167487760
      0.7868272350D+01 -0.1193324198D+00  0.6899906659D-01
      0.1881288540D+01 -0.1608541517D+00  0.3164239610D+00
      0.5442492580D+00  0.1143456438D+01  0.7443082909D+00
 Atom C7       Shell    21 SP   1    bf   57 -    60          6.456044807944         -1.764099350551          0.337167487760
      0.1687144782D+00  0.1000000000D+01  0.1000000000D+01
 Atom C7       Shell    22 D   1     bf   61 -    66          6.456044807944         -1.764099350551          0.337167487760
      0.8000000000D+00  0.1000000000D+01
 Atom C8       Shell    23 S   6     bf   67 -    67          4.018143857075         -0.172040440371          0.804774474575
      0.3047524880D+04  0.1834737132D-02
      0.4573695180D+03  0.1403732281D-01
      0.1039486850D+03  0.6884262226D-01
      0.2921015530D+02  0.2321844432D+00
      0.9286662960D+01  0.4679413484D+00
      0.3163926960D+01  0.3623119853D+00
 Atom C8       Shell    24 SP   3    bf   68 -    71          4.018143857075         -0.172040440371          0.804774474575
      0.7868272350D+01 -0.1193324198D+00  0.6899906659D-01
      0.1881288540D+01 -0.1608541517D+00  0.3164239610D+00
      0.5442492580D+00  0.1143456438D+01  0.7443082909D+00
 Atom C8       Shell    25 SP   1    bf   72 -    75          4.018143857075         -0.172040440371          0.804774474575
      0.1687144782D+00  0.1000000000D+01  0.1000000000D+01
 Atom C8       Shell    26 D   1     bf   76 -    81          4.018143857075         -0.172040440371          0.804774474575
      0.8000000000D+00  0.1000000000D+01
 Atom H9       Shell    27 S   3     bf   82 -    82          4.312870968274          1.719555633215          0.000000000000
      0.1873113696D+02  0.3349460434D-01
      0.2825394365D+01  0.2347269535D+00
      0.6401216923D+00  0.8137573261D+00
 Atom H9       Shell    28 S   1     bf   83 -    83          4.312870968274          1.719555633215          0.000000000000
      0.1612777588D+00  0.1000000000D+01
 Atom H10      Shell    29 S   3     bf   84 -    84          3.744111344627          0.092048711111          2.839034647775
      0.1873113696D+02  0.3349460434D-01
      0.2825394365D+01  0.2347269535D+00
      0.6401216923D+00  0.8137573261D+00
 Atom H10      Shell    30 S   1     bf   85 -    85          3.744111344627          0.092048711111          2.839034647775
      0.1612777588D+00  0.1000000000D+01
 Atom C11      Shell    31 S   6     bf   86 -    86          1.591896620500         -1.279569998497         -0.343144143497
      0.3047524880D+04  0.1834737132D-02
      0.4573695180D+03  0.1403732281D-01
      0.1039486850D+03  0.6884262226D-01
      0.2921015530D+02  0.2321844432D+00
      0.9286662960D+01  0.4679413484D+00
      0.3163926960D+01  0.3623119853D+00
 Atom C11      Shell    32 SP   3    bf   87 -    90          1.591896620500         -1.279569998497         -0.343144143497
      0.7868272350D+01 -0.1193324198D+00  0.6899906659D-01
      0.1881288540D+01 -0.1608541517D+00  0.3164239610D+00
      0.5442492580D+00  0.1143456438D+01  0.7443082909D+00
 Atom C11      Shell    33 SP   1    bf   91 -    94          1.591896620500         -1.279569998497         -0.343144143497
      0.1687144782D+00  0.1000000000D+01  0.1000000000D+01
 Atom C11      Shell    34 D   1     bf   95 -   100          1.591896620500         -1.279569998497         -0.343144143497
      0.8000000000D+00  0.1000000000D+01
 Atom H12      Shell    35 S   3     bf  101 -   101          1.112047912207         -3.083707997077          0.571485251237
      0.1873113696D+02  0.3349460434D-01
      0.2825394365D+01  0.2347269535D+00
      0.6401216923D+00  0.8137573261D+00
 Atom H12      Shell    36 S   1     bf  102 -   102          1.112047912207         -3.083707997077          0.571485251237
      0.1612777588D+00  0.1000000000D+01
 Atom H13      Shell    37 S   3     bf  103 -   103          0.000000000000          0.000000000000          0.000000000000
      0.1873113696D+02  0.3349460434D-01
      0.2825394365D+01  0.2347269535D+00
      0.6401216923D+00  0.8137573261D+00
 Atom H13      Shell    38 S   1     bf  104 -   104          0.000000000000          0.000000000000          0.000000000000
      0.1612777588D+00  0.1000000000D+01
 Atom C14      Shell    39 S   6     bf  105 -   105          8.702639617210         -2.256541420561         -3.836222775749
      0.3047524880D+04  0.1834737132D-02
      0.4573695180D+03  0.1403732281D-01
      0.1039486850D+03  0.6884262226D-01
      0.2921015530D+02  0.2321844432D+00
      0.9286662960D+01  0.4679413484D+00
      0.3163926960D+01  0.3623119853D+00
 Atom C14      Shell    40 SP   3    bf  106 -   109          8.702639617210         -2.256541420561         -3.836222775749
      0.7868272350D+01 -0.1193324198D+00  0.6899906659D-01
      0.1881288540D+01 -0.1608541517D+00  0.3164239610D+00
      0.5442492580D+00  0.1143456438D+01  0.7443082909D+00
 Atom C14      Shell    41 SP   1    bf  110 -   113          8.702639617210         -2.256541420561         -3.836222775749
      0.1687144782D+00  0.1000000000D+01  0.1000000000D+01
 Atom C14      Shell    42 D   1     bf  114 -   119          8.702639617210         -2.256541420561         -3.836222775749
      0.8000000000D+00  0.1000000000D+01
 Atom H15      Shell    43 S   3     bf  120 -   120          8.683239480860         -2.755628542441         -5.830092660681
      0.1873113696D+02  0.3349460434D-01
      0.2825394365D+01  0.2347269535D+00
      0.6401216923D+00  0.8137573261D+00
 Atom H15      Shell    44 S   1     bf  121 -   121          8.683239480860         -2.755628542441         -5.830092660681
      0.1612777588D+00  0.1000000000D+01
 Atom C16      Shell    45 S   6     bf  122 -   122         11.231913739893         -1.458967048217         -2.834128502995
      0.3047524880D+04  0.1834737132D-02
      0.4573695180D+03  0.1403732281D-01
      0.1039486850D+03  0.6884262226D-01
      0.2921015530D+02  0.2321844432D+00
      0.9286662960D+01  0.4679413484D+00
      0.3163926960D+01  0.3623119853D+00
 Atom C16      Shell    46 SP   3    bf  123 -   126         11.231913739893         -1.458967048217         -2.834128502995
      0.7868272350D+01 -0.1193324198D+00  0.6899906659D-01
      0.1881288540D+01 -0.1608541517D+00  0.3164239610D+00
      0.5442492580D+00  0.1143456438D+01  0.7443082909D+00
 Atom C16      Shell    47 SP   1    bf  127 -   130         11.231913739893         -1.458967048217         -2.834128502995
      0.1687144782D+00  0.1000000000D+01  0.1000000000D+01
 Atom C16      Shell    48 D   1     bf  131 -   136         11.231913739893         -1.458967048217         -2.834128502995
      0.8000000000D+00  0.1000000000D+01
 Atom H17      Shell    49 S   3     bf  137 -   137         11.834757692394          0.313358469164         -3.742510368647
      0.1873113696D+02  0.3349460434D-01
      0.2825394365D+01  0.2347269535D+00
      0.6401216923D+00  0.8137573261D+00
 Atom H17      Shell    50 S   1     bf  138 -   138         11.834757692394          0.313358469164         -3.742510368647
      0.1612777588D+00  0.1000000000D+01
 Atom C18      Shell    51 S   6     bf  139 -   139         11.350910947213         -1.190033602690          0.056527850245
      0.3047524880D+04  0.1834737132D-02
      0.4573695180D+03  0.1403732281D-01
      0.1039486850D+03  0.6884262226D-01
      0.2921015530D+02  0.2321844432D+00
      0.9286662960D+01  0.4679413484D+00
      0.3163926960D+01  0.3623119853D+00
 Atom C18      Shell    52 SP   3    bf  140 -   143         11.350910947213         -1.190033602690          0.056527850245
      0.7868272350D+01 -0.1193324198D+00  0.6899906659D-01
      0.1881288540D+01 -0.1608541517D+00  0.3164239610D+00
      0.5442492580D+00  0.1143456438D+01  0.7443082909D+00
 Atom C18      Shell    53 SP   1    bf  144 -   147         11.350910947213         -1.190033602690          0.056527850245
      0.1687144782D+00  0.1000000000D+01  0.1000000000D+01
 Atom C18      Shell    54 D   1     bf  148 -   153         11.350910947213         -1.190033602690          0.056527850245
      0.8000000000D+00  0.1000000000D+01
 Atom H19      Shell    55 S   3     bf  154 -   154         11.655233785359         -3.093826441169          0.823456382714
      0.1873113696D+02  0.3349460434D-01
      0.2825394365D+01  0.2347269535D+00
      0.6401216923D+00  0.8137573261D+00
 Atom H19      Shell    56 S   1     bf  155 -   155         11.655233785359         -3.093826441169          0.823456382714
      0.1612777588D+00  0.1000000000D+01
 Atom C20      Shell    57 S   6     bf  156 -   156          8.808750517469         -0.121791904401          1.069514901271
      0.3047524880D+04  0.1834737132D-02
      0.4573695180D+03  0.1403732281D-01
      0.1039486850D+03  0.6884262226D-01
      0.2921015530D+02  0.2321844432D+00
      0.9286662960D+01  0.4679413484D+00
      0.3163926960D+01  0.3623119853D+00
 Atom C20      Shell    58 SP   3    bf  157 -   160          8.808750517469         -0.121791904401          1.069514901271
      0.7868272350D+01 -0.1193324198D+00  0.6899906659D-01
      0.1881288540D+01 -0.1608541517D+00  0.3164239610D+00
      0.5442492580D+00  0.1143456438D+01  0.7443082909D+00
 Atom C20      Shell    59 SP   1    bf  161 -   164          8.808750517469         -0.121791904401          1.069514901271
      0.1687144782D+00  0.1000000000D+01  0.1000000000D+01
 Atom C20      Shell    60 D   1     bf  165 -   170          8.808750517469         -0.121791904401          1.069514901271
      0.8000000000D+00  0.1000000000D+01
 Atom H21      Shell    61 S   3     bf  171 -   171          8.537150082554          1.703234937879          0.103094009180
      0.1873113696D+02  0.3349460434D-01
      0.2825394365D+01  0.2347269535D+00
      0.6401216923D+00  0.8137573261D+00
 Atom H21      Shell    62 S   1     bf  172 -   172          8.537150082554          1.703234937879          0.103094009180
      0.1612777588D+00  0.1000000000D+01
 Atom C22      Shell    63 S   6     bf  173 -   173          8.975529657930          0.452470809614          3.928545081409
      0.3047524880D+04  0.1834737132D-02
      0.4573695180D+03  0.1403732281D-01
      0.1039486850D+03  0.6884262226D-01
      0.2921015530D+02  0.2321844432D+00
      0.9286662960D+01  0.4679413484D+00
      0.3163926960D+01  0.3623119853D+00
 Atom C22      Shell    64 SP   3    bf  174 -   177          8.975529657930          0.452470809614          3.928545081409
      0.7868272350D+01 -0.1193324198D+00  0.6899906659D-01
      0.1881288540D+01 -0.1608541517D+00  0.3164239610D+00
      0.5442492580D+00  0.1143456438D+01  0.7443082909D+00
 Atom C22      Shell    65 SP   1    bf  178 -   181          8.975529657930          0.452470809614          3.928545081409
      0.1687144782D+00  0.1000000000D+01  0.1000000000D+01
 Atom C22      Shell    66 D   1     bf  182 -   187          8.975529657930          0.452470809614          3.928545081409
      0.8000000000D+00  0.1000000000D+01
 Atom H23      Shell    67 S   3     bf  188 -   188          9.056171925411         -1.321371761008          4.992536502166
      0.1873113696D+02  0.3349460434D-01
      0.2825394365D+01  0.2347269535D+00
      0.6401216923D+00  0.8137573261D+00
 Atom H23      Shell    68 S   1     bf  189 -   189          9.056171925411         -1.321371761008          4.992536502166
      0.1612777588D+00  0.1000000000D+01
 Atom H24      Shell    69 S   3     bf  190 -   190          7.245676925914          1.408289544415          4.543873037176
      0.1873113696D+02  0.3349460434D-01
      0.2825394365D+01  0.2347269535D+00
      0.6401216923D+00  0.8137573261D+00
 Atom H24      Shell    70 S   1     bf  191 -   191          7.245676925914          1.408289544415          4.543873037176
      0.1612777588D+00  0.1000000000D+01
 Atom C25      Shell    71 S   6     bf  192 -   192         11.252322347491          2.102116043440          4.685024940144
      0.3047524880D+04  0.1834737132D-02
      0.4573695180D+03  0.1403732281D-01
      0.1039486850D+03  0.6884262226D-01
      0.2921015530D+02  0.2321844432D+00
      0.9286662960D+01  0.4679413484D+00
      0.3163926960D+01  0.3623119853D+00
 Atom C25      Shell    72 SP   3    bf  193 -   196         11.252322347491          2.102116043440          4.685024940144
      0.7868272350D+01 -0.1193324198D+00  0.6899906659D-01
      0.1881288540D+01 -0.1608541517D+00  0.3164239610D+00
      0.5442492580D+00  0.1143456438D+01  0.7443082909D+00
 Atom C25      Shell    73 SP   1    bf  197 -   200         11.252322347491          2.102116043440          4.685024940144
      0.1687144782D+00  0.1000000000D+01  0.1000000000D+01
 Atom C25      Shell    74 D   1     bf  201 -   206         11.252322347491          2.102116043440          4.685024940144
      0.8000000000D+00  0.1000000000D+01
 Atom H26      Shell    75 S   3     bf  207 -   207         11.040959125144          3.993166477503          3.849803198116
      0.1873113696D+02  0.3349460434D-01
      0.2825394365D+01  0.2347269535D+00
      0.6401216923D+00  0.8137573261D+00
 Atom H26      Shell    76 S   1     bf  208 -   208         11.040959125144          3.993166477503          3.849803198116
      0.1612777588D+00  0.1000000000D+01
 Atom H27      Shell    77 S   3     bf  209 -   209         11.220403625887          2.360498826713          6.736514370108
      0.1873113696D+02  0.3349460434D-01
      0.2825394365D+01  0.2347269535D+00
      0.6401216923D+00  0.8137573261D+00
 Atom H27      Shell    78 S   1     bf  210 -   210         11.220403625887          2.360498826713          6.736514370108
      0.1612777588D+00  0.1000000000D+01
 Atom C28      Shell    79 S   6     bf  211 -   211         13.775437796014          0.960165577338          3.779012602089
      0.3047524880D+04  0.1834737132D-02
      0.4573695180D+03  0.1403732281D-01
      0.1039486850D+03  0.6884262226D-01
      0.2921015530D+02  0.2321844432D+00
      0.9286662960D+01  0.4679413484D+00
      0.3163926960D+01  0.3623119853D+00
 Atom C28      Shell    80 SP   3    bf  212 -   215         13.775437796014          0.960165577338          3.779012602089
      0.7868272350D+01 -0.1193324198D+00  0.6899906659D-01
      0.1881288540D+01 -0.1608541517D+00  0.3164239610D+00
      0.5442492580D+00  0.1143456438D+01  0.7443082909D+00
 Atom C28      Shell    81 SP   1    bf  216 -   219         13.775437796014          0.960165577338          3.779012602089
      0.1687144782D+00  0.1000000000D+01  0.1000000000D+01
 Atom C28      Shell    82 D   1     bf  220 -   225         13.775437796014          0.960165577338          3.779012602089
      0.8000000000D+00  0.1000000000D+01
 Atom C29      Shell    83 S   6     bf  226 -   226         13.524482373437          0.563568319192          0.875400078613
      0.3047524880D+04  0.1834737132D-02
      0.4573695180D+03  0.1403732281D-01
      0.1039486850D+03  0.6884262226D-01
      0.2921015530D+02  0.2321844432D+00
      0.9286662960D+01  0.4679413484D+00
      0.3163926960D+01  0.3623119853D+00
 Atom C29      Shell    84 SP   3    bf  227 -   230         13.524482373437          0.563568319192          0.875400078613
      0.7868272350D+01 -0.1193324198D+00  0.6899906659D-01
      0.1881288540D+01 -0.1608541517D+00  0.3164239610D+00
      0.5442492580D+00  0.1143456438D+01  0.7443082909D+00
 Atom C29      Shell    85 SP   1    bf  231 -   234         13.524482373437          0.563568319192          0.875400078613
      0.1687144782D+00  0.1000000000D+01  0.1000000000D+01
 Atom C29      Shell    86 D   1     bf  235 -   240         13.524482373437          0.563568319192          0.875400078613
      0.8000000000D+00  0.1000000000D+01
 Atom H30      Shell    87 S   3     bf  241 -   241         13.039917211072          2.443755152354          0.113952073183
      0.1873113696D+02  0.3349460434D-01
      0.2825394365D+01  0.2347269535D+00
      0.6401216923D+00  0.8137573261D+00
 Atom H30      Shell    88 S   1     bf  242 -   242         13.039917211072          2.443755152354          0.113952073183
      0.1612777588D+00  0.1000000000D+01
 Atom C31      Shell    89 S   6     bf  243 -   243         16.235101796790          0.000000000000          0.000000000000
      0.3047524880D+04  0.1834737132D-02
      0.4573695180D+03  0.1403732281D-01
      0.1039486850D+03  0.6884262226D-01
      0.2921015530D+02  0.2321844432D+00
      0.9286662960D+01  0.4679413484D+00
      0.3163926960D+01  0.3623119853D+00
 Atom C31      Shell    90 SP   3    bf  244 -   247         16.235101796790          0.000000000000          0.000000000000
      0.7868272350D+01 -0.1193324198D+00  0.6899906659D-01
      0.1881288540D+01 -0.1608541517D+00  0.3164239610D+00
      0.5442492580D+00  0.1143456438D+01  0.7443082909D+00
 Atom C31      Shell    91 SP   1    bf  248 -   251         16.235101796790          0.000000000000          0.000000000000
      0.1687144782D+00  0.1000000000D+01  0.1000000000D+01
 Atom C31      Shell    92 D   1     bf  252 -   257         16.235101796790          0.000000000000          0.000000000000
      0.8000000000D+00  0.1000000000D+01
 Atom H32      Shell    93 S   3     bf  258 -   258         16.518478551431          0.432263646822         -2.002507275065
      0.1873113696D+02  0.3349460434D-01
      0.2825394365D+01  0.2347269535D+00
      0.6401216923D+00  0.8137573261D+00
 Atom H32      Shell    94 S   1     bf  259 -   259         16.518478551431          0.432263646822         -2.002507275065
      0.1612777588D+00  0.1000000000D+01
 Atom H33      Shell    95 S   3     bf  260 -   260         16.680452968712         -2.006065024661          0.236753374798
      0.1873113696D+02  0.3349460434D-01
      0.2825394365D+01  0.2347269535D+00
      0.6401216923D+00  0.8137573261D+00
 Atom H33      Shell    96 S   1     bf  261 -   261         16.680452968712         -2.006065024661          0.236753374798
      0.1612777588D+00  0.1000000000D+01
 Atom C34      Shell    97 S   6     bf  262 -   262         17.891691944230          1.682576697459          1.740805962627
      0.3047524880D+04  0.1834737132D-02
      0.4573695180D+03  0.1403732281D-01
      0.1039486850D+03  0.6884262226D-01
      0.2921015530D+02  0.2321844432D+00
      0.9286662960D+01  0.4679413484D+00
      0.3163926960D+01  0.3623119853D+00
 Atom C34      Shell    98 SP   3    bf  263 -   266         17.891691944230          1.682576697459          1.740805962627
      0.7868272350D+01 -0.1193324198D+00  0.6899906659D-01
      0.1881288540D+01 -0.1608541517D+00  0.3164239610D+00
      0.5442492580D+00  0.1143456438D+01  0.7443082909D+00
 Atom C34      Shell    99 SP   1    bf  267 -   270         17.891691944230          1.682576697459          1.740805962627
      0.1687144782D+00  0.1000000000D+01  0.1000000000D+01
 Atom C34      Shell   100 D   1     bf  271 -   276         17.891691944230          1.682576697459          1.740805962627
      0.8000000000D+00  0.1000000000D+01
 Atom H35      Shell   101 S   3     bf  277 -   277         19.433806791116          0.580142653570          2.577928466789
      0.1873113696D+02  0.3349460434D-01
      0.2825394365D+01  0.2347269535D+00
      0.6401216923D+00  0.8137573261D+00
 Atom H35      Shell   102 S   1     bf  278 -   278         19.433806791116          0.580142653570          2.577928466789
      0.1612777588D+00  0.1000000000D+01
 Atom H36      Shell   103 S   3     bf  279 -   279         18.783149649404          3.211088388571          0.671156720726
      0.1873113696D+02  0.3349460434D-01
      0.2825394365D+01  0.2347269535D+00
      0.6401216923D+00  0.8137573261D+00
 Atom H36      Shell   104 S   1     bf  280 -   280         18.783149649404          3.211088388571          0.671156720726
      0.1612777588D+00  0.1000000000D+01
 Atom C37      Shell   105 S   6     bf  281 -   281         16.127893154621          2.763645270923          3.858103612285
      0.3047524880D+04  0.1834737132D-02
      0.4573695180D+03  0.1403732281D-01
      0.1039486850D+03  0.6884262226D-01
      0.2921015530D+02  0.2321844432D+00
      0.9286662960D+01  0.4679413484D+00
      0.3163926960D+01  0.3623119853D+00
 Atom C37      Shell   106 SP   3    bf  282 -   285         16.127893154621          2.763645270923          3.858103612285
      0.7868272350D+01 -0.1193324198D+00  0.6899906659D-01
      0.1881288540D+01 -0.1608541517D+00  0.3164239610D+00
      0.5442492580D+00  0.1143456438D+01  0.7443082909D+00
[...]
 1650 Fit       0.001341
 1651 Fit       0.002377
 1652 Fit       0.002191
 1653 Fit       0.002762
 1654 Fit      -0.000016
 1655 Fit       0.000751
 1656 Fit       0.001656
 1657 Fit      -0.000166
 1658 Fit      -0.000327
 1659 Fit      -0.001103
 1660 Fit      -0.000429
 1661 Fit       0.000333
 1662 Fit       0.000113
 1663 Fit      -0.000825
 1664 Fit      -0.000004
 1665 Fit       0.002791
 1666 Fit       0.003490
 1667 Fit       0.000010
 1668 Fit       0.001073
 1669 Fit       0.002156
 1670 Fit       0.003861
 1671 Fit       0.004317
 1672 Fit       0.003206
 1673 Fit       0.002185
 1674 Fit       0.001733
 1675 Fit       0.002818
 1676 Fit       0.003405
 1677 Fit       0.003259
 1678 Fit       0.000056
 1679 Fit       0.006978
 1680 Fit       0.004932
 1681 Fit       0.002161
 1682 Fit       0.005509
 1683 Fit       0.003018
 1684 Fit       0.000150
 1685 Fit       0.002966
 1686 Fit       0.002069
 1687 Fit       0.001830
 1688 Fit      -0.003104
 1689 Fit       0.001414
 1690 Fit       0.001604
 1691 Fit      -0.001210
 1692 Fit      -0.007168
 1693 Fit      -0.002804
 1694 Fit      -0.001276
 1695 Fit      -0.003688
 1696 Fit      -0.010679
 1697 Fit      -0.005070
 1698 Fit      -0.010309
 1699 Fit      -0.011696
 1700 Fit      -0.008136
 1701 Fit      -0.000312
 1702 Fit      -0.002009
 1703 Fit      -0.005809
 1704 Fit      -0.005834
 1705 Fit      -0.007693
 1706 Fit      -0.004437
 1707 Fit      -0.005351
 1708 Fit      -0.003029
 1709 Fit      -0.003588
 1710 Fit      -0.007653
 1711 Fit      -0.010609
 1712 Fit      -0.006029
 1713 Fit      -0.004147
 1714 Fit      -0.004852
 1715 Fit       0.016418
 1716 Fit       0.008943
 1717 Fit       0.003452
 1718 Fit      -0.003005
 1719 Fit       0.012654
 1720 Fit       0.005559
 1721 Fit       0.000352
 1722 Fit      -0.006167
 1723 Fit       0.004250
 1724 Fit       0.000524
 1725 Fit       0.005440
 1726 Fit       0.004796
 1727 Fit       0.005074
 1728 Fit       0.004111
 1729 Fit       0.005184
 1730 Fit       0.006153
 1731 Fit       0.004957
 1732 Fit       0.004106
 1733 Fit       0.006184
 1734 Fit       0.004939
 1735 Fit       0.003811
 1736 Fit       0.005415
 1737 Fit       0.004721
 1738 Fit       0.002857
 1739 Fit       0.008529
 1740 Fit       0.007963
 1741 Fit       0.007642
 1742 Fit       0.008458
 1743 Fit       0.007327
 1744 Fit       0.006389
 1745 Fit       0.006257
 1746 Fit       0.006541
 1747 Fit       0.007504
 1748 Fit       0.004989
 1749 Fit       0.005590
 1750 Fit       0.004169
 1751 Fit       0.002442
 1752 Fit      -0.000749
 1753 Fit       0.007264
 1754 Fit       0.005713
 1755 Fit       0.007366
 1756 Fit       0.005914
 1757 Fit       0.008758
 1758 Fit       0.009846
 1759 Fit       0.008666
 1760 Fit       0.012822
 1761 Fit       0.014132
 1762 Fit       0.004675
 1763 Fit       0.003742
 1764 Fit       0.004251
 1765 Fit       0.003241
 1766 Fit       0.002210
 1767 Fit       0.001946
 1768 Fit       0.002928
 1769 Fit       0.001476
 1770 Fit      -0.000168
 1771 Fit      -0.001433
 1772 Fit      -0.000592
 1773 Fit       0.000775
 1774 Fit      -0.002048
 1775 Fit      -0.005469
 1776 Fit      -0.009073
 1777 Fit      -0.009104
 1778 Fit      -0.019437
 1779 Fit      -0.000964
 1780 Fit      -0.021339
 1781 Fit      -0.002214
 1782 Fit      -0.004387
 1783 Fit      -0.004546
 1784 Fit      -0.004249
 1785 Fit      -0.004697
 1786 Fit      -0.012029
 1787 Fit      -0.023060
 1788 Fit      -0.006577
 1789 Fit      -0.004570
 1790 Fit      -0.004139
 1791 Fit      -0.010649
 1792 Fit      -0.008287
 1793 Fit      -0.004400
 1794 Fit      -0.003213
 1795 Fit      -0.006156
 1796 Fit      -0.014263
 1797 Fit      -0.007285
 1798 Fit       0.009934
 1799 Fit       0.008406
 1800 Fit       0.006888
 1801 Fit       0.003969
 1802 Fit       0.011426
 1803 Fit       0.007248
 1804 Fit       0.004757
 1805 Fit       0.001081
 1806 Fit       0.002525
 1807 Fit      -0.000787
 1808 Fit      -0.002500
 1809 Fit      -0.004633
 1810 Fit       0.007043
 1811 Fit       0.007845
 1812 Fit       0.007019
 1813 Fit       0.008216
 1814 Fit       0.006217
 1815 Fit       0.001831
 1816 Fit       0.005155
 1817 Fit       0.006461
 1818 Fit       0.005532
 1819 Fit       0.005628
 1820 Fit       0.006065
 1821 Fit       0.005189
 1822 Fit       0.006404
 1823 Fit       0.005430
 1824 Fit       0.006149
 1825 Fit       0.004777
 1826 Fit       0.006241
 1827 Fit       0.007584
 1828 Fit       0.008541
 1829 Fit       0.005241
 1830 Fit       0.006358
 1831 Fit       0.005809
 1832 Fit       0.005957
 1833 Fit       0.002679
 1834 Fit       0.004225
 1835 Fit       0.003097
 1836 Fit       0.005150
 1837 Fit       0.004530
 1838 Fit       0.004378
 1839 Fit       0.006182
 1840 Fit       0.005804
 1841 Fit       0.005695
 1842 Fit       0.006067
 1843 Fit       0.006975
 1844 Fit       0.007043
 1845 Fit       0.003932
 1846 Fit       0.005343
 1847 Fit       0.006339
 1848 Fit       0.003526
 1849 Fit       0.004742
 1850 Fit       0.005272
 1851 Fit       0.005596
 1852 Fit       0.007030
 1853 Fit       0.007542
 1854 Fit       0.008311
 1855 Fit       0.007486
 1856 Fit       0.007791
 1857 Fit       0.008507
 1858 Fit       0.001546
 1859 Fit       0.004100
 1860 Fit       0.007477
 1861 Fit       0.003777
 1862 Fit       0.010503
 1863 Fit       0.009270
 1864 Fit       0.009074
 1865 Fit       0.009397
 1866 Fit       0.014857
 1867 Fit       0.019761
 1868 Fit       0.014177
 1869 Fit       0.013988
 1870 Fit      -0.006426
 1871 Fit      -0.002615
 1872 Fit       0.000553
 1873 Fit       0.002267
 1874 Fit      -0.007784
 1875 Fit      -0.001774
 1876 Fit       0.000792
 1877 Fit      -0.005976
 1878 Fit       0.001143
 1879 Fit       0.002184
 1880 Fit       0.002472
 1881 Fit       0.001936
 1882 Fit       0.004037
 1883 Fit       0.005392
 1884 Fit       0.005745
 1885 Fit       0.004773
 1886 Fit       0.004345
 1887 Fit       0.004697
 1888 Fit       0.002640
 1889 Fit       0.002951
 1890 Fit       0.003038
 1891 Fit       0.001934
 1892 Fit       0.003417
 1893 Fit       0.005237
 1894 Fit       0.005558
 1895 Fit       0.005059
 1896 Fit       0.005124
 1897 Fit       0.004341
 1898 Fit       0.005485
 1899 Fit       0.005912
 1900 Fit       0.006015
 1901 Fit       0.006497
 1902 Fit       0.006009
 1903 Fit       0.006524
 1904 Fit       0.007166
 1905 Fit       0.005421
 1906 Fit       0.004603
 1907 Fit       0.005541
 1908 Fit       0.006558
 1909 Fit       0.004898
 1910 Fit       0.005794
 1911 Fit       0.007117
 1912 Fit       0.002873
 1913 Fit       0.001448
 1914 Fit       0.001073
 1915 Fit       0.000733
 1916 Fit       0.000079
 1917 Fit       0.000777
 1918 Fit      -0.000155
 1919 Fit      -0.000947
 1920 Fit       0.004446
 1921 Fit       0.002126
 1922 Fit       0.005093
 1923 Fit       0.002885
 1924 Fit       0.000574
 1925 Fit       0.003018
 1926 Fit      -0.000302
 1927 Fit       0.000742
 1928 Fit       0.002379
 1929 Fit       0.000268
 1930 Fit       0.002060
 1931 Fit       0.003856
 1932 Fit      -0.000338
 1933 Fit       0.002046
 1934 Fit       0.004222
 1935 Fit       0.004854
 1936 Fit       0.003436
 1937 Fit       0.005839
 1938 Fit       0.004083
 1939 Fit       0.003410
 1940 Fit       0.004962
 1941 Fit       0.003253
 1942 Fit       0.001998
 1943 Fit       0.001681
 1944 Fit       0.002226
 1945 Fit       0.001920
 1946 Fit       0.002857
 1947 Fit       0.003043
 1948 Fit       0.004019
 1949 Fit       0.005431
 1950 Fit       0.001072
 1951 Fit       0.001461
 1952 Fit       0.000456
 1953 Fit       0.000967
 1954 Fit       0.001534
 1955 Fit       0.000795
 1956 Fit       0.000884
 1957 Fit       0.001899
 1958 Fit       0.002343
 1959 Fit       0.001260
 1960 Fit       0.001463
 1961 Fit       0.002318
 1962 Fit       0.002871
 1963 Fit       0.002988
 1964 Fit       0.002536
 1965 Fit       0.003935
 1966 Fit       0.004176
 1967 Fit       0.004171
 1968 Fit       0.003306
 1969 Fit       0.005130
 1970 Fit       0.005174
 1971 Fit       0.002845
 1972 Fit       0.003946
 1973 Fit       0.003711
 1974 Fit       0.002254
 1975 Fit       0.001515
 1976 Fit       0.001795
 1977 Fit       0.002663
 1978 Fit       0.003676
 1979 Fit       0.002000
 1980 Fit       0.001762
 1981 Fit       0.002055
 1982 Fit       0.002638
 1983 Fit       0.003327
 1984 Fit       0.003217
 1985 Fit       0.005202
 1986 Fit       0.005683
 1987 Fit       0.005105
 1988 Fit       0.003172
 1989 Fit       0.003148
 1990 Fit       0.002993
 1991 Fit       0.004988
 1992 Fit       0.007210
 1993 Fit       0.005916
 1994 Fit       0.003922
 1995 Fit       0.002114
 1996 Fit       0.001578
 1997 Fit       0.000792
 1998 Fit      -0.000409
 1999 Fit       0.007047
 2000 Fit       0.007754
 2001 Fit       0.007111
 2002 Fit       0.005908
 2003 Fit       0.005762
 2004 Fit       0.007860
 2005 Fit       0.006430
 2006 Fit       0.005087
 2007 Fit       0.003889
 2008 Fit       0.003694
 2009 Fit       0.005529
 2010 Fit       0.008047
 2011 Fit       0.006162
 2012 Fit       0.012338
 2013 Fit       0.008761
 2014 Fit       0.005126
 2015 Fit       0.012188
 2016 Fit       0.006420
 2017 Fit       0.001359
 2018 Fit       0.002164
 2019 Fit       0.004150
 2020 Fit       0.000114
 2021 Fit       0.000298
 2022 Fit       0.001829
 2023 Fit      -0.003009
 2024 Fit      -0.004814
 2025 Fit      -0.010482
 2026 Fit      -0.013103
 2027 Fit      -0.018618
 2028 Fit      -0.020704
 2029 Fit      -0.019972
 2030 Fit      -0.015965
 2031 Fit      -0.026209
 2032 Fit      -0.025361
 2033 Fit      -0.021278
 2034 Fit      -0.013756
 2035 Fit      -0.003836
 2036 Fit      -0.026512
 2037 Fit      -0.027573
 2038 Fit      -0.024741
 2039 Fit      -0.017508
 2040 Fit      -0.005767
 2041 Fit       0.000779
 2042 Fit      -0.005585
 2043 Fit      -0.023975
 2044 Fit      -0.023385
 2045 Fit      -0.017734
 2046 Fit      -0.006864
 2047 Fit      -0.000898
 2048 Fit      -0.008132
 2049 Fit      -0.011187
 2050 Fit      -0.017648
 2051 Fit      -0.020297
 2052 Fit      -0.018036
 2053 Fit      -0.010359
 2054 Fit       0.001576
 2055 Fit       0.001484
 2056 Fit       0.000340
 2057 Fit      -0.008192
 2058 Fit      -0.013483
 2059 Fit      -0.014894
 2060 Fit      -0.008447
 2061 Fit      -0.007817
 2062 Fit       0.015149
 2063 Fit      -0.001270
 2064 Fit       0.009205
 2065 Fit       0.017673
 2066 Fit       0.020104
 2067 Fit       0.019692
 2068 Fit       0.016028
 2069 Fit       0.002156
 2070 Fit       0.012015
 2071 Fit       0.016257
 2072 Fit       0.018044
 2073 Fit       0.015272
 2074 Fit       0.009819
 2075 Fit       0.011362
 2076 Fit       0.010857
 2077 Fit      -0.003573
 2078 Fit      -0.016821
 2079 Fit      -0.013942
 2080 Fit      -0.004350
 2081 Fit      -0.021127
 2082 Fit      -0.022720
 2083 Fit      -0.019241
 2084 Fit      -0.011167
 2085 Fit      -0.023433
 2086 Fit      -0.025985
 2087 Fit      -0.023481
 2088 Fit      -0.016647
 2089 Fit      -0.007532
 2090 Fit      -0.020090
 2091 Fit      -0.025528
 2092 Fit      -0.027050
 2093 Fit      -0.023979
 2094 Fit      -0.018072
 2095 Fit      -0.012727
 2096 Fit      -0.010825
 2097 Fit      -0.018004
 2098 Fit      -0.021228
 2099 Fit      -0.025901
 2100 Fit      -0.025481
 2101 Fit      -0.021171
 2102 Fit      -0.018977
 2103 Fit      -0.023959
 2104 Fit       0.009287
 2105 Fit       0.016203
 2106 Fit       0.020172
 2107 Fit      -0.001469
 2108 Fit       0.008177
 2109 Fit       0.014181
 2110 Fit       0.017341
 2111 Fit       0.018544
 2112 Fit       0.002519
 2113 Fit       0.009021
 2114 Fit       0.011979
 2115 Fit       0.012061
 2116 Fit      -0.000176
 2117 Fit       0.003044
 2118 Fit       0.001163
 2119 Fit       0.002755
 2120 Fit       0.003634
 2121 Fit       0.003874
 2122 Fit       0.003480
 2123 Fit       0.003881
 2124 Fit       0.004424
 2125 Fit       0.002644
 2126 Fit       0.003495
 2127 Fit       0.004343
 2128 Fit       0.003512
 2129 Fit       0.001263
 2130 Fit       0.000651
 2131 Fit       0.000695
 2132 Fit       0.002965
 2133 Fit       0.001730
 2134 Fit       0.002261
 2135 Fit       0.003498
 2136 Fit       0.003142
 2137 Fit       0.001669
 2138 Fit       0.002257
 2139 Fit       0.003471
 2140 Fit       0.001296
 2141 Fit       0.001841
 2142 Fit       0.000717
 2143 Fit       0.001207
 2144 Fit       0.001868
 2145 Fit       0.001857
 2146 Fit       0.001202
 2147 Fit       0.003382
 2148 Fit       0.003208
 2149 Fit       0.002205
 2150 Fit       0.004724
 2151 Fit       0.000725
 2152 Fit      -0.000325
 2153 Fit       0.000816
 2154 Fit      -0.001029
 2155 Fit       0.001797
 2156 Fit       0.002392
 2157 Fit       0.001544
 2158 Fit       0.000938
 2159 Fit       0.001566
 2160 Fit       0.001448
 2161 Fit       0.002082
 2162 Fit       0.002975
 2163 Fit       0.002082
 2164 Fit       0.000586
 2165 Fit      -0.000321
 2166 Fit       0.001804
 2167 Fit       0.002860
 2168 Fit       0.000372
 2169 Fit      -0.000353
 2170 Fit       0.001086
 2171 Fit       0.001771
 2172 Fit       0.001917
 2173 Fit       0.001483
 2174 Fit       0.002463
 2175 Fit       0.002858
 2176 Fit       0.002791
 2177 Fit       0.003419
 2178 Fit       0.003544
 2179 Fit       0.003473
 2180 Fit       0.002514
 2181 Fit       0.001898
 2182 Fit       0.003145
 2183 Fit       0.004001
 2184 Fit       0.002881
 2185 Fit       0.002427
 2186 Fit       0.003507
 2187 Fit       0.005062
 2188 Fit       0.004640
 2189 Fit       0.003119
 2190 Fit       0.003746
 2191 Fit      -0.000999
 2192 Fit      -0.001141
 2193 Fit      -0.001499
 2194 Fit      -0.001395
 2195 Fit      -0.001066
 2196 Fit      -0.001455
 2197 Fit      -0.001272
 2198 Fit      -0.000750
 2199 Fit       0.000027
 2200 Fit       0.000907
 2201 Fit       0.000808
 2202 Fit       0.002412
 2203 Fit       0.002483
 2204 Fit       0.001454
 2205 Fit       0.000400
 2206 Fit       0.003359
 2207 Fit       0.001895
 2208 Fit       0.001244
 2209 Fit       0.000297
 2210 Fit      -0.000671
 2211 Fit       0.002430
 2212 Fit       0.000617
 2213 Fit       0.000188
 2214 Fit      -0.000540
 2215 Fit       0.000752
 2216 Fit      -0.000902
 2217 Fit      -0.000801
 2218 Fit       0.000962
 2219 Fit       0.000367
 2220 Fit      -0.000447
 2221 Fit       0.001391
 2222 Fit       0.002353
 2223 Fit       0.001575
 2224 Fit       0.000628
 2225 Fit      -0.000080
 2226 Fit       0.003071
 2227 Fit       0.002932
 2228 Fit       0.001958
 2229 Fit       0.001345
 2230 Fit       0.002043
 2231 Fit       0.003081
 2232 Fit       0.003536
 2233 Fit       0.002703
 2234 Fit      -0.000615
 2235 Fit      -0.000641
 2236 Fit       0.000874
 2237 Fit       0.001953
 2238 Fit       0.000668
 2239 Fit       0.002097
 2240 Fit       0.003068
 2241 Fit       0.000858
 2242 Fit       0.002267
 2243 Fit       0.003120
 2244 Fit       0.003444
 2245 Fit      -0.000060
 2246 Fit       0.001467
 2247 Fit       0.002349
 2248 Fit       0.002455
 2249 Fit       0.000864
 2250 Fit       0.000758
 2251 Fit      -0.000303
 2252 Fit      -0.000932
 2253 Fit      -0.001035
 2254 Fit      -0.000852
 2255 Fit      -0.000879
 2256 Fit      -0.000149
 2257 Fit       0.001778
 2258 Fit       0.000813
 2259 Fit       0.001667
 2260 Fit       0.002736
 2261 Fit       0.002839
 2262 Fit       0.003545
 2263 Fit       0.001486
 2264 Fit       0.002122
 2265 Fit       0.002192
 2266 Fit       0.002787
 2267 Fit       0.000663
 2268 Fit       0.001104
 2269 Fit       0.001727
 2270 Fit       0.000795
 2271 Fit       0.000988
 2272 Fit       0.000051
 2273 Fit       0.000532
 2274 Fit      -0.000568
 2275 Fit       0.001258
 2276 Fit       0.001458
 2277 Fit       0.000352
 2278 Fit       0.000938
 2279 Fit       0.002715
 2280 Fit       0.003420
 2281 Fit       0.000839
 2282 Fit       0.001448
 2283 Fit       0.002181
 2284 Fit       0.003313
 2285 Fit       0.003725
 2286 Fit       0.003126
 2287 Fit       0.002513
 2288 Fit       0.002055
 2289 Fit       0.002595
 2290 Fit       0.003093
 2291 Fit       0.002695
 2292 Fit       0.003600
 2293 Fit       0.001344
 2294 Fit       0.003573
 2295 Fit       0.001358
 2296 Fit       0.002423
 2297 Fit       0.001850
 -----------------------------------------------------------------
 Leave Link  602 at Thu Apr 27 15:23:39 2017, MaxMem=    33554432 cpu:         3.9
 (Enter /home/michal/g09/l9999.exe)

 Test job not archived.
 1\1\GINC-LINUX\SP\RHF\6-31G(d)\C27H46O3\MICHAL\27-Apr-2017\0\\#P HF/6-
 31G* SCF(Conver=6) NoSymm Test Pop=mk IOp(6/33=2) GFInput GFPrint\\MEP
  - Input generated by R.E.D.-III.x MOLECULE\\0,1\C,0,0.99847599,-0.907
 49524,-1.68443037\H,0,1.15707023,0.05729031,-2.18170756\C,0,2.20840831
 ,-1.81313683,-1.95253394\H,0,2.35202398,-1.93223683,-3.03075691\H,0,1.
 97131378,-2.81291018,-1.55332655\C,0,3.48182104,-1.29830012,-1.3080241
 7\C,0,3.41639177,-0.93352117,0.17842135\C,0,2.12631015,-0.09103988,0.4
 2586831\H,0,2.28227302,0.90994965,0.\H,0,1.98129839,0.04871008,1.50235
 243\C,0,0.84239541,-0.67711928,-0.18158406\H,0,0.58847041,-1.63182799,
 0.30241697\H,0,0.,0.,0.\C,0,4.60523854,-1.19411029,-2.03004166\H,0,4.5
 9497243,-1.45821582,-3.08515216\C,0,5.94367276,-0.77205211,-1.49975621
 \H,0,6.26268404,0.16582216,-1.98045119\C,0,6.00664337,-0.62973866,0.02
 991325\H,0,6.16768408,-1.63718244,0.43575435\C,0,4.66139001,-0.0644495
 ,0.56596291\H,0,4.51766525,0.90131311,0.054555\C,0,4.74964573,0.239437
 24,2.07889652\H,0,4.79231978,-0.69923982,2.64193653\H,0,3.83424709,0.7
 4523473,2.40451405\C,0,5.95447253,1.1123919,2.47920842\H,0,5.84262393,
 2.11309269,2.03722811\H,0,5.93758187,1.24912218,3.56480987\C,0,7.28964
 772,0.50809774,1.99976734\C,0,7.15684783,0.29822751,0.46324177\H,0,6.9
 0042699,1.29317953,0.06030084\C,0,8.59124585,0.,0.\H,0,8.74120237,0.22
 874407,-1.05968121\H,0,8.82691554,-1.06156389,0.12528449\C,0,9.4678756
 ,0.89038124,0.92119484\H,0,10.28392763,0.30699827,1.36418099\H,0,9.939
 6147,1.69923479,0.35516084\C,0,8.53451348,1.46245809,2.0416205\H,0,8.1
 7194865,2.4488461,1.71056272\C,0,7.59640779,-0.80947769,2.7483116\H,0,
 6.83707363,-1.57544434,2.57179641\H,0,8.55851562,-1.2359057,2.44929247
 \H,0,7.63736368,-0.63951256,3.82903466\C,0,9.28134403,1.68975254,3.381
 90655\H,0,9.70877466,0.72476467,3.69446921\C,0,8.36285706,2.19337264,4
 .50994187\H,0,7.81724312,3.09225119,4.19676549\H,0,8.93782466,2.451617
 17,5.40425157\H,0,7.62691307,1.44465234,4.81165622\C,0,3.34953991,-2.2
 4464487,1.00647061\H,0,3.14651827,-2.0402326,2.06237271\H,0,2.55482406
 ,-2.90378102,0.64759035\H,0,4.28644836,-2.8052871,0.93700283\O,0,6.938
 53709,-1.77661793,-1.82249659\O,0,7.12488787,-1.77053772,-3.27011544\H
 ,0,8.04289345,-1.45780076,-3.3244978\O,0,-0.19379861,-1.41909584,-2.28
 668751\H,0,-0.39239203,-2.28164678,-1.89585111\C,0,10.46527878,2.67097
 01,3.18134737\H,0,10.98337937,2.42647108,2.24919178\H,0,10.06156122,3.
 68676028,3.04724266\C,0,11.49805443,2.6805253,4.32044806\H,0,10.999079
 09,2.88050313,5.27628204\H,0,11.93423872,1.67693228,4.41682293\C,0,12.
 61661653,3.72663385,4.15565707\H,0,13.24203785,3.71521348,5.06068948\H
 ,0,12.15655732,4.72480666,4.11942177\C,0,13.54416125,3.5737712,2.93110
 666\H,0,12.92589788,3.60661024,2.02261056\C,0,14.52576762,4.75462134,2
 .86054924\H,0,15.17865335,4.77373966,3.74272499\H,0,15.16720879,4.6870
 7563,1.97443002\H,0,13.99556841,5.71304495,2.81868068\C,0,14.30630467,
 2.2391542,2.93532918\H,0,14.92441762,2.14681821,3.8379291\H,0,14.97265
 494,2.16620309,2.0682877\H,0,13.6314796,1.37756644,2.90483048\\Version
 =EM64L-G09RevD.01\HF=-1273.6829656\RMSD=5.641e-07\Dipole=0.4722094,0.3
 894702,0.8464961\Quadrupole=5.5699828,-1.4145729,-4.15541,8.2994211,-0
 .9766946,-4.2072185\PG=C01 [X(C27H46O3)]\\@


 MOST BUREAUCRACIES FUNCTION LIKE A SEPTIC TANK.
 THE LARGE CHUNKS RISE TO THE TOP.
 Job cpu time:       0 days  0 hours 12 minutes  4.9 seconds.
 File lengths (MBytes):  RWF=    159 Int=      0 D2E=      0 Chk=     11 Scr=      1
 Normal termination of Gaussian 09 at Thu Apr 27 15:23:39 2017.
