 Entering Gaussian System, Link 0=/home/michal/g09/g09
 Input=JOB2-gau_m1-5-1.com
 Output=JOB2-gau_m1-5-1.log
 Initial command:
 /home/michal/g09/l1.exe "/home/michal/gauss_scratch/Gau-28878.inp" -scrdir="/home/michal/gauss_scratch/"
 Entering Link 1 = /home/michal/g09/l1.exe PID=     28879.
  
 Copyright (c) 1988,1990,1992,1993,1995,1998,2003,2009,2013,
            Gaussian, Inc.  All Rights Reserved.
  
 This is part of the Gaussian(R) 09 program.  It is based on
 the Gaussian(R) 03 system (copyright 2003, Gaussian, Inc.),
 the Gaussian(R) 98 system (copyright 1998, Gaussian, Inc.),
 the Gaussian(R) 94 system (copyright 1995, Gaussian, Inc.),
 the Gaussian 92(TM) system (copyright 1992, Gaussian, Inc.),
 the Gaussian 90(TM) system (copyright 1990, Gaussian, Inc.),
 the Gaussian 88(TM) system (copyright 1988, Gaussian, Inc.),
 the Gaussian 86(TM) system (copyright 1986, Carnegie Mellon
 University), and the Gaussian 82(TM) system (copyright 1983,
 Carnegie Mellon University). Gaussian is a federally registered
 trademark of Gaussian, Inc.
  
 This software contains proprietary and confidential information,
 including trade secrets, belonging to Gaussian, Inc.
  
 This software is provided under written license and may be
 used, copied, transmitted, or stored only in accord with that
 written license.
  
 The following legend is applicable only to US Government
 contracts under FAR:
  
                    RESTRICTED RIGHTS LEGEND
  
 Use, reproduction and disclosure by the US Government is
 subject to restrictions as set forth in subparagraphs (a)
 and (c) of the Commercial Computer Software - Restricted
 Rights clause in FAR 52.227-19.
  
 Gaussian, Inc.
 340 Quinnipiac St., Bldg. 40, Wallingford CT 06492
  
  
 ---------------------------------------------------------------
 Warning -- This program may not be used in any manner that
 competes with the business of Gaussian, Inc. or will provide
 assistance to any competitor of Gaussian, Inc.  The licensee
 of this program is prohibited from giving any competitor of
 Gaussian, Inc. access to this program.  By using this program,
 the user acknowledges that Gaussian, Inc. is engaged in the
 business of creating and licensing software in the field of
 computational chemistry and represents and warrants to the
 licensee that it is not a competitor of Gaussian, Inc. and that
 it will not use this program in any manner prohibited above.
 ---------------------------------------------------------------
  

 Cite this work as:
 Gaussian 09, Revision D.01,
 M. J. Frisch, G. W. Trucks, H. B. Schlegel, G. E. Scuseria, 
 M. A. Robb, J. R. Cheeseman, G. Scalmani, V. Barone, B. Mennucci, 
 G. A. Petersson, H. Nakatsuji, M. Caricato, X. Li, H. P. Hratchian, 
 A. F. Izmaylov, J. Bloino, G. Zheng, J. L. Sonnenberg, M. Hada, 
 M. Ehara, K. Toyota, R. Fukuda, J. Hasegawa, M. Ishida, T. Nakajima, 
 Y. Honda, O. Kitao, H. Nakai, T. Vreven, J. A. Montgomery, Jr., 
 J. E. Peralta, F. Ogliaro, M. Bearpark, J. J. Heyd, E. Brothers, 
 K. N. Kudin, V. N. Staroverov, T. Keith, R. Kobayashi, J. Normand, 
 K. Raghavachari, A. Rendell, J. C. Burant, S. S. Iyengar, J. Tomasi, 
 M. Cossi, N. Rega, J. M. Millam, M. Klene, J. E. Knox, J. B. Cross, 
 V. Bakken, C. Adamo, J. Jaramillo, R. Gomperts, R. E. Stratmann, 
 O. Yazyev, A. J. Austin, R. Cammi, C. Pomelli, J. W. Ochterski, 
 R. L. Martin, K. Morokuma, V. G. Zakrzewski, G. A. Voth, 
 P. Salvador, J. J. Dannenberg, S. Dapprich, A. D. Daniels, 
 O. Farkas, J. B. Foresman, J. V. Ortiz, J. Cioslowski, 
 and D. J. Fox, Gaussian, Inc., Wallingford CT, 2013.
 
 ******************************************
 Gaussian 09:  EM64L-G09RevD.01 24-Apr-2013
                27-Apr-2017 
 ******************************************
 %Mem=256MB
 %NProc=12
 Will use up to   12 processors via shared memory.
 ----------------------------------------------------------------------
 #P HF/6-31G* SCF(Conver=6) NoSymm Test Pop=mk IOp(6/33=2) GFInput GFPr
 int
 ----------------------------------------------------------------------
 1/38=1/1;
 2/12=2,15=1,17=6,18=5,40=1/2;
 3/5=1,6=6,7=1,11=9,16=1,24=110,25=1,30=1/1,2,3;
 4//1;
 5/5=2,6=6,38=5/2;
 6/7=2,8=2,9=2,10=2,15=8,20=1,28=1,33=2/1,2;
 99/5=1,9=1/99;
 Leave Link    1 at Thu Apr 27 15:11:04 2017, MaxMem=    33554432 cpu:         0.9
 (Enter /home/michal/g09/l101.exe)
 ----------------------------------------------
 MEP - Input generated by R.E.D.-III.x MOLECULE
 ----------------------------------------------
 Symbolic Z-matrix:
 Charge =  0 Multiplicity = 1
 C                     1.75853  -1.24854  -0.06869 
 H                     1.87144  -1.12845  -1.15312 
 C                     3.15085  -1.30874   0.57558 
 H                     3.72767  -2.12863   0.13604 
 H                     3.01299  -1.55442   1.64115 
 C                     3.91416  -0.00371   0.45374 
 C                     3.19057   1.27882   0.87867 
 C                     1.74857   1.25417   0.2822 
 H                     1.81947   1.4439   -0.79786 
 H                     1.16676   2.08018   0.70419 
 C                     0.97871  -0.05915   0.48957 
 H                     0.78595  -0.2277    1.55957 
 H                     0.        0.        0. 
 C                     5.17481   0.        0. 
 H                     5.63511  -0.93677  -0.31602 
 C                     6.05925   1.20707  -0.10919 
 H                     6.28982   1.39644  -1.17026 
 C                     5.48257   2.4787    0.53156 
 H                     5.69292   2.41381   1.60465 
 C                     3.94582   2.52884   0.30556 
 H                     3.79877   2.48539  -0.78648 
 C                     3.35013   3.874     0.77929 
 H                     3.36753   3.9215    1.87354 
 H                     2.29476   3.93071   0.49097 
 C                     4.07308   5.11434   0.21935 
 H                     3.93389   5.15666  -0.87071 
 H                     3.59226   6.00833   0.62822 
 C                     5.58447   5.08636   0.52293 
 C                     6.13025   3.74687  -0.05258 
 H                     5.85043   3.76004  -1.12096 
 C                     7.65748   3.91111   0. 
 H                     8.17387   3.258    -0.70807 
 H                     8.04034   3.64847   0.99145 
 C                     7.87405   5.41597  -0.31323 
 H                     8.54755   5.87397   0.42125 
 H                     8.34735   5.55167  -1.29044 
 C                     6.46959   6.10893  -0.27224 
 H                     6.06785   6.12441  -1.2982 
 C                     5.84157   5.22105   2.04167 
 H                     5.40919   4.3955    2.61262 
 H                     6.91005   5.24645   2.2743 
 H                     5.40133   6.14635   2.42763 
 C                     6.54663   7.58556   0.19694 
 H                     7.01178   7.59598   1.19454 
 C                     5.16899   8.26303   0.30734 
 H                     4.62125   8.1931   -0.64096 
 H                     5.26776   9.32426   0.55433 
 H                     4.54789   7.81315   1.08506 
 C                     3.11498   1.31019   2.42845 
 H                     2.48165   2.13096   2.77893 
 H                     2.69158   0.3843    2.82735 
 H                     4.10893   1.42721   2.86975 
 O                     7.39391   0.89676   0.36595 
 O                     7.34204   0.6348    1.79944 
 H                     7.38676  -0.33533   1.81219 
 O                     1.05422  -2.48479   0.07456 
 H                     0.89091  -2.64148   1.01529 
 C                     7.46962   8.39839  -0.74548 
 H                     8.38758   7.83058  -0.93383 
 H                     6.97164   8.50279  -1.72192 
 C                     7.87798   9.7889   -0.23247 
 H                     6.98993   10.41312  -0.08447 
 H                     8.34905   9.68209   0.75622 
 C                     8.85464   10.50319  -1.17908 
 H                     8.37263   10.64722  -2.15839 
 H                     9.714     9.84152  -1.35929 
 C                     9.38504   11.86365  -0.68229 
 H                     9.82581   11.70426   0.31409 
 C                     10.49809   12.37859  -1.60882 
 H                     10.11328   12.55305  -2.62189 
 H                     10.9134   13.3252  -1.24458 
 H                     11.3205   11.65809  -1.68499 
 C                     8.27359   12.91669  -0.54264 
 H                     7.78171   13.09235  -1.50836 
 H                     8.68266   13.87422  -0.20055 
 H                     7.50402   12.61311   0.17404 
 
 NAtoms=     76 NQM=       76 NQMF=       0 NMMI=      0 NMMIF=      0
                NMic=       0 NMicF=      0.
                    Isotopes and Nuclear Properties:
 (Nuclear quadrupole moments (NQMom) in fm**2, nuclear magnetic moments (NMagM)
  in nuclear magnetons)

  Atom         1           2           3           4           5           6           7           8           9          10
 IAtWgt=          12           1          12           1           1          12          12          12           1           1
 AtmWgt=  12.0000000   1.0078250  12.0000000   1.0078250   1.0078250  12.0000000  12.0000000  12.0000000   1.0078250   1.0078250
 NucSpn=           0           1           0           1           1           0           0           0           1           1
 AtZEff=   0.0000000   0.0000000   0.0000000   0.0000000   0.0000000   0.0000000   0.0000000   0.0000000   0.0000000   0.0000000
 NQMom=    0.0000000   0.0000000   0.0000000   0.0000000   0.0000000   0.0000000   0.0000000   0.0000000   0.0000000   0.0000000
 NMagM=    0.0000000   2.7928460   0.0000000   2.7928460   2.7928460   0.0000000   0.0000000   0.0000000   2.7928460   2.7928460
 AtZNuc=   6.0000000   1.0000000   6.0000000   1.0000000   1.0000000   6.0000000   6.0000000   6.0000000   1.0000000   1.0000000

  Atom        11          12          13          14          15          16          17          18          19          20
 IAtWgt=          12           1           1          12           1          12           1          12           1          12
 AtmWgt=  12.0000000   1.0078250   1.0078250  12.0000000   1.0078250  12.0000000   1.0078250  12.0000000   1.0078250  12.0000000
 NucSpn=           0           1           1           0           1           0           1           0           1           0
 AtZEff=   0.0000000   0.0000000   0.0000000   0.0000000   0.0000000   0.0000000   0.0000000   0.0000000   0.0000000   0.0000000
 NQMom=    0.0000000   0.0000000   0.0000000   0.0000000   0.0000000   0.0000000   0.0000000   0.0000000   0.0000000   0.0000000
 NMagM=    0.0000000   2.7928460   2.7928460   0.0000000   2.7928460   0.0000000   2.7928460   0.0000000   2.7928460   0.0000000
 AtZNuc=   6.0000000   1.0000000   1.0000000   6.0000000   1.0000000   6.0000000   1.0000000   6.0000000   1.0000000   6.0000000

  Atom        21          22          23          24          25          26          27          28          29          30
 IAtWgt=           1          12           1           1          12           1           1          12          12           1
 AtmWgt=   1.0078250  12.0000000   1.0078250   1.0078250  12.0000000   1.0078250   1.0078250  12.0000000  12.0000000   1.0078250
 NucSpn=           1           0           1           1           0           1           1           0           0           1
 AtZEff=   0.0000000   0.0000000   0.0000000   0.0000000   0.0000000   0.0000000   0.0000000   0.0000000   0.0000000   0.0000000
 NQMom=    0.0000000   0.0000000   0.0000000   0.0000000   0.0000000   0.0000000   0.0000000   0.0000000   0.0000000   0.0000000
 NMagM=    2.7928460   0.0000000   2.7928460   2.7928460   0.0000000   2.7928460   2.7928460   0.0000000   0.0000000   2.7928460
 AtZNuc=   1.0000000   6.0000000   1.0000000   1.0000000   6.0000000   1.0000000   1.0000000   6.0000000   6.0000000   1.0000000

  Atom        31          32          33          34          35          36          37          38          39          40
 IAtWgt=          12           1           1          12           1           1          12           1          12           1
 AtmWgt=  12.0000000   1.0078250   1.0078250  12.0000000   1.0078250   1.0078250  12.0000000   1.0078250  12.0000000   1.0078250
 NucSpn=           0           1           1           0           1           1           0           1           0           1
 AtZEff=   0.0000000   0.0000000   0.0000000   0.0000000   0.0000000   0.0000000   0.0000000   0.0000000   0.0000000   0.0000000
 NQMom=    0.0000000   0.0000000   0.0000000   0.0000000   0.0000000   0.0000000   0.0000000   0.0000000   0.0000000   0.0000000
 NMagM=    0.0000000   2.7928460   2.7928460   0.0000000   2.7928460   2.7928460   0.0000000   2.7928460   0.0000000   2.7928460
 AtZNuc=   6.0000000   1.0000000   1.0000000   6.0000000   1.0000000   1.0000000   6.0000000   1.0000000   6.0000000   1.0000000

  Atom        41          42          43          44          45          46          47          48          49          50
 IAtWgt=           1           1          12           1          12           1           1           1          12           1
 AtmWgt=   1.0078250   1.0078250  12.0000000   1.0078250  12.0000000   1.0078250   1.0078250   1.0078250  12.0000000   1.0078250
 NucSpn=           1           1           0           1           0           1           1           1           0           1
 AtZEff=   0.0000000   0.0000000   0.0000000   0.0000000   0.0000000   0.0000000   0.0000000   0.0000000   0.0000000   0.0000000
 NQMom=    0.0000000   0.0000000   0.0000000   0.0000000   0.0000000   0.0000000   0.0000000   0.0000000   0.0000000   0.0000000
 NMagM=    2.7928460   2.7928460   0.0000000   2.7928460   0.0000000   2.7928460   2.7928460   2.7928460   0.0000000   2.7928460
 AtZNuc=   1.0000000   1.0000000   6.0000000   1.0000000   6.0000000   1.0000000   1.0000000   1.0000000   6.0000000   1.0000000

  Atom        51          52          53          54          55          56          57          58          59          60
 IAtWgt=           1           1          16          16           1          16           1          12           1           1
 AtmWgt=   1.0078250   1.0078250  15.9949146  15.9949146   1.0078250  15.9949146   1.0078250  12.0000000   1.0078250   1.0078250
 NucSpn=           1           1           0           0           1           0           1           0           1           1
 AtZEff=   0.0000000   0.0000000   0.0000000   0.0000000   0.0000000   0.0000000   0.0000000   0.0000000   0.0000000   0.0000000
 NQMom=    0.0000000   0.0000000   0.0000000   0.0000000   0.0000000   0.0000000   0.0000000   0.0000000   0.0000000   0.0000000
 NMagM=    2.7928460   2.7928460   0.0000000   0.0000000   2.7928460   0.0000000   2.7928460   0.0000000   2.7928460   2.7928460
 AtZNuc=   1.0000000   1.0000000   8.0000000   8.0000000   1.0000000   8.0000000   1.0000000   6.0000000   1.0000000   1.0000000

  Atom        61          62          63          64          65          66          67          68          69          70
 IAtWgt=          12           1           1          12           1           1          12           1          12           1
 AtmWgt=  12.0000000   1.0078250   1.0078250  12.0000000   1.0078250   1.0078250  12.0000000   1.0078250  12.0000000   1.0078250
 NucSpn=           0           1           1           0           1           1           0           1           0           1
 AtZEff=   0.0000000   0.0000000   0.0000000   0.0000000   0.0000000   0.0000000   0.0000000   0.0000000   0.0000000   0.0000000
 NQMom=    0.0000000   0.0000000   0.0000000   0.0000000   0.0000000   0.0000000   0.0000000   0.0000000   0.0000000   0.0000000
 NMagM=    0.0000000   2.7928460   2.7928460   0.0000000   2.7928460   2.7928460   0.0000000   2.7928460   0.0000000   2.7928460
 AtZNuc=   6.0000000   1.0000000   1.0000000   6.0000000   1.0000000   1.0000000   6.0000000   1.0000000   6.0000000   1.0000000

  Atom        71          72          73          74          75          76
 IAtWgt=           1           1          12           1           1           1
 AtmWgt=   1.0078250   1.0078250  12.0000000   1.0078250   1.0078250   1.0078250
 NucSpn=           1           1           0           1           1           1
 AtZEff=   0.0000000   0.0000000   0.0000000   0.0000000   0.0000000   0.0000000
 NQMom=    0.0000000   0.0000000   0.0000000   0.0000000   0.0000000   0.0000000
 NMagM=    2.7928460   2.7928460   0.0000000   2.7928460   2.7928460   2.7928460
 AtZNuc=   1.0000000   1.0000000   6.0000000   1.0000000   1.0000000   1.0000000
 Leave Link  101 at Thu Apr 27 15:11:04 2017, MaxMem=    33554432 cpu:         1.0
 (Enter /home/michal/g09/l202.exe)
 Symmetry turned off by external request.
 Stoichiometry    C27H46O3
 Framework group  C1[X(C27H46O3)]
 Deg. of freedom   222
 Full point group                 C1      NOp   1
                          Input orientation:                          
 ---------------------------------------------------------------------
 Center     Atomic      Atomic             Coordinates (Angstroms)
 Number     Number       Type             X           Y           Z
 ---------------------------------------------------------------------
      1          6           0        1.758531   -1.248542   -0.068695
      2          1           0        1.871436   -1.128452   -1.153122
      3          6           0        3.150854   -1.308744    0.575580
      4          1           0        3.727673   -2.128631    0.136043
      5          1           0        3.012992   -1.554422    1.641151
      6          6           0        3.914162   -0.003707    0.453745
      7          6           0        3.190574    1.278824    0.878668
      8          6           0        1.748566    1.254171    0.282204
      9          1           0        1.819468    1.443896   -0.797865
     10          1           0        1.166757    2.080181    0.704193
     11          6           0        0.978706   -0.059151    0.489571
     12          1           0        0.785950   -0.227702    1.559569
     13          1           0        0.000000    0.000000    0.000000
     14          6           0        5.174806    0.000000    0.000000
     15          1           0        5.635113   -0.936773   -0.316025
     16          6           0        6.059249    1.207074   -0.109188
     17          1           0        6.289815    1.396443   -1.170256
     18          6           0        5.482569    2.478698    0.531559
     19          1           0        5.692917    2.413808    1.604646
     20          6           0        3.945821    2.528845    0.305556
     21          1           0        3.798775    2.485388   -0.786484
     22          6           0        3.350126    3.874002    0.779286
     23          1           0        3.367525    3.921504    1.873545
     24          1           0        2.294756    3.930707    0.490971
     25          6           0        4.073084    5.114343    0.219351
     26          1           0        3.933887    5.156659   -0.870707
     27          1           0        3.592257    6.008328    0.628222
     28          6           0        5.584466    5.086358    0.522933
     29          6           0        6.130246    3.746874   -0.052582
     30          1           0        5.850432    3.760043   -1.120961
     31          6           0        7.657478    3.911112    0.000000
     32          1           0        8.173869    3.258004   -0.708075
     33          1           0        8.040336    3.648465    0.991453
     34          6           0        7.874051    5.415970   -0.313228
     35          1           0        8.547553    5.873968    0.421252
     36          1           0        8.347348    5.551674   -1.290440
     37          6           0        6.469588    6.108934   -0.272243
     38          1           0        6.067851    6.124407   -1.298204
     39          6           0        5.841567    5.221050    2.041669
     40          1           0        5.409194    4.395501    2.612618
     41          1           0        6.910047    5.246454    2.274298
     42          1           0        5.401332    6.146353    2.427625
     43          6           0        6.546629    7.585564    0.196935
     44          1           0        7.011777    7.595976    1.194536
     45          6           0        5.168986    8.263025    0.307344
     46          1           0        4.621250    8.193102   -0.640958
     47          1           0        5.267764    9.324260    0.554335
     48          1           0        4.547886    7.813150    1.085057
     49          6           0        3.114983    1.310186    2.428448
     50          1           0        2.481650    2.130957    2.778933
     51          1           0        2.691577    0.384298    2.827354
     52          1           0        4.108934    1.427207    2.869750
     53          8           0        7.393909    0.896761    0.365948
     54          8           0        7.342036    0.634802    1.799445
     55          1           0        7.386763   -0.335329    1.812186
     56          8           0        1.054217   -2.484791    0.074559
     57          1           0        0.890914   -2.641477    1.015292
     58          6           0        7.469617    8.398389   -0.745480
     59          1           0        8.387579    7.830577   -0.933827
     60          1           0        6.971642    8.502790   -1.721920
     61          6           0        7.877980    9.788903   -0.232473
     62          1           0        6.989928   10.413124   -0.084469
     63          1           0        8.349047    9.682090    0.756222
     64          6           0        8.854644   10.503188   -1.179080
     65          1           0        8.372628   10.647221   -2.158392
     66          1           0        9.713999    9.841524   -1.359294
     67          6           0        9.385040   11.863652   -0.682288
     68          1           0        9.825805   11.704259    0.314086
     69          6           0       10.498086   12.378588   -1.608816
     70          1           0       10.113284   12.553048   -2.621892
     71          1           0       10.913405   13.325204   -1.244580
     72          1           0       11.320504   11.658089   -1.684986
     73          6           0        8.273590   12.916688   -0.542638
     74          1           0        7.781713   13.092350   -1.508363
     75          1           0        8.682661   13.874224   -0.200545
     76          1           0        7.504023   12.613108    0.174042
 ---------------------------------------------------------------------
 Rotational constants (GHZ):      0.4156373      0.0503978      0.0471128
 Leave Link  202 at Thu Apr 27 15:11:04 2017, MaxMem=    33554432 cpu:         0.6
 (Enter /home/michal/g09/l301.exe)
 Standard basis: 6-31G(d) (6D, 7F)
 Ernie: Thresh=  0.10000D-02 Tol=  0.10000D-05 Strict=F.
 AO basis set in the form of general basis input (Overlap normalization):
      1 0
 S   6 1.00       0.000000000000
      0.3047524880D+04  0.1834737132D-02
      0.4573695180D+03  0.1403732281D-01
      0.1039486850D+03  0.6884262226D-01
      0.2921015530D+02  0.2321844432D+00
      0.9286662960D+01  0.4679413484D+00
      0.3163926960D+01  0.3623119853D+00
 SP   3 1.00       0.000000000000
      0.7868272350D+01 -0.1193324198D+00  0.6899906659D-01
      0.1881288540D+01 -0.1608541517D+00  0.3164239610D+00
      0.5442492580D+00  0.1143456438D+01  0.7443082909D+00
 SP   1 1.00       0.000000000000
      0.1687144782D+00  0.1000000000D+01  0.1000000000D+01
 D   1 1.00       0.000000000000
      0.8000000000D+00  0.1000000000D+01
 ****
      2 0
 S   3 1.00       0.000000000000
      0.1873113696D+02  0.3349460434D-01
      0.2825394365D+01  0.2347269535D+00
      0.6401216923D+00  0.8137573261D+00
 S   1 1.00       0.000000000000
      0.1612777588D+00  0.1000000000D+01
 ****
      3 0
 S   6 1.00       0.000000000000
      0.3047524880D+04  0.1834737132D-02
      0.4573695180D+03  0.1403732281D-01
      0.1039486850D+03  0.6884262226D-01
      0.2921015530D+02  0.2321844432D+00
      0.9286662960D+01  0.4679413484D+00
      0.3163926960D+01  0.3623119853D+00
 SP   3 1.00       0.000000000000
      0.7868272350D+01 -0.1193324198D+00  0.6899906659D-01
      0.1881288540D+01 -0.1608541517D+00  0.3164239610D+00
      0.5442492580D+00  0.1143456438D+01  0.7443082909D+00
 SP   1 1.00       0.000000000000
      0.1687144782D+00  0.1000000000D+01  0.1000000000D+01
 D   1 1.00       0.000000000000
      0.8000000000D+00  0.1000000000D+01
 ****
      4 0
 S   3 1.00       0.000000000000
      0.1873113696D+02  0.3349460434D-01
      0.2825394365D+01  0.2347269535D+00
      0.6401216923D+00  0.8137573261D+00
 S   1 1.00       0.000000000000
      0.1612777588D+00  0.1000000000D+01
 ****
      5 0
 S   3 1.00       0.000000000000
      0.1873113696D+02  0.3349460434D-01
      0.2825394365D+01  0.2347269535D+00
      0.6401216923D+00  0.8137573261D+00
 S   1 1.00       0.000000000000
      0.1612777588D+00  0.1000000000D+01
 ****
      6 0
 S   6 1.00       0.000000000000
      0.3047524880D+04  0.1834737132D-02
      0.4573695180D+03  0.1403732281D-01
      0.1039486850D+03  0.6884262226D-01
      0.2921015530D+02  0.2321844432D+00
      0.9286662960D+01  0.4679413484D+00
      0.3163926960D+01  0.3623119853D+00
 SP   3 1.00       0.000000000000
      0.7868272350D+01 -0.1193324198D+00  0.6899906659D-01
      0.1881288540D+01 -0.1608541517D+00  0.3164239610D+00
      0.5442492580D+00  0.1143456438D+01  0.7443082909D+00
 SP   1 1.00       0.000000000000
      0.1687144782D+00  0.1000000000D+01  0.1000000000D+01
 D   1 1.00       0.000000000000
      0.8000000000D+00  0.1000000000D+01
 ****
      7 0
 S   6 1.00       0.000000000000
      0.3047524880D+04  0.1834737132D-02
      0.4573695180D+03  0.1403732281D-01
      0.1039486850D+03  0.6884262226D-01
      0.2921015530D+02  0.2321844432D+00
      0.9286662960D+01  0.4679413484D+00
      0.3163926960D+01  0.3623119853D+00
 SP   3 1.00       0.000000000000
      0.7868272350D+01 -0.1193324198D+00  0.6899906659D-01
      0.1881288540D+01 -0.1608541517D+00  0.3164239610D+00
      0.5442492580D+00  0.1143456438D+01  0.7443082909D+00
 SP   1 1.00       0.000000000000
      0.1687144782D+00  0.1000000000D+01  0.1000000000D+01
 D   1 1.00       0.000000000000
      0.8000000000D+00  0.1000000000D+01
 ****
      8 0
 S   6 1.00       0.000000000000
      0.3047524880D+04  0.1834737132D-02
      0.4573695180D+03  0.1403732281D-01
      0.1039486850D+03  0.6884262226D-01
      0.2921015530D+02  0.2321844432D+00
      0.9286662960D+01  0.4679413484D+00
      0.3163926960D+01  0.3623119853D+00
 SP   3 1.00       0.000000000000
      0.7868272350D+01 -0.1193324198D+00  0.6899906659D-01
      0.1881288540D+01 -0.1608541517D+00  0.3164239610D+00
      0.5442492580D+00  0.1143456438D+01  0.7443082909D+00
 SP   1 1.00       0.000000000000
      0.1687144782D+00  0.1000000000D+01  0.1000000000D+01
 D   1 1.00       0.000000000000
      0.8000000000D+00  0.1000000000D+01
 ****
      9 0
 S   3 1.00       0.000000000000
      0.1873113696D+02  0.3349460434D-01
      0.2825394365D+01  0.2347269535D+00
      0.6401216923D+00  0.8137573261D+00
 S   1 1.00       0.000000000000
      0.1612777588D+00  0.1000000000D+01
 ****
     10 0
 S   3 1.00       0.000000000000
      0.1873113696D+02  0.3349460434D-01
      0.2825394365D+01  0.2347269535D+00
      0.6401216923D+00  0.8137573261D+00
 S   1 1.00       0.000000000000
      0.1612777588D+00  0.1000000000D+01
 ****
     11 0
 S   6 1.00       0.000000000000
      0.3047524880D+04  0.1834737132D-02
      0.4573695180D+03  0.1403732281D-01
      0.1039486850D+03  0.6884262226D-01
      0.2921015530D+02  0.2321844432D+00
      0.9286662960D+01  0.4679413484D+00
      0.3163926960D+01  0.3623119853D+00
 SP   3 1.00       0.000000000000
      0.7868272350D+01 -0.1193324198D+00  0.6899906659D-01
      0.1881288540D+01 -0.1608541517D+00  0.3164239610D+00
      0.5442492580D+00  0.1143456438D+01  0.7443082909D+00
 SP   1 1.00       0.000000000000
      0.1687144782D+00  0.1000000000D+01  0.1000000000D+01
 D   1 1.00       0.000000000000
      0.8000000000D+00  0.1000000000D+01
 ****
     12 0
 S   3 1.00       0.000000000000
      0.1873113696D+02  0.3349460434D-01
      0.2825394365D+01  0.2347269535D+00
      0.6401216923D+00  0.8137573261D+00
 S   1 1.00       0.000000000000
      0.1612777588D+00  0.1000000000D+01
 ****
     13 0
 S   3 1.00       0.000000000000
      0.1873113696D+02  0.3349460434D-01
      0.2825394365D+01  0.2347269535D+00
      0.6401216923D+00  0.8137573261D+00
 S   1 1.00       0.000000000000
      0.1612777588D+00  0.1000000000D+01
 ****
     14 0
 S   6 1.00       0.000000000000
      0.3047524880D+04  0.1834737132D-02
      0.4573695180D+03  0.1403732281D-01
      0.1039486850D+03  0.6884262226D-01
      0.2921015530D+02  0.2321844432D+00
      0.9286662960D+01  0.4679413484D+00
      0.3163926960D+01  0.3623119853D+00
 SP   3 1.00       0.000000000000
      0.7868272350D+01 -0.1193324198D+00  0.6899906659D-01
      0.1881288540D+01 -0.1608541517D+00  0.3164239610D+00
      0.5442492580D+00  0.1143456438D+01  0.7443082909D+00
 SP   1 1.00       0.000000000000
      0.1687144782D+00  0.1000000000D+01  0.1000000000D+01
 D   1 1.00       0.000000000000
      0.8000000000D+00  0.1000000000D+01
 ****
     15 0
 S   3 1.00       0.000000000000
      0.1873113696D+02  0.3349460434D-01
      0.2825394365D+01  0.2347269535D+00
      0.6401216923D+00  0.8137573261D+00
 S   1 1.00       0.000000000000
      0.1612777588D+00  0.1000000000D+01
 ****
     16 0
 S   6 1.00       0.000000000000
      0.3047524880D+04  0.1834737132D-02
      0.4573695180D+03  0.1403732281D-01
      0.1039486850D+03  0.6884262226D-01
      0.2921015530D+02  0.2321844432D+00
      0.9286662960D+01  0.4679413484D+00
      0.3163926960D+01  0.3623119853D+00
 SP   3 1.00       0.000000000000
      0.7868272350D+01 -0.1193324198D+00  0.6899906659D-01
      0.1881288540D+01 -0.1608541517D+00  0.3164239610D+00
      0.5442492580D+00  0.1143456438D+01  0.7443082909D+00
 SP   1 1.00       0.000000000000
      0.1687144782D+00  0.1000000000D+01  0.1000000000D+01
 D   1 1.00       0.000000000000
      0.8000000000D+00  0.1000000000D+01
 ****
     17 0
 S   3 1.00       0.000000000000
      0.1873113696D+02  0.3349460434D-01
      0.2825394365D+01  0.2347269535D+00
      0.6401216923D+00  0.8137573261D+00
 S   1 1.00       0.000000000000
      0.1612777588D+00  0.1000000000D+01
 ****
     18 0
 S   6 1.00       0.000000000000
      0.3047524880D+04  0.1834737132D-02
      0.4573695180D+03  0.1403732281D-01
      0.1039486850D+03  0.6884262226D-01
      0.2921015530D+02  0.2321844432D+00
      0.9286662960D+01  0.4679413484D+00
      0.3163926960D+01  0.3623119853D+00
 SP   3 1.00       0.000000000000
      0.7868272350D+01 -0.1193324198D+00  0.6899906659D-01
      0.1881288540D+01 -0.1608541517D+00  0.3164239610D+00
      0.5442492580D+00  0.1143456438D+01  0.7443082909D+00
 SP   1 1.00       0.000000000000
      0.1687144782D+00  0.1000000000D+01  0.1000000000D+01
 D   1 1.00       0.000000000000
      0.8000000000D+00  0.1000000000D+01
 ****
     19 0
 S   3 1.00       0.000000000000
      0.1873113696D+02  0.3349460434D-01
      0.2825394365D+01  0.2347269535D+00
      0.6401216923D+00  0.8137573261D+00
 S   1 1.00       0.000000000000
      0.1612777588D+00  0.1000000000D+01
 ****
     20 0
 S   6 1.00       0.000000000000
      0.3047524880D+04  0.1834737132D-02
      0.4573695180D+03  0.1403732281D-01
      0.1039486850D+03  0.6884262226D-01
      0.2921015530D+02  0.2321844432D+00
      0.9286662960D+01  0.4679413484D+00
      0.3163926960D+01  0.3623119853D+00
 SP   3 1.00       0.000000000000
      0.7868272350D+01 -0.1193324198D+00  0.6899906659D-01
      0.1881288540D+01 -0.1608541517D+00  0.3164239610D+00
      0.5442492580D+00  0.1143456438D+01  0.7443082909D+00
 SP   1 1.00       0.000000000000
      0.1687144782D+00  0.1000000000D+01  0.1000000000D+01
 D   1 1.00       0.000000000000
      0.8000000000D+00  0.1000000000D+01
 ****
     21 0
 S   3 1.00       0.000000000000
      0.1873113696D+02  0.3349460434D-01
      0.2825394365D+01  0.2347269535D+00
      0.6401216923D+00  0.8137573261D+00
 S   1 1.00       0.000000000000
      0.1612777588D+00  0.1000000000D+01
 ****
     22 0
 S   6 1.00       0.000000000000
      0.3047524880D+04  0.1834737132D-02
      0.4573695180D+03  0.1403732281D-01
      0.1039486850D+03  0.6884262226D-01
      0.2921015530D+02  0.2321844432D+00
      0.9286662960D+01  0.4679413484D+00
      0.3163926960D+01  0.3623119853D+00
 SP   3 1.00       0.000000000000
      0.7868272350D+01 -0.1193324198D+00  0.6899906659D-01
      0.1881288540D+01 -0.1608541517D+00  0.3164239610D+00
      0.5442492580D+00  0.1143456438D+01  0.7443082909D+00
 SP   1 1.00       0.000000000000
      0.1687144782D+00  0.1000000000D+01  0.1000000000D+01
 D   1 1.00       0.000000000000
      0.8000000000D+00  0.1000000000D+01
 ****
     23 0
 S   3 1.00       0.000000000000
      0.1873113696D+02  0.3349460434D-01
      0.2825394365D+01  0.2347269535D+00
      0.6401216923D+00  0.8137573261D+00
 S   1 1.00       0.000000000000
      0.1612777588D+00  0.1000000000D+01
 ****
     24 0
 S   3 1.00       0.000000000000
      0.1873113696D+02  0.3349460434D-01
      0.2825394365D+01  0.2347269535D+00
      0.6401216923D+00  0.8137573261D+00
 S   1 1.00       0.000000000000
      0.1612777588D+00  0.1000000000D+01
 ****
     25 0
 S   6 1.00       0.000000000000
      0.3047524880D+04  0.1834737132D-02
      0.4573695180D+03  0.1403732281D-01
      0.1039486850D+03  0.6884262226D-01
      0.2921015530D+02  0.2321844432D+00
      0.9286662960D+01  0.4679413484D+00
      0.3163926960D+01  0.3623119853D+00
 SP   3 1.00       0.000000000000
      0.7868272350D+01 -0.1193324198D+00  0.6899906659D-01
      0.1881288540D+01 -0.1608541517D+00  0.3164239610D+00
      0.5442492580D+00  0.1143456438D+01  0.7443082909D+00
 SP   1 1.00       0.000000000000
      0.1687144782D+00  0.1000000000D+01  0.1000000000D+01
 D   1 1.00       0.000000000000
      0.8000000000D+00  0.1000000000D+01
 ****
     26 0
 S   3 1.00       0.000000000000
      0.1873113696D+02  0.3349460434D-01
      0.2825394365D+01  0.2347269535D+00
      0.6401216923D+00  0.8137573261D+00
 S   1 1.00       0.000000000000
      0.1612777588D+00  0.1000000000D+01
 ****
     27 0
 S   3 1.00       0.000000000000
      0.1873113696D+02  0.3349460434D-01
      0.2825394365D+01  0.2347269535D+00
      0.6401216923D+00  0.8137573261D+00
 S   1 1.00       0.000000000000
      0.1612777588D+00  0.1000000000D+01
 ****
     28 0
 S   6 1.00       0.000000000000
      0.3047524880D+04  0.1834737132D-02
      0.4573695180D+03  0.1403732281D-01
      0.1039486850D+03  0.6884262226D-01
      0.2921015530D+02  0.2321844432D+00
      0.9286662960D+01  0.4679413484D+00
      0.3163926960D+01  0.3623119853D+00
 SP   3 1.00       0.000000000000
      0.7868272350D+01 -0.1193324198D+00  0.6899906659D-01
      0.1881288540D+01 -0.1608541517D+00  0.3164239610D+00
      0.5442492580D+00  0.1143456438D+01  0.7443082909D+00
 SP   1 1.00       0.000000000000
      0.1687144782D+00  0.1000000000D+01  0.1000000000D+01
 D   1 1.00       0.000000000000
      0.8000000000D+00  0.1000000000D+01
 ****
     29 0
 S   6 1.00       0.000000000000
      0.3047524880D+04  0.1834737132D-02
      0.4573695180D+03  0.1403732281D-01
      0.1039486850D+03  0.6884262226D-01
      0.2921015530D+02  0.2321844432D+00
      0.9286662960D+01  0.4679413484D+00
      0.3163926960D+01  0.3623119853D+00
 SP   3 1.00       0.000000000000
      0.7868272350D+01 -0.1193324198D+00  0.6899906659D-01
      0.1881288540D+01 -0.1608541517D+00  0.3164239610D+00
      0.5442492580D+00  0.1143456438D+01  0.7443082909D+00
 SP   1 1.00       0.000000000000
      0.1687144782D+00  0.1000000000D+01  0.1000000000D+01
 D   1 1.00       0.000000000000
      0.8000000000D+00  0.1000000000D+01
 ****
     30 0
 S   3 1.00       0.000000000000
      0.1873113696D+02  0.3349460434D-01
      0.2825394365D+01  0.2347269535D+00
      0.6401216923D+00  0.8137573261D+00
 S   1 1.00       0.000000000000
      0.1612777588D+00  0.1000000000D+01
 ****
     31 0
 S   6 1.00       0.000000000000
      0.3047524880D+04  0.1834737132D-02
      0.4573695180D+03  0.1403732281D-01
      0.1039486850D+03  0.6884262226D-01
      0.2921015530D+02  0.2321844432D+00
      0.9286662960D+01  0.4679413484D+00
      0.3163926960D+01  0.3623119853D+00
 SP   3 1.00       0.000000000000
      0.7868272350D+01 -0.1193324198D+00  0.6899906659D-01
      0.1881288540D+01 -0.1608541517D+00  0.3164239610D+00
      0.5442492580D+00  0.1143456438D+01  0.7443082909D+00
 SP   1 1.00       0.000000000000
      0.1687144782D+00  0.1000000000D+01  0.1000000000D+01
 D   1 1.00       0.000000000000
      0.8000000000D+00  0.1000000000D+01
 ****
     32 0
 S   3 1.00       0.000000000000
      0.1873113696D+02  0.3349460434D-01
      0.2825394365D+01  0.2347269535D+00
      0.6401216923D+00  0.8137573261D+00
 S   1 1.00       0.000000000000
      0.1612777588D+00  0.1000000000D+01
 ****
     33 0
 S   3 1.00       0.000000000000
      0.1873113696D+02  0.3349460434D-01
      0.2825394365D+01  0.2347269535D+00
      0.6401216923D+00  0.8137573261D+00
 S   1 1.00       0.000000000000
      0.1612777588D+00  0.1000000000D+01
 ****
     34 0
 S   6 1.00       0.000000000000
      0.3047524880D+04  0.1834737132D-02
      0.4573695180D+03  0.1403732281D-01
      0.1039486850D+03  0.6884262226D-01
      0.2921015530D+02  0.2321844432D+00
      0.9286662960D+01  0.4679413484D+00
      0.3163926960D+01  0.3623119853D+00
 SP   3 1.00       0.000000000000
      0.7868272350D+01 -0.1193324198D+00  0.6899906659D-01
      0.1881288540D+01 -0.1608541517D+00  0.3164239610D+00
      0.5442492580D+00  0.1143456438D+01  0.7443082909D+00
 SP   1 1.00       0.000000000000
      0.1687144782D+00  0.1000000000D+01  0.1000000000D+01
 D   1 1.00       0.000000000000
      0.8000000000D+00  0.1000000000D+01
 ****
     35 0
 S   3 1.00       0.000000000000
      0.1873113696D+02  0.3349460434D-01
      0.2825394365D+01  0.2347269535D+00
      0.6401216923D+00  0.8137573261D+00
 S   1 1.00       0.000000000000
      0.1612777588D+00  0.1000000000D+01
 ****
     36 0
 S   3 1.00       0.000000000000
      0.1873113696D+02  0.3349460434D-01
      0.2825394365D+01  0.2347269535D+00
      0.6401216923D+00  0.8137573261D+00
 S   1 1.00       0.000000000000
      0.1612777588D+00  0.1000000000D+01
 ****
     37 0
 S   6 1.00       0.000000000000
      0.3047524880D+04  0.1834737132D-02
      0.4573695180D+03  0.1403732281D-01
      0.1039486850D+03  0.6884262226D-01
      0.2921015530D+02  0.2321844432D+00
      0.9286662960D+01  0.4679413484D+00
      0.3163926960D+01  0.3623119853D+00
 SP   3 1.00       0.000000000000
      0.7868272350D+01 -0.1193324198D+00  0.6899906659D-01
      0.1881288540D+01 -0.1608541517D+00  0.3164239610D+00
      0.5442492580D+00  0.1143456438D+01  0.7443082909D+00
 SP   1 1.00       0.000000000000
      0.1687144782D+00  0.1000000000D+01  0.1000000000D+01
 D   1 1.00       0.000000000000
      0.8000000000D+00  0.1000000000D+01
 ****
     38 0
 S   3 1.00       0.000000000000
      0.1873113696D+02  0.3349460434D-01
      0.2825394365D+01  0.2347269535D+00
      0.6401216923D+00  0.8137573261D+00
 S   1 1.00       0.000000000000
      0.1612777588D+00  0.1000000000D+01
 ****
     39 0
 S   6 1.00       0.000000000000
      0.3047524880D+04  0.1834737132D-02
      0.4573695180D+03  0.1403732281D-01
      0.1039486850D+03  0.6884262226D-01
      0.2921015530D+02  0.2321844432D+00
      0.9286662960D+01  0.4679413484D+00
      0.3163926960D+01  0.3623119853D+00
 SP   3 1.00       0.000000000000
      0.7868272350D+01 -0.1193324198D+00  0.6899906659D-01
      0.1881288540D+01 -0.1608541517D+00  0.3164239610D+00
      0.5442492580D+00  0.1143456438D+01  0.7443082909D+00
 SP   1 1.00       0.000000000000
      0.1687144782D+00  0.1000000000D+01  0.1000000000D+01
 D   1 1.00       0.000000000000
      0.8000000000D+00  0.1000000000D+01
 ****
     40 0
 S   3 1.00       0.000000000000
      0.1873113696D+02  0.3349460434D-01
      0.2825394365D+01  0.2347269535D+00
      0.6401216923D+00  0.8137573261D+00
 S   1 1.00       0.000000000000
      0.1612777588D+00  0.1000000000D+01
 ****
     41 0
 S   3 1.00       0.000000000000
      0.1873113696D+02  0.3349460434D-01
      0.2825394365D+01  0.2347269535D+00
      0.6401216923D+00  0.8137573261D+00
 S   1 1.00       0.000000000000
      0.1612777588D+00  0.1000000000D+01
 ****
     42 0
 S   3 1.00       0.000000000000
      0.1873113696D+02  0.3349460434D-01
      0.2825394365D+01  0.2347269535D+00
      0.6401216923D+00  0.8137573261D+00
 S   1 1.00       0.000000000000
      0.1612777588D+00  0.1000000000D+01
 ****
     43 0
 S   6 1.00       0.000000000000
      0.3047524880D+04  0.1834737132D-02
      0.4573695180D+03  0.1403732281D-01
      0.1039486850D+03  0.6884262226D-01
      0.2921015530D+02  0.2321844432D+00
      0.9286662960D+01  0.4679413484D+00
      0.3163926960D+01  0.3623119853D+00
 SP   3 1.00       0.000000000000
      0.7868272350D+01 -0.1193324198D+00  0.6899906659D-01
      0.1881288540D+01 -0.1608541517D+00  0.3164239610D+00
      0.5442492580D+00  0.1143456438D+01  0.7443082909D+00
 SP   1 1.00       0.000000000000
      0.1687144782D+00  0.1000000000D+01  0.1000000000D+01
 D   1 1.00       0.000000000000
      0.8000000000D+00  0.1000000000D+01
 ****
     44 0
 S   3 1.00       0.000000000000
      0.1873113696D+02  0.3349460434D-01
      0.2825394365D+01  0.2347269535D+00
      0.6401216923D+00  0.8137573261D+00
 S   1 1.00       0.000000000000
      0.1612777588D+00  0.1000000000D+01
 ****
     45 0
 S   6 1.00       0.000000000000
      0.3047524880D+04  0.1834737132D-02
      0.4573695180D+03  0.1403732281D-01
      0.1039486850D+03  0.6884262226D-01
      0.2921015530D+02  0.2321844432D+00
      0.9286662960D+01  0.4679413484D+00
      0.3163926960D+01  0.3623119853D+00
 SP   3 1.00       0.000000000000
      0.7868272350D+01 -0.1193324198D+00  0.6899906659D-01
      0.1881288540D+01 -0.1608541517D+00  0.3164239610D+00
      0.5442492580D+00  0.1143456438D+01  0.7443082909D+00
 SP   1 1.00       0.000000000000
      0.1687144782D+00  0.1000000000D+01  0.1000000000D+01
 D   1 1.00       0.000000000000
      0.8000000000D+00  0.1000000000D+01
 ****
     46 0
 S   3 1.00       0.000000000000
      0.1873113696D+02  0.3349460434D-01
      0.2825394365D+01  0.2347269535D+00
      0.6401216923D+00  0.8137573261D+00
 S   1 1.00       0.000000000000
      0.1612777588D+00  0.1000000000D+01
 ****
     47 0
 S   3 1.00       0.000000000000
      0.1873113696D+02  0.3349460434D-01
      0.2825394365D+01  0.2347269535D+00
      0.6401216923D+00  0.8137573261D+00
 S   1 1.00       0.000000000000
      0.1612777588D+00  0.1000000000D+01
 ****
     48 0
 S   3 1.00       0.000000000000
      0.1873113696D+02  0.3349460434D-01
      0.2825394365D+01  0.2347269535D+00
      0.6401216923D+00  0.8137573261D+00
 S   1 1.00       0.000000000000
      0.1612777588D+00  0.1000000000D+01
 ****
     49 0
 S   6 1.00       0.000000000000
      0.3047524880D+04  0.1834737132D-02
      0.4573695180D+03  0.1403732281D-01
      0.1039486850D+03  0.6884262226D-01
      0.2921015530D+02  0.2321844432D+00
      0.9286662960D+01  0.4679413484D+00
      0.3163926960D+01  0.3623119853D+00
 SP   3 1.00       0.000000000000
      0.7868272350D+01 -0.1193324198D+00  0.6899906659D-01
      0.1881288540D+01 -0.1608541517D+00  0.3164239610D+00
      0.5442492580D+00  0.1143456438D+01  0.7443082909D+00
 SP   1 1.00       0.000000000000
      0.1687144782D+00  0.1000000000D+01  0.1000000000D+01
 D   1 1.00       0.000000000000
      0.8000000000D+00  0.1000000000D+01
 ****
     50 0
 S   3 1.00       0.000000000000
      0.1873113696D+02  0.3349460434D-01
      0.2825394365D+01  0.2347269535D+00
      0.6401216923D+00  0.8137573261D+00
 S   1 1.00       0.000000000000
      0.1612777588D+00  0.1000000000D+01
 ****
     51 0
 S   3 1.00       0.000000000000
      0.1873113696D+02  0.3349460434D-01
      0.2825394365D+01  0.2347269535D+00
      0.6401216923D+00  0.8137573261D+00
 S   1 1.00       0.000000000000
      0.1612777588D+00  0.1000000000D+01
 ****
     52 0
 S   3 1.00       0.000000000000
      0.1873113696D+02  0.3349460434D-01
      0.2825394365D+01  0.2347269535D+00
      0.6401216923D+00  0.8137573261D+00
 S   1 1.00       0.000000000000
      0.1612777588D+00  0.1000000000D+01
 ****
     53 0
 S   6 1.00       0.000000000000
      0.5484671660D+04  0.1831074430D-02
      0.8252349460D+03  0.1395017220D-01
      0.1880469580D+03  0.6844507810D-01
      0.5296450000D+02  0.2327143360D+00
      0.1689757040D+02  0.4701928980D+00
      0.5799635340D+01  0.3585208530D+00
 SP   3 1.00       0.000000000000
      0.1553961625D+02 -0.1107775495D+00  0.7087426823D-01
      0.3599933586D+01 -0.1480262627D+00  0.3397528391D+00
      0.1013761750D+01  0.1130767015D+01  0.7271585773D+00
 SP   1 1.00       0.000000000000
      0.2700058226D+00  0.1000000000D+01  0.1000000000D+01
 D   1 1.00       0.000000000000
      0.8000000000D+00  0.1000000000D+01
 ****
     54 0
 S   6 1.00       0.000000000000
      0.5484671660D+04  0.1831074430D-02
      0.8252349460D+03  0.1395017220D-01
      0.1880469580D+03  0.6844507810D-01
      0.5296450000D+02  0.2327143360D+00
      0.1689757040D+02  0.4701928980D+00
      0.5799635340D+01  0.3585208530D+00
 SP   3 1.00       0.000000000000
      0.1553961625D+02 -0.1107775495D+00  0.7087426823D-01
      0.3599933586D+01 -0.1480262627D+00  0.3397528391D+00
      0.1013761750D+01  0.1130767015D+01  0.7271585773D+00
 SP   1 1.00       0.000000000000
      0.2700058226D+00  0.1000000000D+01  0.1000000000D+01
 D   1 1.00       0.000000000000
      0.8000000000D+00  0.1000000000D+01
 ****
     55 0
 S   3 1.00       0.000000000000
      0.1873113696D+02  0.3349460434D-01
      0.2825394365D+01  0.2347269535D+00
      0.6401216923D+00  0.8137573261D+00
 S   1 1.00       0.000000000000
      0.1612777588D+00  0.1000000000D+01
 ****
     56 0
 S   6 1.00       0.000000000000
      0.5484671660D+04  0.1831074430D-02
      0.8252349460D+03  0.1395017220D-01
      0.1880469580D+03  0.6844507810D-01
      0.5296450000D+02  0.2327143360D+00
      0.1689757040D+02  0.4701928980D+00
      0.5799635340D+01  0.3585208530D+00
 SP   3 1.00       0.000000000000
      0.1553961625D+02 -0.1107775495D+00  0.7087426823D-01
      0.3599933586D+01 -0.1480262627D+00  0.3397528391D+00
      0.1013761750D+01  0.1130767015D+01  0.7271585773D+00
 SP   1 1.00       0.000000000000
      0.2700058226D+00  0.1000000000D+01  0.1000000000D+01
 D   1 1.00       0.000000000000
      0.8000000000D+00  0.1000000000D+01
 ****
     57 0
 S   3 1.00       0.000000000000
      0.1873113696D+02  0.3349460434D-01
      0.2825394365D+01  0.2347269535D+00
      0.6401216923D+00  0.8137573261D+00
 S   1 1.00       0.000000000000
      0.1612777588D+00  0.1000000000D+01
 ****
     58 0
 S   6 1.00       0.000000000000
      0.3047524880D+04  0.1834737132D-02
      0.4573695180D+03  0.1403732281D-01
      0.1039486850D+03  0.6884262226D-01
      0.2921015530D+02  0.2321844432D+00
      0.9286662960D+01  0.4679413484D+00
      0.3163926960D+01  0.3623119853D+00
 SP   3 1.00       0.000000000000
      0.7868272350D+01 -0.1193324198D+00  0.6899906659D-01
      0.1881288540D+01 -0.1608541517D+00  0.3164239610D+00
      0.5442492580D+00  0.1143456438D+01  0.7443082909D+00
 SP   1 1.00       0.000000000000
      0.1687144782D+00  0.1000000000D+01  0.1000000000D+01
 D   1 1.00       0.000000000000
      0.8000000000D+00  0.1000000000D+01
 ****
     59 0
 S   3 1.00       0.000000000000
      0.1873113696D+02  0.3349460434D-01
      0.2825394365D+01  0.2347269535D+00
      0.6401216923D+00  0.8137573261D+00
 S   1 1.00       0.000000000000
      0.1612777588D+00  0.1000000000D+01
 ****
     60 0
 S   3 1.00       0.000000000000
      0.1873113696D+02  0.3349460434D-01
      0.2825394365D+01  0.2347269535D+00
      0.6401216923D+00  0.8137573261D+00
 S   1 1.00       0.000000000000
      0.1612777588D+00  0.1000000000D+01
 ****
     61 0
 S   6 1.00       0.000000000000
      0.3047524880D+04  0.1834737132D-02
      0.4573695180D+03  0.1403732281D-01
      0.1039486850D+03  0.6884262226D-01
      0.2921015530D+02  0.2321844432D+00
      0.9286662960D+01  0.4679413484D+00
      0.3163926960D+01  0.3623119853D+00
 SP   3 1.00       0.000000000000
      0.7868272350D+01 -0.1193324198D+00  0.6899906659D-01
      0.1881288540D+01 -0.1608541517D+00  0.3164239610D+00
      0.5442492580D+00  0.1143456438D+01  0.7443082909D+00
 SP   1 1.00       0.000000000000
      0.1687144782D+00  0.1000000000D+01  0.1000000000D+01
 D   1 1.00       0.000000000000
      0.8000000000D+00  0.1000000000D+01
 ****
     62 0
 S   3 1.00       0.000000000000
      0.1873113696D+02  0.3349460434D-01
      0.2825394365D+01  0.2347269535D+00
      0.6401216923D+00  0.8137573261D+00
 S   1 1.00       0.000000000000
      0.1612777588D+00  0.1000000000D+01
 ****
     63 0
 S   3 1.00       0.000000000000
      0.1873113696D+02  0.3349460434D-01
      0.2825394365D+01  0.2347269535D+00
      0.6401216923D+00  0.8137573261D+00
 S   1 1.00       0.000000000000
      0.1612777588D+00  0.1000000000D+01
 ****
     64 0
 S   6 1.00       0.000000000000
      0.3047524880D+04  0.1834737132D-02
      0.4573695180D+03  0.1403732281D-01
      0.1039486850D+03  0.6884262226D-01
      0.2921015530D+02  0.2321844432D+00
      0.9286662960D+01  0.4679413484D+00
      0.3163926960D+01  0.3623119853D+00
 SP   3 1.00       0.000000000000
      0.7868272350D+01 -0.1193324198D+00  0.6899906659D-01
      0.1881288540D+01 -0.1608541517D+00  0.3164239610D+00
      0.5442492580D+00  0.1143456438D+01  0.7443082909D+00
 SP   1 1.00       0.000000000000
      0.1687144782D+00  0.1000000000D+01  0.1000000000D+01
 D   1 1.00       0.000000000000
      0.8000000000D+00  0.1000000000D+01
 ****
     65 0
 S   3 1.00       0.000000000000
      0.1873113696D+02  0.3349460434D-01
      0.2825394365D+01  0.2347269535D+00
      0.6401216923D+00  0.8137573261D+00
 S   1 1.00       0.000000000000
      0.1612777588D+00  0.1000000000D+01
 ****
     66 0
 S   3 1.00       0.000000000000
      0.1873113696D+02  0.3349460434D-01
      0.2825394365D+01  0.2347269535D+00
      0.6401216923D+00  0.8137573261D+00
 S   1 1.00       0.000000000000
      0.1612777588D+00  0.1000000000D+01
 ****
     67 0
 S   6 1.00       0.000000000000
      0.3047524880D+04  0.1834737132D-02
      0.4573695180D+03  0.1403732281D-01
      0.1039486850D+03  0.6884262226D-01
      0.2921015530D+02  0.2321844432D+00
      0.9286662960D+01  0.4679413484D+00
      0.3163926960D+01  0.3623119853D+00
 SP   3 1.00       0.000000000000
      0.7868272350D+01 -0.1193324198D+00  0.6899906659D-01
      0.1881288540D+01 -0.1608541517D+00  0.3164239610D+00
      0.5442492580D+00  0.1143456438D+01  0.7443082909D+00
 SP   1 1.00       0.000000000000
      0.1687144782D+00  0.1000000000D+01  0.1000000000D+01
 D   1 1.00       0.000000000000
      0.8000000000D+00  0.1000000000D+01
 ****
     68 0
 S   3 1.00       0.000000000000
      0.1873113696D+02  0.3349460434D-01
      0.2825394365D+01  0.2347269535D+00
      0.6401216923D+00  0.8137573261D+00
 S   1 1.00       0.000000000000
      0.1612777588D+00  0.1000000000D+01
 ****
     69 0
 S   6 1.00       0.000000000000
      0.3047524880D+04  0.1834737132D-02
      0.4573695180D+03  0.1403732281D-01
      0.1039486850D+03  0.6884262226D-01
      0.2921015530D+02  0.2321844432D+00
      0.9286662960D+01  0.4679413484D+00
      0.3163926960D+01  0.3623119853D+00
 SP   3 1.00       0.000000000000
      0.7868272350D+01 -0.1193324198D+00  0.6899906659D-01
      0.1881288540D+01 -0.1608541517D+00  0.3164239610D+00
      0.5442492580D+00  0.1143456438D+01  0.7443082909D+00
 SP   1 1.00       0.000000000000
      0.1687144782D+00  0.1000000000D+01  0.1000000000D+01
 D   1 1.00       0.000000000000
      0.8000000000D+00  0.1000000000D+01
 ****
     70 0
 S   3 1.00       0.000000000000
      0.1873113696D+02  0.3349460434D-01
      0.2825394365D+01  0.2347269535D+00
      0.6401216923D+00  0.8137573261D+00
 S   1 1.00       0.000000000000
      0.1612777588D+00  0.1000000000D+01
 ****
     71 0
 S   3 1.00       0.000000000000
      0.1873113696D+02  0.3349460434D-01
      0.2825394365D+01  0.2347269535D+00
      0.6401216923D+00  0.8137573261D+00
 S   1 1.00       0.000000000000
      0.1612777588D+00  0.1000000000D+01
 ****
     72 0
 S   3 1.00       0.000000000000
      0.1873113696D+02  0.3349460434D-01
      0.2825394365D+01  0.2347269535D+00
      0.6401216923D+00  0.8137573261D+00
 S   1 1.00       0.000000000000
      0.1612777588D+00  0.1000000000D+01
 ****
     73 0
 S   6 1.00       0.000000000000
      0.3047524880D+04  0.1834737132D-02
      0.4573695180D+03  0.1403732281D-01
      0.1039486850D+03  0.6884262226D-01
      0.2921015530D+02  0.2321844432D+00
      0.9286662960D+01  0.4679413484D+00
      0.3163926960D+01  0.3623119853D+00
 SP   3 1.00       0.000000000000
      0.7868272350D+01 -0.1193324198D+00  0.6899906659D-01
      0.1881288540D+01 -0.1608541517D+00  0.3164239610D+00
      0.5442492580D+00  0.1143456438D+01  0.7443082909D+00
 SP   1 1.00       0.000000000000
      0.1687144782D+00  0.1000000000D+01  0.1000000000D+01
 D   1 1.00       0.000000000000
      0.8000000000D+00  0.1000000000D+01
 ****
     74 0
 S   3 1.00       0.000000000000
      0.1873113696D+02  0.3349460434D-01
      0.2825394365D+01  0.2347269535D+00
      0.6401216923D+00  0.8137573261D+00
 S   1 1.00       0.000000000000
      0.1612777588D+00  0.1000000000D+01
 ****
     75 0
 S   3 1.00       0.000000000000
      0.1873113696D+02  0.3349460434D-01
      0.2825394365D+01  0.2347269535D+00
      0.6401216923D+00  0.8137573261D+00
 S   1 1.00       0.000000000000
      0.1612777588D+00  0.1000000000D+01
 ****
     76 0
 S   3 1.00       0.000000000000
      0.1873113696D+02  0.3349460434D-01
      0.2825394365D+01  0.2347269535D+00
      0.6401216923D+00  0.8137573261D+00
 S   1 1.00       0.000000000000
      0.1612777588D+00  0.1000000000D+01
 ****

 AO basis set (Overlap normalization):
 Atom C1       Shell     1 S   6     bf    1 -     1          3.323142175162         -2.359402161946         -0.129814283164
      0.3047524880D+04  0.1834737132D-02
      0.4573695180D+03  0.1403732281D-01
      0.1039486850D+03  0.6884262226D-01
      0.2921015530D+02  0.2321844432D+00
      0.9286662960D+01  0.4679413484D+00
      0.3163926960D+01  0.3623119853D+00
 Atom C1       Shell     2 SP   3    bf    2 -     5          3.323142175162         -2.359402161946         -0.129814283164
      0.7868272350D+01 -0.1193324198D+00  0.6899906659D-01
      0.1881288540D+01 -0.1608541517D+00  0.3164239610D+00
      0.5442492580D+00  0.1143456438D+01  0.7443082909D+00
 Atom C1       Shell     3 SP   1    bf    6 -     9          3.323142175162         -2.359402161946         -0.129814283164
      0.1687144782D+00  0.1000000000D+01  0.1000000000D+01
 Atom C1       Shell     4 D   1     bf   10 -    15          3.323142175162         -2.359402161946         -0.129814283164
      0.8000000000D+00  0.1000000000D+01
 Atom H2       Shell     5 S   3     bf   16 -    16          3.536500683743         -2.132465876614         -2.179085117956
      0.1873113696D+02  0.3349460434D-01
      0.2825394365D+01  0.2347269535D+00
      0.6401216923D+00  0.8137573261D+00
 Atom H2       Shell     6 S   1     bf   17 -    17          3.536500683743         -2.132465876614         -2.179085117956
      0.1612777588D+00  0.1000000000D+01
 Atom C3       Shell     7 S   6     bf   18 -    18          5.954251465961         -2.473167794749          1.087688057340
      0.3047524880D+04  0.1834737132D-02
      0.4573695180D+03  0.1403732281D-01
      0.1039486850D+03  0.6884262226D-01
      0.2921015530D+02  0.2321844432D+00
      0.9286662960D+01  0.4679413484D+00
      0.3163926960D+01  0.3623119853D+00
 Atom C3       Shell     8 SP   3    bf   19 -    22          5.954251465961         -2.473167794749          1.087688057340
      0.7868272350D+01 -0.1193324198D+00  0.6899906659D-01
      0.1881288540D+01 -0.1608541517D+00  0.3164239610D+00
      0.5442492580D+00  0.1143456438D+01  0.7443082909D+00
 Atom C3       Shell     9 SP   1    bf   23 -    26          5.954251465961         -2.473167794749          1.087688057340
      0.1687144782D+00  0.1000000000D+01  0.1000000000D+01
 Atom C3       Shell    10 D   1     bf   27 -    32          5.954251465961         -2.473167794749          1.087688057340
      0.8000000000D+00  0.1000000000D+01
 Atom H4       Shell    11 S   3     bf   33 -    33          7.044280837288         -4.022530213786          0.257083955604
      0.1873113696D+02  0.3349460434D-01
      0.2825394365D+01  0.2347269535D+00
      0.6401216923D+00  0.8137573261D+00
 Atom H4       Shell    12 S   1     bf   34 -    34          7.044280837288         -4.022530213786          0.257083955604
      0.1612777588D+00  0.1000000000D+01
 Atom H5       Shell    13 S   3     bf   35 -    35          5.693729758370         -2.937432593028          3.101325932711
      0.1873113696D+02  0.3349460434D-01
      0.2825394365D+01  0.2347269535D+00
      0.6401216923D+00  0.8137573261D+00
 Atom H5       Shell    14 S   1     bf   36 -    36          5.693729758370         -2.937432593028          3.101325932711
      0.1612777588D+00  0.1000000000D+01
 Atom C6       Shell    15 S   6     bf   37 -    37          7.396694087467         -0.007005384850          0.857452971584
      0.3047524880D+04  0.1834737132D-02
      0.4573695180D+03  0.1403732281D-01
      0.1039486850D+03  0.6884262226D-01
      0.2921015530D+02  0.2321844432D+00
      0.9286662960D+01  0.4679413484D+00
      0.3163926960D+01  0.3623119853D+00
 Atom C6       Shell    16 SP   3    bf   38 -    41          7.396694087467         -0.007005384850          0.857452971584
      0.7868272350D+01 -0.1193324198D+00  0.6899906659D-01
      0.1881288540D+01 -0.1608541517D+00  0.3164239610D+00
      0.5442492580D+00  0.1143456438D+01  0.7443082909D+00
 Atom C6       Shell    17 SP   1    bf   42 -    45          7.396694087467         -0.007005384850          0.857452971584
      0.1687144782D+00  0.1000000000D+01  0.1000000000D+01
 Atom C6       Shell    18 D   1     bf   46 -    51          7.396694087467         -0.007005384850          0.857452971584
      0.8000000000D+00  0.1000000000D+01
 Atom C7       Shell    19 S   6     bf   52 -    52          6.029311633623          2.416627547901          1.660441428196
      0.3047524880D+04  0.1834737132D-02
      0.4573695180D+03  0.1403732281D-01
      0.1039486850D+03  0.6884262226D-01
      0.2921015530D+02  0.2321844432D+00
      0.9286662960D+01  0.4679413484D+00
      0.3163926960D+01  0.3623119853D+00
 Atom C7       Shell    20 SP   3    bf   53 -    56          6.029311633623          2.416627547901          1.660441428196
      0.7868272350D+01 -0.1193324198D+00  0.6899906659D-01
      0.1881288540D+01 -0.1608541517D+00  0.3164239610D+00
      0.5442492580D+00  0.1143456438D+01  0.7443082909D+00
 Atom C7       Shell    21 SP   1    bf   57 -    60          6.029311633623          2.416627547901          1.660441428196
      0.1687144782D+00  0.1000000000D+01  0.1000000000D+01
 Atom C7       Shell    22 D   1     bf   61 -    66          6.029311633623          2.416627547901          1.660441428196
      0.8000000000D+00  0.1000000000D+01
 Atom C8       Shell    23 S   6     bf   67 -    67          3.304310071590          2.370040545287          0.533287404331
      0.3047524880D+04  0.1834737132D-02
      0.4573695180D+03  0.1403732281D-01
      0.1039486850D+03  0.6884262226D-01
      0.2921015530D+02  0.2321844432D+00
      0.9286662960D+01  0.4679413484D+00
      0.3163926960D+01  0.3623119853D+00
 Atom C8       Shell    24 SP   3    bf   68 -    71          3.304310071590          2.370040545287          0.533287404331
      0.7868272350D+01 -0.1193324198D+00  0.6899906659D-01
      0.1881288540D+01 -0.1608541517D+00  0.3164239610D+00
      0.5442492580D+00  0.1143456438D+01  0.7443082909D+00
 Atom C8       Shell    25 SP   1    bf   72 -    75          3.304310071590          2.370040545287          0.533287404331
      0.1687144782D+00  0.1000000000D+01  0.1000000000D+01
 Atom C8       Shell    26 D   1     bf   76 -    81          3.304310071590          2.370040545287          0.533287404331
      0.8000000000D+00  0.1000000000D+01
 Atom H9       Shell    27 S   3     bf   82 -    82          3.438295377172          2.728568212239         -1.507746057556
      0.1873113696D+02  0.3349460434D-01
      0.2825394365D+01  0.2347269535D+00
      0.6401216923D+00  0.8137573261D+00
 Atom H9       Shell    28 S   1     bf   83 -    83          3.438295377172          2.728568212239         -1.507746057556
      0.1612777588D+00  0.1000000000D+01
 Atom H10      Shell    29 S   3     bf   84 -    84          2.204851420394          3.930972056681          1.330732802866
      0.1873113696D+02  0.3349460434D-01
      0.2825394365D+01  0.2347269535D+00
      0.6401216923D+00  0.8137573261D+00
 Atom H10      Shell    30 S   1     bf   85 -    85          2.204851420394          3.930972056681          1.330732802866
      0.1612777588D+00  0.1000000000D+01
 Atom C11      Shell    31 S   6     bf   86 -    86          1.849485681002         -0.111779341664          0.925155433856
      0.3047524880D+04  0.1834737132D-02
      0.4573695180D+03  0.1403732281D-01
      0.1039486850D+03  0.6884262226D-01
      0.2921015530D+02  0.2321844432D+00
      0.9286662960D+01  0.4679413484D+00
      0.3163926960D+01  0.3623119853D+00
 Atom C11      Shell    32 SP   3    bf   87 -    90          1.849485681002         -0.111779341664          0.925155433856
      0.7868272350D+01 -0.1193324198D+00  0.6899906659D-01
      0.1881288540D+01 -0.1608541517D+00  0.3164239610D+00
      0.5442492580D+00  0.1143456438D+01  0.7443082909D+00
 Atom C11      Shell    33 SP   1    bf   91 -    94          1.849485681002         -0.111779341664          0.925155433856
      0.1687144782D+00  0.1000000000D+01  0.1000000000D+01
 Atom C11      Shell    34 D   1     bf   95 -   100          1.849485681002         -0.111779341664          0.925155433856
      0.8000000000D+00  0.1000000000D+01
 Atom H12      Shell    35 S   3     bf  101 -   101          1.485231085621         -0.430293928582          2.947158767770
      0.1873113696D+02  0.3349460434D-01
      0.2825394365D+01  0.2347269535D+00
      0.6401216923D+00  0.8137573261D+00
 Atom H12      Shell    36 S   1     bf  102 -   102          1.485231085621         -0.430293928582          2.947158767770
      0.1612777588D+00  0.1000000000D+01
 Atom H13      Shell    37 S   3     bf  103 -   103          0.000000000000          0.000000000000          0.000000000000
      0.1873113696D+02  0.3349460434D-01
      0.2825394365D+01  0.2347269535D+00
      0.6401216923D+00  0.8137573261D+00
 Atom H13      Shell    38 S   1     bf  104 -   104          0.000000000000          0.000000000000          0.000000000000
      0.1612777588D+00  0.1000000000D+01
 Atom C14      Shell    39 S   6     bf  105 -   105          9.778966168608          0.000000000000          0.000000000000
      0.3047524880D+04  0.1834737132D-02
      0.4573695180D+03  0.1403732281D-01
      0.1039486850D+03  0.6884262226D-01
      0.2921015530D+02  0.2321844432D+00
      0.9286662960D+01  0.4679413484D+00
      0.3163926960D+01  0.3623119853D+00
 Atom C14      Shell    40 SP   3    bf  106 -   109          9.778966168608          0.000000000000          0.000000000000
      0.7868272350D+01 -0.1193324198D+00  0.6899906659D-01
      0.1881288540D+01 -0.1608541517D+00  0.3164239610D+00
      0.5442492580D+00  0.1143456438D+01  0.7443082909D+00
 Atom C14      Shell    41 SP   1    bf  110 -   113          9.778966168608          0.000000000000          0.000000000000
      0.1687144782D+00  0.1000000000D+01  0.1000000000D+01
 Atom C14      Shell    42 D   1     bf  114 -   119          9.778966168608          0.000000000000          0.000000000000
      0.8000000000D+00  0.1000000000D+01
 Atom H15      Shell    43 S   3     bf  120 -   120         10.648820146686         -1.770244456476         -0.597200436584
      0.1873113696D+02  0.3349460434D-01
      0.2825394365D+01  0.2347269535D+00
      0.6401216923D+00  0.8137573261D+00
 Atom H15      Shell    44 S   1     bf  121 -   121         10.648820146686         -1.770244456476         -0.597200436584
      0.1612777588D+00  0.1000000000D+01
 Atom C16      Shell    45 S   6     bf  122 -   122         11.450321218756          2.281039206538         -0.206334698902
      0.3047524880D+04  0.1834737132D-02
      0.4573695180D+03  0.1403732281D-01
      0.1039486850D+03  0.6884262226D-01
      0.2921015530D+02  0.2321844432D+00
      0.9286662960D+01  0.4679413484D+00
      0.3163926960D+01  0.3623119853D+00
 Atom C16      Shell    46 SP   3    bf  123 -   126         11.450321218756          2.281039206538         -0.206334698902
      0.7868272350D+01 -0.1193324198D+00  0.6899906659D-01
      0.1881288540D+01 -0.1608541517D+00  0.3164239610D+00
      0.5442492580D+00  0.1143456438D+01  0.7443082909D+00
 Atom C16      Shell    47 SP   1    bf  127 -   130         11.450321218756          2.281039206538         -0.206334698902
      0.1687144782D+00  0.1000000000D+01  0.1000000000D+01
 Atom C16      Shell    48 D   1     bf  131 -   136         11.450321218756          2.281039206538         -0.206334698902
      0.8000000000D+00  0.1000000000D+01
 Atom H17      Shell    49 S   3     bf  137 -   137         11.886027965489          2.638894716802         -2.211464214640
      0.1873113696D+02  0.3349460434D-01
      0.2825394365D+01  0.2347269535D+00
      0.6401216923D+00  0.8137573261D+00
 Atom H17      Shell    50 S   1     bf  138 -   138         11.886027965489          2.638894716802         -2.211464214640
      0.1612777588D+00  0.1000000000D+01
 Atom C18      Shell    51 S   6     bf  139 -   139         10.360553498909          4.684059857008          1.004500064197
      0.3047524880D+04  0.1834737132D-02
      0.4573695180D+03  0.1403732281D-01
      0.1039486850D+03  0.6884262226D-01
      0.2921015530D+02  0.2321844432D+00
      0.9286662960D+01  0.4679413484D+00
      0.3163926960D+01  0.3623119853D+00
 Atom C18      Shell    52 SP   3    bf  140 -   143         10.360553498909          4.684059857008          1.004500064197
      0.7868272350D+01 -0.1193324198D+00  0.6899906659D-01
      0.1881288540D+01 -0.1608541517D+00  0.3164239610D+00
      0.5442492580D+00  0.1143456438D+01  0.7443082909D+00
 Atom C18      Shell    53 SP   1    bf  144 -   147         10.360553498909          4.684059857008          1.004500064197
      0.1687144782D+00  0.1000000000D+01  0.1000000000D+01
 Atom C18      Shell    54 D   1     bf  148 -   153         10.360553498909          4.684059857008          1.004500064197
      0.8000000000D+00  0.1000000000D+01
 Atom H19      Shell    55 S   3     bf  154 -   154         10.758054027249          4.561436756567          3.032341877073
      0.1873113696D+02  0.3349460434D-01
      0.2825394365D+01  0.2347269535D+00
      0.6401216923D+00  0.8137573261D+00
 Atom H19      Shell    56 S   1     bf  155 -   155         10.758054027249          4.561436756567          3.032341877073
      0.1612777588D+00  0.1000000000D+01
 Atom C20      Shell    57 S   6     bf  156 -   156          7.456520813725          4.778823707729          0.577416515753
      0.3047524880D+04  0.1834737132D-02
      0.4573695180D+03  0.1403732281D-01
      0.1039486850D+03  0.6884262226D-01
      0.2921015530D+02  0.2321844432D+00
      0.9286662960D+01  0.4679413484D+00
      0.3163926960D+01  0.3623119853D+00
 Atom C20      Shell    58 SP   3    bf  157 -   160          7.456520813725          4.778823707729          0.577416515753
      0.7868272350D+01 -0.1193324198D+00  0.6899906659D-01
      0.1881288540D+01 -0.1608541517D+00  0.3164239610D+00
      0.5442492580D+00  0.1143456438D+01  0.7443082909D+00
 Atom C20      Shell    59 SP   1    bf  161 -   164          7.456520813725          4.778823707729          0.577416515753
      0.1687144782D+00  0.1000000000D+01  0.1000000000D+01
 Atom C20      Shell    60 D   1     bf  165 -   170          7.456520813725          4.778823707729          0.577416515753
      0.8000000000D+00  0.1000000000D+01
 Atom H21      Shell    61 S   3     bf  171 -   171          7.178644031405          4.696702597269         -1.486239141129
      0.1873113696D+02  0.3349460434D-01
      0.2825394365D+01  0.2347269535D+00
      0.6401216923D+00  0.8137573261D+00
 Atom H21      Shell    62 S   1     bf  172 -   172          7.178644031405          4.696702597269         -1.486239141129
      0.1612777588D+00  0.1000000000D+01
 Atom C22      Shell    63 S   6     bf  173 -   173          6.330820404995          7.320803082813          1.472638026260
      0.3047524880D+04  0.1834737132D-02
      0.4573695180D+03  0.1403732281D-01
      0.1039486850D+03  0.6884262226D-01
      0.2921015530D+02  0.2321844432D+00
      0.9286662960D+01  0.4679413484D+00
      0.3163926960D+01  0.3623119853D+00
 Atom C22      Shell    64 SP   3    bf  174 -   177          6.330820404995          7.320803082813          1.472638026260
      0.7868272350D+01 -0.1193324198D+00  0.6899906659D-01
      0.1881288540D+01 -0.1608541517D+00  0.3164239610D+00
      0.5442492580D+00  0.1143456438D+01  0.7443082909D+00
 Atom C22      Shell    65 SP   1    bf  178 -   181          6.330820404995          7.320803082813          1.472638026260
      0.1687144782D+00  0.1000000000D+01  0.1000000000D+01
 Atom C22      Shell    66 D   1     bf  182 -   187          6.330820404995          7.320803082813          1.472638026260
      0.8000000000D+00  0.1000000000D+01
 Atom H23      Shell    67 S   3     bf  188 -   188          6.363700184618          7.410569023653          3.540486305130
      0.1873113696D+02  0.3349460434D-01
      0.2825394365D+01  0.2347269535D+00
      0.6401216923D+00  0.8137573261D+00
 Atom H23      Shell    68 S   1     bf  189 -   189          6.363700184618          7.410569023653          3.540486305130
      0.1612777588D+00  0.1000000000D+01
 Atom H24      Shell    69 S   3     bf  190 -   190          4.336459455830          7.427958888240          0.927800993751
      0.1873113696D+02  0.3349460434D-01
      0.2825394365D+01  0.2347269535D+00
      0.6401216923D+00  0.8137573261D+00
 Atom H24      Shell    70 S   1     bf  191 -   191          4.336459455830          7.427958888240          0.927800993751
      0.1612777588D+00  0.1000000000D+01
 Atom C25      Shell    71 S   6     bf  192 -   192          7.697012822704          9.664706712572          0.414512617776
      0.3047524880D+04  0.1834737132D-02
      0.4573695180D+03  0.1403732281D-01
      0.1039486850D+03  0.6884262226D-01
      0.2921015530D+02  0.2321844432D+00
      0.9286662960D+01  0.4679413484D+00
      0.3163926960D+01  0.3623119853D+00
 Atom C25      Shell    72 SP   3    bf  193 -   196          7.697012822704          9.664706712572          0.414512617776
      0.7868272350D+01 -0.1193324198D+00  0.6899906659D-01
      0.1881288540D+01 -0.1608541517D+00  0.3164239610D+00
      0.5442492580D+00  0.1143456438D+01  0.7443082909D+00
 Atom C25      Shell    73 SP   1    bf  197 -   200          7.697012822704          9.664706712572          0.414512617776
      0.1687144782D+00  0.1000000000D+01  0.1000000000D+01
 Atom C25      Shell    74 D   1     bf  201 -   206          7.697012822704          9.664706712572          0.414512617776
      0.8000000000D+00  0.1000000000D+01
 Atom H26      Shell    75 S   3     bf  207 -   207          7.433968236240          9.744673308474         -1.645398565671
      0.1873113696D+02  0.3349460434D-01
      0.2825394365D+01  0.2347269535D+00
      0.6401216923D+00  0.8137573261D+00
 Atom H26      Shell    76 S   1     bf  208 -   208          7.433968236240          9.744673308474         -1.645398565671
      0.1612777588D+00  0.1000000000D+01
 Atom H27      Shell    77 S   3     bf  209 -   209          6.788382306887         11.354093983014          1.187167568448
      0.1873113696D+02  0.3349460434D-01
      0.2825394365D+01  0.2347269535D+00
      0.6401216923D+00  0.8137573261D+00
 Atom H27      Shell    78 S   1     bf  210 -   210          6.788382306887         11.354093983014          1.187167568448
      0.1612777588D+00  0.1000000000D+01
 Atom C28      Shell    79 S   6     bf  211 -   211         10.553111243925          9.611824276319          0.988200514896
      0.3047524880D+04  0.1834737132D-02
      0.4573695180D+03  0.1403732281D-01
      0.1039486850D+03  0.6884262226D-01
      0.2921015530D+02  0.2321844432D+00
      0.9286662960D+01  0.4679413484D+00
      0.3163926960D+01  0.3623119853D+00
 Atom C28      Shell    80 SP   3    bf  212 -   215         10.553111243925          9.611824276319          0.988200514896
      0.7868272350D+01 -0.1193324198D+00  0.6899906659D-01
      0.1881288540D+01 -0.1608541517D+00  0.3164239610D+00
      0.5442492580D+00  0.1143456438D+01  0.7443082909D+00
 Atom C28      Shell    81 SP   1    bf  216 -   219         10.553111243925          9.611824276319          0.988200514896
      0.1687144782D+00  0.1000000000D+01  0.1000000000D+01
 Atom C28      Shell    82 D   1     bf  220 -   225         10.553111243925          9.611824276319          0.988200514896
      0.8000000000D+00  0.1000000000D+01
 Atom C29      Shell    83 S   6     bf  226 -   226         11.584486237293          7.080565714430         -0.099366316513
      0.3047524880D+04  0.1834737132D-02
      0.4573695180D+03  0.1403732281D-01
      0.1039486850D+03  0.6884262226D-01
      0.2921015530D+02  0.2321844432D+00
      0.9286662960D+01  0.4679413484D+00
      0.3163926960D+01  0.3623119853D+00
 Atom C29      Shell    84 SP   3    bf  227 -   230         11.584486237293          7.080565714430         -0.099366316513
      0.7868272350D+01 -0.1193324198D+00  0.6899906659D-01
      0.1881288540D+01 -0.1608541517D+00  0.3164239610D+00
      0.5442492580D+00  0.1143456438D+01  0.7443082909D+00
 Atom C29      Shell    85 SP   1    bf  231 -   234         11.584486237293          7.080565714430         -0.099366316513
      0.1687144782D+00  0.1000000000D+01  0.1000000000D+01
 Atom C29      Shell    86 D   1     bf  235 -   240         11.584486237293          7.080565714430         -0.099366316513
      0.8000000000D+00  0.1000000000D+01
 Atom H30      Shell    87 S   3     bf  241 -   241         11.055713502077          7.105452198175         -2.118309598002
      0.1873113696D+02  0.3349460434D-01
      0.2825394365D+01  0.2347269535D+00
      0.6401216923D+00  0.8137573261D+00
 Atom H30      Shell    88 S   1     bf  242 -   242         11.055713502077          7.105452198175         -2.118309598002
      0.1612777588D+00  0.1000000000D+01
 Atom C31      Shell    89 S   6     bf  243 -   243         14.470537044487          7.390930573940          0.000000000000
      0.3047524880D+04  0.1834737132D-02
      0.4573695180D+03  0.1403732281D-01
      0.1039486850D+03  0.6884262226D-01
      0.2921015530D+02  0.2321844432D+00
      0.9286662960D+01  0.4679413484D+00
      0.3163926960D+01  0.3623119853D+00
 Atom C31      Shell    90 SP   3    bf  244 -   247         14.470537044487          7.390930573940          0.000000000000
      0.7868272350D+01 -0.1193324198D+00  0.6899906659D-01
      0.1881288540D+01 -0.1608541517D+00  0.3164239610D+00
      0.5442492580D+00  0.1143456438D+01  0.7443082909D+00
 Atom C31      Shell    91 SP   1    bf  248 -   251         14.470537044487          7.390930573940          0.000000000000
      0.1687144782D+00  0.1000000000D+01  0.1000000000D+01
 Atom C31      Shell    92 D   1     bf  252 -   257         14.470537044487          7.390930573940          0.000000000000
      0.8000000000D+00  0.1000000000D+01
 Atom H32      Shell    93 S   3     bf  258 -   258         15.446373459241          6.156735110873         -1.338067018961
      0.1873113696D+02  0.3349460434D-01
      0.2825394365D+01  0.2347269535D+00
      0.6401216923D+00  0.8137573261D+00
 Atom H32      Shell    94 S   1     bf  259 -   259         15.446373459241          6.156735110873         -1.338067018961
      0.1612777588D+00  0.1000000000D+01
 Atom H33      Shell    95 S   3     bf  260 -   260         15.194032716231          6.894600184542          1.873575361724
      0.1873113696D+02  0.3349460434D-01
      0.2825394365D+01  0.2347269535D+00
      0.6401216923D+00  0.8137573261D+00
 Atom H33      Shell    96 S   1     bf  261 -   261         15.194032716231          6.894600184542          1.873575361724
      0.1612777588D+00  0.1000000000D+01
 Atom C34      Shell    97 S   6     bf  262 -   262         14.879800456600         10.234700327384         -0.591915193843
      0.3047524880D+04  0.1834737132D-02
      0.4573695180D+03  0.1403732281D-01
      0.1039486850D+03  0.6884262226D-01
      0.2921015530D+02  0.2321844432D+00
      0.9286662960D+01  0.4679413484D+00
      0.3163926960D+01  0.3623119853D+00
 Atom C34      Shell    98 SP   3    bf  263 -   266         14.879800456600         10.234700327384         -0.591915193843
      0.7868272350D+01 -0.1193324198D+00  0.6899906659D-01
      0.1881288540D+01 -0.1608541517D+00  0.3164239610D+00
      0.5442492580D+00  0.1143456438D+01  0.7443082909D+00
 Atom C34      Shell    99 SP   1    bf  267 -   270         14.879800456600         10.234700327384         -0.591915193843
      0.1687144782D+00  0.1000000000D+01  0.1000000000D+01
 Atom C34      Shell   100 D   1     bf  271 -   276         14.879800456600         10.234700327384         -0.591915193843
      0.8000000000D+00  0.1000000000D+01
 Atom H35      Shell   101 S   3     bf  277 -   277         16.152534087352         11.100191589224          0.796050289321
      0.1873113696D+02  0.3349460434D-01
      0.2825394365D+01  0.2347269535D+00
      0.6401216923D+00  0.8137573261D+00
 Atom H35      Shell   102 S   1     bf  278 -   278         16.152534087352         11.100191589224          0.796050289321
      0.1612777588D+00  0.1000000000D+01
 Atom H36      Shell   103 S   3     bf  279 -   279         15.774201391329         10.491143722521         -2.438577378339
      0.1873113696D+02  0.3349460434D-01
      0.2825394365D+01  0.2347269535D+00
      0.6401216923D+00  0.8137573261D+00
 Atom H36      Shell   104 S   1     bf  280 -   280         15.774201391329         10.491143722521         -2.438577378339
      0.1612777588D+00  0.1000000000D+01
 Atom C37      Shell   105 S   6     bf  281 -   281         12.225749361425         11.544212885278         -0.514464087986
      0.3047524880D+04  0.1834737132D-02
      0.4573695180D+03  0.1403732281D-01
      0.1039486850D+03  0.6884262226D-01
      0.2921015530D+02  0.2321844432D+00
      0.9286662960D+01  0.4679413484D+00
      0.3163926960D+01  0.3623119853D+00
 Atom C37      Shell   106 SP   3    bf  282 -   285         12.225749361425         11.544212885278         -0.514464087986
      0.7868272350D+01 -0.1193324198D+00  0.6899906659D-01
      0.1881288540D+01 -0.1608541517D+00  0.3164239610D+00
      0.5442492580D+00  0.1143456438D+01  0.7443082909D+00
[...]
 1651 Fit      -0.003454
 1652 Fit      -0.003032
 1653 Fit      -0.002155
 1654 Fit      -0.001556
 1655 Fit      -0.001179
 1656 Fit      -0.002486
 1657 Fit      -0.001213
 1658 Fit      -0.000102
 1659 Fit       0.000542
 1660 Fit       0.000676
 1661 Fit       0.000335
 1662 Fit       0.001203
 1663 Fit       0.001908
 1664 Fit       0.002299
 1665 Fit       0.002107
 1666 Fit      -0.001969
 1667 Fit      -0.000453
 1668 Fit       0.000324
 1669 Fit      -0.001147
 1670 Fit       0.000700
 1671 Fit       0.001785
 1672 Fit       0.001689
 1673 Fit       0.000512
 1674 Fit      -0.001586
 1675 Fit       0.001794
 1676 Fit       0.000873
 1677 Fit      -0.000756
 1678 Fit      -0.000523
 1679 Fit      -0.001638
 1680 Fit      -0.000076
 1681 Fit      -0.000503
 1682 Fit       0.001685
 1683 Fit       0.001078
 1684 Fit      -0.000763
 1685 Fit      -0.001007
 1686 Fit       0.001337
 1687 Fit       0.003448
 1688 Fit      -0.002140
 1689 Fit       0.000118
 1690 Fit       0.002740
 1691 Fit      -0.000198
 1692 Fit       0.000916
 1693 Fit       0.002046
 1694 Fit       0.005020
 1695 Fit      -0.000691
 1696 Fit      -0.009339
 1697 Fit      -0.014591
 1698 Fit      -0.006625
 1699 Fit      -0.000297
 1700 Fit       0.001840
 1701 Fit       0.004156
 1702 Fit       0.003497
 1703 Fit      -0.001327
 1704 Fit      -0.004967
 1705 Fit      -0.001938
 1706 Fit       0.000925
 1707 Fit       0.006892
 1708 Fit       0.008376
 1709 Fit       0.011705
 1710 Fit       0.006376
 1711 Fit       0.009595
 1712 Fit      -0.003788
 1713 Fit       0.002715
 1714 Fit       0.007050
 1715 Fit       0.011704
 1716 Fit      -0.009475
 1717 Fit       0.000570
 1718 Fit       0.005929
 1719 Fit      -0.006713
 1720 Fit       0.001784
 1721 Fit       0.006794
 1722 Fit      -0.005426
 1723 Fit       0.001126
 1724 Fit       0.009499
 1725 Fit       0.016284
 1726 Fit       0.011882
 1727 Fit       0.007660
 1728 Fit       0.014356
 1729 Fit       0.010280
 1730 Fit       0.009463
 1731 Fit       0.007566
 1732 Fit       0.005981
 1733 Fit       0.005405
 1734 Fit       0.006181
 1735 Fit       0.005555
 1736 Fit       0.005291
 1737 Fit       0.005194
 1738 Fit       0.006665
 1739 Fit       0.007063
 1740 Fit       0.006178
 1741 Fit       0.005678
 1742 Fit       0.006078
 1743 Fit       0.006386
 1744 Fit       0.006354
 1745 Fit       0.008874
 1746 Fit       0.008412
 1747 Fit       0.008432
 1748 Fit       0.007829
 1749 Fit       0.007249
 1750 Fit       0.007752
 1751 Fit       0.006940
 1752 Fit       0.006353
 1753 Fit       0.006950
 1754 Fit       0.005819
 1755 Fit       0.006113
 1756 Fit      -0.000133
 1757 Fit       0.010053
 1758 Fit       0.011755
 1759 Fit       0.016519
 1760 Fit       0.008603
 1761 Fit       0.008609
 1762 Fit       0.010812
 1763 Fit       0.017696
 1764 Fit       0.006185
 1765 Fit       0.008459
 1766 Fit       0.005021
 1767 Fit       0.006356
 1768 Fit       0.004869
 1769 Fit       0.003098
 1770 Fit      -0.000052
 1771 Fit       0.005713
 1772 Fit       0.004434
 1773 Fit       0.002132
 1774 Fit      -0.002686
 1775 Fit       0.004866
 1776 Fit       0.002985
 1777 Fit      -0.001172
 1778 Fit      -0.010453
 1779 Fit       0.004330
 1780 Fit       0.001030
 1781 Fit      -0.004704
 1782 Fit       0.002589
 1783 Fit       0.015254
 1784 Fit       0.000508
 1785 Fit       0.000251
 1786 Fit       0.002172
 1787 Fit       0.002345
 1788 Fit       0.016812
 1789 Fit       0.011261
 1790 Fit       0.012730
 1791 Fit       0.008596
 1792 Fit       0.007854
 1793 Fit       0.003490
 1794 Fit      -0.001590
 1795 Fit       0.005608
 1796 Fit       0.005877
 1797 Fit       0.003604
 1798 Fit       0.002739
 1799 Fit       0.002472
 1800 Fit       0.003709
 1801 Fit      -0.001947
 1802 Fit       0.001653
 1803 Fit      -0.001789
 1804 Fit       0.002870
 1805 Fit       0.004608
 1806 Fit       0.006553
 1807 Fit       0.006024
 1808 Fit       0.004460
 1809 Fit       0.003411
 1810 Fit       0.005174
 1811 Fit       0.007651
 1812 Fit       0.006599
 1813 Fit       0.006315
 1814 Fit       0.007054
 1815 Fit       0.006371
 1816 Fit       0.006110
 1817 Fit       0.006463
 1818 Fit       0.004442
 1819 Fit       0.005198
 1820 Fit       0.004859
 1821 Fit       0.003562
 1822 Fit       0.004668
 1823 Fit       0.006584
 1824 Fit       0.007004
 1825 Fit       0.004533
 1826 Fit       0.006386
 1827 Fit       0.004215
 1828 Fit       0.006104
 1829 Fit       0.004124
 1830 Fit       0.005869
 1831 Fit       0.005659
 1832 Fit       0.000994
 1833 Fit       0.002809
 1834 Fit       0.002169
 1835 Fit       0.003089
 1836 Fit       0.004562
 1837 Fit       0.003392
 1838 Fit       0.004211
 1839 Fit       0.005391
 1840 Fit       0.005494
 1841 Fit       0.004388
 1842 Fit       0.005081
 1843 Fit       0.004205
 1844 Fit       0.004468
 1845 Fit       0.004199
 1846 Fit       0.002692
 1847 Fit       0.003449
 1848 Fit       0.004054
 1849 Fit       0.000786
 1850 Fit       0.002210
 1851 Fit       0.002174
 1852 Fit       0.002357
 1853 Fit       0.004035
 1854 Fit       0.005381
 1855 Fit       0.006216
 1856 Fit       0.004918
 1857 Fit       0.004006
 1858 Fit      -0.010492
 1859 Fit      -0.016114
 1860 Fit      -0.009342
 1861 Fit       0.000179
 1862 Fit      -0.017869
 1863 Fit      -0.008568
 1864 Fit      -0.017414
 1865 Fit      -0.011497
 1866 Fit      -0.005250
 1867 Fit      -0.007720
 1868 Fit      -0.006761
 1869 Fit      -0.002616
 1870 Fit      -0.002241
 1871 Fit      -0.000390
 1872 Fit      -0.009788
 1873 Fit      -0.010179
 1874 Fit      -0.004982
 1875 Fit      -0.019105
 1876 Fit      -0.011226
 1877 Fit      -0.018448
 1878 Fit      -0.008978
 1879 Fit      -0.005286
 1880 Fit      -0.002915
 1881 Fit      -0.007693
 1882 Fit      -0.001214
 1883 Fit       0.000453
 1884 Fit      -0.002409
 1885 Fit      -0.000438
 1886 Fit       0.000645
 1887 Fit      -0.005344
 1888 Fit      -0.003440
 1889 Fit      -0.001309
 1890 Fit      -0.000166
 1891 Fit      -0.006611
 1892 Fit      -0.004406
 1893 Fit      -0.001898
 1894 Fit      -0.003271
 1895 Fit      -0.001562
 1896 Fit      -0.004874
 1897 Fit      -0.001486
 1898 Fit      -0.000785
 1899 Fit      -0.002345
 1900 Fit      -0.000408
 1901 Fit      -0.000545
 1902 Fit      -0.000630
 1903 Fit       0.000443
 1904 Fit       0.000257
 1905 Fit      -0.000529
 1906 Fit       0.000090
 1907 Fit       0.003024
 1908 Fit       0.000205
 1909 Fit       0.001982
 1910 Fit       0.002942
 1911 Fit       0.003113
 1912 Fit       0.001523
 1913 Fit       0.001736
 1914 Fit      -0.002323
 1915 Fit      -0.003533
 1916 Fit      -0.002466
 1917 Fit      -0.001196
 1918 Fit      -0.000475
 1919 Fit      -0.003441
 1920 Fit      -0.001718
 1921 Fit       0.001159
 1922 Fit       0.003100
 1923 Fit      -0.012333
 1924 Fit      -0.000956
 1925 Fit       0.001725
 1926 Fit       0.001497
 1927 Fit      -0.002086
 1928 Fit       0.003263
 1929 Fit      -0.005150
 1930 Fit      -0.003207
 1931 Fit      -0.002545
 1932 Fit      -0.005359
 1933 Fit      -0.002525
 1934 Fit      -0.001070
 1935 Fit      -0.001227
 1936 Fit      -0.009864
 1937 Fit      -0.005931
 1938 Fit      -0.002087
 1939 Fit       0.000081
 1940 Fit      -0.000750
 1941 Fit       0.000818
 1942 Fit       0.000619
 1943 Fit      -0.000007
 1944 Fit       0.001439
 1945 Fit       0.002671
 1946 Fit       0.002757
 1947 Fit      -0.000723
 1948 Fit       0.000004
 1949 Fit       0.000095
 1950 Fit      -0.000136
 1951 Fit       0.000542
 1952 Fit      -0.000886
 1953 Fit      -0.000525
 1954 Fit       0.000000
 1955 Fit      -0.000304
 1956 Fit      -0.000547
 1957 Fit      -0.001023
 1958 Fit      -0.000032
 1959 Fit      -0.000952
 1960 Fit      -0.001264
 1961 Fit      -0.000597
 1962 Fit      -0.001031
 1963 Fit      -0.000623
 1964 Fit      -0.000876
 1965 Fit      -0.000065
 1966 Fit       0.000576
 1967 Fit      -0.000203
 1968 Fit       0.000521
 1969 Fit       0.001335
 1970 Fit       0.001765
 1971 Fit       0.001429
 1972 Fit       0.002202
 1973 Fit       0.002682
 1974 Fit       0.002197
 1975 Fit       0.000019
 1976 Fit       0.000078
 1977 Fit       0.001526
 1978 Fit       0.001704
 1979 Fit       0.000539
 1980 Fit       0.002443
 1981 Fit       0.000798
 1982 Fit       0.002067
 1983 Fit       0.000285
 1984 Fit       0.001433
 1985 Fit       0.003643
 1986 Fit       0.000544
 1987 Fit       0.002672
 1988 Fit       0.004828
 1989 Fit       0.000834
 1990 Fit       0.003332
 1991 Fit       0.003145
 1992 Fit       0.002371
 1993 Fit       0.003676
 1994 Fit       0.004656
 1995 Fit       0.005400
 1996 Fit       0.003574
 1997 Fit       0.002993
 1998 Fit       0.007280
 1999 Fit       0.005234
 2000 Fit       0.009344
 2001 Fit       0.003722
 2002 Fit       0.003884
 2003 Fit       0.005361
 2004 Fit       0.005596
 2005 Fit       0.005394
 2006 Fit       0.006329
 2007 Fit       0.006930
 2008 Fit       0.007122
 2009 Fit       0.007181
 2010 Fit       0.007723
 2011 Fit       0.008410
 2012 Fit       0.008466
 2013 Fit       0.007416
 2014 Fit       0.009250
 2015 Fit       0.006955
 2016 Fit       0.011603
 2017 Fit       0.014524
 2018 Fit       0.013871
 2019 Fit       0.009982
 2020 Fit       0.002029
 2021 Fit       0.000322
 2022 Fit       0.001523
 2023 Fit       0.002006
 2024 Fit      -0.005383
 2025 Fit      -0.001669
 2026 Fit       0.002772
 2027 Fit      -0.001560
 2028 Fit      -0.022652
 2029 Fit      -0.025081
 2030 Fit      -0.007334
 2031 Fit      -0.016891
 2032 Fit      -0.020272
 2033 Fit      -0.002075
 2034 Fit      -0.010494
 2035 Fit      -0.016824
 2036 Fit      -0.015310
 2037 Fit      -0.008352
 2038 Fit      -0.013574
 2039 Fit      -0.007505
 2040 Fit      -0.004769
 2041 Fit      -0.007500
 2042 Fit      -0.010274
 2043 Fit      -0.014671
 2044 Fit      -0.011252
 2045 Fit      -0.005280
 2046 Fit       0.001161
 2047 Fit      -0.000337
 2048 Fit      -0.013630
 2049 Fit      -0.019016
 2050 Fit      -0.019183
 2051 Fit      -0.015999
 2052 Fit       0.001550
 2053 Fit      -0.003158
 2054 Fit      -0.016863
 2055 Fit      -0.022405
 2056 Fit      -0.021935
 2057 Fit      -0.005708
 2058 Fit      -0.020017
 2059 Fit      -0.025641
 2060 Fit      -0.009402
 2061 Fit       0.010991
 2062 Fit       0.009934
 2063 Fit       0.014382
 2064 Fit       0.017423
 2065 Fit       0.015360
 2066 Fit       0.008207
 2067 Fit       0.015890
 2068 Fit       0.019563
 2069 Fit       0.018735
 2070 Fit       0.014158
 2071 Fit       0.005511
 2072 Fit       0.019437
 2073 Fit       0.017723
 2074 Fit       0.012314
 2075 Fit       0.002759
 2076 Fit       0.010382
 2077 Fit       0.000794
 2078 Fit       0.000091
 2079 Fit      -0.001603
 2080 Fit      -0.002765
 2081 Fit      -0.001680
 2082 Fit      -0.009685
 2083 Fit      -0.012168
 2084 Fit      -0.012816
 2085 Fit      -0.013098
 2086 Fit      -0.013691
 2087 Fit      -0.014208
 2088 Fit      -0.013307
 2089 Fit      -0.015252
 2090 Fit      -0.019480
 2091 Fit      -0.020978
 2092 Fit      -0.021484
 2093 Fit      -0.021543
 2094 Fit      -0.020294
 2095 Fit      -0.015812
 2096 Fit      -0.012476
 2097 Fit      -0.019841
 2098 Fit      -0.023329
 2099 Fit      -0.024336
 2100 Fit      -0.023556
 2101 Fit      -0.020113
 2102 Fit      -0.012759
 2103 Fit      -0.017917
 2104 Fit      -0.021547
 2105 Fit      -0.017999
 2106 Fit       0.023914
 2107 Fit       0.021045
 2108 Fit       0.020054
 2109 Fit       0.020619
 2110 Fit       0.015760
 2111 Fit       0.014672
 2112 Fit       0.014170
 2113 Fit       0.013731
 2114 Fit       0.013755
 2115 Fit       0.005255
 2116 Fit       0.004960
 2117 Fit       0.004717
 2118 Fit       0.003989
 2119 Fit       0.003037
 2120 Fit      -0.000349
 2121 Fit      -0.000060
 2122 Fit      -0.001389
 2123 Fit      -0.002422
 2124 Fit      -0.000163
 2125 Fit       0.000885
 2126 Fit       0.001448
 2127 Fit       0.002065
 2128 Fit      -0.001839
 2129 Fit       0.000868
 2130 Fit       0.001276
 2131 Fit       0.000686
 2132 Fit      -0.000971
 2133 Fit       0.000111
 2134 Fit       0.001147
 2135 Fit       0.001314
 2136 Fit      -0.000087
 2137 Fit       0.000348
 2138 Fit       0.000739
 2139 Fit       0.000323
 2140 Fit      -0.000300
 2141 Fit      -0.000446
 2142 Fit       0.000698
 2143 Fit       0.000694
 2144 Fit      -0.000706
 2145 Fit       0.000495
 2146 Fit       0.000254
 2147 Fit       0.000086
 2148 Fit      -0.000033
 2149 Fit       0.000390
 2150 Fit       0.001827
 2151 Fit       0.001203
 2152 Fit       0.000965
 2153 Fit      -0.001526
 2154 Fit       0.001244
 2155 Fit       0.000897
 2156 Fit      -0.000305
 2157 Fit      -0.001691
 2158 Fit       0.000035
 2159 Fit       0.000109
 2160 Fit       0.000026
 2161 Fit       0.000097
 2162 Fit       0.000518
 2163 Fit      -0.000058
 2164 Fit       0.000440
 2165 Fit      -0.001221
 2166 Fit      -0.000707
 2167 Fit      -0.002826
 2168 Fit      -0.002541
 2169 Fit       0.000278
 2170 Fit       0.000428
 2171 Fit       0.000034
 2172 Fit      -0.000631
 2173 Fit      -0.000408
 2174 Fit       0.000680
 2175 Fit      -0.000028
 2176 Fit      -0.000163
 2177 Fit      -0.000182
 2178 Fit       0.000585
 2179 Fit       0.000248
 2180 Fit      -0.001102
 2181 Fit      -0.000072
 2182 Fit      -0.000364
 2183 Fit      -0.001605
 2184 Fit      -0.002050
 2185 Fit      -0.002709
 2186 Fit      -0.002268
 2187 Fit      -0.003132
 2188 Fit      -0.002808
 2189 Fit      -0.002506
 2190 Fit      -0.002424
 2191 Fit      -0.003061
 2192 Fit      -0.003071
 2193 Fit      -0.003270
 2194 Fit      -0.002813
 2195 Fit      -0.002135
 2196 Fit      -0.002655
 2197 Fit      -0.001814
 2198 Fit      -0.000829
 2199 Fit       0.000346
 2200 Fit       0.001516
 2201 Fit      -0.002383
 2202 Fit      -0.001474
 2203 Fit      -0.000712
 2204 Fit       0.000418
 2205 Fit       0.000955
 2206 Fit      -0.000114
 2207 Fit      -0.001331
 2208 Fit      -0.000034
 2209 Fit      -0.000669
 2210 Fit       0.000619
 2211 Fit      -0.001278
 2212 Fit       0.000218
 2213 Fit       0.001237
 2214 Fit       0.001965
 2215 Fit      -0.001948
 2216 Fit      -0.000483
 2217 Fit       0.000620
 2218 Fit       0.001088
 2219 Fit       0.001156
 2220 Fit      -0.001401
 2221 Fit      -0.000393
 2222 Fit      -0.000117
 2223 Fit      -0.000644
 2224 Fit      -0.002478
 2225 Fit      -0.001820
 2226 Fit      -0.002143
 2227 Fit      -0.001258
 2228 Fit       0.000376
 2229 Fit      -0.000138
 2230 Fit      -0.000919
 2231 Fit       0.000763
 2232 Fit       0.000203
 2233 Fit      -0.000994
 2234 Fit      -0.002509
 2235 Fit       0.000502
 2236 Fit       0.000081
 2237 Fit      -0.001645
 2238 Fit      -0.000792
 2239 Fit      -0.000714
 2240 Fit      -0.002712
 2241 Fit      -0.002332
 2242 Fit      -0.001190
 2243 Fit      -0.001395
 2244 Fit      -0.001504
 2245 Fit      -0.001623
 2246 Fit      -0.001958
 2247 Fit      -0.002425
 2248 Fit      -0.002088
 2249 Fit      -0.002174
 2250 Fit      -0.002481
 2251 Fit      -0.002128
 2252 Fit      -0.001481
 2253 Fit      -0.000467
 2254 Fit      -0.002260
 2255 Fit      -0.002276
 2256 Fit      -0.001976
 2257 Fit      -0.001284
 2258 Fit      -0.000725
 2259 Fit      -0.000387
 2260 Fit      -0.000234
 2261 Fit      -0.001534
 2262 Fit      -0.000639
 2263 Fit       0.000160
 2264 Fit       0.000679
 2265 Fit       0.000883
 2266 Fit       0.000488
 2267 Fit       0.000950
 2268 Fit       0.001507
 2269 Fit       0.001928
 2270 Fit       0.001672
 2271 Fit      -0.000551
 2272 Fit      -0.000098
 2273 Fit      -0.001067
 2274 Fit       0.000221
 2275 Fit       0.001020
 2276 Fit       0.000969
 2277 Fit       0.000119
 2278 Fit      -0.001312
 2279 Fit       0.001552
 2280 Fit       0.000954
 2281 Fit      -0.000089
 2282 Fit      -0.001541
 2283 Fit       0.000942
 2284 Fit       0.000179
 2285 Fit      -0.000841
 2286 Fit      -0.001332
 2287 Fit      -0.001932
 2288 Fit      -0.000170
 2289 Fit      -0.000402
 2290 Fit       0.001052
 2291 Fit       0.000611
 2292 Fit      -0.000568
 2293 Fit      -0.000611
 2294 Fit       0.001071
 2295 Fit       0.002494
 2296 Fit      -0.000131
 2297 Fit       0.001632
 2298 Fit       0.000262
 -----------------------------------------------------------------
 Leave Link  602 at Thu Apr 27 15:12:04 2017, MaxMem=    33554432 cpu:         3.9
 (Enter /home/michal/g09/l9999.exe)

 Test job not archived.
 1\1\GINC-LINUX\SP\RHF\6-31G(d)\C27H46O3\MICHAL\27-Apr-2017\0\\#P HF/6-
 31G* SCF(Conver=6) NoSymm Test Pop=mk IOp(6/33=2) GFInput GFPrint\\MEP
  - Input generated by R.E.D.-III.x MOLECULE\\0,1\C,0,1.7585311,-1.2485
 4185,-0.06869476\H,0,1.87143556,-1.12845234,-1.15312218\C,0,3.15085417
 ,-1.30874403,0.57557973\H,0,3.72767287,-2.12863131,0.13604297\H,0,3.01
 299202,-1.55442238,1.641151\C,0,3.91416193,-0.00370709,0.45374457\C,0,
 3.1905743,1.27882422,0.87866776\C,0,1.74856558,1.25417144,0.28220354\H
 ,0,1.81946755,1.44389611,-0.79786485\H,0,1.16675712,2.08018082,0.70419
 347\C,0,0.97870567,-0.05915108,0.48957117\H,0,0.78595044,-0.22770174,1
 .55956925\H,0,0.,0.,0.\C,0,5.17480602,0.,0.\H,0,5.63511292,-0.93677302
 ,-0.31602486\C,0,6.05924902,1.20707396,-0.10918762\H,0,6.2898151,1.396
 44294,-1.17025646\C,0,5.48256878,2.47869772,0.53155854\H,0,5.692917,2.
 41380837,1.60464621\C,0,3.94582087,2.52884459,0.30555566\H,0,3.7987748
 1,2.48538797,-0.78648388\C,0,3.35012587,3.87400214,0.77928648\H,0,3.36
 75251,3.92150423,1.87354466\H,0,2.29475551,3.93070655,0.49097114\C,0,4
 .07308376,5.11434252,0.21935063\H,0,3.93388656,5.15665902,-0.87070742\
 H,0,3.5922572,6.00832776,0.62822202\C,0,5.58446595,5.08635834,0.522933
 19\C,0,6.13024609,3.746874,-0.05258239\H,0,5.85043161,3.76004336,-1.12
 096116\C,0,7.6574784,3.91111201,0.\H,0,8.17386879,3.2580039,-0.7080745
 7\H,0,8.04033582,3.64846528,0.99145338\C,0,7.87405127,5.41597015,-0.31
 322803\H,0,8.5475529,5.8739684,0.42125167\H,0,8.34734786,5.55167415,-1
 .29043957\C,0,6.46958792,6.10893435,-0.27224267\H,0,6.06785116,6.12440
 705,-1.29820351\C,0,5.84156717,5.22104982,2.04166936\H,0,5.40919383,4.
 39550057,2.61261844\H,0,6.91004687,5.24645363,2.27429789\H,0,5.4013318
 4,6.14635349,2.42762549\C,0,6.54662879,7.58556383,0.19693525\H,0,7.011
 77727,7.59597637,1.1945356\C,0,5.1689858,8.26302526,0.30734399\H,0,4.6
 2125027,8.19310201,-0.64095789\H,0,5.26776423,9.3242601,0.55433462\H,0
 ,4.54788615,7.81315013,1.08505664\C,0,3.11498272,1.31018624,2.42844778
 \H,0,2.48165034,2.13095697,2.77893287\H,0,2.69157714,0.38429781,2.8273
 5379\H,0,4.10893433,1.42720661,2.86974984\O,0,7.3939094,0.89676057,0.3
 6594793\O,0,7.34203643,0.6348017,1.79944464\H,0,7.38676266,-0.33532905
 ,1.81218598\O,0,1.05421667,-2.48479096,0.07455856\H,0,0.89091407,-2.64
 147662,1.01529183\C,0,7.46961683,8.39838867,-0.74548008\H,0,8.3875788,
 7.83057724,-0.9338274\H,0,6.97164231,8.50279013,-1.7219198\C,0,7.87798
 026,9.78890349,-0.23247342\H,0,6.98992783,10.41312365,-0.08446897\H,0,
 8.34904739,9.68209,0.75622154\C,0,8.8546442,10.50318788,-1.17907952\H,
 0,8.37262751,10.64722131,-2.15839225\H,0,9.71399895,9.84152383,-1.3592
 9432\C,0,9.38503968,11.86365234,-0.68228817\H,0,9.82580518,11.70425858
 ,0.31408647\C,0,10.49808568,12.37858809,-1.6088162\H,0,10.11328422,12.
 55304753,-2.62189151\H,0,10.91340467,13.32520364,-1.24457976\H,0,11.32
 050381,11.65808873,-1.68498578\C,0,8.27359041,12.91668768,-0.54263808\
 H,0,7.78171346,13.09235015,-1.50836337\H,0,8.6826609,13.87422385,-0.20
 05454\H,0,7.50402255,12.61310822,0.1740417\\Version=EM64L-G09RevD.01\H
 F=-1273.6849483\RMSD=5.191e-07\Dipole=-0.5450461,0.0150023,0.440198\Qu
 adrupole=-10.2680335,2.4837087,7.7843247,-7.5814806,-1.0711814,-4.1437
 215\PG=C01 [X(C27H46O3)]\\@


 PATIENCE IS THE ABILITY TO IDLE YOUR MOTOR WHEN
 YOU FEEL LIKE STRIPPING YOUR GEARS.
 Job cpu time:       0 days  0 hours 11 minutes 20.9 seconds.
 File lengths (MBytes):  RWF=    159 Int=      0 D2E=      0 Chk=     11 Scr=      1
 Normal termination of Gaussian 09 at Thu Apr 27 15:12:04 2017.
