 Entering Gaussian System, Link 0=/home/michal/g09/g09
 Input=JOB2-gau_m1-19-1.com
 Output=JOB2-gau_m1-19-1.log
 Initial command:
 /home/michal/g09/l1.exe "/home/michal/gauss_scratch/Gau-3623.inp" -scrdir="/home/michal/gauss_scratch/"
 Entering Link 1 = /home/michal/g09/l1.exe PID=      3624.
  
 Copyright (c) 1988,1990,1992,1993,1995,1998,2003,2009,2013,
            Gaussian, Inc.  All Rights Reserved.
  
 This is part of the Gaussian(R) 09 program.  It is based on
 the Gaussian(R) 03 system (copyright 2003, Gaussian, Inc.),
 the Gaussian(R) 98 system (copyright 1998, Gaussian, Inc.),
 the Gaussian(R) 94 system (copyright 1995, Gaussian, Inc.),
 the Gaussian 92(TM) system (copyright 1992, Gaussian, Inc.),
 the Gaussian 90(TM) system (copyright 1990, Gaussian, Inc.),
 the Gaussian 88(TM) system (copyright 1988, Gaussian, Inc.),
 the Gaussian 86(TM) system (copyright 1986, Carnegie Mellon
 University), and the Gaussian 82(TM) system (copyright 1983,
 Carnegie Mellon University). Gaussian is a federally registered
 trademark of Gaussian, Inc.
  
 This software contains proprietary and confidential information,
 including trade secrets, belonging to Gaussian, Inc.
  
 This software is provided under written license and may be
 used, copied, transmitted, or stored only in accord with that
 written license.
  
 The following legend is applicable only to US Government
 contracts under FAR:
  
                    RESTRICTED RIGHTS LEGEND
  
 Use, reproduction and disclosure by the US Government is
 subject to restrictions as set forth in subparagraphs (a)
 and (c) of the Commercial Computer Software - Restricted
 Rights clause in FAR 52.227-19.
  
 Gaussian, Inc.
 340 Quinnipiac St., Bldg. 40, Wallingford CT 06492
  
  
 ---------------------------------------------------------------
 Warning -- This program may not be used in any manner that
 competes with the business of Gaussian, Inc. or will provide
 assistance to any competitor of Gaussian, Inc.  The licensee
 of this program is prohibited from giving any competitor of
 Gaussian, Inc. access to this program.  By using this program,
 the user acknowledges that Gaussian, Inc. is engaged in the
 business of creating and licensing software in the field of
 computational chemistry and represents and warrants to the
 licensee that it is not a competitor of Gaussian, Inc. and that
 it will not use this program in any manner prohibited above.
 ---------------------------------------------------------------
  

 Cite this work as:
 Gaussian 09, Revision D.01,
 M. J. Frisch, G. W. Trucks, H. B. Schlegel, G. E. Scuseria, 
 M. A. Robb, J. R. Cheeseman, G. Scalmani, V. Barone, B. Mennucci, 
 G. A. Petersson, H. Nakatsuji, M. Caricato, X. Li, H. P. Hratchian, 
 A. F. Izmaylov, J. Bloino, G. Zheng, J. L. Sonnenberg, M. Hada, 
 M. Ehara, K. Toyota, R. Fukuda, J. Hasegawa, M. Ishida, T. Nakajima, 
 Y. Honda, O. Kitao, H. Nakai, T. Vreven, J. A. Montgomery, Jr., 
 J. E. Peralta, F. Ogliaro, M. Bearpark, J. J. Heyd, E. Brothers, 
 K. N. Kudin, V. N. Staroverov, T. Keith, R. Kobayashi, J. Normand, 
 K. Raghavachari, A. Rendell, J. C. Burant, S. S. Iyengar, J. Tomasi, 
 M. Cossi, N. Rega, J. M. Millam, M. Klene, J. E. Knox, J. B. Cross, 
 V. Bakken, C. Adamo, J. Jaramillo, R. Gomperts, R. E. Stratmann, 
 O. Yazyev, A. J. Austin, R. Cammi, C. Pomelli, J. W. Ochterski, 
 R. L. Martin, K. Morokuma, V. G. Zakrzewski, G. A. Voth, 
 P. Salvador, J. J. Dannenberg, S. Dapprich, A. D. Daniels, 
 O. Farkas, J. B. Foresman, J. V. Ortiz, J. Cioslowski, 
 and D. J. Fox, Gaussian, Inc., Wallingford CT, 2013.
 
 ******************************************
 Gaussian 09:  EM64L-G09RevD.01 24-Apr-2013
                27-Apr-2017 
 ******************************************
 %Mem=256MB
 %NProc=12
 Will use up to   12 processors via shared memory.
 ----------------------------------------------------------------------
 #P HF/6-31G* SCF(Conver=6) NoSymm Test Pop=mk IOp(6/33=2) GFInput GFPr
 int
 ----------------------------------------------------------------------
 1/38=1/1;
 2/12=2,15=1,17=6,18=5,40=1/2;
 3/5=1,6=6,7=1,11=9,16=1,24=110,25=1,30=1/1,2,3;
 4//1;
 5/5=2,6=6,38=5/2;
 6/7=2,8=2,9=2,10=2,15=8,20=1,28=1,33=2/1,2;
 99/5=1,9=1/99;
 Leave Link    1 at Thu Apr 27 16:11:57 2017, MaxMem=    33554432 cpu:         0.6
 (Enter /home/michal/g09/l101.exe)
 ----------------------------------------------
 MEP - Input generated by R.E.D.-III.x MOLECULE
 ----------------------------------------------
 Symbolic Z-matrix:
 Charge =  0 Multiplicity = 1
 C                     1.75947  -1.2478   -0.07053 
 H                     1.87311  -1.12271  -1.15435 
 C                     3.15098  -1.31101   0.57424 
 H                     3.72954  -2.12713   0.13085 
 H                     3.01404  -1.56313   1.63859 
 C                     3.91289  -0.00426   0.45617 
 C                     3.18708   1.27176   0.89431 
 C                     1.74689   1.25415   0.29362 
 H                     1.82169   1.44983  -0.78516 
 H                     1.163     2.07732   0.71879 
 C                     0.97754  -0.06099   0.49172 
 H                     0.78177  -0.23518   1.56015 
 H                     0.        0.        0. 
 C                     5.17229   0.        0. 
 H                     5.63831  -0.93372  -0.30678 
 C                     6.05789   1.20721  -0.09644 
 H                     6.3116    1.4075   -1.14906 
 C                     5.48156   2.47368   0.55777 
 H                     5.6975    2.40246   1.63191 
 C                     3.94288   2.52793   0.34055 
 H                     3.79444   2.50375  -0.7514 
 C                     3.3546    3.86696   0.84159 
 H                     3.38196   3.89577   1.93621 
 H                     2.29659   3.92756   0.56463 
 C                     4.07144   5.11688   0.29529 
 H                     3.91767   5.17964  -0.79174 
 H                     3.59937   6.00484   0.72763 
 C                     5.5861    5.08183   0.57868 
 C                     6.12177   3.74924  -0.02067 
 H                     5.82105   3.77345  -1.08218 
 C                     7.65072   3.91265   0. 
 H                     8.14342   3.28454  -0.74876 
 H                     8.0599    3.61732   0.97131 
 C                     7.86637   5.42724  -0.26898 
 H                     8.52762   5.86257   0.48944 
 H                     8.35182   5.60105  -1.23472 
 C                     6.46065   6.10948  -0.22012 
 H                     6.05041   6.1165   -1.24086 
 C                     5.86128   5.20137   2.09493 
 H                     5.42344   4.37773   2.66442 
 H                     6.93228   5.21242   2.31814 
 H                     5.43539   6.1291    2.49145 
 C                     6.53352   7.58156   0.2566 
 H                     6.9541    7.57549   1.27279 
 C                     5.16283   8.28005   0.3346 
 H                     4.59768   8.17972  -0.59874 
 H                     5.29025   9.35113   0.53141 
 H                     4.5426    7.87536   1.13833 
 C                     3.10509   1.28639   2.44427 
 H                     2.46269   2.09687   2.80255 
 H                     2.69042   0.35195   2.83118 
 H                     4.09583   1.40706   2.89243 
 O                     7.30381   0.95905   0.60279 
 O                     8.03574  -0.06259  -0.13938 
 H                     8.80034   0.45637  -0.43871 
 O                     1.05233  -2.48362   0.06619 
 H                     0.92111  -2.66254   1.00797 
 C                     7.52129   8.42423  -0.59457 
 H                     7.58574   9.42108  -0.13538 
 H                     8.52813   7.9957   -0.51513 
 C                     7.17543   8.59718  -2.08272 
 H                     7.15346   7.6175   -2.57978 
 H                     6.16656   9.01496  -2.18023 
 C                     8.18214   9.49895  -2.81356 
 H                     9.19412   9.10568  -2.63942 
 H                     8.16598   10.50282  -2.36196 
 C                     7.96886   9.63491  -4.33499 
 H                     7.95468   8.61922  -4.7602 
 C                     6.63341   10.31086  -4.68607 
 H                     6.58563   11.32109  -4.25885 
 H                     6.51572   10.40459  -5.77167 
 H                     5.77367   9.74787  -4.30931 
 C                     9.14041   10.3942  -4.97783 
 H                     9.2037    11.41793  -4.58706 
 H                     9.02262   10.46146  -6.06538 
 H                     10.09742   9.90053  -4.77355 
 
 NAtoms=     76 NQM=       76 NQMF=       0 NMMI=      0 NMMIF=      0
                NMic=       0 NMicF=      0.
                    Isotopes and Nuclear Properties:
 (Nuclear quadrupole moments (NQMom) in fm**2, nuclear magnetic moments (NMagM)
  in nuclear magnetons)

  Atom         1           2           3           4           5           6           7           8           9          10
 IAtWgt=          12           1          12           1           1          12          12          12           1           1
 AtmWgt=  12.0000000   1.0078250  12.0000000   1.0078250   1.0078250  12.0000000  12.0000000  12.0000000   1.0078250   1.0078250
 NucSpn=           0           1           0           1           1           0           0           0           1           1
 AtZEff=   0.0000000   0.0000000   0.0000000   0.0000000   0.0000000   0.0000000   0.0000000   0.0000000   0.0000000   0.0000000
 NQMom=    0.0000000   0.0000000   0.0000000   0.0000000   0.0000000   0.0000000   0.0000000   0.0000000   0.0000000   0.0000000
 NMagM=    0.0000000   2.7928460   0.0000000   2.7928460   2.7928460   0.0000000   0.0000000   0.0000000   2.7928460   2.7928460
 AtZNuc=   6.0000000   1.0000000   6.0000000   1.0000000   1.0000000   6.0000000   6.0000000   6.0000000   1.0000000   1.0000000

  Atom        11          12          13          14          15          16          17          18          19          20
 IAtWgt=          12           1           1          12           1          12           1          12           1          12
 AtmWgt=  12.0000000   1.0078250   1.0078250  12.0000000   1.0078250  12.0000000   1.0078250  12.0000000   1.0078250  12.0000000
 NucSpn=           0           1           1           0           1           0           1           0           1           0
 AtZEff=   0.0000000   0.0000000   0.0000000   0.0000000   0.0000000   0.0000000   0.0000000   0.0000000   0.0000000   0.0000000
 NQMom=    0.0000000   0.0000000   0.0000000   0.0000000   0.0000000   0.0000000   0.0000000   0.0000000   0.0000000   0.0000000
 NMagM=    0.0000000   2.7928460   2.7928460   0.0000000   2.7928460   0.0000000   2.7928460   0.0000000   2.7928460   0.0000000
 AtZNuc=   6.0000000   1.0000000   1.0000000   6.0000000   1.0000000   6.0000000   1.0000000   6.0000000   1.0000000   6.0000000

  Atom        21          22          23          24          25          26          27          28          29          30
 IAtWgt=           1          12           1           1          12           1           1          12          12           1
 AtmWgt=   1.0078250  12.0000000   1.0078250   1.0078250  12.0000000   1.0078250   1.0078250  12.0000000  12.0000000   1.0078250
 NucSpn=           1           0           1           1           0           1           1           0           0           1
 AtZEff=   0.0000000   0.0000000   0.0000000   0.0000000   0.0000000   0.0000000   0.0000000   0.0000000   0.0000000   0.0000000
 NQMom=    0.0000000   0.0000000   0.0000000   0.0000000   0.0000000   0.0000000   0.0000000   0.0000000   0.0000000   0.0000000
 NMagM=    2.7928460   0.0000000   2.7928460   2.7928460   0.0000000   2.7928460   2.7928460   0.0000000   0.0000000   2.7928460
 AtZNuc=   1.0000000   6.0000000   1.0000000   1.0000000   6.0000000   1.0000000   1.0000000   6.0000000   6.0000000   1.0000000

  Atom        31          32          33          34          35          36          37          38          39          40
 IAtWgt=          12           1           1          12           1           1          12           1          12           1
 AtmWgt=  12.0000000   1.0078250   1.0078250  12.0000000   1.0078250   1.0078250  12.0000000   1.0078250  12.0000000   1.0078250
 NucSpn=           0           1           1           0           1           1           0           1           0           1
 AtZEff=   0.0000000   0.0000000   0.0000000   0.0000000   0.0000000   0.0000000   0.0000000   0.0000000   0.0000000   0.0000000
 NQMom=    0.0000000   0.0000000   0.0000000   0.0000000   0.0000000   0.0000000   0.0000000   0.0000000   0.0000000   0.0000000
 NMagM=    0.0000000   2.7928460   2.7928460   0.0000000   2.7928460   2.7928460   0.0000000   2.7928460   0.0000000   2.7928460
 AtZNuc=   6.0000000   1.0000000   1.0000000   6.0000000   1.0000000   1.0000000   6.0000000   1.0000000   6.0000000   1.0000000

  Atom        41          42          43          44          45          46          47          48          49          50
 IAtWgt=           1           1          12           1          12           1           1           1          12           1
 AtmWgt=   1.0078250   1.0078250  12.0000000   1.0078250  12.0000000   1.0078250   1.0078250   1.0078250  12.0000000   1.0078250
 NucSpn=           1           1           0           1           0           1           1           1           0           1
 AtZEff=   0.0000000   0.0000000   0.0000000   0.0000000   0.0000000   0.0000000   0.0000000   0.0000000   0.0000000   0.0000000
 NQMom=    0.0000000   0.0000000   0.0000000   0.0000000   0.0000000   0.0000000   0.0000000   0.0000000   0.0000000   0.0000000
 NMagM=    2.7928460   2.7928460   0.0000000   2.7928460   0.0000000   2.7928460   2.7928460   2.7928460   0.0000000   2.7928460
 AtZNuc=   1.0000000   1.0000000   6.0000000   1.0000000   6.0000000   1.0000000   1.0000000   1.0000000   6.0000000   1.0000000

  Atom        51          52          53          54          55          56          57          58          59          60
 IAtWgt=           1           1          16          16           1          16           1          12           1           1
 AtmWgt=   1.0078250   1.0078250  15.9949146  15.9949146   1.0078250  15.9949146   1.0078250  12.0000000   1.0078250   1.0078250
 NucSpn=           1           1           0           0           1           0           1           0           1           1
 AtZEff=   0.0000000   0.0000000   0.0000000   0.0000000   0.0000000   0.0000000   0.0000000   0.0000000   0.0000000   0.0000000
 NQMom=    0.0000000   0.0000000   0.0000000   0.0000000   0.0000000   0.0000000   0.0000000   0.0000000   0.0000000   0.0000000
 NMagM=    2.7928460   2.7928460   0.0000000   0.0000000   2.7928460   0.0000000   2.7928460   0.0000000   2.7928460   2.7928460
 AtZNuc=   1.0000000   1.0000000   8.0000000   8.0000000   1.0000000   8.0000000   1.0000000   6.0000000   1.0000000   1.0000000

  Atom        61          62          63          64          65          66          67          68          69          70
 IAtWgt=          12           1           1          12           1           1          12           1          12           1
 AtmWgt=  12.0000000   1.0078250   1.0078250  12.0000000   1.0078250   1.0078250  12.0000000   1.0078250  12.0000000   1.0078250
 NucSpn=           0           1           1           0           1           1           0           1           0           1
 AtZEff=   0.0000000   0.0000000   0.0000000   0.0000000   0.0000000   0.0000000   0.0000000   0.0000000   0.0000000   0.0000000
 NQMom=    0.0000000   0.0000000   0.0000000   0.0000000   0.0000000   0.0000000   0.0000000   0.0000000   0.0000000   0.0000000
 NMagM=    0.0000000   2.7928460   2.7928460   0.0000000   2.7928460   2.7928460   0.0000000   2.7928460   0.0000000   2.7928460
 AtZNuc=   6.0000000   1.0000000   1.0000000   6.0000000   1.0000000   1.0000000   6.0000000   1.0000000   6.0000000   1.0000000

  Atom        71          72          73          74          75          76
 IAtWgt=           1           1          12           1           1           1
 AtmWgt=   1.0078250   1.0078250  12.0000000   1.0078250   1.0078250   1.0078250
 NucSpn=           1           1           0           1           1           1
 AtZEff=   0.0000000   0.0000000   0.0000000   0.0000000   0.0000000   0.0000000
 NQMom=    0.0000000   0.0000000   0.0000000   0.0000000   0.0000000   0.0000000
 NMagM=    2.7928460   2.7928460   0.0000000   2.7928460   2.7928460   2.7928460
 AtZNuc=   1.0000000   1.0000000   6.0000000   1.0000000   1.0000000   1.0000000
 Leave Link  101 at Thu Apr 27 16:11:57 2017, MaxMem=    33554432 cpu:         1.0
 (Enter /home/michal/g09/l202.exe)
 Symmetry turned off by external request.
 Stoichiometry    C27H46O3
 Framework group  C1[X(C27H46O3)]
 Deg. of freedom   222
 Full point group                 C1      NOp   1
                          Input orientation:                          
 ---------------------------------------------------------------------
 Center     Atomic      Atomic             Coordinates (Angstroms)
 Number     Number       Type             X           Y           Z
 ---------------------------------------------------------------------
      1          6           0        1.759467   -1.247796   -0.070527
      2          1           0        1.873110   -1.122708   -1.154351
      3          6           0        3.150979   -1.311012    0.574244
      4          1           0        3.729543   -2.127128    0.130852
      5          1           0        3.014037   -1.563129    1.638590
      6          6           0        3.912892   -0.004261    0.456175
      7          6           0        3.187078    1.271756    0.894308
      8          6           0        1.746888    1.254152    0.293624
      9          1           0        1.821688    1.449834   -0.785164
     10          1           0        1.163002    2.077321    0.718792
     11          6           0        0.977541   -0.060994    0.491723
     12          1           0        0.781768   -0.235175    1.560154
     13          1           0        0.000000    0.000000    0.000000
     14          6           0        5.172288    0.000000    0.000000
     15          1           0        5.638308   -0.933721   -0.306783
     16          6           0        6.057887    1.207206   -0.096441
     17          1           0        6.311603    1.407503   -1.149058
     18          6           0        5.481555    2.473682    0.557774
     19          1           0        5.697502    2.402462    1.631911
     20          6           0        3.942883    2.527935    0.340548
     21          1           0        3.794442    2.503749   -0.751403
     22          6           0        3.354603    3.866960    0.841593
     23          1           0        3.381956    3.895766    1.936210
     24          1           0        2.296593    3.927559    0.564630
     25          6           0        4.071437    5.116884    0.295292
     26          1           0        3.917670    5.179638   -0.791739
     27          1           0        3.599374    6.004835    0.727634
     28          6           0        5.586101    5.081825    0.578680
     29          6           0        6.121768    3.749245   -0.020669
     30          1           0        5.821047    3.773448   -1.082176
     31          6           0        7.650715    3.912647    0.000000
     32          1           0        8.143419    3.284543   -0.748762
     33          1           0        8.059903    3.617324    0.971311
     34          6           0        7.866368    5.427245   -0.268978
     35          1           0        8.527619    5.862574    0.489444
     36          1           0        8.351820    5.601051   -1.234723
     37          6           0        6.460648    6.109476   -0.220123
     38          1           0        6.050413    6.116496   -1.240861
     39          6           0        5.861279    5.201371    2.094932
     40          1           0        5.423439    4.377734    2.664423
     41          1           0        6.932282    5.212418    2.318138
     42          1           0        5.435389    6.129095    2.491449
     43          6           0        6.533522    7.581565    0.256602
     44          1           0        6.954100    7.575490    1.272794
     45          6           0        5.162834    8.280052    0.334598
     46          1           0        4.597678    8.179721   -0.598738
     47          1           0        5.290245    9.351132    0.531407
     48          1           0        4.542597    7.875358    1.138334
     49          6           0        3.105090    1.286385    2.444270
     50          1           0        2.462689    2.096875    2.802547
     51          1           0        2.690425    0.351950    2.831179
     52          1           0        4.095830    1.407063    2.892427
     53          8           0        7.303808    0.959046    0.602786
     54          8           0        8.035739   -0.062591   -0.139382
     55          1           0        8.800339    0.456374   -0.438706
     56          8           0        1.052326   -2.483619    0.066188
     57          1           0        0.921106   -2.662537    1.007970
     58          6           0        7.521288    8.424231   -0.594572
     59          1           0        7.585736    9.421077   -0.135381
     60          1           0        8.528132    7.995702   -0.515127
     61          6           0        7.175433    8.597185   -2.082717
     62          1           0        7.153459    7.617497   -2.579775
     63          1           0        6.166564    9.014964   -2.180228
     64          6           0        8.182144    9.498953   -2.813559
     65          1           0        9.194120    9.105677   -2.639420
     66          1           0        8.165977   10.502823   -2.361962
     67          6           0        7.968861    9.634908   -4.334987
     68          1           0        7.954676    8.619223   -4.760196
     69          6           0        6.633411   10.310855   -4.686065
     70          1           0        6.585631   11.321093   -4.258855
     71          1           0        6.515723   10.404587   -5.771666
     72          1           0        5.773668    9.747873   -4.309311
     73          6           0        9.140407   10.394202   -4.977829
     74          1           0        9.203701   11.417934   -4.587064
     75          1           0        9.022620   10.461465   -6.065383
     76          1           0       10.097423    9.900535   -4.773548
 ---------------------------------------------------------------------
 Rotational constants (GHZ):      0.2833375      0.0575755      0.0552950
 Leave Link  202 at Thu Apr 27 16:11:57 2017, MaxMem=    33554432 cpu:         0.6
 (Enter /home/michal/g09/l301.exe)
 Standard basis: 6-31G(d) (6D, 7F)
 Ernie: Thresh=  0.10000D-02 Tol=  0.10000D-05 Strict=F.
 AO basis set in the form of general basis input (Overlap normalization):
      1 0
 S   6 1.00       0.000000000000
      0.3047524880D+04  0.1834737132D-02
      0.4573695180D+03  0.1403732281D-01
      0.1039486850D+03  0.6884262226D-01
      0.2921015530D+02  0.2321844432D+00
      0.9286662960D+01  0.4679413484D+00
      0.3163926960D+01  0.3623119853D+00
 SP   3 1.00       0.000000000000
      0.7868272350D+01 -0.1193324198D+00  0.6899906659D-01
      0.1881288540D+01 -0.1608541517D+00  0.3164239610D+00
      0.5442492580D+00  0.1143456438D+01  0.7443082909D+00
 SP   1 1.00       0.000000000000
      0.1687144782D+00  0.1000000000D+01  0.1000000000D+01
 D   1 1.00       0.000000000000
      0.8000000000D+00  0.1000000000D+01
 ****
      2 0
 S   3 1.00       0.000000000000
      0.1873113696D+02  0.3349460434D-01
      0.2825394365D+01  0.2347269535D+00
      0.6401216923D+00  0.8137573261D+00
 S   1 1.00       0.000000000000
      0.1612777588D+00  0.1000000000D+01
 ****
      3 0
 S   6 1.00       0.000000000000
      0.3047524880D+04  0.1834737132D-02
      0.4573695180D+03  0.1403732281D-01
      0.1039486850D+03  0.6884262226D-01
      0.2921015530D+02  0.2321844432D+00
      0.9286662960D+01  0.4679413484D+00
      0.3163926960D+01  0.3623119853D+00
 SP   3 1.00       0.000000000000
      0.7868272350D+01 -0.1193324198D+00  0.6899906659D-01
      0.1881288540D+01 -0.1608541517D+00  0.3164239610D+00
      0.5442492580D+00  0.1143456438D+01  0.7443082909D+00
 SP   1 1.00       0.000000000000
      0.1687144782D+00  0.1000000000D+01  0.1000000000D+01
 D   1 1.00       0.000000000000
      0.8000000000D+00  0.1000000000D+01
 ****
      4 0
 S   3 1.00       0.000000000000
      0.1873113696D+02  0.3349460434D-01
      0.2825394365D+01  0.2347269535D+00
      0.6401216923D+00  0.8137573261D+00
 S   1 1.00       0.000000000000
      0.1612777588D+00  0.1000000000D+01
 ****
      5 0
 S   3 1.00       0.000000000000
      0.1873113696D+02  0.3349460434D-01
      0.2825394365D+01  0.2347269535D+00
      0.6401216923D+00  0.8137573261D+00
 S   1 1.00       0.000000000000
      0.1612777588D+00  0.1000000000D+01
 ****
      6 0
 S   6 1.00       0.000000000000
      0.3047524880D+04  0.1834737132D-02
      0.4573695180D+03  0.1403732281D-01
      0.1039486850D+03  0.6884262226D-01
      0.2921015530D+02  0.2321844432D+00
      0.9286662960D+01  0.4679413484D+00
      0.3163926960D+01  0.3623119853D+00
 SP   3 1.00       0.000000000000
      0.7868272350D+01 -0.1193324198D+00  0.6899906659D-01
      0.1881288540D+01 -0.1608541517D+00  0.3164239610D+00
      0.5442492580D+00  0.1143456438D+01  0.7443082909D+00
 SP   1 1.00       0.000000000000
      0.1687144782D+00  0.1000000000D+01  0.1000000000D+01
 D   1 1.00       0.000000000000
      0.8000000000D+00  0.1000000000D+01
 ****
      7 0
 S   6 1.00       0.000000000000
      0.3047524880D+04  0.1834737132D-02
      0.4573695180D+03  0.1403732281D-01
      0.1039486850D+03  0.6884262226D-01
      0.2921015530D+02  0.2321844432D+00
      0.9286662960D+01  0.4679413484D+00
      0.3163926960D+01  0.3623119853D+00
 SP   3 1.00       0.000000000000
      0.7868272350D+01 -0.1193324198D+00  0.6899906659D-01
      0.1881288540D+01 -0.1608541517D+00  0.3164239610D+00
      0.5442492580D+00  0.1143456438D+01  0.7443082909D+00
 SP   1 1.00       0.000000000000
      0.1687144782D+00  0.1000000000D+01  0.1000000000D+01
 D   1 1.00       0.000000000000
      0.8000000000D+00  0.1000000000D+01
 ****
      8 0
 S   6 1.00       0.000000000000
      0.3047524880D+04  0.1834737132D-02
      0.4573695180D+03  0.1403732281D-01
      0.1039486850D+03  0.6884262226D-01
      0.2921015530D+02  0.2321844432D+00
      0.9286662960D+01  0.4679413484D+00
      0.3163926960D+01  0.3623119853D+00
 SP   3 1.00       0.000000000000
      0.7868272350D+01 -0.1193324198D+00  0.6899906659D-01
      0.1881288540D+01 -0.1608541517D+00  0.3164239610D+00
      0.5442492580D+00  0.1143456438D+01  0.7443082909D+00
 SP   1 1.00       0.000000000000
      0.1687144782D+00  0.1000000000D+01  0.1000000000D+01
 D   1 1.00       0.000000000000
      0.8000000000D+00  0.1000000000D+01
 ****
      9 0
 S   3 1.00       0.000000000000
      0.1873113696D+02  0.3349460434D-01
      0.2825394365D+01  0.2347269535D+00
      0.6401216923D+00  0.8137573261D+00
 S   1 1.00       0.000000000000
      0.1612777588D+00  0.1000000000D+01
 ****
     10 0
 S   3 1.00       0.000000000000
      0.1873113696D+02  0.3349460434D-01
      0.2825394365D+01  0.2347269535D+00
      0.6401216923D+00  0.8137573261D+00
 S   1 1.00       0.000000000000
      0.1612777588D+00  0.1000000000D+01
 ****
     11 0
 S   6 1.00       0.000000000000
      0.3047524880D+04  0.1834737132D-02
      0.4573695180D+03  0.1403732281D-01
      0.1039486850D+03  0.6884262226D-01
      0.2921015530D+02  0.2321844432D+00
      0.9286662960D+01  0.4679413484D+00
      0.3163926960D+01  0.3623119853D+00
 SP   3 1.00       0.000000000000
      0.7868272350D+01 -0.1193324198D+00  0.6899906659D-01
      0.1881288540D+01 -0.1608541517D+00  0.3164239610D+00
      0.5442492580D+00  0.1143456438D+01  0.7443082909D+00
 SP   1 1.00       0.000000000000
      0.1687144782D+00  0.1000000000D+01  0.1000000000D+01
 D   1 1.00       0.000000000000
      0.8000000000D+00  0.1000000000D+01
 ****
     12 0
 S   3 1.00       0.000000000000
      0.1873113696D+02  0.3349460434D-01
      0.2825394365D+01  0.2347269535D+00
      0.6401216923D+00  0.8137573261D+00
 S   1 1.00       0.000000000000
      0.1612777588D+00  0.1000000000D+01
 ****
     13 0
 S   3 1.00       0.000000000000
      0.1873113696D+02  0.3349460434D-01
      0.2825394365D+01  0.2347269535D+00
      0.6401216923D+00  0.8137573261D+00
 S   1 1.00       0.000000000000
      0.1612777588D+00  0.1000000000D+01
 ****
     14 0
 S   6 1.00       0.000000000000
      0.3047524880D+04  0.1834737132D-02
      0.4573695180D+03  0.1403732281D-01
      0.1039486850D+03  0.6884262226D-01
      0.2921015530D+02  0.2321844432D+00
      0.9286662960D+01  0.4679413484D+00
      0.3163926960D+01  0.3623119853D+00
 SP   3 1.00       0.000000000000
      0.7868272350D+01 -0.1193324198D+00  0.6899906659D-01
      0.1881288540D+01 -0.1608541517D+00  0.3164239610D+00
      0.5442492580D+00  0.1143456438D+01  0.7443082909D+00
 SP   1 1.00       0.000000000000
      0.1687144782D+00  0.1000000000D+01  0.1000000000D+01
 D   1 1.00       0.000000000000
      0.8000000000D+00  0.1000000000D+01
 ****
     15 0
 S   3 1.00       0.000000000000
      0.1873113696D+02  0.3349460434D-01
      0.2825394365D+01  0.2347269535D+00
      0.6401216923D+00  0.8137573261D+00
 S   1 1.00       0.000000000000
      0.1612777588D+00  0.1000000000D+01
 ****
     16 0
 S   6 1.00       0.000000000000
      0.3047524880D+04  0.1834737132D-02
      0.4573695180D+03  0.1403732281D-01
      0.1039486850D+03  0.6884262226D-01
      0.2921015530D+02  0.2321844432D+00
      0.9286662960D+01  0.4679413484D+00
      0.3163926960D+01  0.3623119853D+00
 SP   3 1.00       0.000000000000
      0.7868272350D+01 -0.1193324198D+00  0.6899906659D-01
      0.1881288540D+01 -0.1608541517D+00  0.3164239610D+00
      0.5442492580D+00  0.1143456438D+01  0.7443082909D+00
 SP   1 1.00       0.000000000000
      0.1687144782D+00  0.1000000000D+01  0.1000000000D+01
 D   1 1.00       0.000000000000
      0.8000000000D+00  0.1000000000D+01
 ****
     17 0
 S   3 1.00       0.000000000000
      0.1873113696D+02  0.3349460434D-01
      0.2825394365D+01  0.2347269535D+00
      0.6401216923D+00  0.8137573261D+00
 S   1 1.00       0.000000000000
      0.1612777588D+00  0.1000000000D+01
 ****
     18 0
 S   6 1.00       0.000000000000
      0.3047524880D+04  0.1834737132D-02
      0.4573695180D+03  0.1403732281D-01
      0.1039486850D+03  0.6884262226D-01
      0.2921015530D+02  0.2321844432D+00
      0.9286662960D+01  0.4679413484D+00
      0.3163926960D+01  0.3623119853D+00
 SP   3 1.00       0.000000000000
      0.7868272350D+01 -0.1193324198D+00  0.6899906659D-01
      0.1881288540D+01 -0.1608541517D+00  0.3164239610D+00
      0.5442492580D+00  0.1143456438D+01  0.7443082909D+00
 SP   1 1.00       0.000000000000
      0.1687144782D+00  0.1000000000D+01  0.1000000000D+01
 D   1 1.00       0.000000000000
      0.8000000000D+00  0.1000000000D+01
 ****
     19 0
 S   3 1.00       0.000000000000
      0.1873113696D+02  0.3349460434D-01
      0.2825394365D+01  0.2347269535D+00
      0.6401216923D+00  0.8137573261D+00
 S   1 1.00       0.000000000000
      0.1612777588D+00  0.1000000000D+01
 ****
     20 0
 S   6 1.00       0.000000000000
      0.3047524880D+04  0.1834737132D-02
      0.4573695180D+03  0.1403732281D-01
      0.1039486850D+03  0.6884262226D-01
      0.2921015530D+02  0.2321844432D+00
      0.9286662960D+01  0.4679413484D+00
      0.3163926960D+01  0.3623119853D+00
 SP   3 1.00       0.000000000000
      0.7868272350D+01 -0.1193324198D+00  0.6899906659D-01
      0.1881288540D+01 -0.1608541517D+00  0.3164239610D+00
      0.5442492580D+00  0.1143456438D+01  0.7443082909D+00
 SP   1 1.00       0.000000000000
      0.1687144782D+00  0.1000000000D+01  0.1000000000D+01
 D   1 1.00       0.000000000000
      0.8000000000D+00  0.1000000000D+01
 ****
     21 0
 S   3 1.00       0.000000000000
      0.1873113696D+02  0.3349460434D-01
      0.2825394365D+01  0.2347269535D+00
      0.6401216923D+00  0.8137573261D+00
 S   1 1.00       0.000000000000
      0.1612777588D+00  0.1000000000D+01
 ****
     22 0
 S   6 1.00       0.000000000000
      0.3047524880D+04  0.1834737132D-02
      0.4573695180D+03  0.1403732281D-01
      0.1039486850D+03  0.6884262226D-01
      0.2921015530D+02  0.2321844432D+00
      0.9286662960D+01  0.4679413484D+00
      0.3163926960D+01  0.3623119853D+00
 SP   3 1.00       0.000000000000
      0.7868272350D+01 -0.1193324198D+00  0.6899906659D-01
      0.1881288540D+01 -0.1608541517D+00  0.3164239610D+00
      0.5442492580D+00  0.1143456438D+01  0.7443082909D+00
 SP   1 1.00       0.000000000000
      0.1687144782D+00  0.1000000000D+01  0.1000000000D+01
 D   1 1.00       0.000000000000
      0.8000000000D+00  0.1000000000D+01
 ****
     23 0
 S   3 1.00       0.000000000000
      0.1873113696D+02  0.3349460434D-01
      0.2825394365D+01  0.2347269535D+00
      0.6401216923D+00  0.8137573261D+00
 S   1 1.00       0.000000000000
      0.1612777588D+00  0.1000000000D+01
 ****
     24 0
 S   3 1.00       0.000000000000
      0.1873113696D+02  0.3349460434D-01
      0.2825394365D+01  0.2347269535D+00
      0.6401216923D+00  0.8137573261D+00
 S   1 1.00       0.000000000000
      0.1612777588D+00  0.1000000000D+01
 ****
     25 0
 S   6 1.00       0.000000000000
      0.3047524880D+04  0.1834737132D-02
      0.4573695180D+03  0.1403732281D-01
      0.1039486850D+03  0.6884262226D-01
      0.2921015530D+02  0.2321844432D+00
      0.9286662960D+01  0.4679413484D+00
      0.3163926960D+01  0.3623119853D+00
 SP   3 1.00       0.000000000000
      0.7868272350D+01 -0.1193324198D+00  0.6899906659D-01
      0.1881288540D+01 -0.1608541517D+00  0.3164239610D+00
      0.5442492580D+00  0.1143456438D+01  0.7443082909D+00
 SP   1 1.00       0.000000000000
      0.1687144782D+00  0.1000000000D+01  0.1000000000D+01
 D   1 1.00       0.000000000000
      0.8000000000D+00  0.1000000000D+01
 ****
     26 0
 S   3 1.00       0.000000000000
      0.1873113696D+02  0.3349460434D-01
      0.2825394365D+01  0.2347269535D+00
      0.6401216923D+00  0.8137573261D+00
 S   1 1.00       0.000000000000
      0.1612777588D+00  0.1000000000D+01
 ****
     27 0
 S   3 1.00       0.000000000000
      0.1873113696D+02  0.3349460434D-01
      0.2825394365D+01  0.2347269535D+00
      0.6401216923D+00  0.8137573261D+00
 S   1 1.00       0.000000000000
      0.1612777588D+00  0.1000000000D+01
 ****
     28 0
 S   6 1.00       0.000000000000
      0.3047524880D+04  0.1834737132D-02
      0.4573695180D+03  0.1403732281D-01
      0.1039486850D+03  0.6884262226D-01
      0.2921015530D+02  0.2321844432D+00
      0.9286662960D+01  0.4679413484D+00
      0.3163926960D+01  0.3623119853D+00
 SP   3 1.00       0.000000000000
      0.7868272350D+01 -0.1193324198D+00  0.6899906659D-01
      0.1881288540D+01 -0.1608541517D+00  0.3164239610D+00
      0.5442492580D+00  0.1143456438D+01  0.7443082909D+00
 SP   1 1.00       0.000000000000
      0.1687144782D+00  0.1000000000D+01  0.1000000000D+01
 D   1 1.00       0.000000000000
      0.8000000000D+00  0.1000000000D+01
 ****
     29 0
 S   6 1.00       0.000000000000
      0.3047524880D+04  0.1834737132D-02
      0.4573695180D+03  0.1403732281D-01
      0.1039486850D+03  0.6884262226D-01
      0.2921015530D+02  0.2321844432D+00
      0.9286662960D+01  0.4679413484D+00
      0.3163926960D+01  0.3623119853D+00
 SP   3 1.00       0.000000000000
      0.7868272350D+01 -0.1193324198D+00  0.6899906659D-01
      0.1881288540D+01 -0.1608541517D+00  0.3164239610D+00
      0.5442492580D+00  0.1143456438D+01  0.7443082909D+00
 SP   1 1.00       0.000000000000
      0.1687144782D+00  0.1000000000D+01  0.1000000000D+01
 D   1 1.00       0.000000000000
      0.8000000000D+00  0.1000000000D+01
 ****
     30 0
 S   3 1.00       0.000000000000
      0.1873113696D+02  0.3349460434D-01
      0.2825394365D+01  0.2347269535D+00
      0.6401216923D+00  0.8137573261D+00
 S   1 1.00       0.000000000000
      0.1612777588D+00  0.1000000000D+01
 ****
     31 0
 S   6 1.00       0.000000000000
      0.3047524880D+04  0.1834737132D-02
      0.4573695180D+03  0.1403732281D-01
      0.1039486850D+03  0.6884262226D-01
      0.2921015530D+02  0.2321844432D+00
      0.9286662960D+01  0.4679413484D+00
      0.3163926960D+01  0.3623119853D+00
 SP   3 1.00       0.000000000000
      0.7868272350D+01 -0.1193324198D+00  0.6899906659D-01
      0.1881288540D+01 -0.1608541517D+00  0.3164239610D+00
      0.5442492580D+00  0.1143456438D+01  0.7443082909D+00
 SP   1 1.00       0.000000000000
      0.1687144782D+00  0.1000000000D+01  0.1000000000D+01
 D   1 1.00       0.000000000000
      0.8000000000D+00  0.1000000000D+01
 ****
     32 0
 S   3 1.00       0.000000000000
      0.1873113696D+02  0.3349460434D-01
      0.2825394365D+01  0.2347269535D+00
      0.6401216923D+00  0.8137573261D+00
 S   1 1.00       0.000000000000
      0.1612777588D+00  0.1000000000D+01
 ****
     33 0
 S   3 1.00       0.000000000000
      0.1873113696D+02  0.3349460434D-01
      0.2825394365D+01  0.2347269535D+00
      0.6401216923D+00  0.8137573261D+00
 S   1 1.00       0.000000000000
      0.1612777588D+00  0.1000000000D+01
 ****
     34 0
 S   6 1.00       0.000000000000
      0.3047524880D+04  0.1834737132D-02
      0.4573695180D+03  0.1403732281D-01
      0.1039486850D+03  0.6884262226D-01
      0.2921015530D+02  0.2321844432D+00
      0.9286662960D+01  0.4679413484D+00
      0.3163926960D+01  0.3623119853D+00
 SP   3 1.00       0.000000000000
      0.7868272350D+01 -0.1193324198D+00  0.6899906659D-01
      0.1881288540D+01 -0.1608541517D+00  0.3164239610D+00
      0.5442492580D+00  0.1143456438D+01  0.7443082909D+00
 SP   1 1.00       0.000000000000
      0.1687144782D+00  0.1000000000D+01  0.1000000000D+01
 D   1 1.00       0.000000000000
      0.8000000000D+00  0.1000000000D+01
 ****
     35 0
 S   3 1.00       0.000000000000
      0.1873113696D+02  0.3349460434D-01
      0.2825394365D+01  0.2347269535D+00
      0.6401216923D+00  0.8137573261D+00
 S   1 1.00       0.000000000000
      0.1612777588D+00  0.1000000000D+01
 ****
     36 0
 S   3 1.00       0.000000000000
      0.1873113696D+02  0.3349460434D-01
      0.2825394365D+01  0.2347269535D+00
      0.6401216923D+00  0.8137573261D+00
 S   1 1.00       0.000000000000
      0.1612777588D+00  0.1000000000D+01
 ****
     37 0
 S   6 1.00       0.000000000000
      0.3047524880D+04  0.1834737132D-02
      0.4573695180D+03  0.1403732281D-01
      0.1039486850D+03  0.6884262226D-01
      0.2921015530D+02  0.2321844432D+00
      0.9286662960D+01  0.4679413484D+00
      0.3163926960D+01  0.3623119853D+00
 SP   3 1.00       0.000000000000
      0.7868272350D+01 -0.1193324198D+00  0.6899906659D-01
      0.1881288540D+01 -0.1608541517D+00  0.3164239610D+00
      0.5442492580D+00  0.1143456438D+01  0.7443082909D+00
 SP   1 1.00       0.000000000000
      0.1687144782D+00  0.1000000000D+01  0.1000000000D+01
 D   1 1.00       0.000000000000
      0.8000000000D+00  0.1000000000D+01
 ****
     38 0
 S   3 1.00       0.000000000000
      0.1873113696D+02  0.3349460434D-01
      0.2825394365D+01  0.2347269535D+00
      0.6401216923D+00  0.8137573261D+00
 S   1 1.00       0.000000000000
      0.1612777588D+00  0.1000000000D+01
 ****
     39 0
 S   6 1.00       0.000000000000
      0.3047524880D+04  0.1834737132D-02
      0.4573695180D+03  0.1403732281D-01
      0.1039486850D+03  0.6884262226D-01
      0.2921015530D+02  0.2321844432D+00
      0.9286662960D+01  0.4679413484D+00
      0.3163926960D+01  0.3623119853D+00
 SP   3 1.00       0.000000000000
      0.7868272350D+01 -0.1193324198D+00  0.6899906659D-01
      0.1881288540D+01 -0.1608541517D+00  0.3164239610D+00
      0.5442492580D+00  0.1143456438D+01  0.7443082909D+00
 SP   1 1.00       0.000000000000
      0.1687144782D+00  0.1000000000D+01  0.1000000000D+01
 D   1 1.00       0.000000000000
      0.8000000000D+00  0.1000000000D+01
 ****
     40 0
 S   3 1.00       0.000000000000
      0.1873113696D+02  0.3349460434D-01
      0.2825394365D+01  0.2347269535D+00
      0.6401216923D+00  0.8137573261D+00
 S   1 1.00       0.000000000000
      0.1612777588D+00  0.1000000000D+01
 ****
     41 0
 S   3 1.00       0.000000000000
      0.1873113696D+02  0.3349460434D-01
      0.2825394365D+01  0.2347269535D+00
      0.6401216923D+00  0.8137573261D+00
 S   1 1.00       0.000000000000
      0.1612777588D+00  0.1000000000D+01
 ****
     42 0
 S   3 1.00       0.000000000000
      0.1873113696D+02  0.3349460434D-01
      0.2825394365D+01  0.2347269535D+00
      0.6401216923D+00  0.8137573261D+00
 S   1 1.00       0.000000000000
      0.1612777588D+00  0.1000000000D+01
 ****
     43 0
 S   6 1.00       0.000000000000
      0.3047524880D+04  0.1834737132D-02
      0.4573695180D+03  0.1403732281D-01
      0.1039486850D+03  0.6884262226D-01
      0.2921015530D+02  0.2321844432D+00
      0.9286662960D+01  0.4679413484D+00
      0.3163926960D+01  0.3623119853D+00
 SP   3 1.00       0.000000000000
      0.7868272350D+01 -0.1193324198D+00  0.6899906659D-01
      0.1881288540D+01 -0.1608541517D+00  0.3164239610D+00
      0.5442492580D+00  0.1143456438D+01  0.7443082909D+00
 SP   1 1.00       0.000000000000
      0.1687144782D+00  0.1000000000D+01  0.1000000000D+01
 D   1 1.00       0.000000000000
      0.8000000000D+00  0.1000000000D+01
 ****
     44 0
 S   3 1.00       0.000000000000
      0.1873113696D+02  0.3349460434D-01
      0.2825394365D+01  0.2347269535D+00
      0.6401216923D+00  0.8137573261D+00
 S   1 1.00       0.000000000000
      0.1612777588D+00  0.1000000000D+01
 ****
     45 0
 S   6 1.00       0.000000000000
      0.3047524880D+04  0.1834737132D-02
      0.4573695180D+03  0.1403732281D-01
      0.1039486850D+03  0.6884262226D-01
      0.2921015530D+02  0.2321844432D+00
      0.9286662960D+01  0.4679413484D+00
      0.3163926960D+01  0.3623119853D+00
 SP   3 1.00       0.000000000000
      0.7868272350D+01 -0.1193324198D+00  0.6899906659D-01
      0.1881288540D+01 -0.1608541517D+00  0.3164239610D+00
      0.5442492580D+00  0.1143456438D+01  0.7443082909D+00
 SP   1 1.00       0.000000000000
      0.1687144782D+00  0.1000000000D+01  0.1000000000D+01
 D   1 1.00       0.000000000000
      0.8000000000D+00  0.1000000000D+01
 ****
     46 0
 S   3 1.00       0.000000000000
      0.1873113696D+02  0.3349460434D-01
      0.2825394365D+01  0.2347269535D+00
      0.6401216923D+00  0.8137573261D+00
 S   1 1.00       0.000000000000
      0.1612777588D+00  0.1000000000D+01
 ****
     47 0
 S   3 1.00       0.000000000000
      0.1873113696D+02  0.3349460434D-01
      0.2825394365D+01  0.2347269535D+00
      0.6401216923D+00  0.8137573261D+00
 S   1 1.00       0.000000000000
      0.1612777588D+00  0.1000000000D+01
 ****
     48 0
 S   3 1.00       0.000000000000
      0.1873113696D+02  0.3349460434D-01
      0.2825394365D+01  0.2347269535D+00
      0.6401216923D+00  0.8137573261D+00
 S   1 1.00       0.000000000000
      0.1612777588D+00  0.1000000000D+01
 ****
     49 0
 S   6 1.00       0.000000000000
      0.3047524880D+04  0.1834737132D-02
      0.4573695180D+03  0.1403732281D-01
      0.1039486850D+03  0.6884262226D-01
      0.2921015530D+02  0.2321844432D+00
      0.9286662960D+01  0.4679413484D+00
      0.3163926960D+01  0.3623119853D+00
 SP   3 1.00       0.000000000000
      0.7868272350D+01 -0.1193324198D+00  0.6899906659D-01
      0.1881288540D+01 -0.1608541517D+00  0.3164239610D+00
      0.5442492580D+00  0.1143456438D+01  0.7443082909D+00
 SP   1 1.00       0.000000000000
      0.1687144782D+00  0.1000000000D+01  0.1000000000D+01
 D   1 1.00       0.000000000000
      0.8000000000D+00  0.1000000000D+01
 ****
     50 0
 S   3 1.00       0.000000000000
      0.1873113696D+02  0.3349460434D-01
      0.2825394365D+01  0.2347269535D+00
      0.6401216923D+00  0.8137573261D+00
 S   1 1.00       0.000000000000
      0.1612777588D+00  0.1000000000D+01
 ****
     51 0
 S   3 1.00       0.000000000000
      0.1873113696D+02  0.3349460434D-01
      0.2825394365D+01  0.2347269535D+00
      0.6401216923D+00  0.8137573261D+00
 S   1 1.00       0.000000000000
      0.1612777588D+00  0.1000000000D+01
 ****
     52 0
 S   3 1.00       0.000000000000
      0.1873113696D+02  0.3349460434D-01
      0.2825394365D+01  0.2347269535D+00
      0.6401216923D+00  0.8137573261D+00
 S   1 1.00       0.000000000000
      0.1612777588D+00  0.1000000000D+01
 ****
     53 0
 S   6 1.00       0.000000000000
      0.5484671660D+04  0.1831074430D-02
      0.8252349460D+03  0.1395017220D-01
      0.1880469580D+03  0.6844507810D-01
      0.5296450000D+02  0.2327143360D+00
      0.1689757040D+02  0.4701928980D+00
      0.5799635340D+01  0.3585208530D+00
 SP   3 1.00       0.000000000000
      0.1553961625D+02 -0.1107775495D+00  0.7087426823D-01
      0.3599933586D+01 -0.1480262627D+00  0.3397528391D+00
      0.1013761750D+01  0.1130767015D+01  0.7271585773D+00
 SP   1 1.00       0.000000000000
      0.2700058226D+00  0.1000000000D+01  0.1000000000D+01
 D   1 1.00       0.000000000000
      0.8000000000D+00  0.1000000000D+01
 ****
     54 0
 S   6 1.00       0.000000000000
      0.5484671660D+04  0.1831074430D-02
      0.8252349460D+03  0.1395017220D-01
      0.1880469580D+03  0.6844507810D-01
      0.5296450000D+02  0.2327143360D+00
      0.1689757040D+02  0.4701928980D+00
      0.5799635340D+01  0.3585208530D+00
 SP   3 1.00       0.000000000000
      0.1553961625D+02 -0.1107775495D+00  0.7087426823D-01
      0.3599933586D+01 -0.1480262627D+00  0.3397528391D+00
      0.1013761750D+01  0.1130767015D+01  0.7271585773D+00
 SP   1 1.00       0.000000000000
      0.2700058226D+00  0.1000000000D+01  0.1000000000D+01
 D   1 1.00       0.000000000000
      0.8000000000D+00  0.1000000000D+01
 ****
     55 0
 S   3 1.00       0.000000000000
      0.1873113696D+02  0.3349460434D-01
      0.2825394365D+01  0.2347269535D+00
      0.6401216923D+00  0.8137573261D+00
 S   1 1.00       0.000000000000
      0.1612777588D+00  0.1000000000D+01
 ****
     56 0
 S   6 1.00       0.000000000000
      0.5484671660D+04  0.1831074430D-02
      0.8252349460D+03  0.1395017220D-01
      0.1880469580D+03  0.6844507810D-01
      0.5296450000D+02  0.2327143360D+00
      0.1689757040D+02  0.4701928980D+00
      0.5799635340D+01  0.3585208530D+00
 SP   3 1.00       0.000000000000
      0.1553961625D+02 -0.1107775495D+00  0.7087426823D-01
      0.3599933586D+01 -0.1480262627D+00  0.3397528391D+00
      0.1013761750D+01  0.1130767015D+01  0.7271585773D+00
 SP   1 1.00       0.000000000000
      0.2700058226D+00  0.1000000000D+01  0.1000000000D+01
 D   1 1.00       0.000000000000
      0.8000000000D+00  0.1000000000D+01
 ****
     57 0
 S   3 1.00       0.000000000000
      0.1873113696D+02  0.3349460434D-01
      0.2825394365D+01  0.2347269535D+00
      0.6401216923D+00  0.8137573261D+00
 S   1 1.00       0.000000000000
      0.1612777588D+00  0.1000000000D+01
 ****
     58 0
 S   6 1.00       0.000000000000
      0.3047524880D+04  0.1834737132D-02
      0.4573695180D+03  0.1403732281D-01
      0.1039486850D+03  0.6884262226D-01
      0.2921015530D+02  0.2321844432D+00
      0.9286662960D+01  0.4679413484D+00
      0.3163926960D+01  0.3623119853D+00
 SP   3 1.00       0.000000000000
      0.7868272350D+01 -0.1193324198D+00  0.6899906659D-01
      0.1881288540D+01 -0.1608541517D+00  0.3164239610D+00
      0.5442492580D+00  0.1143456438D+01  0.7443082909D+00
 SP   1 1.00       0.000000000000
      0.1687144782D+00  0.1000000000D+01  0.1000000000D+01
 D   1 1.00       0.000000000000
      0.8000000000D+00  0.1000000000D+01
 ****
     59 0
 S   3 1.00       0.000000000000
      0.1873113696D+02  0.3349460434D-01
      0.2825394365D+01  0.2347269535D+00
      0.6401216923D+00  0.8137573261D+00
 S   1 1.00       0.000000000000
      0.1612777588D+00  0.1000000000D+01
 ****
     60 0
 S   3 1.00       0.000000000000
      0.1873113696D+02  0.3349460434D-01
      0.2825394365D+01  0.2347269535D+00
      0.6401216923D+00  0.8137573261D+00
 S   1 1.00       0.000000000000
      0.1612777588D+00  0.1000000000D+01
 ****
     61 0
 S   6 1.00       0.000000000000
      0.3047524880D+04  0.1834737132D-02
      0.4573695180D+03  0.1403732281D-01
      0.1039486850D+03  0.6884262226D-01
      0.2921015530D+02  0.2321844432D+00
      0.9286662960D+01  0.4679413484D+00
      0.3163926960D+01  0.3623119853D+00
 SP   3 1.00       0.000000000000
      0.7868272350D+01 -0.1193324198D+00  0.6899906659D-01
      0.1881288540D+01 -0.1608541517D+00  0.3164239610D+00
      0.5442492580D+00  0.1143456438D+01  0.7443082909D+00
 SP   1 1.00       0.000000000000
      0.1687144782D+00  0.1000000000D+01  0.1000000000D+01
 D   1 1.00       0.000000000000
      0.8000000000D+00  0.1000000000D+01
 ****
     62 0
 S   3 1.00       0.000000000000
      0.1873113696D+02  0.3349460434D-01
      0.2825394365D+01  0.2347269535D+00
      0.6401216923D+00  0.8137573261D+00
 S   1 1.00       0.000000000000
      0.1612777588D+00  0.1000000000D+01
 ****
     63 0
 S   3 1.00       0.000000000000
      0.1873113696D+02  0.3349460434D-01
      0.2825394365D+01  0.2347269535D+00
      0.6401216923D+00  0.8137573261D+00
 S   1 1.00       0.000000000000
      0.1612777588D+00  0.1000000000D+01
 ****
     64 0
 S   6 1.00       0.000000000000
      0.3047524880D+04  0.1834737132D-02
      0.4573695180D+03  0.1403732281D-01
      0.1039486850D+03  0.6884262226D-01
      0.2921015530D+02  0.2321844432D+00
      0.9286662960D+01  0.4679413484D+00
      0.3163926960D+01  0.3623119853D+00
 SP   3 1.00       0.000000000000
      0.7868272350D+01 -0.1193324198D+00  0.6899906659D-01
      0.1881288540D+01 -0.1608541517D+00  0.3164239610D+00
      0.5442492580D+00  0.1143456438D+01  0.7443082909D+00
 SP   1 1.00       0.000000000000
      0.1687144782D+00  0.1000000000D+01  0.1000000000D+01
 D   1 1.00       0.000000000000
      0.8000000000D+00  0.1000000000D+01
 ****
     65 0
 S   3 1.00       0.000000000000
      0.1873113696D+02  0.3349460434D-01
      0.2825394365D+01  0.2347269535D+00
      0.6401216923D+00  0.8137573261D+00
 S   1 1.00       0.000000000000
      0.1612777588D+00  0.1000000000D+01
 ****
     66 0
 S   3 1.00       0.000000000000
      0.1873113696D+02  0.3349460434D-01
      0.2825394365D+01  0.2347269535D+00
      0.6401216923D+00  0.8137573261D+00
 S   1 1.00       0.000000000000
      0.1612777588D+00  0.1000000000D+01
 ****
     67 0
 S   6 1.00       0.000000000000
      0.3047524880D+04  0.1834737132D-02
      0.4573695180D+03  0.1403732281D-01
      0.1039486850D+03  0.6884262226D-01
      0.2921015530D+02  0.2321844432D+00
      0.9286662960D+01  0.4679413484D+00
      0.3163926960D+01  0.3623119853D+00
 SP   3 1.00       0.000000000000
      0.7868272350D+01 -0.1193324198D+00  0.6899906659D-01
      0.1881288540D+01 -0.1608541517D+00  0.3164239610D+00
      0.5442492580D+00  0.1143456438D+01  0.7443082909D+00
 SP   1 1.00       0.000000000000
      0.1687144782D+00  0.1000000000D+01  0.1000000000D+01
 D   1 1.00       0.000000000000
      0.8000000000D+00  0.1000000000D+01
 ****
     68 0
 S   3 1.00       0.000000000000
      0.1873113696D+02  0.3349460434D-01
      0.2825394365D+01  0.2347269535D+00
      0.6401216923D+00  0.8137573261D+00
 S   1 1.00       0.000000000000
      0.1612777588D+00  0.1000000000D+01
 ****
     69 0
 S   6 1.00       0.000000000000
      0.3047524880D+04  0.1834737132D-02
      0.4573695180D+03  0.1403732281D-01
      0.1039486850D+03  0.6884262226D-01
      0.2921015530D+02  0.2321844432D+00
      0.9286662960D+01  0.4679413484D+00
      0.3163926960D+01  0.3623119853D+00
 SP   3 1.00       0.000000000000
      0.7868272350D+01 -0.1193324198D+00  0.6899906659D-01
      0.1881288540D+01 -0.1608541517D+00  0.3164239610D+00
      0.5442492580D+00  0.1143456438D+01  0.7443082909D+00
 SP   1 1.00       0.000000000000
      0.1687144782D+00  0.1000000000D+01  0.1000000000D+01
 D   1 1.00       0.000000000000
      0.8000000000D+00  0.1000000000D+01
 ****
     70 0
 S   3 1.00       0.000000000000
      0.1873113696D+02  0.3349460434D-01
      0.2825394365D+01  0.2347269535D+00
      0.6401216923D+00  0.8137573261D+00
 S   1 1.00       0.000000000000
      0.1612777588D+00  0.1000000000D+01
 ****
     71 0
 S   3 1.00       0.000000000000
      0.1873113696D+02  0.3349460434D-01
      0.2825394365D+01  0.2347269535D+00
      0.6401216923D+00  0.8137573261D+00
 S   1 1.00       0.000000000000
      0.1612777588D+00  0.1000000000D+01
 ****
     72 0
 S   3 1.00       0.000000000000
      0.1873113696D+02  0.3349460434D-01
      0.2825394365D+01  0.2347269535D+00
      0.6401216923D+00  0.8137573261D+00
 S   1 1.00       0.000000000000
      0.1612777588D+00  0.1000000000D+01
 ****
     73 0
 S   6 1.00       0.000000000000
      0.3047524880D+04  0.1834737132D-02
      0.4573695180D+03  0.1403732281D-01
      0.1039486850D+03  0.6884262226D-01
      0.2921015530D+02  0.2321844432D+00
      0.9286662960D+01  0.4679413484D+00
      0.3163926960D+01  0.3623119853D+00
 SP   3 1.00       0.000000000000
      0.7868272350D+01 -0.1193324198D+00  0.6899906659D-01
      0.1881288540D+01 -0.1608541517D+00  0.3164239610D+00
      0.5442492580D+00  0.1143456438D+01  0.7443082909D+00
 SP   1 1.00       0.000000000000
      0.1687144782D+00  0.1000000000D+01  0.1000000000D+01
 D   1 1.00       0.000000000000
      0.8000000000D+00  0.1000000000D+01
 ****
     74 0
 S   3 1.00       0.000000000000
      0.1873113696D+02  0.3349460434D-01
      0.2825394365D+01  0.2347269535D+00
      0.6401216923D+00  0.8137573261D+00
 S   1 1.00       0.000000000000
      0.1612777588D+00  0.1000000000D+01
 ****
     75 0
 S   3 1.00       0.000000000000
      0.1873113696D+02  0.3349460434D-01
      0.2825394365D+01  0.2347269535D+00
      0.6401216923D+00  0.8137573261D+00
 S   1 1.00       0.000000000000
      0.1612777588D+00  0.1000000000D+01
 ****
     76 0
 S   3 1.00       0.000000000000
      0.1873113696D+02  0.3349460434D-01
      0.2825394365D+01  0.2347269535D+00
      0.6401216923D+00  0.8137573261D+00
 S   1 1.00       0.000000000000
      0.1612777588D+00  0.1000000000D+01
 ****

 AO basis set (Overlap normalization):
 Atom C1       Shell     1 S   6     bf    1 -     1          3.324909976165         -2.357992445149         -0.133275826803
      0.3047524880D+04  0.1834737132D-02
      0.4573695180D+03  0.1403732281D-01
      0.1039486850D+03  0.6884262226D-01
      0.2921015530D+02  0.2321844432D+00
      0.9286662960D+01  0.4679413484D+00
      0.3163926960D+01  0.3623119853D+00
 Atom C1       Shell     2 SP   3    bf    2 -     5          3.324909976165         -2.357992445149         -0.133275826803
      0.7868272350D+01 -0.1193324198D+00  0.6899906659D-01
      0.1881288540D+01 -0.1608541517D+00  0.3164239610D+00
      0.5442492580D+00  0.1143456438D+01  0.7443082909D+00
 Atom C1       Shell     3 SP   1    bf    6 -     9          3.324909976165         -2.357992445149         -0.133275826803
      0.1687144782D+00  0.1000000000D+01  0.1000000000D+01
 Atom C1       Shell     4 D   1     bf   10 -    15          3.324909976165         -2.357992445149         -0.133275826803
      0.8000000000D+00  0.1000000000D+01
 Atom H2       Shell     5 S   3     bf   16 -    16          3.539664274263         -2.121611573166         -2.181406306360
      0.1873113696D+02  0.3349460434D-01
      0.2825394365D+01  0.2347269535D+00
      0.6401216923D+00  0.8137573261D+00
 Atom H2       Shell     6 S   1     bf   17 -    17          3.539664274263         -2.121611573166         -2.181406306360
      0.1612777588D+00  0.1000000000D+01
 Atom C3       Shell     7 S   6     bf   18 -    18          5.954486963631         -2.477452805447          1.085163307638
      0.3047524880D+04  0.1834737132D-02
      0.4573695180D+03  0.1403732281D-01
      0.1039486850D+03  0.6884262226D-01
      0.2921015530D+02  0.2321844432D+00
      0.9286662960D+01  0.4679413484D+00
      0.3163926960D+01  0.3623119853D+00
 Atom C3       Shell     8 SP   3    bf   19 -    22          5.954486963631         -2.477452805447          1.085163307638
      0.7868272350D+01 -0.1193324198D+00  0.6899906659D-01
      0.1881288540D+01 -0.1608541517D+00  0.3164239610D+00
      0.5442492580D+00  0.1143456438D+01  0.7443082909D+00
 Atom C3       Shell     9 SP   1    bf   23 -    26          5.954486963631         -2.477452805447          1.085163307638
      0.1687144782D+00  0.1000000000D+01  0.1000000000D+01
 Atom C3       Shell    10 D   1     bf   27 -    32          5.954486963631         -2.477452805447          1.085163307638
      0.8000000000D+00  0.1000000000D+01
 Atom H4       Shell    11 S   3     bf   33 -    33          7.047814530670         -4.019688481421          0.247274236070
      0.1873113696D+02  0.3349460434D-01
      0.2825394365D+01  0.2347269535D+00
      0.6401216923D+00  0.8137573261D+00
 Atom H4       Shell    12 S   1     bf   34 -    34          7.047814530670         -4.019688481421          0.247274236070
      0.1612777588D+00  0.1000000000D+01
 Atom H5       Shell    13 S   3     bf   35 -    35          5.695704767843         -2.953885342426          3.096486495263
      0.1873113696D+02  0.3349460434D-01
      0.2825394365D+01  0.2347269535D+00
      0.6401216923D+00  0.8137573261D+00
 Atom H5       Shell    14 S   1     bf   36 -    36          5.695704767843         -2.953885342426          3.096486495263
      0.1612777588D+00  0.1000000000D+01
 Atom C6       Shell    15 S   6     bf   37 -    37          7.394293530566         -0.008051556134          0.862044930498
      0.3047524880D+04  0.1834737132D-02
      0.4573695180D+03  0.1403732281D-01
      0.1039486850D+03  0.6884262226D-01
      0.2921015530D+02  0.2321844432D+00
      0.9286662960D+01  0.4679413484D+00
      0.3163926960D+01  0.3623119853D+00
 Atom C6       Shell    16 SP   3    bf   38 -    41          7.394293530566         -0.008051556134          0.862044930498
      0.7868272350D+01 -0.1193324198D+00  0.6899906659D-01
      0.1881288540D+01 -0.1608541517D+00  0.3164239610D+00
      0.5442492580D+00  0.1143456438D+01  0.7443082909D+00
 Atom C6       Shell    17 SP   1    bf   42 -    45          7.394293530566         -0.008051556134          0.862044930498
      0.1687144782D+00  0.1000000000D+01  0.1000000000D+01
 Atom C6       Shell    18 D   1     bf   46 -    51          7.394293530566         -0.008051556134          0.862044930498
      0.8000000000D+00  0.1000000000D+01
 Atom C7       Shell    19 S   6     bf   52 -    52          6.022703998330          2.403270415573          1.689997633086
      0.3047524880D+04  0.1834737132D-02
      0.4573695180D+03  0.1403732281D-01
      0.1039486850D+03  0.6884262226D-01
      0.2921015530D+02  0.2321844432D+00
      0.9286662960D+01  0.4679413484D+00
      0.3163926960D+01  0.3623119853D+00
 Atom C7       Shell    20 SP   3    bf   53 -    56          6.022703998330          2.403270415573          1.689997633086
      0.7868272350D+01 -0.1193324198D+00  0.6899906659D-01
      0.1881288540D+01 -0.1608541517D+00  0.3164239610D+00
      0.5442492580D+00  0.1143456438D+01  0.7443082909D+00
 Atom C7       Shell    21 SP   1    bf   57 -    60          6.022703998330          2.403270415573          1.689997633086
      0.1687144782D+00  0.1000000000D+01  0.1000000000D+01
 Atom C7       Shell    22 D   1     bf   61 -    66          6.022703998330          2.403270415573          1.689997633086
      0.8000000000D+00  0.1000000000D+01
 Atom C8       Shell    23 S   6     bf   67 -    67          3.301139470187          2.370003053120          0.554868775967
      0.3047524880D+04  0.1834737132D-02
      0.4573695180D+03  0.1403732281D-01
      0.1039486850D+03  0.6884262226D-01
      0.2921015530D+02  0.2321844432D+00
      0.9286662960D+01  0.4679413484D+00
      0.3163926960D+01  0.3623119853D+00
 Atom C8       Shell    24 SP   3    bf   68 -    71          3.301139470187          2.370003053120          0.554868775967
      0.7868272350D+01 -0.1193324198D+00  0.6899906659D-01
      0.1881288540D+01 -0.1608541517D+00  0.3164239610D+00
      0.5442492580D+00  0.1143456438D+01  0.7443082909D+00
 Atom C8       Shell    25 SP   1    bf   72 -    75          3.301139470187          2.370003053120          0.554868775967
      0.1687144782D+00  0.1000000000D+01  0.1000000000D+01
 Atom C8       Shell    26 D   1     bf   76 -    81          3.301139470187          2.370003053120          0.554868775967
      0.8000000000D+00  0.1000000000D+01
 Atom H9       Shell    27 S   3     bf   82 -    82          3.442491098311          2.739788669023         -1.483744513661
      0.1873113696D+02  0.3349460434D-01
      0.2825394365D+01  0.2347269535D+00
      0.6401216923D+00  0.8137573261D+00
 Atom H9       Shell    28 S   1     bf   83 -    83          3.442491098311          2.739788669023         -1.483744513661
      0.1612777588D+00  0.1000000000D+01
 Atom H10      Shell    29 S   3     bf   84 -    84          2.197754459416          3.925568365907          1.358320480043
      0.1873113696D+02  0.3349460434D-01
      0.2825394365D+01  0.2347269535D+00
      0.6401216923D+00  0.8137573261D+00
 Atom H10      Shell    30 S   1     bf   85 -    85          2.197754459416          3.925568365907          1.358320480043
      0.1612777588D+00  0.1000000000D+01
 Atom C11      Shell    31 S   6     bf   86 -    86          1.847284074468         -0.115261785674          0.929222445748
      0.3047524880D+04  0.1834737132D-02
      0.4573695180D+03  0.1403732281D-01
      0.1039486850D+03  0.6884262226D-01
      0.2921015530D+02  0.2321844432D+00
      0.9286662960D+01  0.4679413484D+00
      0.3163926960D+01  0.3623119853D+00
 Atom C11      Shell    32 SP   3    bf   87 -    90          1.847284074468         -0.115261785674          0.929222445748
      0.7868272350D+01 -0.1193324198D+00  0.6899906659D-01
      0.1881288540D+01 -0.1608541517D+00  0.3164239610D+00
      0.5442492580D+00  0.1143456438D+01  0.7443082909D+00
 Atom C11      Shell    33 SP   1    bf   91 -    94          1.847284074468         -0.115261785674          0.929222445748
      0.1687144782D+00  0.1000000000D+01  0.1000000000D+01
 Atom C11      Shell    34 D   1     bf   95 -   100          1.847284074468         -0.115261785674          0.929222445748
      0.8000000000D+00  0.1000000000D+01
 Atom H12      Shell    35 S   3     bf  101 -   101          1.477327702913         -0.444416381096          2.948263822921
      0.1873113696D+02  0.3349460434D-01
      0.2825394365D+01  0.2347269535D+00
      0.6401216923D+00  0.8137573261D+00
 Atom H12      Shell    36 S   1     bf  102 -   102          1.477327702913         -0.444416381096          2.948263822921
      0.1612777588D+00  0.1000000000D+01
 Atom H13      Shell    37 S   3     bf  103 -   103          0.000000000000          0.000000000000          0.000000000000
      0.1873113696D+02  0.3349460434D-01
      0.2825394365D+01  0.2347269535D+00
      0.6401216923D+00  0.8137573261D+00
 Atom H13      Shell    38 S   1     bf  104 -   104          0.000000000000          0.000000000000          0.000000000000
      0.1612777588D+00  0.1000000000D+01
 Atom C14      Shell    39 S   6     bf  105 -   105          9.774207120109          0.000000000000          0.000000000000
      0.3047524880D+04  0.1834737132D-02
      0.4573695180D+03  0.1403732281D-01
      0.1039486850D+03  0.6884262226D-01
      0.2921015530D+02  0.2321844432D+00
      0.9286662960D+01  0.4679413484D+00
      0.3163926960D+01  0.3623119853D+00
 Atom C14      Shell    40 SP   3    bf  106 -   109          9.774207120109          0.000000000000          0.000000000000
      0.7868272350D+01 -0.1193324198D+00  0.6899906659D-01
      0.1881288540D+01 -0.1608541517D+00  0.3164239610D+00
      0.5442492580D+00  0.1143456438D+01  0.7443082909D+00
 Atom C14      Shell    41 SP   1    bf  110 -   113          9.774207120109          0.000000000000          0.000000000000
      0.1687144782D+00  0.1000000000D+01  0.1000000000D+01
 Atom C14      Shell    42 D   1     bf  114 -   119          9.774207120109          0.000000000000          0.000000000000
      0.8000000000D+00  0.1000000000D+01
 Atom H15      Shell    43 S   3     bf  120 -   120         10.654857368146         -1.764477125702         -0.579736173478
      0.1873113696D+02  0.3349460434D-01
      0.2825394365D+01  0.2347269535D+00
      0.6401216923D+00  0.8137573261D+00
 Atom H15      Shell    44 S   1     bf  121 -   121         10.654857368146         -1.764477125702         -0.579736173478
      0.1612777588D+00  0.1000000000D+01
 Atom C16      Shell    45 S   6     bf  122 -   122         11.447747184996          2.281288744874         -0.182247304749
      0.3047524880D+04  0.1834737132D-02
      0.4573695180D+03  0.1403732281D-01
      0.1039486850D+03  0.6884262226D-01
      0.2921015530D+02  0.2321844432D+00
      0.9286662960D+01  0.4679413484D+00
      0.3163926960D+01  0.3623119853D+00
 Atom C16      Shell    46 SP   3    bf  123 -   126         11.447747184996          2.281288744874         -0.182247304749
      0.7868272350D+01 -0.1193324198D+00  0.6899906659D-01
      0.1881288540D+01 -0.1608541517D+00  0.3164239610D+00
      0.5442492580D+00  0.1143456438D+01  0.7443082909D+00
 Atom C16      Shell    47 SP   1    bf  127 -   130         11.447747184996          2.281288744874         -0.182247304749
      0.1687144782D+00  0.1000000000D+01  0.1000000000D+01
 Atom C16      Shell    48 D   1     bf  131 -   136         11.447747184996          2.281288744874         -0.182247304749
      0.8000000000D+00  0.1000000000D+01
 Atom H17      Shell    49 S   3     bf  137 -   137         11.927201715315          2.659795390188         -2.171404439473
      0.1873113696D+02  0.3349460434D-01
      0.2825394365D+01  0.2347269535D+00
      0.6401216923D+00  0.8137573261D+00
 Atom H17      Shell    50 S   1     bf  138 -   138         11.927201715315          2.659795390188         -2.171404439473
      0.1612777588D+00  0.1000000000D+01
 Atom C18      Shell    51 S   6     bf  139 -   139         10.358637845734          4.674580971828          1.054040236325
      0.3047524880D+04  0.1834737132D-02
      0.4573695180D+03  0.1403732281D-01
      0.1039486850D+03  0.6884262226D-01
      0.2921015530D+02  0.2321844432D+00
      0.9286662960D+01  0.4679413484D+00
      0.3163926960D+01  0.3623119853D+00
 Atom C18      Shell    52 SP   3    bf  140 -   143         10.358637845734          4.674580971828          1.054040236325
      0.7868272350D+01 -0.1193324198D+00  0.6899906659D-01
      0.1881288540D+01 -0.1608541517D+00  0.3164239610D+00
      0.5442492580D+00  0.1143456438D+01  0.7443082909D+00
 Atom C18      Shell    53 SP   1    bf  144 -   147         10.358637845734          4.674580971828          1.054040236325
      0.1687144782D+00  0.1000000000D+01  0.1000000000D+01
 Atom C18      Shell    54 D   1     bf  148 -   153         10.358637845734          4.674580971828          1.054040236325
      0.8000000000D+00  0.1000000000D+01
 Atom H19      Shell    55 S   3     bf  154 -   154         10.766718289287          4.539995451432          3.083864031764
      0.1873113696D+02  0.3349460434D-01
      0.2825394365D+01  0.2347269535D+00
      0.6401216923D+00  0.8137573261D+00
 Atom H19      Shell    56 S   1     bf  155 -   155         10.766718289287          4.539995451432          3.083864031764
      0.1612777588D+00  0.1000000000D+01
 Atom C20      Shell    57 S   6     bf  156 -   156          7.450969232983          4.777104642764          0.643543059814
      0.3047524880D+04  0.1834737132D-02
      0.4573695180D+03  0.1403732281D-01
      0.1039486850D+03  0.6884262226D-01
      0.2921015530D+02  0.2321844432D+00
      0.9286662960D+01  0.4679413484D+00
      0.3163926960D+01  0.3623119853D+00
 Atom C20      Shell    58 SP   3    bf  157 -   160          7.450969232983          4.777104642764          0.643543059814
      0.7868272350D+01 -0.1193324198D+00  0.6899906659D-01
      0.1881288540D+01 -0.1608541517D+00  0.3164239610D+00
      0.5442492580D+00  0.1143456438D+01  0.7443082909D+00
 Atom C20      Shell    59 SP   1    bf  161 -   164          7.450969232983          4.777104642764          0.643543059814
      0.1687144782D+00  0.1000000000D+01  0.1000000000D+01
 Atom C20      Shell    60 D   1     bf  165 -   170          7.450969232983          4.777104642764          0.643543059814
      0.8000000000D+00  0.1000000000D+01
 Atom H21      Shell    61 S   3     bf  171 -   171          7.170456471681          4.731399669822         -1.419946792497
      0.1873113696D+02  0.3349460434D-01
      0.2825394365D+01  0.2347269535D+00
      0.6401216923D+00  0.8137573261D+00
 Atom H21      Shell    62 S   1     bf  172 -   172          7.170456471681          4.731399669822         -1.419946792497
      0.1612777588D+00  0.1000000000D+01
 Atom C22      Shell    63 S   6     bf  173 -   173          6.339281086837          7.307494440858          1.590380776682
      0.3047524880D+04  0.1834737132D-02
      0.4573695180D+03  0.1403732281D-01
      0.1039486850D+03  0.6884262226D-01
      0.2921015530D+02  0.2321844432D+00
      0.9286662960D+01  0.4679413484D+00
      0.3163926960D+01  0.3623119853D+00
 Atom C22      Shell    64 SP   3    bf  174 -   177          6.339281086837          7.307494440858          1.590380776682
      0.7868272350D+01 -0.1193324198D+00  0.6899906659D-01
      0.1881288540D+01 -0.1608541517D+00  0.3164239610D+00
      0.5442492580D+00  0.1143456438D+01  0.7443082909D+00
 Atom C22      Shell    65 SP   1    bf  178 -   181          6.339281086837          7.307494440858          1.590380776682
      0.1687144782D+00  0.1000000000D+01  0.1000000000D+01
 Atom C22      Shell    66 D   1     bf  182 -   187          6.339281086837          7.307494440858          1.590380776682
      0.8000000000D+00  0.1000000000D+01
 Atom H23      Shell    67 S   3     bf  188 -   188          6.390971483846          7.361930250890          3.658907013700
      0.1873113696D+02  0.3349460434D-01
      0.2825394365D+01  0.2347269535D+00
      0.6401216923D+00  0.8137573261D+00
 Atom H23      Shell    68 S   1     bf  189 -   189          6.390971483846          7.361930250890          3.658907013700
      0.1612777588D+00  0.1000000000D+01
 Atom H24      Shell    69 S   3     bf  190 -   190          4.339932148853          7.422011296490          1.066996368767
      0.1873113696D+02  0.3349460434D-01
      0.2825394365D+01  0.2347269535D+00
      0.6401216923D+00  0.8137573261D+00
 Atom H24      Shell    70 S   1     bf  191 -   191          4.339932148853          7.422011296490          1.066996368767
      0.1612777588D+00  0.1000000000D+01
 Atom C25      Shell    71 S   6     bf  192 -   192          7.693900746119          9.669509999560          0.558020139958
      0.3047524880D+04  0.1834737132D-02
      0.4573695180D+03  0.1403732281D-01
      0.1039486850D+03  0.6884262226D-01
      0.2921015530D+02  0.2321844432D+00
      0.9286662960D+01  0.4679413484D+00
      0.3163926960D+01  0.3623119853D+00
 Atom C25      Shell    72 SP   3    bf  193 -   196          7.693900746119          9.669509999560          0.558020139958
      0.7868272350D+01 -0.1193324198D+00  0.6899906659D-01
      0.1881288540D+01 -0.1608541517D+00  0.3164239610D+00
      0.5442492580D+00  0.1143456438D+01  0.7443082909D+00
 Atom C25      Shell    73 SP   1    bf  197 -   200          7.693900746119          9.669509999560          0.558020139958
      0.1687144782D+00  0.1000000000D+01  0.1000000000D+01
 Atom C25      Shell    74 D   1     bf  201 -   206          7.693900746119          9.669509999560          0.558020139958
      0.8000000000D+00  0.1000000000D+01
 Atom H26      Shell    75 S   3     bf  207 -   207          7.403324059324          9.788097552049         -1.496169047245
      0.1873113696D+02  0.3349460434D-01
      0.2825394365D+01  0.2347269535D+00
      0.6401216923D+00  0.8137573261D+00
 Atom H26      Shell    76 S   1     bf  208 -   208          7.403324059324          9.788097552049         -1.496169047245
      0.1612777588D+00  0.1000000000D+01
 Atom H27      Shell    77 S   3     bf  209 -   209          6.801830788576         11.347493793242          1.375029003873
      0.1873113696D+02  0.3349460434D-01
      0.2825394365D+01  0.2347269535D+00
      0.6401216923D+00  0.8137573261D+00
 Atom H27      Shell    78 S   1     bf  210 -   210          6.801830788576         11.347493793242          1.375029003873
      0.1612777588D+00  0.1000000000D+01
 Atom C28      Shell    79 S   6     bf  211 -   211         10.556201531967          9.603257883197          1.093546151660
      0.3047524880D+04  0.1834737132D-02
      0.4573695180D+03  0.1403732281D-01
      0.1039486850D+03  0.6884262226D-01
      0.2921015530D+02  0.2321844432D+00
      0.9286662960D+01  0.4679413484D+00
      0.3163926960D+01  0.3623119853D+00
 Atom C28      Shell    80 SP   3    bf  212 -   215         10.556201531967          9.603257883197          1.093546151660
      0.7868272350D+01 -0.1193324198D+00  0.6899906659D-01
      0.1881288540D+01 -0.1608541517D+00  0.3164239610D+00
      0.5442492580D+00  0.1143456438D+01  0.7443082909D+00
 Atom C28      Shell    81 SP   1    bf  216 -   219         10.556201531967          9.603257883197          1.093546151660
      0.1687144782D+00  0.1000000000D+01  0.1000000000D+01
 Atom C28      Shell    82 D   1     bf  220 -   225         10.556201531967          9.603257883197          1.093546151660
      0.8000000000D+00  0.1000000000D+01
 Atom C29      Shell    83 S   6     bf  226 -   226         11.568465101344          7.085046085015         -0.039058106934
      0.3047524880D+04  0.1834737132D-02
      0.4573695180D+03  0.1403732281D-01
      0.1039486850D+03  0.6884262226D-01
      0.2921015530D+02  0.2321844432D+00
      0.9286662960D+01  0.4679413484D+00
      0.3163926960D+01  0.3623119853D+00
 Atom C29      Shell    84 SP   3    bf  227 -   230         11.568465101344          7.085046085015         -0.039058106934
      0.7868272350D+01 -0.1193324198D+00  0.6899906659D-01
      0.1881288540D+01 -0.1608541517D+00  0.3164239610D+00
      0.5442492580D+00  0.1143456438D+01  0.7443082909D+00
 Atom C29      Shell    85 SP   1    bf  231 -   234         11.568465101344          7.085046085015         -0.039058106934
      0.1687144782D+00  0.1000000000D+01  0.1000000000D+01
 Atom C29      Shell    86 D   1     bf  235 -   240         11.568465101344          7.085046085015         -0.039058106934
      0.8000000000D+00  0.1000000000D+01
 Atom H30      Shell    87 S   3     bf  241 -   241         11.000184202019          7.130783693528         -2.045015360513
      0.1873113696D+02  0.3349460434D-01
      0.2825394365D+01  0.2347269535D+00
      0.6401216923D+00  0.8137573261D+00
 Atom H30      Shell    88 S   1     bf  242 -   242         11.000184202019          7.130783693528         -2.045015360513
      0.1612777588D+00  0.1000000000D+01
 Atom C31      Shell    89 S   6     bf  243 -   243         14.457756165246          7.393830831122          0.000000000000
      0.3047524880D+04  0.1834737132D-02
      0.4573695180D+03  0.1403732281D-01
      0.1039486850D+03  0.6884262226D-01
      0.2921015530D+02  0.2321844432D+00
      0.9286662960D+01  0.4679413484D+00
      0.3163926960D+01  0.3623119853D+00
 Atom C31      Shell    90 SP   3    bf  244 -   247         14.457756165246          7.393830831122          0.000000000000
      0.7868272350D+01 -0.1193324198D+00  0.6899906659D-01
      0.1881288540D+01 -0.1608541517D+00  0.3164239610D+00
      0.5442492580D+00  0.1143456438D+01  0.7443082909D+00
 Atom C31      Shell    91 SP   1    bf  248 -   251         14.457756165246          7.393830831122          0.000000000000
      0.1687144782D+00  0.1000000000D+01  0.1000000000D+01
 Atom C31      Shell    92 D   1     bf  252 -   257         14.457756165246          7.393830831122          0.000000000000
      0.8000000000D+00  0.1000000000D+01
 Atom H32      Shell    93 S   3     bf  258 -   258         15.388830939447          6.206887214118         -1.414954306129
      0.1873113696D+02  0.3349460434D-01
      0.2825394365D+01  0.2347269535D+00
      0.6401216923D+00  0.8137573261D+00
 Atom H32      Shell    94 S   1     bf  259 -   259         15.388830939447          6.206887214118         -1.414954306129
      0.1612777588D+00  0.1000000000D+01
 Atom H33      Shell    95 S   3     bf  260 -   260         15.231009478801          6.835752204140          1.835512327880
      0.1873113696D+02  0.3349460434D-01
      0.2825394365D+01  0.2347269535D+00
      0.6401216923D+00  0.8137573261D+00
 Atom H33      Shell    96 S   1     bf  261 -   261         15.231009478801          6.835752204140          1.835512327880
      0.1612777588D+00  0.1000000000D+01
 Atom C34      Shell    97 S   6     bf  262 -   262         14.865281256084         10.256005836799         -0.508294472312
      0.3047524880D+04  0.1834737132D-02
      0.4573695180D+03  0.1403732281D-01
      0.1039486850D+03  0.6884262226D-01
      0.2921015530D+02  0.2321844432D+00
      0.9286662960D+01  0.4679413484D+00
      0.3163926960D+01  0.3623119853D+00
 Atom C34      Shell    98 SP   3    bf  263 -   266         14.865281256084         10.256005836799         -0.508294472312
      0.7868272350D+01 -0.1193324198D+00  0.6899906659D-01
      0.1881288540D+01 -0.1608541517D+00  0.3164239610D+00
      0.5442492580D+00  0.1143456438D+01  0.7443082909D+00
 Atom C34      Shell    99 SP   1    bf  267 -   270         14.865281256084         10.256005836799         -0.508294472312
      0.1687144782D+00  0.1000000000D+01  0.1000000000D+01
 Atom C34      Shell   100 D   1     bf  271 -   276         14.865281256084         10.256005836799         -0.508294472312
      0.8000000000D+00  0.1000000000D+01
 Atom H35      Shell   101 S   3     bf  277 -   277         16.114864437798         11.078660163050          0.924915759891
      0.1873113696D+02  0.3349460434D-01
      0.2825394365D+01  0.2347269535D+00
      0.6401216923D+00  0.8137573261D+00
 Atom H35      Shell   102 S   1     bf  278 -   278         16.114864437798         11.078660163050          0.924915759891
      0.1612777588D+00  0.1000000000D+01
 Atom H36      Shell   103 S   3     bf  279 -   279         15.782652019828         10.584452162866         -2.333287545187
      0.1873113696D+02  0.3349460434D-01
      0.2825394365D+01  0.2347269535D+00
      0.6401216923D+00  0.8137573261D+00
 Atom H36      Shell   104 S   1     bf  280 -   280         15.782652019828         10.584452162866         -2.333287545187
      0.1612777588D+00  0.1000000000D+01
 Atom C37      Shell   105 S   6     bf  281 -   281         12.208855058619         11.545237173534         -0.415971391864
      0.3047524880D+04  0.1834737132D-02
      0.4573695180D+03  0.1403732281D-01
      0.1039486850D+03  0.6884262226D-01
      0.2921015530D+02  0.2321844432D+00
      0.9286662960D+01  0.4679413484D+00
      0.3163926960D+01  0.3623119853D+00
 Atom C37      Shell   106 SP   3    bf  282 -   285         12.208855058619         11.545237173534         -0.415971391864
      0.7868272350D+01 -0.1193324198D+00  0.6899906659D-01
      0.1881288540D+01 -0.1608541517D+00  0.3164239610D+00
      0.5442492580D+00  0.1143456438D+01  0.7443082909D+00
[...]
 1637 Fit      -0.001603
 1638 Fit      -0.001701
 1639 Fit      -0.002159
 1640 Fit      -0.002120
 1641 Fit       0.001036
 1642 Fit      -0.001394
 1643 Fit      -0.000102
 1644 Fit      -0.000893
 1645 Fit      -0.001566
 1646 Fit       0.001604
 1647 Fit       0.000258
 1648 Fit       0.002260
 1649 Fit       0.003391
 1650 Fit       0.004286
 1651 Fit      -0.000891
 1652 Fit       0.000976
 1653 Fit       0.002095
 1654 Fit       0.002320
 1655 Fit      -0.001889
 1656 Fit      -0.000371
 1657 Fit       0.000068
 1658 Fit      -0.000907
 1659 Fit      -0.000832
 1660 Fit      -0.000828
 1661 Fit      -0.000523
 1662 Fit       0.000017
 1663 Fit       0.001053
 1664 Fit       0.002925
 1665 Fit       0.001741
 1666 Fit       0.000432
 1667 Fit      -0.000451
 1668 Fit       0.001610
 1669 Fit       0.001834
 1670 Fit       0.002733
 1671 Fit       0.003961
 1672 Fit       0.003357
 1673 Fit       0.002198
 1674 Fit       0.003225
 1675 Fit       0.002375
 1676 Fit      -0.000209
 1677 Fit       0.004873
 1678 Fit       0.004098
 1679 Fit       0.002154
 1680 Fit      -0.000075
 1681 Fit       0.003287
 1682 Fit       0.003796
 1683 Fit       0.003492
 1684 Fit       0.000750
 1685 Fit      -0.001394
 1686 Fit       0.001663
 1687 Fit       0.001833
 1688 Fit      -0.003421
 1689 Fit      -0.001244
 1690 Fit       0.002948
 1691 Fit      -0.002979
 1692 Fit      -0.011926
 1693 Fit      -0.018022
 1694 Fit      -0.010585
 1695 Fit      -0.004771
 1696 Fit      -0.001254
 1697 Fit       0.001756
 1698 Fit       0.001353
 1699 Fit      -0.003681
 1700 Fit      -0.007730
 1701 Fit      -0.005115
 1702 Fit      -0.001604
 1703 Fit      -0.001443
 1704 Fit      -0.005099
 1705 Fit      -0.011507
 1706 Fit      -0.003785
 1707 Fit      -0.007010
 1708 Fit      -0.009247
 1709 Fit      -0.005154
 1710 Fit      -0.004672
 1711 Fit      -0.007077
 1712 Fit      -0.014694
 1713 Fit      -0.006473
 1714 Fit      -0.004042
 1715 Fit      -0.012050
 1716 Fit      -0.005226
 1717 Fit      -0.002773
 1718 Fit      -0.010319
 1719 Fit      -0.004994
 1720 Fit       0.001494
 1721 Fit       0.011366
 1722 Fit       0.004941
 1723 Fit      -0.006657
 1724 Fit       0.008938
 1725 Fit       0.002300
 1726 Fit      -0.002413
 1727 Fit       0.000532
 1728 Fit       0.005627
 1729 Fit       0.004524
 1730 Fit       0.006257
 1731 Fit       0.005032
 1732 Fit       0.004186
 1733 Fit       0.003485
 1734 Fit       0.005523
 1735 Fit       0.006737
 1736 Fit       0.005583
 1737 Fit       0.004446
 1738 Fit       0.004226
 1739 Fit       0.004356
 1740 Fit       0.005225
 1741 Fit       0.008345
 1742 Fit       0.007332
 1743 Fit       0.008120
 1744 Fit       0.006973
 1745 Fit       0.005837
 1746 Fit       0.007430
 1747 Fit       0.006094
 1748 Fit       0.005856
 1749 Fit       0.005268
 1750 Fit       0.003750
 1751 Fit       0.003496
 1752 Fit      -0.003496
 1753 Fit       0.008018
 1754 Fit       0.009360
 1755 Fit       0.013518
 1756 Fit       0.006832
 1757 Fit       0.006499
 1758 Fit       0.008188
 1759 Fit       0.014333
 1760 Fit       0.003768
 1761 Fit       0.005339
 1762 Fit       0.003000
 1763 Fit       0.004857
 1764 Fit       0.003170
 1765 Fit       0.001069
 1766 Fit      -0.002605
 1767 Fit       0.004307
 1768 Fit       0.002831
 1769 Fit       0.000227
 1770 Fit      -0.005039
 1771 Fit       0.003394
 1772 Fit       0.001282
 1773 Fit      -0.003245
 1774 Fit      -0.013067
 1775 Fit       0.002643
 1776 Fit      -0.000912
 1777 Fit      -0.007169
 1778 Fit       0.000410
 1779 Fit      -0.017468
 1780 Fit      -0.017921
 1781 Fit       0.002070
 1782 Fit      -0.002765
 1783 Fit      -0.004475
 1784 Fit      -0.004007
 1785 Fit      -0.001322
 1786 Fit      -0.014642
 1787 Fit      -0.007549
 1788 Fit      -0.016993
 1789 Fit      -0.005524
 1790 Fit      -0.012849
 1791 Fit      -0.003248
 1792 Fit      -0.006316
 1793 Fit      -0.007698
 1794 Fit      -0.004323
 1795 Fit      -0.005457
 1796 Fit       0.012893
 1797 Fit       0.007765
 1798 Fit       0.008956
 1799 Fit       0.008427
 1800 Fit       0.005619
 1801 Fit       0.002463
 1802 Fit       0.003103
 1803 Fit       0.006352
 1804 Fit      -0.002570
 1805 Fit      -0.009537
 1806 Fit       0.008830
 1807 Fit       0.007439
 1808 Fit       0.007085
 1809 Fit       0.005548
 1810 Fit       0.005471
 1811 Fit       0.007000
 1812 Fit       0.005262
 1813 Fit       0.006220
 1814 Fit       0.005963
 1815 Fit       0.005311
 1816 Fit       0.005680
 1817 Fit       0.006913
 1818 Fit       0.007133
 1819 Fit       0.005450
 1820 Fit       0.006756
 1821 Fit       0.005211
 1822 Fit       0.006551
 1823 Fit       0.005147
 1824 Fit       0.006239
 1825 Fit       0.006044
 1826 Fit       0.002859
 1827 Fit       0.004200
 1828 Fit       0.004402
 1829 Fit       0.004739
 1830 Fit       0.005808
 1831 Fit       0.005772
 1832 Fit       0.006036
 1833 Fit       0.007221
 1834 Fit       0.006905
 1835 Fit       0.006986
 1836 Fit       0.005766
 1837 Fit       0.006251
 1838 Fit       0.005585
 1839 Fit       0.004560
 1840 Fit       0.004880
 1841 Fit       0.005220
 1842 Fit       0.002707
 1843 Fit       0.003727
 1844 Fit       0.007881
 1845 Fit       0.007614
 1846 Fit       0.007836
 1847 Fit       0.008024
 1848 Fit       0.008445
 1849 Fit       0.008898
 1850 Fit       0.007808
 1851 Fit       0.001791
 1852 Fit       0.003902
 1853 Fit       0.003666
 1854 Fit       0.008211
 1855 Fit       0.017969
 1856 Fit       0.009373
 1857 Fit       0.016017
 1858 Fit       0.009212
 1859 Fit       0.010682
 1860 Fit       0.011828
 1861 Fit       0.008641
 1862 Fit      -0.000695
 1863 Fit      -0.006665
 1864 Fit      -0.000195
 1865 Fit       0.002623
 1866 Fit      -0.005053
 1867 Fit       0.000645
 1868 Fit      -0.001023
 1869 Fit       0.001647
 1870 Fit       0.002171
 1871 Fit       0.002598
 1872 Fit       0.003090
 1873 Fit       0.004136
 1874 Fit       0.004494
 1875 Fit       0.003240
 1876 Fit       0.003689
 1877 Fit       0.003518
 1878 Fit       0.002431
 1879 Fit       0.002580
 1880 Fit       0.003169
 1881 Fit       0.001777
 1882 Fit       0.001962
 1883 Fit       0.002940
 1884 Fit       0.003788
 1885 Fit       0.004024
 1886 Fit       0.004637
 1887 Fit       0.005353
 1888 Fit       0.005211
 1889 Fit       0.006247
 1890 Fit       0.006225
 1891 Fit       0.007007
 1892 Fit       0.006844
 1893 Fit       0.006809
 1894 Fit       0.005957
 1895 Fit       0.006243
 1896 Fit       0.007280
 1897 Fit       0.007270
 1898 Fit       0.000422
 1899 Fit      -0.000142
 1900 Fit       0.000413
 1901 Fit       0.001294
 1902 Fit       0.001784
 1903 Fit       0.000091
 1904 Fit       0.001314
 1905 Fit       0.003182
 1906 Fit       0.002446
 1907 Fit       0.004943
 1908 Fit      -0.002785
 1909 Fit       0.001642
 1910 Fit       0.003634
 1911 Fit       0.003721
 1912 Fit       0.001471
 1913 Fit       0.004990
 1914 Fit       0.001149
 1915 Fit       0.000918
 1916 Fit       0.000842
 1917 Fit      -0.000527
 1918 Fit       0.002442
 1919 Fit       0.002826
 1920 Fit       0.002149
 1921 Fit      -0.001932
 1922 Fit       0.000527
 1923 Fit       0.003986
 1924 Fit       0.004697
 1925 Fit       0.001937
 1926 Fit       0.003118
 1927 Fit       0.002733
 1928 Fit       0.002906
 1929 Fit       0.004001
 1930 Fit       0.004900
 1931 Fit       0.004716
 1932 Fit       0.002533
 1933 Fit       0.003013
 1934 Fit       0.002768
 1935 Fit       0.002895
 1936 Fit       0.003442
 1937 Fit       0.002483
 1938 Fit       0.002328
 1939 Fit       0.002234
 1940 Fit       0.002042
 1941 Fit       0.001426
 1942 Fit       0.001055
 1943 Fit       0.000612
 1944 Fit       0.001729
 1945 Fit       0.000735
 1946 Fit       0.000593
 1947 Fit       0.001351
 1948 Fit       0.001257
 1949 Fit       0.001350
 1950 Fit       0.002094
 1951 Fit       0.002749
 1952 Fit       0.003404
 1953 Fit       0.003858
 1954 Fit       0.004284
 1955 Fit       0.005275
 1956 Fit       0.005504
 1957 Fit       0.002183
 1958 Fit       0.001673
 1959 Fit       0.003081
 1960 Fit       0.003272
 1961 Fit       0.002812
 1962 Fit       0.001772
 1963 Fit       0.003810
 1964 Fit       0.003084
 1965 Fit       0.001939
 1966 Fit       0.003665
 1967 Fit       0.002841
 1968 Fit       0.001663
 1969 Fit       0.002302
 1970 Fit       0.001297
 1971 Fit       0.002876
 1972 Fit       0.003504
 1973 Fit       0.005649
 1974 Fit       0.002360
 1975 Fit       0.004420
 1976 Fit       0.006671
 1977 Fit       0.002536
 1978 Fit       0.004954
 1979 Fit       0.001860
 1980 Fit       0.002200
 1981 Fit       0.003040
 1982 Fit       0.003252
 1983 Fit       0.003195
 1984 Fit       0.001165
 1985 Fit       0.004006
 1986 Fit       0.005419
 1987 Fit       0.000858
 1988 Fit       0.007384
 1989 Fit      -0.004390
 1990 Fit       0.004043
 1991 Fit       0.005058
 1992 Fit       0.004659
 1993 Fit       0.006686
 1994 Fit       0.006692
 1995 Fit       0.006324
 1996 Fit       0.005812
 1997 Fit       0.007644
 1998 Fit       0.007755
 1999 Fit       0.007220
 2000 Fit       0.005322
 2001 Fit       0.006319
 2002 Fit       0.003341
 2003 Fit       0.009191
 2004 Fit       0.011367
 2005 Fit       0.009703
 2006 Fit       0.004485
 2007 Fit       0.001224
 2008 Fit       0.000525
 2009 Fit       0.002499
 2010 Fit      -0.000371
 2011 Fit      -0.001770
 2012 Fit       0.002607
 2013 Fit      -0.002996
 2014 Fit      -0.004263
 2015 Fit      -0.011043
 2016 Fit      -0.012968
 2017 Fit      -0.018337
 2018 Fit      -0.020328
 2019 Fit      -0.014899
 2020 Fit      -0.021700
 2021 Fit      -0.024230
 2022 Fit      -0.017282
 2023 Fit      -0.013946
 2024 Fit      -0.028318
 2025 Fit      -0.028616
 2026 Fit      -0.023236
 2027 Fit      -0.026968
 2028 Fit      -0.011884
 2029 Fit      -0.026893
 2030 Fit      -0.026088
 2031 Fit      -0.023377
 2032 Fit      -0.017902
 2033 Fit      -0.022734
 2034 Fit      -0.021354
 2035 Fit      -0.016147
 2036 Fit      -0.007926
 2037 Fit      -0.017301
 2038 Fit      -0.018515
 2039 Fit      -0.014869
 2040 Fit      -0.007691
 2041 Fit       0.002472
 2042 Fit      -0.014776
 2043 Fit      -0.011891
 2044 Fit      -0.004255
 2045 Fit      -0.010815
 2046 Fit      -0.010409
 2047 Fit      -0.004394
 2048 Fit       0.006035
 2049 Fit      -0.006876
 2050 Fit      -0.001446
 2051 Fit       0.001401
 2052 Fit       0.003275
 2053 Fit       0.004680
 2054 Fit       0.012069
 2055 Fit       0.014058
 2056 Fit       0.011388
 2057 Fit       0.006004
 2058 Fit       0.016806
 2059 Fit       0.018876
 2060 Fit       0.011620
 2061 Fit       0.018067
 2062 Fit       0.020256
 2063 Fit       0.012480
 2064 Fit       0.016040
 2065 Fit       0.017682
 2066 Fit       0.013608
 2067 Fit       0.008358
 2068 Fit       0.010768
 2069 Fit      -0.002880
 2070 Fit      -0.003457
 2071 Fit      -0.004434
 2072 Fit      -0.006127
 2073 Fit      -0.006352
 2074 Fit      -0.012825
 2075 Fit      -0.015241
 2076 Fit      -0.015753
 2077 Fit      -0.015903
 2078 Fit      -0.016509
 2079 Fit      -0.017346
 2080 Fit      -0.017229
 2081 Fit      -0.018006
 2082 Fit      -0.022201
 2083 Fit      -0.023673
 2084 Fit      -0.024225
 2085 Fit      -0.024530
 2086 Fit      -0.023867
 2087 Fit      -0.020384
 2088 Fit      -0.015095
 2089 Fit      -0.022409
 2090 Fit      -0.025937
 2091 Fit      -0.027097
 2092 Fit      -0.026677
 2093 Fit      -0.023868
 2094 Fit      -0.017289
 2095 Fit      -0.020587
 2096 Fit      -0.024410
 2097 Fit      -0.021403
 2098 Fit       0.020305
 2099 Fit       0.017861
 2100 Fit       0.016738
 2101 Fit       0.016674
 2102 Fit       0.012575
 2103 Fit       0.011581
 2104 Fit       0.011117
 2105 Fit       0.010473
 2106 Fit       0.009850
 2107 Fit       0.001836
 2108 Fit       0.001805
 2109 Fit       0.001749
 2110 Fit       0.001018
 2111 Fit      -0.000253
 2112 Fit      -0.001089
 2113 Fit       0.001512
 2114 Fit       0.000633
 2115 Fit      -0.000139
 2116 Fit       0.001300
 2117 Fit       0.002183
 2118 Fit       0.002979
 2119 Fit       0.001076
 2120 Fit       0.002430
 2121 Fit       0.003461
 2122 Fit      -0.000076
 2123 Fit       0.001500
 2124 Fit       0.002909
 2125 Fit       0.003715
 2126 Fit       0.002374
 2127 Fit       0.002337
 2128 Fit       0.000550
 2129 Fit       0.002581
 2130 Fit       0.000999
 2131 Fit       0.003043
 2132 Fit       0.003295
 2133 Fit       0.003437
 2134 Fit       0.003990
 2135 Fit       0.005563
 2136 Fit       0.006378
 2137 Fit       0.006315
 2138 Fit       0.002139
 2139 Fit       0.002114
 2140 Fit       0.005449
 2141 Fit      -0.001064
 2142 Fit      -0.000928
 2143 Fit       0.001769
 2144 Fit      -0.000118
 2145 Fit       0.002531
 2146 Fit       0.000702
 2147 Fit       0.004342
 2148 Fit       0.003680
 2149 Fit       0.004943
 2150 Fit       0.004400
 2151 Fit       0.004148
 2152 Fit       0.003834
 2153 Fit       0.000329
 2154 Fit       0.002063
 2155 Fit       0.003102
 2156 Fit       0.003371
 2157 Fit      -0.000534
 2158 Fit       0.001359
 2159 Fit       0.002767
 2160 Fit       0.003372
 2161 Fit       0.003195
 2162 Fit       0.002228
 2163 Fit       0.005625
 2164 Fit       0.004403
 2165 Fit       0.003826
 2166 Fit       0.004681
 2167 Fit       0.004534
 2168 Fit       0.003628
 2169 Fit       0.002839
 2170 Fit       0.003551
 2171 Fit       0.003190
 2172 Fit       0.001821
 2173 Fit       0.002449
 2174 Fit       0.002254
 2175 Fit      -0.000352
 2176 Fit      -0.000904
 2177 Fit      -0.000274
 2178 Fit       0.002525
 2179 Fit      -0.000997
 2180 Fit      -0.000753
 2181 Fit      -0.000830
 2182 Fit      -0.000788
 2183 Fit      -0.000490
 2184 Fit       0.000064
 2185 Fit       0.000637
 2186 Fit       0.001100
 2187 Fit       0.002608
 2188 Fit       0.003656
 2189 Fit       0.003033
 2190 Fit       0.002075
 2191 Fit       0.001002
 2192 Fit       0.002878
 2193 Fit       0.002392
 2194 Fit       0.001520
 2195 Fit       0.000378
 2196 Fit       0.001503
 2197 Fit       0.001206
 2198 Fit       0.000422
 2199 Fit      -0.000566
 2200 Fit      -0.000325
 2201 Fit       0.000919
 2202 Fit       0.000795
 2203 Fit       0.000880
 2204 Fit       0.001020
 2205 Fit       0.001191
 2206 Fit       0.001449
 2207 Fit       0.001912
 2208 Fit       0.002473
 2209 Fit       0.002657
 2210 Fit       0.002259
 2211 Fit       0.002334
 2212 Fit       0.002608
 2213 Fit       0.003178
 2214 Fit       0.003076
 2215 Fit       0.003107
 2216 Fit       0.001300
 2217 Fit       0.003186
 2218 Fit       0.004562
 2219 Fit       0.004824
 2220 Fit       0.000148
 2221 Fit       0.001851
 2222 Fit       0.003019
 2223 Fit       0.003417
 2224 Fit       0.003136
 2225 Fit       0.000918
 2226 Fit       0.001471
 2227 Fit      -0.001027
 2228 Fit      -0.000791
 2229 Fit      -0.000801
 2230 Fit      -0.001135
 2231 Fit      -0.001340
 2232 Fit      -0.000668
 2233 Fit      -0.001359
 2234 Fit      -0.001431
 2235 Fit      -0.001114
 2236 Fit      -0.000867
 2237 Fit      -0.000926
 2238 Fit       0.001030
 2239 Fit       0.000336
 2240 Fit       0.001874
 2241 Fit       0.002956
 2242 Fit      -0.000416
 2243 Fit       0.000960
 2244 Fit       0.001990
 2245 Fit       0.002532
 2246 Fit       0.000086
 2247 Fit       0.000953
 2248 Fit       0.001200
 2249 Fit       0.000823
 2250 Fit      -0.000731
 2251 Fit      -0.000411
 2252 Fit       0.000014
 2253 Fit      -0.000035
 2254 Fit       0.000204
 2255 Fit       0.000667
 2256 Fit       0.001561
 2257 Fit       0.002899
 2258 Fit       0.002011
 2259 Fit       0.001082
 2260 Fit       0.000382
 2261 Fit       0.001566
 2262 Fit       0.001695
 2263 Fit       0.002393
 2264 Fit       0.003288
 2265 Fit       0.002912
 2266 Fit       0.002062
 2267 Fit       0.002650
 2268 Fit       0.001929
 2269 Fit      -0.000061
 2270 Fit       0.003581
 2271 Fit       0.002000
 2272 Fit       0.000319
 2273 Fit       0.003902
 2274 Fit       0.003820
 2275 Fit       0.003202
 2276 Fit       0.001405
 2277 Fit      -0.000157
 2278 Fit       0.002658
 2279 Fit       0.002799
 2280 Fit       0.002426
 2281 Fit       0.000254
 2282 Fit       0.001123
 2283 Fit       0.001095
 -----------------------------------------------------------------
 Leave Link  602 at Thu Apr 27 16:13:02 2017, MaxMem=    33554432 cpu:         3.6
 (Enter /home/michal/g09/l9999.exe)

 Test job not archived.
 1\1\GINC-LINUX\SP\RHF\6-31G(d)\C27H46O3\MICHAL\27-Apr-2017\0\\#P HF/6-
 31G* SCF(Conver=6) NoSymm Test Pop=mk IOp(6/33=2) GFInput GFPrint\\MEP
  - Input generated by R.E.D.-III.x MOLECULE\\0,1\C,0,1.75946658,-1.247
 79586,-0.07052653\H,0,1.87310966,-1.12270849,-1.1543505\C,0,3.15097879
 ,-1.31101156,0.57424369\H,0,3.72954282,-2.12712753,0.13085189\H,0,3.01
 403715,-1.5631288,1.63859008\C,0,3.91289161,-0.0042607,0.45617453\C,0,
 3.18707769,1.27175593,0.89430823\C,0,1.74688777,1.2541516,0.29362391\H
 ,0,1.82168783,1.44983372,-0.78516378\H,0,1.16300157,2.07732131,0.71879
 224\C,0,0.97754063,-0.06099391,0.49172334\H,0,0.78176815,-0.23517502,1
 .56015402\H,0,0.,0.,0.\C,0,5.17228764,0.,0.\H,0,5.63830768,-0.93372108
 ,-0.30678317\C,0,6.0578869,1.20720601,-0.09644112\H,0,6.31160331,1.407
 5031,-1.14905774\C,0,5.48155506,2.47368171,0.55777407\H,0,5.69750193,2
 .40246212,1.63191056\C,0,3.9428831,2.5279349,0.34054832\H,0,3.79444214
 ,2.50374887,-0.75140348\C,0,3.35460307,3.86695951,0.84159326\H,0,3.381
 95645,3.8957657,1.9362102\H,0,2.29659318,3.92755922,0.56463016\C,0,4.0
 7143692,5.11688431,0.29529154\H,0,3.91767036,5.17963814,-0.79173856\H,
 0,3.59937383,6.00483509,0.72763401\C,0,5.58610126,5.0818252,0.5786797\
 C,0,6.12176807,3.74924491,-0.02066866\H,0,5.82104677,3.77344821,-1.082
 17552\C,0,7.65071505,3.91264676,0.\H,0,8.1434186,3.28454325,-0.7487615
 7\H,0,8.05990308,3.61732427,0.97131129\C,0,7.86636804,5.42724454,-0.26
 897785\H,0,8.52761898,5.86257446,0.48944434\H,0,8.35181974,5.60105085,
 -1.23472259\C,0,6.46064784,6.10947638,-0.22012258\H,0,6.05041312,6.116
 49576,-1.24086141\C,0,5.86127896,5.20137068,2.09493238\H,0,5.42343914,
 4.37773363,2.66442324\H,0,6.93228179,5.21241842,2.31813765\H,0,5.43538
 86,6.12909532,2.49144888\C,0,6.53352234,7.58156498,0.25660222\H,0,6.95
 410008,7.57548969,1.27279394\C,0,5.16283422,8.28005219,0.33459757\H,0,
 4.59767785,8.1797207,-0.59873839\H,0,5.2902451,9.35113195,0.53140695\H
 ,0,4.5425971,7.87535774,1.13833399\C,0,3.10508983,1.28638535,2.4442698
 3\H,0,2.46268853,2.09687455,2.80254734\H,0,2.69042484,0.35194957,2.831
 17874\H,0,4.09582987,1.40706345,2.89242695\O,0,7.30380755,0.95904632,0
 .60278603\O,0,8.03573867,-0.06259062,-0.13938234\H,0,8.80033941,0.4563
 735,-0.4387057\O,0,1.05232565,-2.48361853,0.06618826\H,0,0.92110562,-2
 .66253701,1.00796994\C,0,7.52128786,8.42423078,-0.59457197\H,0,7.58573
 591,9.42107688,-0.13538068\H,0,8.52813239,7.99570206,-0.51512653\C,0,7
 .1754333,8.59718469,-2.08271666\H,0,7.15345924,7.61749653,-2.57977537\
 H,0,6.16656437,9.01496366,-2.18022833\C,0,8.18214429,9.49895331,-2.813
 55891\H,0,9.19412005,9.10567723,-2.6394201\H,0,8.16597688,10.50282303,
 -2.36196154\C,0,7.96886137,9.63490832,-4.33498694\H,0,7.95467618,8.619
 22326,-4.76019579\C,0,6.63341056,10.3108552,-4.68606541\H,0,6.58563146
 ,11.32109268,-4.25885478\H,0,6.51572269,10.40458724,-5.77166559\H,0,5.
 77366815,9.7478728,-4.30931086\C,0,9.14040652,10.39420237,-4.97782931\
 H,0,9.20370054,11.4179344,-4.5870644\H,0,9.0226201,10.46146494,-6.0653
 8284\H,0,10.09742326,9.90053487,-4.77354844\\Version=EM64L-G09RevD.01\
 HF=-1273.6844167\RMSD=5.721e-07\Dipole=0.0072847,1.0356194,0.1055252\Q
 uadrupole=0.4350772,-1.8785636,1.4434863,7.3680211,-7.0864655,-2.32947
 05\PG=C01 [X(C27H46O3)]\\@


 Discoveries are often made by not following instructions,
 by going off the main road, by trying the untried.
 -- Frank Tyger
 Job cpu time:       0 days  0 hours 12 minutes 16.6 seconds.
 File lengths (MBytes):  RWF=    159 Int=      0 D2E=      0 Chk=     11 Scr=      1
 Normal termination of Gaussian 09 at Thu Apr 27 16:13:02 2017.
