 Entering Gaussian System, Link 0=/home/michal/g09/g09
 Input=JOB2-gau_m1-7-3.com
 Output=JOB2-gau_m1-7-3.log
 Initial command:
 /home/michal/g09/l1.exe "/home/michal/gauss_scratch/Gau-30140.inp" -scrdir="/home/michal/gauss_scratch/"
 Entering Link 1 = /home/michal/g09/l1.exe PID=     30141.
  
 Copyright (c) 1988,1990,1992,1993,1995,1998,2003,2009,2013,
            Gaussian, Inc.  All Rights Reserved.
  
 This is part of the Gaussian(R) 09 program.  It is based on
 the Gaussian(R) 03 system (copyright 2003, Gaussian, Inc.),
 the Gaussian(R) 98 system (copyright 1998, Gaussian, Inc.),
 the Gaussian(R) 94 system (copyright 1995, Gaussian, Inc.),
 the Gaussian 92(TM) system (copyright 1992, Gaussian, Inc.),
 the Gaussian 90(TM) system (copyright 1990, Gaussian, Inc.),
 the Gaussian 88(TM) system (copyright 1988, Gaussian, Inc.),
 the Gaussian 86(TM) system (copyright 1986, Carnegie Mellon
 University), and the Gaussian 82(TM) system (copyright 1983,
 Carnegie Mellon University). Gaussian is a federally registered
 trademark of Gaussian, Inc.
  
 This software contains proprietary and confidential information,
 including trade secrets, belonging to Gaussian, Inc.
  
 This software is provided under written license and may be
 used, copied, transmitted, or stored only in accord with that
 written license.
  
 The following legend is applicable only to US Government
 contracts under FAR:
  
                    RESTRICTED RIGHTS LEGEND
  
 Use, reproduction and disclosure by the US Government is
 subject to restrictions as set forth in subparagraphs (a)
 and (c) of the Commercial Computer Software - Restricted
 Rights clause in FAR 52.227-19.
  
 Gaussian, Inc.
 340 Quinnipiac St., Bldg. 40, Wallingford CT 06492
  
  
 ---------------------------------------------------------------
 Warning -- This program may not be used in any manner that
 competes with the business of Gaussian, Inc. or will provide
 assistance to any competitor of Gaussian, Inc.  The licensee
 of this program is prohibited from giving any competitor of
 Gaussian, Inc. access to this program.  By using this program,
 the user acknowledges that Gaussian, Inc. is engaged in the
 business of creating and licensing software in the field of
 computational chemistry and represents and warrants to the
 licensee that it is not a competitor of Gaussian, Inc. and that
 it will not use this program in any manner prohibited above.
 ---------------------------------------------------------------
  

 Cite this work as:
 Gaussian 09, Revision D.01,
 M. J. Frisch, G. W. Trucks, H. B. Schlegel, G. E. Scuseria, 
 M. A. Robb, J. R. Cheeseman, G. Scalmani, V. Barone, B. Mennucci, 
 G. A. Petersson, H. Nakatsuji, M. Caricato, X. Li, H. P. Hratchian, 
 A. F. Izmaylov, J. Bloino, G. Zheng, J. L. Sonnenberg, M. Hada, 
 M. Ehara, K. Toyota, R. Fukuda, J. Hasegawa, M. Ishida, T. Nakajima, 
 Y. Honda, O. Kitao, H. Nakai, T. Vreven, J. A. Montgomery, Jr., 
 J. E. Peralta, F. Ogliaro, M. Bearpark, J. J. Heyd, E. Brothers, 
 K. N. Kudin, V. N. Staroverov, T. Keith, R. Kobayashi, J. Normand, 
 K. Raghavachari, A. Rendell, J. C. Burant, S. S. Iyengar, J. Tomasi, 
 M. Cossi, N. Rega, J. M. Millam, M. Klene, J. E. Knox, J. B. Cross, 
 V. Bakken, C. Adamo, J. Jaramillo, R. Gomperts, R. E. Stratmann, 
 O. Yazyev, A. J. Austin, R. Cammi, C. Pomelli, J. W. Ochterski, 
 R. L. Martin, K. Morokuma, V. G. Zakrzewski, G. A. Voth, 
 P. Salvador, J. J. Dannenberg, S. Dapprich, A. D. Daniels, 
 O. Farkas, J. B. Foresman, J. V. Ortiz, J. Cioslowski, 
 and D. J. Fox, Gaussian, Inc., Wallingford CT, 2013.
 
 ******************************************
 Gaussian 09:  EM64L-G09RevD.01 24-Apr-2013
                27-Apr-2017 
 ******************************************
 %Mem=256MB
 %NProc=12
 Will use up to   12 processors via shared memory.
 ----------------------------------------------------------------------
 #P HF/6-31G* SCF(Conver=6) NoSymm Test Pop=mk IOp(6/33=2) GFInput GFPr
 int
 ----------------------------------------------------------------------
 1/38=1/1;
 2/12=2,15=1,17=6,18=5,40=1/2;
 3/5=1,6=6,7=1,11=9,16=1,24=110,25=1,30=1/1,2,3;
 4//1;
 5/5=2,6=6,38=5/2;
 6/7=2,8=2,9=2,10=2,15=8,20=1,28=1,33=2/1,2;
 99/5=1,9=1/99;
 Leave Link    1 at Thu Apr 27 15:21:32 2017, MaxMem=    33554432 cpu:         0.6
 (Enter /home/michal/g09/l101.exe)
 ----------------------------------------------
 MEP - Input generated by R.E.D.-III.x MOLECULE
 ----------------------------------------------
 Symbolic Z-matrix:
 Charge =  0 Multiplicity = 1
 C                    -1.0112    1.9821    1.68443 
 H                    -0.99196   1.00455   2.18171 
 C                     0.31562   2.70574   1.95253 
 H                     0.47477   2.80312   3.03076 
 H                     0.22368   3.72912   1.55333 
 C                     1.5025    2.01439   1.30802 
 C                     1.38567   1.66269  -0.17842 
 C                    -0.01147   1.013    -0.42587 
 H                     0.        0.        0. 
 H                    -0.17495   0.89538  -1.50235 
 C                    -1.19857   1.77636   0.18158 
 H                    -1.31361   2.75754  -0.30242 
 H                    -2.129     1.22643   0. 
 C                     2.59954   1.7509    2.03004 
 H                     2.62708   2.01376   3.08515 
 C                     3.86401   1.1421    1.49976 
 H                     4.04587   0.16829   1.98045 
 C                     3.90602   0.99225  -0.02991 
 H                     4.20923   1.96639  -0.43575 
 C                     2.49385   0.62479  -0.56596 
 H                     2.21373  -0.31056  -0.05456 
 C                     2.53782   0.31142  -2.0789 
 H                     2.71406   1.23439  -2.64194 
 H                     1.55959  -0.05852  -2.40451 
 C                     3.60569  -0.72459  -2.47921 
 H                     3.35213  -1.69907  -2.03723 
 H                     3.56945  -0.85751  -3.56481 
 C                     5.01346  -0.31709  -1.99977 
 C                     4.91198  -0.09041  -0.46324 
 H                     4.51615  -1.03856  -0.0603 
 C                     6.37426   0.        0. 
 H                     6.49002  -0.24781   1.05968 
 H                     6.75905   1.01705  -0.12528 
 C                     7.1148   -1.0064   -0.92119 
 H                     8.00578  -0.54549  -1.36418 
 H                     7.46624  -1.87432  -0.35516 
 C                     6.10933  -1.43938  -2.04162 
 H                     5.60967  -2.36391  -1.71056 
 C                     5.50516   0.9432   -2.74831 
 H                     4.86295   1.80972  -2.5718 
 H                     6.51829   1.22792  -2.44929 
 H                     5.52144   0.76913  -3.82903 
 C                     6.81607  -1.77096  -3.38191 
 H                     7.37688  -0.87687  -3.69447 
 C                     5.83509  -2.13831  -4.50994 
 H                     5.16675  -2.95009  -4.19677 
 H                     6.36731  -2.47598  -5.40425 
 H                     5.21357  -1.29219  -4.81166 
 C                     1.50667   2.96993  -1.00647 
 H                     1.27654   2.79659  -2.06237 
 H                     0.81418   3.73576  -0.64759 
 H                     2.51401   3.39108  -0.937 
 O                     4.99209   1.99435   1.8225 
 O                     5.17567   1.96173   3.27012 
 H                     6.03963   1.52115   3.3245 
 O                    -2.11823   2.65866   2.28669 
 H                    -2.19166   3.54073   1.89585 
 C                     7.8478   -2.91114  -3.18135 
 H                     8.3955   -2.74311  -2.24919 
 H                     7.30321  -3.85889  -3.04724 
 C                     8.86864  -3.06803  -4.32045 
 H                     8.34623  -3.19473  -5.27628 
 H                     9.44362  -2.13698  -4.41682 
 C                     9.82641  -4.2631   -4.15566 
 H                     10.44706  -4.34108  -5.06069 
 H                     9.22857  -5.18538  -4.11942 
 C                     10.76628  -4.24422  -2.93111 
 H                     10.14966  -4.18846  -2.02261 
 C                     11.56926  -5.5531   -2.86055 
 H                     12.21273  -5.66523  -3.74272 
 H                     12.21377  -5.57782  -1.97443 
 H                     10.90767  -6.42602  -2.81868 
 C                     11.71114  -3.03207  -2.93533 
 H                     12.3361  -3.02892  -3.83793 
 H                     12.38107  -3.05499  -2.06829 
 H                     11.16622  -2.08297  -2.90483 
 
 NAtoms=     76 NQM=       76 NQMF=       0 NMMI=      0 NMMIF=      0
                NMic=       0 NMicF=      0.
                    Isotopes and Nuclear Properties:
 (Nuclear quadrupole moments (NQMom) in fm**2, nuclear magnetic moments (NMagM)
  in nuclear magnetons)

  Atom         1           2           3           4           5           6           7           8           9          10
 IAtWgt=          12           1          12           1           1          12          12          12           1           1
 AtmWgt=  12.0000000   1.0078250  12.0000000   1.0078250   1.0078250  12.0000000  12.0000000  12.0000000   1.0078250   1.0078250
 NucSpn=           0           1           0           1           1           0           0           0           1           1
 AtZEff=   0.0000000   0.0000000   0.0000000   0.0000000   0.0000000   0.0000000   0.0000000   0.0000000   0.0000000   0.0000000
 NQMom=    0.0000000   0.0000000   0.0000000   0.0000000   0.0000000   0.0000000   0.0000000   0.0000000   0.0000000   0.0000000
 NMagM=    0.0000000   2.7928460   0.0000000   2.7928460   2.7928460   0.0000000   0.0000000   0.0000000   2.7928460   2.7928460
 AtZNuc=   6.0000000   1.0000000   6.0000000   1.0000000   1.0000000   6.0000000   6.0000000   6.0000000   1.0000000   1.0000000

  Atom        11          12          13          14          15          16          17          18          19          20
 IAtWgt=          12           1           1          12           1          12           1          12           1          12
 AtmWgt=  12.0000000   1.0078250   1.0078250  12.0000000   1.0078250  12.0000000   1.0078250  12.0000000   1.0078250  12.0000000
 NucSpn=           0           1           1           0           1           0           1           0           1           0
 AtZEff=   0.0000000   0.0000000   0.0000000   0.0000000   0.0000000   0.0000000   0.0000000   0.0000000   0.0000000   0.0000000
 NQMom=    0.0000000   0.0000000   0.0000000   0.0000000   0.0000000   0.0000000   0.0000000   0.0000000   0.0000000   0.0000000
 NMagM=    0.0000000   2.7928460   2.7928460   0.0000000   2.7928460   0.0000000   2.7928460   0.0000000   2.7928460   0.0000000
 AtZNuc=   6.0000000   1.0000000   1.0000000   6.0000000   1.0000000   6.0000000   1.0000000   6.0000000   1.0000000   6.0000000

  Atom        21          22          23          24          25          26          27          28          29          30
 IAtWgt=           1          12           1           1          12           1           1          12          12           1
 AtmWgt=   1.0078250  12.0000000   1.0078250   1.0078250  12.0000000   1.0078250   1.0078250  12.0000000  12.0000000   1.0078250
 NucSpn=           1           0           1           1           0           1           1           0           0           1
 AtZEff=   0.0000000   0.0000000   0.0000000   0.0000000   0.0000000   0.0000000   0.0000000   0.0000000   0.0000000   0.0000000
 NQMom=    0.0000000   0.0000000   0.0000000   0.0000000   0.0000000   0.0000000   0.0000000   0.0000000   0.0000000   0.0000000
 NMagM=    2.7928460   0.0000000   2.7928460   2.7928460   0.0000000   2.7928460   2.7928460   0.0000000   0.0000000   2.7928460
 AtZNuc=   1.0000000   6.0000000   1.0000000   1.0000000   6.0000000   1.0000000   1.0000000   6.0000000   6.0000000   1.0000000

  Atom        31          32          33          34          35          36          37          38          39          40
 IAtWgt=          12           1           1          12           1           1          12           1          12           1
 AtmWgt=  12.0000000   1.0078250   1.0078250  12.0000000   1.0078250   1.0078250  12.0000000   1.0078250  12.0000000   1.0078250
 NucSpn=           0           1           1           0           1           1           0           1           0           1
 AtZEff=   0.0000000   0.0000000   0.0000000   0.0000000   0.0000000   0.0000000   0.0000000   0.0000000   0.0000000   0.0000000
 NQMom=    0.0000000   0.0000000   0.0000000   0.0000000   0.0000000   0.0000000   0.0000000   0.0000000   0.0000000   0.0000000
 NMagM=    0.0000000   2.7928460   2.7928460   0.0000000   2.7928460   2.7928460   0.0000000   2.7928460   0.0000000   2.7928460
 AtZNuc=   6.0000000   1.0000000   1.0000000   6.0000000   1.0000000   1.0000000   6.0000000   1.0000000   6.0000000   1.0000000

  Atom        41          42          43          44          45          46          47          48          49          50
 IAtWgt=           1           1          12           1          12           1           1           1          12           1
 AtmWgt=   1.0078250   1.0078250  12.0000000   1.0078250  12.0000000   1.0078250   1.0078250   1.0078250  12.0000000   1.0078250
 NucSpn=           1           1           0           1           0           1           1           1           0           1
 AtZEff=   0.0000000   0.0000000   0.0000000   0.0000000   0.0000000   0.0000000   0.0000000   0.0000000   0.0000000   0.0000000
 NQMom=    0.0000000   0.0000000   0.0000000   0.0000000   0.0000000   0.0000000   0.0000000   0.0000000   0.0000000   0.0000000
 NMagM=    2.7928460   2.7928460   0.0000000   2.7928460   0.0000000   2.7928460   2.7928460   2.7928460   0.0000000   2.7928460
 AtZNuc=   1.0000000   1.0000000   6.0000000   1.0000000   6.0000000   1.0000000   1.0000000   1.0000000   6.0000000   1.0000000

  Atom        51          52          53          54          55          56          57          58          59          60
 IAtWgt=           1           1          16          16           1          16           1          12           1           1
 AtmWgt=   1.0078250   1.0078250  15.9949146  15.9949146   1.0078250  15.9949146   1.0078250  12.0000000   1.0078250   1.0078250
 NucSpn=           1           1           0           0           1           0           1           0           1           1
 AtZEff=   0.0000000   0.0000000   0.0000000   0.0000000   0.0000000   0.0000000   0.0000000   0.0000000   0.0000000   0.0000000
 NQMom=    0.0000000   0.0000000   0.0000000   0.0000000   0.0000000   0.0000000   0.0000000   0.0000000   0.0000000   0.0000000
 NMagM=    2.7928460   2.7928460   0.0000000   0.0000000   2.7928460   0.0000000   2.7928460   0.0000000   2.7928460   2.7928460
 AtZNuc=   1.0000000   1.0000000   8.0000000   8.0000000   1.0000000   8.0000000   1.0000000   6.0000000   1.0000000   1.0000000

  Atom        61          62          63          64          65          66          67          68          69          70
 IAtWgt=          12           1           1          12           1           1          12           1          12           1
 AtmWgt=  12.0000000   1.0078250   1.0078250  12.0000000   1.0078250   1.0078250  12.0000000   1.0078250  12.0000000   1.0078250
 NucSpn=           0           1           1           0           1           1           0           1           0           1
 AtZEff=   0.0000000   0.0000000   0.0000000   0.0000000   0.0000000   0.0000000   0.0000000   0.0000000   0.0000000   0.0000000
 NQMom=    0.0000000   0.0000000   0.0000000   0.0000000   0.0000000   0.0000000   0.0000000   0.0000000   0.0000000   0.0000000
 NMagM=    0.0000000   2.7928460   2.7928460   0.0000000   2.7928460   2.7928460   0.0000000   2.7928460   0.0000000   2.7928460
 AtZNuc=   6.0000000   1.0000000   1.0000000   6.0000000   1.0000000   1.0000000   6.0000000   1.0000000   6.0000000   1.0000000

  Atom        71          72          73          74          75          76
 IAtWgt=           1           1          12           1           1           1
 AtmWgt=   1.0078250   1.0078250  12.0000000   1.0078250   1.0078250   1.0078250
 NucSpn=           1           1           0           1           1           1
 AtZEff=   0.0000000   0.0000000   0.0000000   0.0000000   0.0000000   0.0000000
 NQMom=    0.0000000   0.0000000   0.0000000   0.0000000   0.0000000   0.0000000
 NMagM=    2.7928460   2.7928460   0.0000000   2.7928460   2.7928460   2.7928460
 AtZNuc=   1.0000000   1.0000000   6.0000000   1.0000000   1.0000000   1.0000000
 Leave Link  101 at Thu Apr 27 15:21:32 2017, MaxMem=    33554432 cpu:         1.0
 (Enter /home/michal/g09/l202.exe)
 Symmetry turned off by external request.
 Stoichiometry    C27H46O3
 Framework group  C1[X(C27H46O3)]
 Deg. of freedom   222
 Full point group                 C1      NOp   1
                          Input orientation:                          
 ---------------------------------------------------------------------
 Center     Atomic      Atomic             Coordinates (Angstroms)
 Number     Number       Type             X           Y           Z
 ---------------------------------------------------------------------
      1          6           0       -1.011201    1.982098    1.684430
      2          1           0       -0.991958    1.004554    2.181708
      3          6           0        0.315623    2.705742    1.952534
      4          1           0        0.474770    2.803120    3.030757
      5          1           0        0.223678    3.729122    1.553327
      6          6           0        1.502499    2.014393    1.308024
      7          6           0        1.385666    1.662691   -0.178421
      8          6           0       -0.011470    1.013002   -0.425868
      9          1           0        0.000000    0.000000    0.000000
     10          1           0       -0.174947    0.895384   -1.502352
     11          6           0       -1.198571    1.776363    0.181584
     12          1           0       -1.313607    2.757542   -0.302417
     13          1           0       -2.129000    1.226433    0.000000
     14          6           0        2.599537    1.750898    2.030042
     15          1           0        2.627078    2.013765    3.085152
     16          6           0        3.864013    1.142096    1.499756
     17          1           0        4.045872    0.168287    1.980451
     18          6           0        3.906023    0.992251   -0.029913
     19          1           0        4.209230    1.966388   -0.435754
     20          6           0        2.493850    0.624791   -0.565963
     21          1           0        2.213731   -0.310563   -0.054555
     22          6           0        2.537821    0.311418   -2.078897
     23          1           0        2.714057    1.234390   -2.641937
     24          1           0        1.559593   -0.058522   -2.404514
     25          6           0        3.605690   -0.724589   -2.479208
     26          1           0        3.352133   -1.699075   -2.037228
     27          1           0        3.569454   -0.857508   -3.564810
     28          6           0        5.013456   -0.317086   -1.999767
     29          6           0        4.911976   -0.090407   -0.463242
     30          1           0        4.516148   -1.038564   -0.060301
     31          6           0        6.374257    0.000000    0.000000
     32          1           0        6.490023   -0.247808    1.059681
     33          1           0        6.759055    1.017049   -0.125284
     34          6           0        7.114803   -1.006404   -0.921195
     35          1           0        8.005777   -0.545491   -1.364181
     36          1           0        7.466243   -1.874316   -0.355161
     37          6           0        6.109334   -1.439381   -2.041621
     38          1           0        5.609671   -2.363909   -1.710563
     39          6           0        5.505163    0.943204   -2.748312
     40          1           0        4.862951    1.809724   -2.571796
     41          1           0        6.518292    1.227920   -2.449292
     42          1           0        5.521437    0.769133   -3.829035
     43          6           0        6.816068   -1.770961   -3.381907
     44          1           0        7.376877   -0.876873   -3.694469
     45          6           0        5.835094   -2.138305   -4.509942
     46          1           0        5.166750   -2.950089   -4.196765
     47          1           0        6.367308   -2.475984   -5.404252
     48          1           0        5.213571   -1.292194   -4.811656
     49          6           0        1.506667    2.969929   -1.006471
     50          1           0        1.276544    2.796593   -2.062373
     51          1           0        0.814184    3.735764   -0.647590
     52          1           0        2.514013    3.391082   -0.937003
     53          8           0        4.992094    1.994353    1.822497
     54          8           0        5.175668    1.961733    3.270115
     55          1           0        6.039627    1.521150    3.324498
     56          8           0       -2.118232    2.658661    2.286688
     57          1           0       -2.191659    3.540728    1.895851
     58          6           0        7.847805   -2.911140   -3.181347
     59          1           0        8.395502   -2.743106   -2.249192
     60          1           0        7.303214   -3.858894   -3.047243
     61          6           0        8.868639   -3.068030   -4.320448
     62          1           0        8.346226   -3.194729   -5.276282
     63          1           0        9.443623   -2.136983   -4.416823
     64          6           0        9.826409   -4.263104   -4.155657
     65          1           0       10.447055   -4.341082   -5.060689
     66          1           0        9.228569   -5.185378   -4.119422
     67          6           0       10.766276   -4.244217   -2.931107
     68          1           0       10.149657   -4.188460   -2.022611
     69          6           0       11.569258   -5.553101   -2.860549
     70          1           0       12.212728   -5.665226   -3.742725
     71          1           0       12.213772   -5.577816   -1.974430
     72          1           0       10.907670   -6.426021   -2.818681
     73          6           0       11.711135   -3.032068   -2.935329
     74          1           0       12.336099   -3.028916   -3.837929
     75          1           0       12.381075   -3.054988   -2.068288
     76          1           0       11.166216   -2.082970   -2.904830
 ---------------------------------------------------------------------
 Rotational constants (GHZ):      0.3627673      0.0550777      0.0504347
 Leave Link  202 at Thu Apr 27 15:21:32 2017, MaxMem=    33554432 cpu:         0.0
 (Enter /home/michal/g09/l301.exe)
 Standard basis: 6-31G(d) (6D, 7F)
 Ernie: Thresh=  0.10000D-02 Tol=  0.10000D-05 Strict=F.
 AO basis set in the form of general basis input (Overlap normalization):
      1 0
 S   6 1.00       0.000000000000
      0.3047524880D+04  0.1834737132D-02
      0.4573695180D+03  0.1403732281D-01
      0.1039486850D+03  0.6884262226D-01
      0.2921015530D+02  0.2321844432D+00
      0.9286662960D+01  0.4679413484D+00
      0.3163926960D+01  0.3623119853D+00
 SP   3 1.00       0.000000000000
      0.7868272350D+01 -0.1193324198D+00  0.6899906659D-01
      0.1881288540D+01 -0.1608541517D+00  0.3164239610D+00
      0.5442492580D+00  0.1143456438D+01  0.7443082909D+00
 SP   1 1.00       0.000000000000
      0.1687144782D+00  0.1000000000D+01  0.1000000000D+01
 D   1 1.00       0.000000000000
      0.8000000000D+00  0.1000000000D+01
 ****
      2 0
 S   3 1.00       0.000000000000
      0.1873113696D+02  0.3349460434D-01
      0.2825394365D+01  0.2347269535D+00
      0.6401216923D+00  0.8137573261D+00
 S   1 1.00       0.000000000000
      0.1612777588D+00  0.1000000000D+01
 ****
      3 0
 S   6 1.00       0.000000000000
      0.3047524880D+04  0.1834737132D-02
      0.4573695180D+03  0.1403732281D-01
      0.1039486850D+03  0.6884262226D-01
      0.2921015530D+02  0.2321844432D+00
      0.9286662960D+01  0.4679413484D+00
      0.3163926960D+01  0.3623119853D+00
 SP   3 1.00       0.000000000000
      0.7868272350D+01 -0.1193324198D+00  0.6899906659D-01
      0.1881288540D+01 -0.1608541517D+00  0.3164239610D+00
      0.5442492580D+00  0.1143456438D+01  0.7443082909D+00
 SP   1 1.00       0.000000000000
      0.1687144782D+00  0.1000000000D+01  0.1000000000D+01
 D   1 1.00       0.000000000000
      0.8000000000D+00  0.1000000000D+01
 ****
      4 0
 S   3 1.00       0.000000000000
      0.1873113696D+02  0.3349460434D-01
      0.2825394365D+01  0.2347269535D+00
      0.6401216923D+00  0.8137573261D+00
 S   1 1.00       0.000000000000
      0.1612777588D+00  0.1000000000D+01
 ****
      5 0
 S   3 1.00       0.000000000000
      0.1873113696D+02  0.3349460434D-01
      0.2825394365D+01  0.2347269535D+00
      0.6401216923D+00  0.8137573261D+00
 S   1 1.00       0.000000000000
      0.1612777588D+00  0.1000000000D+01
 ****
      6 0
 S   6 1.00       0.000000000000
      0.3047524880D+04  0.1834737132D-02
      0.4573695180D+03  0.1403732281D-01
      0.1039486850D+03  0.6884262226D-01
      0.2921015530D+02  0.2321844432D+00
      0.9286662960D+01  0.4679413484D+00
      0.3163926960D+01  0.3623119853D+00
 SP   3 1.00       0.000000000000
      0.7868272350D+01 -0.1193324198D+00  0.6899906659D-01
      0.1881288540D+01 -0.1608541517D+00  0.3164239610D+00
      0.5442492580D+00  0.1143456438D+01  0.7443082909D+00
 SP   1 1.00       0.000000000000
      0.1687144782D+00  0.1000000000D+01  0.1000000000D+01
 D   1 1.00       0.000000000000
      0.8000000000D+00  0.1000000000D+01
 ****
      7 0
 S   6 1.00       0.000000000000
      0.3047524880D+04  0.1834737132D-02
      0.4573695180D+03  0.1403732281D-01
      0.1039486850D+03  0.6884262226D-01
      0.2921015530D+02  0.2321844432D+00
      0.9286662960D+01  0.4679413484D+00
      0.3163926960D+01  0.3623119853D+00
 SP   3 1.00       0.000000000000
      0.7868272350D+01 -0.1193324198D+00  0.6899906659D-01
      0.1881288540D+01 -0.1608541517D+00  0.3164239610D+00
      0.5442492580D+00  0.1143456438D+01  0.7443082909D+00
 SP   1 1.00       0.000000000000
      0.1687144782D+00  0.1000000000D+01  0.1000000000D+01
 D   1 1.00       0.000000000000
      0.8000000000D+00  0.1000000000D+01
 ****
      8 0
 S   6 1.00       0.000000000000
      0.3047524880D+04  0.1834737132D-02
      0.4573695180D+03  0.1403732281D-01
      0.1039486850D+03  0.6884262226D-01
      0.2921015530D+02  0.2321844432D+00
      0.9286662960D+01  0.4679413484D+00
      0.3163926960D+01  0.3623119853D+00
 SP   3 1.00       0.000000000000
      0.7868272350D+01 -0.1193324198D+00  0.6899906659D-01
      0.1881288540D+01 -0.1608541517D+00  0.3164239610D+00
      0.5442492580D+00  0.1143456438D+01  0.7443082909D+00
 SP   1 1.00       0.000000000000
      0.1687144782D+00  0.1000000000D+01  0.1000000000D+01
 D   1 1.00       0.000000000000
      0.8000000000D+00  0.1000000000D+01
 ****
      9 0
 S   3 1.00       0.000000000000
      0.1873113696D+02  0.3349460434D-01
      0.2825394365D+01  0.2347269535D+00
      0.6401216923D+00  0.8137573261D+00
 S   1 1.00       0.000000000000
      0.1612777588D+00  0.1000000000D+01
 ****
     10 0
 S   3 1.00       0.000000000000
      0.1873113696D+02  0.3349460434D-01
      0.2825394365D+01  0.2347269535D+00
      0.6401216923D+00  0.8137573261D+00
 S   1 1.00       0.000000000000
      0.1612777588D+00  0.1000000000D+01
 ****
     11 0
 S   6 1.00       0.000000000000
      0.3047524880D+04  0.1834737132D-02
      0.4573695180D+03  0.1403732281D-01
      0.1039486850D+03  0.6884262226D-01
      0.2921015530D+02  0.2321844432D+00
      0.9286662960D+01  0.4679413484D+00
      0.3163926960D+01  0.3623119853D+00
 SP   3 1.00       0.000000000000
      0.7868272350D+01 -0.1193324198D+00  0.6899906659D-01
      0.1881288540D+01 -0.1608541517D+00  0.3164239610D+00
      0.5442492580D+00  0.1143456438D+01  0.7443082909D+00
 SP   1 1.00       0.000000000000
      0.1687144782D+00  0.1000000000D+01  0.1000000000D+01
 D   1 1.00       0.000000000000
      0.8000000000D+00  0.1000000000D+01
 ****
     12 0
 S   3 1.00       0.000000000000
      0.1873113696D+02  0.3349460434D-01
      0.2825394365D+01  0.2347269535D+00
      0.6401216923D+00  0.8137573261D+00
 S   1 1.00       0.000000000000
      0.1612777588D+00  0.1000000000D+01
 ****
     13 0
 S   3 1.00       0.000000000000
      0.1873113696D+02  0.3349460434D-01
      0.2825394365D+01  0.2347269535D+00
      0.6401216923D+00  0.8137573261D+00
 S   1 1.00       0.000000000000
      0.1612777588D+00  0.1000000000D+01
 ****
     14 0
 S   6 1.00       0.000000000000
      0.3047524880D+04  0.1834737132D-02
      0.4573695180D+03  0.1403732281D-01
      0.1039486850D+03  0.6884262226D-01
      0.2921015530D+02  0.2321844432D+00
      0.9286662960D+01  0.4679413484D+00
      0.3163926960D+01  0.3623119853D+00
 SP   3 1.00       0.000000000000
      0.7868272350D+01 -0.1193324198D+00  0.6899906659D-01
      0.1881288540D+01 -0.1608541517D+00  0.3164239610D+00
      0.5442492580D+00  0.1143456438D+01  0.7443082909D+00
 SP   1 1.00       0.000000000000
      0.1687144782D+00  0.1000000000D+01  0.1000000000D+01
 D   1 1.00       0.000000000000
      0.8000000000D+00  0.1000000000D+01
 ****
     15 0
 S   3 1.00       0.000000000000
      0.1873113696D+02  0.3349460434D-01
      0.2825394365D+01  0.2347269535D+00
      0.6401216923D+00  0.8137573261D+00
 S   1 1.00       0.000000000000
      0.1612777588D+00  0.1000000000D+01
 ****
     16 0
 S   6 1.00       0.000000000000
      0.3047524880D+04  0.1834737132D-02
      0.4573695180D+03  0.1403732281D-01
      0.1039486850D+03  0.6884262226D-01
      0.2921015530D+02  0.2321844432D+00
      0.9286662960D+01  0.4679413484D+00
      0.3163926960D+01  0.3623119853D+00
 SP   3 1.00       0.000000000000
      0.7868272350D+01 -0.1193324198D+00  0.6899906659D-01
      0.1881288540D+01 -0.1608541517D+00  0.3164239610D+00
      0.5442492580D+00  0.1143456438D+01  0.7443082909D+00
 SP   1 1.00       0.000000000000
      0.1687144782D+00  0.1000000000D+01  0.1000000000D+01
 D   1 1.00       0.000000000000
      0.8000000000D+00  0.1000000000D+01
 ****
     17 0
 S   3 1.00       0.000000000000
      0.1873113696D+02  0.3349460434D-01
      0.2825394365D+01  0.2347269535D+00
      0.6401216923D+00  0.8137573261D+00
 S   1 1.00       0.000000000000
      0.1612777588D+00  0.1000000000D+01
 ****
     18 0
 S   6 1.00       0.000000000000
      0.3047524880D+04  0.1834737132D-02
      0.4573695180D+03  0.1403732281D-01
      0.1039486850D+03  0.6884262226D-01
      0.2921015530D+02  0.2321844432D+00
      0.9286662960D+01  0.4679413484D+00
      0.3163926960D+01  0.3623119853D+00
 SP   3 1.00       0.000000000000
      0.7868272350D+01 -0.1193324198D+00  0.6899906659D-01
      0.1881288540D+01 -0.1608541517D+00  0.3164239610D+00
      0.5442492580D+00  0.1143456438D+01  0.7443082909D+00
 SP   1 1.00       0.000000000000
      0.1687144782D+00  0.1000000000D+01  0.1000000000D+01
 D   1 1.00       0.000000000000
      0.8000000000D+00  0.1000000000D+01
 ****
     19 0
 S   3 1.00       0.000000000000
      0.1873113696D+02  0.3349460434D-01
      0.2825394365D+01  0.2347269535D+00
      0.6401216923D+00  0.8137573261D+00
 S   1 1.00       0.000000000000
      0.1612777588D+00  0.1000000000D+01
 ****
     20 0
 S   6 1.00       0.000000000000
      0.3047524880D+04  0.1834737132D-02
      0.4573695180D+03  0.1403732281D-01
      0.1039486850D+03  0.6884262226D-01
      0.2921015530D+02  0.2321844432D+00
      0.9286662960D+01  0.4679413484D+00
      0.3163926960D+01  0.3623119853D+00
 SP   3 1.00       0.000000000000
      0.7868272350D+01 -0.1193324198D+00  0.6899906659D-01
      0.1881288540D+01 -0.1608541517D+00  0.3164239610D+00
      0.5442492580D+00  0.1143456438D+01  0.7443082909D+00
 SP   1 1.00       0.000000000000
      0.1687144782D+00  0.1000000000D+01  0.1000000000D+01
 D   1 1.00       0.000000000000
      0.8000000000D+00  0.1000000000D+01
 ****
     21 0
 S   3 1.00       0.000000000000
      0.1873113696D+02  0.3349460434D-01
      0.2825394365D+01  0.2347269535D+00
      0.6401216923D+00  0.8137573261D+00
 S   1 1.00       0.000000000000
      0.1612777588D+00  0.1000000000D+01
 ****
     22 0
 S   6 1.00       0.000000000000
      0.3047524880D+04  0.1834737132D-02
      0.4573695180D+03  0.1403732281D-01
      0.1039486850D+03  0.6884262226D-01
      0.2921015530D+02  0.2321844432D+00
      0.9286662960D+01  0.4679413484D+00
      0.3163926960D+01  0.3623119853D+00
 SP   3 1.00       0.000000000000
      0.7868272350D+01 -0.1193324198D+00  0.6899906659D-01
      0.1881288540D+01 -0.1608541517D+00  0.3164239610D+00
      0.5442492580D+00  0.1143456438D+01  0.7443082909D+00
 SP   1 1.00       0.000000000000
      0.1687144782D+00  0.1000000000D+01  0.1000000000D+01
 D   1 1.00       0.000000000000
      0.8000000000D+00  0.1000000000D+01
 ****
     23 0
 S   3 1.00       0.000000000000
      0.1873113696D+02  0.3349460434D-01
      0.2825394365D+01  0.2347269535D+00
      0.6401216923D+00  0.8137573261D+00
 S   1 1.00       0.000000000000
      0.1612777588D+00  0.1000000000D+01
 ****
     24 0
 S   3 1.00       0.000000000000
      0.1873113696D+02  0.3349460434D-01
      0.2825394365D+01  0.2347269535D+00
      0.6401216923D+00  0.8137573261D+00
 S   1 1.00       0.000000000000
      0.1612777588D+00  0.1000000000D+01
 ****
     25 0
 S   6 1.00       0.000000000000
      0.3047524880D+04  0.1834737132D-02
      0.4573695180D+03  0.1403732281D-01
      0.1039486850D+03  0.6884262226D-01
      0.2921015530D+02  0.2321844432D+00
      0.9286662960D+01  0.4679413484D+00
      0.3163926960D+01  0.3623119853D+00
 SP   3 1.00       0.000000000000
      0.7868272350D+01 -0.1193324198D+00  0.6899906659D-01
      0.1881288540D+01 -0.1608541517D+00  0.3164239610D+00
      0.5442492580D+00  0.1143456438D+01  0.7443082909D+00
 SP   1 1.00       0.000000000000
      0.1687144782D+00  0.1000000000D+01  0.1000000000D+01
 D   1 1.00       0.000000000000
      0.8000000000D+00  0.1000000000D+01
 ****
     26 0
 S   3 1.00       0.000000000000
      0.1873113696D+02  0.3349460434D-01
      0.2825394365D+01  0.2347269535D+00
      0.6401216923D+00  0.8137573261D+00
 S   1 1.00       0.000000000000
      0.1612777588D+00  0.1000000000D+01
 ****
     27 0
 S   3 1.00       0.000000000000
      0.1873113696D+02  0.3349460434D-01
      0.2825394365D+01  0.2347269535D+00
      0.6401216923D+00  0.8137573261D+00
 S   1 1.00       0.000000000000
      0.1612777588D+00  0.1000000000D+01
 ****
     28 0
 S   6 1.00       0.000000000000
      0.3047524880D+04  0.1834737132D-02
      0.4573695180D+03  0.1403732281D-01
      0.1039486850D+03  0.6884262226D-01
      0.2921015530D+02  0.2321844432D+00
      0.9286662960D+01  0.4679413484D+00
      0.3163926960D+01  0.3623119853D+00
 SP   3 1.00       0.000000000000
      0.7868272350D+01 -0.1193324198D+00  0.6899906659D-01
      0.1881288540D+01 -0.1608541517D+00  0.3164239610D+00
      0.5442492580D+00  0.1143456438D+01  0.7443082909D+00
 SP   1 1.00       0.000000000000
      0.1687144782D+00  0.1000000000D+01  0.1000000000D+01
 D   1 1.00       0.000000000000
      0.8000000000D+00  0.1000000000D+01
 ****
     29 0
 S   6 1.00       0.000000000000
      0.3047524880D+04  0.1834737132D-02
      0.4573695180D+03  0.1403732281D-01
      0.1039486850D+03  0.6884262226D-01
      0.2921015530D+02  0.2321844432D+00
      0.9286662960D+01  0.4679413484D+00
      0.3163926960D+01  0.3623119853D+00
 SP   3 1.00       0.000000000000
      0.7868272350D+01 -0.1193324198D+00  0.6899906659D-01
      0.1881288540D+01 -0.1608541517D+00  0.3164239610D+00
      0.5442492580D+00  0.1143456438D+01  0.7443082909D+00
 SP   1 1.00       0.000000000000
      0.1687144782D+00  0.1000000000D+01  0.1000000000D+01
 D   1 1.00       0.000000000000
      0.8000000000D+00  0.1000000000D+01
 ****
     30 0
 S   3 1.00       0.000000000000
      0.1873113696D+02  0.3349460434D-01
      0.2825394365D+01  0.2347269535D+00
      0.6401216923D+00  0.8137573261D+00
 S   1 1.00       0.000000000000
      0.1612777588D+00  0.1000000000D+01
 ****
     31 0
 S   6 1.00       0.000000000000
      0.3047524880D+04  0.1834737132D-02
      0.4573695180D+03  0.1403732281D-01
      0.1039486850D+03  0.6884262226D-01
      0.2921015530D+02  0.2321844432D+00
      0.9286662960D+01  0.4679413484D+00
      0.3163926960D+01  0.3623119853D+00
 SP   3 1.00       0.000000000000
      0.7868272350D+01 -0.1193324198D+00  0.6899906659D-01
      0.1881288540D+01 -0.1608541517D+00  0.3164239610D+00
      0.5442492580D+00  0.1143456438D+01  0.7443082909D+00
 SP   1 1.00       0.000000000000
      0.1687144782D+00  0.1000000000D+01  0.1000000000D+01
 D   1 1.00       0.000000000000
      0.8000000000D+00  0.1000000000D+01
 ****
     32 0
 S   3 1.00       0.000000000000
      0.1873113696D+02  0.3349460434D-01
      0.2825394365D+01  0.2347269535D+00
      0.6401216923D+00  0.8137573261D+00
 S   1 1.00       0.000000000000
      0.1612777588D+00  0.1000000000D+01
 ****
     33 0
 S   3 1.00       0.000000000000
      0.1873113696D+02  0.3349460434D-01
      0.2825394365D+01  0.2347269535D+00
      0.6401216923D+00  0.8137573261D+00
 S   1 1.00       0.000000000000
      0.1612777588D+00  0.1000000000D+01
 ****
     34 0
 S   6 1.00       0.000000000000
      0.3047524880D+04  0.1834737132D-02
      0.4573695180D+03  0.1403732281D-01
      0.1039486850D+03  0.6884262226D-01
      0.2921015530D+02  0.2321844432D+00
      0.9286662960D+01  0.4679413484D+00
      0.3163926960D+01  0.3623119853D+00
 SP   3 1.00       0.000000000000
      0.7868272350D+01 -0.1193324198D+00  0.6899906659D-01
      0.1881288540D+01 -0.1608541517D+00  0.3164239610D+00
      0.5442492580D+00  0.1143456438D+01  0.7443082909D+00
 SP   1 1.00       0.000000000000
      0.1687144782D+00  0.1000000000D+01  0.1000000000D+01
 D   1 1.00       0.000000000000
      0.8000000000D+00  0.1000000000D+01
 ****
     35 0
 S   3 1.00       0.000000000000
      0.1873113696D+02  0.3349460434D-01
      0.2825394365D+01  0.2347269535D+00
      0.6401216923D+00  0.8137573261D+00
 S   1 1.00       0.000000000000
      0.1612777588D+00  0.1000000000D+01
 ****
     36 0
 S   3 1.00       0.000000000000
      0.1873113696D+02  0.3349460434D-01
      0.2825394365D+01  0.2347269535D+00
      0.6401216923D+00  0.8137573261D+00
 S   1 1.00       0.000000000000
      0.1612777588D+00  0.1000000000D+01
 ****
     37 0
 S   6 1.00       0.000000000000
      0.3047524880D+04  0.1834737132D-02
      0.4573695180D+03  0.1403732281D-01
      0.1039486850D+03  0.6884262226D-01
      0.2921015530D+02  0.2321844432D+00
      0.9286662960D+01  0.4679413484D+00
      0.3163926960D+01  0.3623119853D+00
 SP   3 1.00       0.000000000000
      0.7868272350D+01 -0.1193324198D+00  0.6899906659D-01
      0.1881288540D+01 -0.1608541517D+00  0.3164239610D+00
      0.5442492580D+00  0.1143456438D+01  0.7443082909D+00
 SP   1 1.00       0.000000000000
      0.1687144782D+00  0.1000000000D+01  0.1000000000D+01
 D   1 1.00       0.000000000000
      0.8000000000D+00  0.1000000000D+01
 ****
     38 0
 S   3 1.00       0.000000000000
      0.1873113696D+02  0.3349460434D-01
      0.2825394365D+01  0.2347269535D+00
      0.6401216923D+00  0.8137573261D+00
 S   1 1.00       0.000000000000
      0.1612777588D+00  0.1000000000D+01
 ****
     39 0
 S   6 1.00       0.000000000000
      0.3047524880D+04  0.1834737132D-02
      0.4573695180D+03  0.1403732281D-01
      0.1039486850D+03  0.6884262226D-01
      0.2921015530D+02  0.2321844432D+00
      0.9286662960D+01  0.4679413484D+00
      0.3163926960D+01  0.3623119853D+00
 SP   3 1.00       0.000000000000
      0.7868272350D+01 -0.1193324198D+00  0.6899906659D-01
      0.1881288540D+01 -0.1608541517D+00  0.3164239610D+00
      0.5442492580D+00  0.1143456438D+01  0.7443082909D+00
 SP   1 1.00       0.000000000000
      0.1687144782D+00  0.1000000000D+01  0.1000000000D+01
 D   1 1.00       0.000000000000
      0.8000000000D+00  0.1000000000D+01
 ****
     40 0
 S   3 1.00       0.000000000000
      0.1873113696D+02  0.3349460434D-01
      0.2825394365D+01  0.2347269535D+00
      0.6401216923D+00  0.8137573261D+00
 S   1 1.00       0.000000000000
      0.1612777588D+00  0.1000000000D+01
 ****
     41 0
 S   3 1.00       0.000000000000
      0.1873113696D+02  0.3349460434D-01
      0.2825394365D+01  0.2347269535D+00
      0.6401216923D+00  0.8137573261D+00
 S   1 1.00       0.000000000000
      0.1612777588D+00  0.1000000000D+01
 ****
     42 0
 S   3 1.00       0.000000000000
      0.1873113696D+02  0.3349460434D-01
      0.2825394365D+01  0.2347269535D+00
      0.6401216923D+00  0.8137573261D+00
 S   1 1.00       0.000000000000
      0.1612777588D+00  0.1000000000D+01
 ****
     43 0
 S   6 1.00       0.000000000000
      0.3047524880D+04  0.1834737132D-02
      0.4573695180D+03  0.1403732281D-01
      0.1039486850D+03  0.6884262226D-01
      0.2921015530D+02  0.2321844432D+00
      0.9286662960D+01  0.4679413484D+00
      0.3163926960D+01  0.3623119853D+00
 SP   3 1.00       0.000000000000
      0.7868272350D+01 -0.1193324198D+00  0.6899906659D-01
      0.1881288540D+01 -0.1608541517D+00  0.3164239610D+00
      0.5442492580D+00  0.1143456438D+01  0.7443082909D+00
 SP   1 1.00       0.000000000000
      0.1687144782D+00  0.1000000000D+01  0.1000000000D+01
 D   1 1.00       0.000000000000
      0.8000000000D+00  0.1000000000D+01
 ****
     44 0
 S   3 1.00       0.000000000000
      0.1873113696D+02  0.3349460434D-01
      0.2825394365D+01  0.2347269535D+00
      0.6401216923D+00  0.8137573261D+00
 S   1 1.00       0.000000000000
      0.1612777588D+00  0.1000000000D+01
 ****
     45 0
 S   6 1.00       0.000000000000
      0.3047524880D+04  0.1834737132D-02
      0.4573695180D+03  0.1403732281D-01
      0.1039486850D+03  0.6884262226D-01
      0.2921015530D+02  0.2321844432D+00
      0.9286662960D+01  0.4679413484D+00
      0.3163926960D+01  0.3623119853D+00
 SP   3 1.00       0.000000000000
      0.7868272350D+01 -0.1193324198D+00  0.6899906659D-01
      0.1881288540D+01 -0.1608541517D+00  0.3164239610D+00
      0.5442492580D+00  0.1143456438D+01  0.7443082909D+00
 SP   1 1.00       0.000000000000
      0.1687144782D+00  0.1000000000D+01  0.1000000000D+01
 D   1 1.00       0.000000000000
      0.8000000000D+00  0.1000000000D+01
 ****
     46 0
 S   3 1.00       0.000000000000
      0.1873113696D+02  0.3349460434D-01
      0.2825394365D+01  0.2347269535D+00
      0.6401216923D+00  0.8137573261D+00
 S   1 1.00       0.000000000000
      0.1612777588D+00  0.1000000000D+01
 ****
     47 0
 S   3 1.00       0.000000000000
      0.1873113696D+02  0.3349460434D-01
      0.2825394365D+01  0.2347269535D+00
      0.6401216923D+00  0.8137573261D+00
 S   1 1.00       0.000000000000
      0.1612777588D+00  0.1000000000D+01
 ****
     48 0
 S   3 1.00       0.000000000000
      0.1873113696D+02  0.3349460434D-01
      0.2825394365D+01  0.2347269535D+00
      0.6401216923D+00  0.8137573261D+00
 S   1 1.00       0.000000000000
      0.1612777588D+00  0.1000000000D+01
 ****
     49 0
 S   6 1.00       0.000000000000
      0.3047524880D+04  0.1834737132D-02
      0.4573695180D+03  0.1403732281D-01
      0.1039486850D+03  0.6884262226D-01
      0.2921015530D+02  0.2321844432D+00
      0.9286662960D+01  0.4679413484D+00
      0.3163926960D+01  0.3623119853D+00
 SP   3 1.00       0.000000000000
      0.7868272350D+01 -0.1193324198D+00  0.6899906659D-01
      0.1881288540D+01 -0.1608541517D+00  0.3164239610D+00
      0.5442492580D+00  0.1143456438D+01  0.7443082909D+00
 SP   1 1.00       0.000000000000
      0.1687144782D+00  0.1000000000D+01  0.1000000000D+01
 D   1 1.00       0.000000000000
      0.8000000000D+00  0.1000000000D+01
 ****
     50 0
 S   3 1.00       0.000000000000
      0.1873113696D+02  0.3349460434D-01
      0.2825394365D+01  0.2347269535D+00
      0.6401216923D+00  0.8137573261D+00
 S   1 1.00       0.000000000000
      0.1612777588D+00  0.1000000000D+01
 ****
     51 0
 S   3 1.00       0.000000000000
      0.1873113696D+02  0.3349460434D-01
      0.2825394365D+01  0.2347269535D+00
      0.6401216923D+00  0.8137573261D+00
 S   1 1.00       0.000000000000
      0.1612777588D+00  0.1000000000D+01
 ****
     52 0
 S   3 1.00       0.000000000000
      0.1873113696D+02  0.3349460434D-01
      0.2825394365D+01  0.2347269535D+00
      0.6401216923D+00  0.8137573261D+00
 S   1 1.00       0.000000000000
      0.1612777588D+00  0.1000000000D+01
 ****
     53 0
 S   6 1.00       0.000000000000
      0.5484671660D+04  0.1831074430D-02
      0.8252349460D+03  0.1395017220D-01
      0.1880469580D+03  0.6844507810D-01
      0.5296450000D+02  0.2327143360D+00
      0.1689757040D+02  0.4701928980D+00
      0.5799635340D+01  0.3585208530D+00
 SP   3 1.00       0.000000000000
      0.1553961625D+02 -0.1107775495D+00  0.7087426823D-01
      0.3599933586D+01 -0.1480262627D+00  0.3397528391D+00
      0.1013761750D+01  0.1130767015D+01  0.7271585773D+00
 SP   1 1.00       0.000000000000
      0.2700058226D+00  0.1000000000D+01  0.1000000000D+01
 D   1 1.00       0.000000000000
      0.8000000000D+00  0.1000000000D+01
 ****
     54 0
 S   6 1.00       0.000000000000
      0.5484671660D+04  0.1831074430D-02
      0.8252349460D+03  0.1395017220D-01
      0.1880469580D+03  0.6844507810D-01
      0.5296450000D+02  0.2327143360D+00
      0.1689757040D+02  0.4701928980D+00
      0.5799635340D+01  0.3585208530D+00
 SP   3 1.00       0.000000000000
      0.1553961625D+02 -0.1107775495D+00  0.7087426823D-01
      0.3599933586D+01 -0.1480262627D+00  0.3397528391D+00
      0.1013761750D+01  0.1130767015D+01  0.7271585773D+00
 SP   1 1.00       0.000000000000
      0.2700058226D+00  0.1000000000D+01  0.1000000000D+01
 D   1 1.00       0.000000000000
      0.8000000000D+00  0.1000000000D+01
 ****
     55 0
 S   3 1.00       0.000000000000
      0.1873113696D+02  0.3349460434D-01
      0.2825394365D+01  0.2347269535D+00
      0.6401216923D+00  0.8137573261D+00
 S   1 1.00       0.000000000000
      0.1612777588D+00  0.1000000000D+01
 ****
     56 0
 S   6 1.00       0.000000000000
      0.5484671660D+04  0.1831074430D-02
      0.8252349460D+03  0.1395017220D-01
      0.1880469580D+03  0.6844507810D-01
      0.5296450000D+02  0.2327143360D+00
      0.1689757040D+02  0.4701928980D+00
      0.5799635340D+01  0.3585208530D+00
 SP   3 1.00       0.000000000000
      0.1553961625D+02 -0.1107775495D+00  0.7087426823D-01
      0.3599933586D+01 -0.1480262627D+00  0.3397528391D+00
      0.1013761750D+01  0.1130767015D+01  0.7271585773D+00
 SP   1 1.00       0.000000000000
      0.2700058226D+00  0.1000000000D+01  0.1000000000D+01
 D   1 1.00       0.000000000000
      0.8000000000D+00  0.1000000000D+01
 ****
     57 0
 S   3 1.00       0.000000000000
      0.1873113696D+02  0.3349460434D-01
      0.2825394365D+01  0.2347269535D+00
      0.6401216923D+00  0.8137573261D+00
 S   1 1.00       0.000000000000
      0.1612777588D+00  0.1000000000D+01
 ****
     58 0
 S   6 1.00       0.000000000000
      0.3047524880D+04  0.1834737132D-02
      0.4573695180D+03  0.1403732281D-01
      0.1039486850D+03  0.6884262226D-01
      0.2921015530D+02  0.2321844432D+00
      0.9286662960D+01  0.4679413484D+00
      0.3163926960D+01  0.3623119853D+00
 SP   3 1.00       0.000000000000
      0.7868272350D+01 -0.1193324198D+00  0.6899906659D-01
      0.1881288540D+01 -0.1608541517D+00  0.3164239610D+00
      0.5442492580D+00  0.1143456438D+01  0.7443082909D+00
 SP   1 1.00       0.000000000000
      0.1687144782D+00  0.1000000000D+01  0.1000000000D+01
 D   1 1.00       0.000000000000
      0.8000000000D+00  0.1000000000D+01
 ****
     59 0
 S   3 1.00       0.000000000000
      0.1873113696D+02  0.3349460434D-01
      0.2825394365D+01  0.2347269535D+00
      0.6401216923D+00  0.8137573261D+00
 S   1 1.00       0.000000000000
      0.1612777588D+00  0.1000000000D+01
 ****
     60 0
 S   3 1.00       0.000000000000
      0.1873113696D+02  0.3349460434D-01
      0.2825394365D+01  0.2347269535D+00
      0.6401216923D+00  0.8137573261D+00
 S   1 1.00       0.000000000000
      0.1612777588D+00  0.1000000000D+01
 ****
     61 0
 S   6 1.00       0.000000000000
      0.3047524880D+04  0.1834737132D-02
      0.4573695180D+03  0.1403732281D-01
      0.1039486850D+03  0.6884262226D-01
      0.2921015530D+02  0.2321844432D+00
      0.9286662960D+01  0.4679413484D+00
      0.3163926960D+01  0.3623119853D+00
 SP   3 1.00       0.000000000000
      0.7868272350D+01 -0.1193324198D+00  0.6899906659D-01
      0.1881288540D+01 -0.1608541517D+00  0.3164239610D+00
      0.5442492580D+00  0.1143456438D+01  0.7443082909D+00
 SP   1 1.00       0.000000000000
      0.1687144782D+00  0.1000000000D+01  0.1000000000D+01
 D   1 1.00       0.000000000000
      0.8000000000D+00  0.1000000000D+01
 ****
     62 0
 S   3 1.00       0.000000000000
      0.1873113696D+02  0.3349460434D-01
      0.2825394365D+01  0.2347269535D+00
      0.6401216923D+00  0.8137573261D+00
 S   1 1.00       0.000000000000
      0.1612777588D+00  0.1000000000D+01
 ****
     63 0
 S   3 1.00       0.000000000000
      0.1873113696D+02  0.3349460434D-01
      0.2825394365D+01  0.2347269535D+00
      0.6401216923D+00  0.8137573261D+00
 S   1 1.00       0.000000000000
      0.1612777588D+00  0.1000000000D+01
 ****
     64 0
 S   6 1.00       0.000000000000
      0.3047524880D+04  0.1834737132D-02
      0.4573695180D+03  0.1403732281D-01
      0.1039486850D+03  0.6884262226D-01
      0.2921015530D+02  0.2321844432D+00
      0.9286662960D+01  0.4679413484D+00
      0.3163926960D+01  0.3623119853D+00
 SP   3 1.00       0.000000000000
      0.7868272350D+01 -0.1193324198D+00  0.6899906659D-01
      0.1881288540D+01 -0.1608541517D+00  0.3164239610D+00
      0.5442492580D+00  0.1143456438D+01  0.7443082909D+00
 SP   1 1.00       0.000000000000
      0.1687144782D+00  0.1000000000D+01  0.1000000000D+01
 D   1 1.00       0.000000000000
      0.8000000000D+00  0.1000000000D+01
 ****
     65 0
 S   3 1.00       0.000000000000
      0.1873113696D+02  0.3349460434D-01
      0.2825394365D+01  0.2347269535D+00
      0.6401216923D+00  0.8137573261D+00
 S   1 1.00       0.000000000000
      0.1612777588D+00  0.1000000000D+01
 ****
     66 0
 S   3 1.00       0.000000000000
      0.1873113696D+02  0.3349460434D-01
      0.2825394365D+01  0.2347269535D+00
      0.6401216923D+00  0.8137573261D+00
 S   1 1.00       0.000000000000
      0.1612777588D+00  0.1000000000D+01
 ****
     67 0
 S   6 1.00       0.000000000000
      0.3047524880D+04  0.1834737132D-02
      0.4573695180D+03  0.1403732281D-01
      0.1039486850D+03  0.6884262226D-01
      0.2921015530D+02  0.2321844432D+00
      0.9286662960D+01  0.4679413484D+00
      0.3163926960D+01  0.3623119853D+00
 SP   3 1.00       0.000000000000
      0.7868272350D+01 -0.1193324198D+00  0.6899906659D-01
      0.1881288540D+01 -0.1608541517D+00  0.3164239610D+00
      0.5442492580D+00  0.1143456438D+01  0.7443082909D+00
 SP   1 1.00       0.000000000000
      0.1687144782D+00  0.1000000000D+01  0.1000000000D+01
 D   1 1.00       0.000000000000
      0.8000000000D+00  0.1000000000D+01
 ****
     68 0
 S   3 1.00       0.000000000000
      0.1873113696D+02  0.3349460434D-01
      0.2825394365D+01  0.2347269535D+00
      0.6401216923D+00  0.8137573261D+00
 S   1 1.00       0.000000000000
      0.1612777588D+00  0.1000000000D+01
 ****
     69 0
 S   6 1.00       0.000000000000
      0.3047524880D+04  0.1834737132D-02
      0.4573695180D+03  0.1403732281D-01
      0.1039486850D+03  0.6884262226D-01
      0.2921015530D+02  0.2321844432D+00
      0.9286662960D+01  0.4679413484D+00
      0.3163926960D+01  0.3623119853D+00
 SP   3 1.00       0.000000000000
      0.7868272350D+01 -0.1193324198D+00  0.6899906659D-01
      0.1881288540D+01 -0.1608541517D+00  0.3164239610D+00
      0.5442492580D+00  0.1143456438D+01  0.7443082909D+00
 SP   1 1.00       0.000000000000
      0.1687144782D+00  0.1000000000D+01  0.1000000000D+01
 D   1 1.00       0.000000000000
      0.8000000000D+00  0.1000000000D+01
 ****
     70 0
 S   3 1.00       0.000000000000
      0.1873113696D+02  0.3349460434D-01
      0.2825394365D+01  0.2347269535D+00
      0.6401216923D+00  0.8137573261D+00
 S   1 1.00       0.000000000000
      0.1612777588D+00  0.1000000000D+01
 ****
     71 0
 S   3 1.00       0.000000000000
      0.1873113696D+02  0.3349460434D-01
      0.2825394365D+01  0.2347269535D+00
      0.6401216923D+00  0.8137573261D+00
 S   1 1.00       0.000000000000
      0.1612777588D+00  0.1000000000D+01
 ****
     72 0
 S   3 1.00       0.000000000000
      0.1873113696D+02  0.3349460434D-01
      0.2825394365D+01  0.2347269535D+00
      0.6401216923D+00  0.8137573261D+00
 S   1 1.00       0.000000000000
      0.1612777588D+00  0.1000000000D+01
 ****
     73 0
 S   6 1.00       0.000000000000
      0.3047524880D+04  0.1834737132D-02
      0.4573695180D+03  0.1403732281D-01
      0.1039486850D+03  0.6884262226D-01
      0.2921015530D+02  0.2321844432D+00
      0.9286662960D+01  0.4679413484D+00
      0.3163926960D+01  0.3623119853D+00
 SP   3 1.00       0.000000000000
      0.7868272350D+01 -0.1193324198D+00  0.6899906659D-01
      0.1881288540D+01 -0.1608541517D+00  0.3164239610D+00
      0.5442492580D+00  0.1143456438D+01  0.7443082909D+00
 SP   1 1.00       0.000000000000
      0.1687144782D+00  0.1000000000D+01  0.1000000000D+01
 D   1 1.00       0.000000000000
      0.8000000000D+00  0.1000000000D+01
 ****
     74 0
 S   3 1.00       0.000000000000
      0.1873113696D+02  0.3349460434D-01
      0.2825394365D+01  0.2347269535D+00
      0.6401216923D+00  0.8137573261D+00
 S   1 1.00       0.000000000000
      0.1612777588D+00  0.1000000000D+01
 ****
     75 0
 S   3 1.00       0.000000000000
      0.1873113696D+02  0.3349460434D-01
      0.2825394365D+01  0.2347269535D+00
      0.6401216923D+00  0.8137573261D+00
 S   1 1.00       0.000000000000
      0.1612777588D+00  0.1000000000D+01
 ****
     76 0
 S   3 1.00       0.000000000000
      0.1873113696D+02  0.3349460434D-01
      0.2825394365D+01  0.2347269535D+00
      0.6401216923D+00  0.8137573261D+00
 S   1 1.00       0.000000000000
      0.1612777588D+00  0.1000000000D+01
 ****

 AO basis set (Overlap normalization):
 Atom C1       Shell     1 S   6     bf    1 -     1         -1.910893730088          3.745622369643          3.183112089215
      0.3047524880D+04  0.1834737132D-02
      0.4573695180D+03  0.1403732281D-01
      0.1039486850D+03  0.6884262226D-01
      0.2921015530D+02  0.2321844432D+00
      0.9286662960D+01  0.4679413484D+00
      0.3163926960D+01  0.3623119853D+00
 Atom C1       Shell     2 SP   3    bf    2 -     5         -1.910893730088          3.745622369643          3.183112089215
      0.7868272350D+01 -0.1193324198D+00  0.6899906659D-01
      0.1881288540D+01 -0.1608541517D+00  0.3164239610D+00
      0.5442492580D+00  0.1143456438D+01  0.7443082909D+00
 Atom C1       Shell     3 SP   1    bf    6 -     9         -1.910893730088          3.745622369643          3.183112089215
      0.1687144782D+00  0.1000000000D+01  0.1000000000D+01
 Atom C1       Shell     4 D   1     bf   10 -    15         -1.910893730088          3.745622369643          3.183112089215
      0.8000000000D+00  0.1000000000D+01
 Atom H2       Shell     5 S   3     bf   16 -    16         -1.874529560037          1.898331227599          4.122829790446
      0.1873113696D+02  0.3349460434D-01
      0.2825394365D+01  0.2347269535D+00
      0.6401216923D+00  0.8137573261D+00
 Atom H2       Shell     6 S   1     bf   17 -    17         -1.874529560037          1.898331227599          4.122829790446
      0.1612777588D+00  0.1000000000D+01
 Atom C3       Shell     7 S   6     bf   18 -    18          0.596440785575          5.113110818226          3.689754411764
      0.3047524880D+04  0.1834737132D-02
      0.4573695180D+03  0.1403732281D-01
      0.1039486850D+03  0.6884262226D-01
      0.2921015530D+02  0.2321844432D+00
      0.9286662960D+01  0.4679413484D+00
      0.3163926960D+01  0.3623119853D+00
 Atom C3       Shell     8 SP   3    bf   19 -    22          0.596440785575          5.113110818226          3.689754411764
      0.7868272350D+01 -0.1193324198D+00  0.6899906659D-01
      0.1881288540D+01 -0.1608541517D+00  0.3164239610D+00
      0.5442492580D+00  0.1143456438D+01  0.7443082909D+00
 Atom C3       Shell     9 SP   1    bf   23 -    26          0.596440785575          5.113110818226          3.689754411764
      0.1687144782D+00  0.1000000000D+01  0.1000000000D+01
 Atom C3       Shell    10 D   1     bf   27 -    32          0.596440785575          5.113110818226          3.689754411764
      0.8000000000D+00  0.1000000000D+01
 Atom H4       Shell    11 S   3     bf   33 -    33          0.897184595809          5.297129533354          5.727300535251
      0.1873113696D+02  0.3349460434D-01
      0.2825394365D+01  0.2347269535D+00
      0.6401216923D+00  0.8137573261D+00
 Atom H4       Shell    12 S   1     bf   34 -    34          0.897184595809          5.297129533354          5.727300535251
      0.1612777588D+00  0.1000000000D+01
 Atom H5       Shell    13 S   3     bf   35 -    35          0.422690350924          7.047018842585          2.935361774440
      0.1873113696D+02  0.3349460434D-01
      0.2825394365D+01  0.2347269535D+00
      0.6401216923D+00  0.8137573261D+00
 Atom H5       Shell    14 S   1     bf   36 -    36          0.422690350924          7.047018842585          2.935361774440
      0.1612777588D+00  0.1000000000D+01
 Atom C6       Shell    15 S   6     bf   37 -    37          2.839311001325          3.806651604228          2.471807456495
      0.3047524880D+04  0.1834737132D-02
      0.4573695180D+03  0.1403732281D-01
      0.1039486850D+03  0.6884262226D-01
      0.2921015530D+02  0.2321844432D+00
      0.9286662960D+01  0.4679413484D+00
      0.3163926960D+01  0.3623119853D+00
 Atom C6       Shell    16 SP   3    bf   38 -    41          2.839311001325          3.806651604228          2.471807456495
      0.7868272350D+01 -0.1193324198D+00  0.6899906659D-01
      0.1881288540D+01 -0.1608541517D+00  0.3164239610D+00
      0.5442492580D+00  0.1143456438D+01  0.7443082909D+00
 Atom C6       Shell    17 SP   1    bf   42 -    45          2.839311001325          3.806651604228          2.471807456495
      0.1687144782D+00  0.1000000000D+01  0.1000000000D+01
 Atom C6       Shell    18 D   1     bf   46 -    51          2.839311001325          3.806651604228          2.471807456495
      0.8000000000D+00  0.1000000000D+01
 Atom C7       Shell    19 S   6     bf   52 -    52          2.618529081576          3.142029858826         -0.337167487760
      0.3047524880D+04  0.1834737132D-02
      0.4573695180D+03  0.1403732281D-01
      0.1039486850D+03  0.6884262226D-01
      0.2921015530D+02  0.2321844432D+00
      0.9286662960D+01  0.4679413484D+00
      0.3163926960D+01  0.3623119853D+00
 Atom C7       Shell    20 SP   3    bf   53 -    56          2.618529081576          3.142029858826         -0.337167487760
      0.7868272350D+01 -0.1193324198D+00  0.6899906659D-01
      0.1881288540D+01 -0.1608541517D+00  0.3164239610D+00
      0.5442492580D+00  0.1143456438D+01  0.7443082909D+00
 Atom C7       Shell    21 SP   1    bf   57 -    60          2.618529081576          3.142029858826         -0.337167487760
      0.1687144782D+00  0.1000000000D+01  0.1000000000D+01
 Atom C7       Shell    22 D   1     bf   61 -    66          2.618529081576          3.142029858826         -0.337167487760
      0.8000000000D+00  0.1000000000D+01
 Atom C8       Shell    23 S   6     bf   67 -    67         -0.021675952429          1.914296219785         -0.804774474575
      0.3047524880D+04  0.1834737132D-02
      0.4573695180D+03  0.1403732281D-01
      0.1039486850D+03  0.6884262226D-01
      0.2921015530D+02  0.2321844432D+00
      0.9286662960D+01  0.4679413484D+00
      0.3163926960D+01  0.3623119853D+00
 Atom C8       Shell    24 SP   3    bf   68 -    71         -0.021675952429          1.914296219785         -0.804774474575
      0.7868272350D+01 -0.1193324198D+00  0.6899906659D-01
      0.1881288540D+01 -0.1608541517D+00  0.3164239610D+00
      0.5442492580D+00  0.1143456438D+01  0.7443082909D+00
 Atom C8       Shell    25 SP   1    bf   72 -    75         -0.021675952429          1.914296219785         -0.804774474575
      0.1687144782D+00  0.1000000000D+01  0.1000000000D+01
 Atom C8       Shell    26 D   1     bf   76 -    81         -0.021675952429          1.914296219785         -0.804774474575
      0.8000000000D+00  0.1000000000D+01
 Atom H9       Shell    27 S   3     bf   82 -    82          0.000000000000          0.000000000000          0.000000000000
      0.1873113696D+02  0.3349460434D-01
      0.2825394365D+01  0.2347269535D+00
      0.6401216923D+00  0.8137573261D+00
 Atom H9       Shell    28 S   1     bf   83 -    83          0.000000000000          0.000000000000          0.000000000000
      0.1612777588D+00  0.1000000000D+01
 Atom H10      Shell    29 S   3     bf   84 -    84         -0.330601634311          1.692030978405         -2.839034647775
      0.1873113696D+02  0.3349460434D-01
      0.2825394365D+01  0.2347269535D+00
      0.6401216923D+00  0.8137573261D+00
 Atom H10      Shell    30 S   1     bf   85 -    85         -0.330601634311          1.692030978405         -2.839034647775
      0.1612777588D+00  0.1000000000D+01
 Atom C11      Shell    31 S   6     bf   86 -    86         -2.264970014853          3.356838807803          0.343144143497
      0.3047524880D+04  0.1834737132D-02
      0.4573695180D+03  0.1403732281D-01
      0.1039486850D+03  0.6884262226D-01
      0.2921015530D+02  0.2321844432D+00
      0.9286662960D+01  0.4679413484D+00
      0.3163926960D+01  0.3623119853D+00
 Atom C11      Shell    32 SP   3    bf   87 -    90         -2.264970014853          3.356838807803          0.343144143497
      0.7868272350D+01 -0.1193324198D+00  0.6899906659D-01
      0.1881288540D+01 -0.1608541517D+00  0.3164239610D+00
      0.5442492580D+00  0.1143456438D+01  0.7443082909D+00
 Atom C11      Shell    33 SP   1    bf   91 -    94         -2.264970014853          3.356838807803          0.343144143497
      0.1687144782D+00  0.1000000000D+01  0.1000000000D+01
 Atom C11      Shell    34 D   1     bf   95 -   100         -2.264970014853          3.356838807803          0.343144143497
      0.8000000000D+00  0.1000000000D+01
 Atom H12      Shell    35 S   3     bf  101 -   101         -2.482356569173          5.210999482286         -0.571485251237
      0.1873113696D+02  0.3349460434D-01
      0.2825394365D+01  0.2347269535D+00
      0.6401216923D+00  0.8137573261D+00
 Atom H12      Shell    36 S   1     bf  102 -   102         -2.482356569173          5.210999482286         -0.571485251237
      0.1612777588D+00  0.1000000000D+01
 Atom H13      Shell    37 S   3     bf  103 -   103         -4.023226332201          2.317623265121          0.000000000000
      0.1873113696D+02  0.3349460434D-01
      0.2825394365D+01  0.2347269535D+00
      0.6401216923D+00  0.8137573261D+00
 Atom H13      Shell    38 S   1     bf  104 -   104         -4.023226332201          2.317623265121          0.000000000000
      0.1612777588D+00  0.1000000000D+01
 Atom C14      Shell    39 S   6     bf  105 -   105          4.912412756639          3.308718386919          3.836222775749
      0.3047524880D+04  0.1834737132D-02
      0.4573695180D+03  0.1403732281D-01
      0.1039486850D+03  0.6884262226D-01
      0.2921015530D+02  0.2321844432D+00
      0.9286662960D+01  0.4679413484D+00
      0.3163926960D+01  0.3623119853D+00
 Atom C14      Shell    40 SP   3    bf  106 -   109          4.912412756639          3.308718386919          3.836222775749
      0.7868272350D+01 -0.1193324198D+00  0.6899906659D-01
      0.1881288540D+01 -0.1608541517D+00  0.3164239610D+00
      0.5442492580D+00  0.1143456438D+01  0.7443082909D+00
 Atom C14      Shell    41 SP   1    bf  110 -   113          4.912412756639          3.308718386919          3.836222775749
      0.1687144782D+00  0.1000000000D+01  0.1000000000D+01
 Atom C14      Shell    42 D   1     bf  114 -   119          4.912412756639          3.308718386919          3.836222775749
      0.8000000000D+00  0.1000000000D+01
 Atom H15      Shell    43 S   3     bf  120 -   120          4.964457930832          3.805463420025          5.830092660681
      0.1873113696D+02  0.3349460434D-01
      0.2825394365D+01  0.2347269535D+00
      0.6401216923D+00  0.8137573261D+00
 Atom H15      Shell    44 S   1     bf  121 -   121          4.964457930832          3.805463420025          5.830092660681
      0.1612777588D+00  0.1000000000D+01
 Atom C16      Shell    45 S   6     bf  122 -   122          7.301925814787          2.158248978718          2.834128502995
      0.3047524880D+04  0.1834737132D-02
      0.4573695180D+03  0.1403732281D-01
      0.1039486850D+03  0.6884262226D-01
      0.2921015530D+02  0.2321844432D+00
      0.9286662960D+01  0.4679413484D+00
      0.3163926960D+01  0.3623119853D+00
 Atom C16      Shell    46 SP   3    bf  123 -   126          7.301925814787          2.158248978718          2.834128502995
      0.7868272350D+01 -0.1193324198D+00  0.6899906659D-01
      0.1881288540D+01 -0.1608541517D+00  0.3164239610D+00
      0.5442492580D+00  0.1143456438D+01  0.7443082909D+00
 Atom C16      Shell    47 SP   1    bf  127 -   130          7.301925814787          2.158248978718          2.834128502995
      0.1687144782D+00  0.1000000000D+01  0.1000000000D+01
 Atom C16      Shell    48 D   1     bf  131 -   136          7.301925814787          2.158248978718          2.834128502995
      0.8000000000D+00  0.1000000000D+01
 Atom H17      Shell    49 S   3     bf  137 -   137          7.645589273923          0.318016946437          3.742510368647
      0.1873113696D+02  0.3349460434D-01
      0.2825394365D+01  0.2347269535D+00
      0.6401216923D+00  0.8137573261D+00
 Atom H17      Shell    50 S   1     bf  138 -   138          7.645589273923          0.318016946437          3.742510368647
      0.1612777588D+00  0.1000000000D+01
 Atom C18      Shell    51 S   6     bf  139 -   139          7.381313001759          1.875082588390         -0.056527850245
      0.3047524880D+04  0.1834737132D-02
      0.4573695180D+03  0.1403732281D-01
      0.1039486850D+03  0.6884262226D-01
      0.2921015530D+02  0.2321844432D+00
      0.9286662960D+01  0.4679413484D+00
      0.3163926960D+01  0.3623119853D+00
 Atom C18      Shell    52 SP   3    bf  140 -   143          7.381313001759          1.875082588390         -0.056527850245
      0.7868272350D+01 -0.1193324198D+00  0.6899906659D-01
      0.1881288540D+01 -0.1608541517D+00  0.3164239610D+00
      0.5442492580D+00  0.1143456438D+01  0.7443082909D+00
 Atom C18      Shell    53 SP   1    bf  144 -   147          7.381313001759          1.875082588390         -0.056527850245
      0.1687144782D+00  0.1000000000D+01  0.1000000000D+01
 Atom C18      Shell    54 D   1     bf  148 -   153          7.381313001759          1.875082588390         -0.056527850245
      0.8000000000D+00  0.1000000000D+01
 Atom H19      Shell    55 S   3     bf  154 -   154          7.954292780703          3.715933940616         -0.823456382714
      0.1873113696D+02  0.3349460434D-01
      0.2825394365D+01  0.2347269535D+00
      0.6401216923D+00  0.8137573261D+00
 Atom H19      Shell    56 S   1     bf  155 -   155          7.954292780703          3.715933940616         -0.823456382714
      0.1612777588D+00  0.1000000000D+01
 Atom C20      Shell    57 S   6     bf  156 -   156          4.712693195243          1.180684768463         -1.069514901271
      0.3047524880D+04  0.1834737132D-02
      0.4573695180D+03  0.1403732281D-01
      0.1039486850D+03  0.6884262226D-01
      0.2921015530D+02  0.2321844432D+00
      0.9286662960D+01  0.4679413484D+00
      0.3163926960D+01  0.3623119853D+00
 Atom C20      Shell    58 SP   3    bf  157 -   160          4.712693195243          1.180684768463         -1.069514901271
      0.7868272350D+01 -0.1193324198D+00  0.6899906659D-01
      0.1881288540D+01 -0.1608541517D+00  0.3164239610D+00
      0.5442492580D+00  0.1143456438D+01  0.7443082909D+00
 Atom C20      Shell    59 SP   1    bf  161 -   164          4.712693195243          1.180684768463         -1.069514901271
      0.1687144782D+00  0.1000000000D+01  0.1000000000D+01
 Atom C20      Shell    60 D   1     bf  165 -   170          4.712693195243          1.180684768463         -1.069514901271
      0.8000000000D+00  0.1000000000D+01
 Atom H21      Shell    61 S   3     bf  171 -   171          4.183344811653         -0.586878544576         -0.103094009180
      0.1873113696D+02  0.3349460434D-01
      0.2825394365D+01  0.2347269535D+00
      0.6401216923D+00  0.8137573261D+00
 Atom H21      Shell    62 S   1     bf  172 -   172          4.183344811653         -0.586878544576         -0.103094009180
      0.1612777588D+00  0.1000000000D+01
 Atom C22      Shell    63 S   6     bf  173 -   173          4.795786002882          0.588495148591         -3.928545081409
      0.3047524880D+04  0.1834737132D-02
      0.4573695180D+03  0.1403732281D-01
      0.1039486850D+03  0.6884262226D-01
      0.2921015530D+02  0.2321844432D+00
      0.9286662960D+01  0.4679413484D+00
      0.3163926960D+01  0.3623119853D+00
 Atom C22      Shell    64 SP   3    bf  174 -   177          4.795786002882          0.588495148591         -3.928545081409
      0.7868272350D+01 -0.1193324198D+00  0.6899906659D-01
      0.1881288540D+01 -0.1608541517D+00  0.3164239610D+00
      0.5442492580D+00  0.1143456438D+01  0.7443082909D+00
 Atom C22      Shell    65 SP   1    bf  178 -   181          4.795786002882          0.588495148591         -3.928545081409
      0.1687144782D+00  0.1000000000D+01  0.1000000000D+01
 Atom C22      Shell    66 D   1     bf  182 -   187          4.795786002882          0.588495148591         -3.928545081409
      0.8000000000D+00  0.1000000000D+01
 Atom H23      Shell    67 S   3     bf  188 -   188          5.128825213829          2.332658436460         -4.992536502166
      0.1873113696D+02  0.3349460434D-01
      0.2825394365D+01  0.2347269535D+00
      0.6401216923D+00  0.8137573261D+00
 Atom H23      Shell    68 S   1     bf  189 -   189          5.128825213829          2.332658436460         -4.992536502166
      0.1612777588D+00  0.1000000000D+01
 Atom H24      Shell    69 S   3     bf  190 -   190          2.947203251923         -0.110591157461         -4.543873037176
      0.1873113696D+02  0.3349460434D-01
      0.2825394365D+01  0.2347269535D+00
      0.6401216923D+00  0.8137573261D+00
 Atom H24      Shell    70 S   1     bf  191 -   191          2.947203251923         -0.110591157461         -4.543873037176
      0.1612777588D+00  0.1000000000D+01
 Atom C25      Shell    71 S   6     bf  192 -   192          6.813767092516         -1.369275694867         -4.685024940144
      0.3047524880D+04  0.1834737132D-02
      0.4573695180D+03  0.1403732281D-01
      0.1039486850D+03  0.6884262226D-01
      0.2921015530D+02  0.2321844432D+00
      0.9286662960D+01  0.4679413484D+00
      0.3163926960D+01  0.3623119853D+00
 Atom C25      Shell    72 SP   3    bf  193 -   196          6.813767092516         -1.369275694867         -4.685024940144
      0.7868272350D+01 -0.1193324198D+00  0.6899906659D-01
      0.1881288540D+01 -0.1608541517D+00  0.3164239610D+00
      0.5442492580D+00  0.1143456438D+01  0.7443082909D+00
 Atom C25      Shell    73 SP   1    bf  197 -   200          6.813767092516         -1.369275694867         -4.685024940144
      0.1687144782D+00  0.1000000000D+01  0.1000000000D+01
 Atom C25      Shell    74 D   1     bf  201 -   206          6.813767092516         -1.369275694867         -4.685024940144
      0.8000000000D+00  0.1000000000D+01
 Atom H26      Shell    75 S   3     bf  207 -   207          6.334613879029         -3.210785503267         -3.849803198116
      0.1873113696D+02  0.3349460434D-01
      0.2825394365D+01  0.2347269535D+00
      0.6401216923D+00  0.8137573261D+00
 Atom H26      Shell    76 S   1     bf  208 -   208          6.334613879029         -3.210785503267         -3.849803198116
      0.1612777588D+00  0.1000000000D+01
 Atom H27      Shell    77 S   3     bf  209 -   209          6.745290144885         -1.620455654704         -6.736514370108
      0.1873113696D+02  0.3349460434D-01
      0.2825394365D+01  0.2347269535D+00
      0.6401216923D+00  0.8137573261D+00
 Atom H27      Shell    78 S   1     bf  210 -   210          6.745290144885         -1.620455654704         -6.736514370108
      0.1612777588D+00  0.1000000000D+01
 Atom C28      Shell    79 S   6     bf  211 -   211          9.474059159423         -0.599205265935         -3.779012602089
      0.3047524880D+04  0.1834737132D-02
      0.4573695180D+03  0.1403732281D-01
      0.1039486850D+03  0.6884262226D-01
      0.2921015530D+02  0.2321844432D+00
      0.9286662960D+01  0.4679413484D+00
      0.3163926960D+01  0.3623119853D+00
 Atom C28      Shell    80 SP   3    bf  212 -   215          9.474059159423         -0.599205265935         -3.779012602089
      0.7868272350D+01 -0.1193324198D+00  0.6899906659D-01
      0.1881288540D+01 -0.1608541517D+00  0.3164239610D+00
      0.5442492580D+00  0.1143456438D+01  0.7443082909D+00
 Atom C28      Shell    81 SP   1    bf  216 -   219          9.474059159423         -0.599205265935         -3.779012602089
      0.1687144782D+00  0.1000000000D+01  0.1000000000D+01
 Atom C28      Shell    82 D   1     bf  220 -   225          9.474059159423         -0.599205265935         -3.779012602089
      0.8000000000D+00  0.1000000000D+01
 Atom C29      Shell    83 S   6     bf  226 -   226          9.282289751458         -0.170845018516         -0.875400078613
      0.3047524880D+04  0.1834737132D-02
      0.4573695180D+03  0.1403732281D-01
      0.1039486850D+03  0.6884262226D-01
      0.2921015530D+02  0.2321844432D+00
      0.9286662960D+01  0.4679413484D+00
      0.3163926960D+01  0.3623119853D+00
 Atom C29      Shell    84 SP   3    bf  227 -   230          9.282289751458         -0.170845018516         -0.875400078613
      0.7868272350D+01 -0.1193324198D+00  0.6899906659D-01
      0.1881288540D+01 -0.1608541517D+00  0.3164239610D+00
      0.5442492580D+00  0.1143456438D+01  0.7443082909D+00
 Atom C29      Shell    85 SP   1    bf  231 -   234          9.282289751458         -0.170845018516         -0.875400078613
      0.1687144782D+00  0.1000000000D+01  0.1000000000D+01
 Atom C29      Shell    86 D   1     bf  235 -   240          9.282289751458         -0.170845018516         -0.875400078613
      0.8000000000D+00  0.1000000000D+01
 Atom H30      Shell    87 S   3     bf  241 -   241          8.534283500292         -1.962601852728         -0.113952073183
      0.1873113696D+02  0.3349460434D-01
      0.2825394365D+01  0.2347269535D+00
      0.6401216923D+00  0.8137573261D+00
 Atom H30      Shell    88 S   1     bf  242 -   242          8.534283500292         -1.962601852728         -0.113952073183
      0.1612777588D+00  0.1000000000D+01
 Atom C31      Shell    89 S   6     bf  243 -   243         12.045599180252          0.000000000000          0.000000000000
      0.3047524880D+04  0.1834737132D-02
      0.4573695180D+03  0.1403732281D-01
      0.1039486850D+03  0.6884262226D-01
      0.2921015530D+02  0.2321844432D+00
      0.9286662960D+01  0.4679413484D+00
      0.3163926960D+01  0.3623119853D+00
 Atom C31      Shell    90 SP   3    bf  244 -   247         12.045599180252          0.000000000000          0.000000000000
      0.7868272350D+01 -0.1193324198D+00  0.6899906659D-01
      0.1881288540D+01 -0.1608541517D+00  0.3164239610D+00
      0.5442492580D+00  0.1143456438D+01  0.7443082909D+00
 Atom C31      Shell    91 SP   1    bf  248 -   251         12.045599180252          0.000000000000          0.000000000000
      0.1687144782D+00  0.1000000000D+01  0.1000000000D+01
 Atom C31      Shell    92 D   1     bf  252 -   257         12.045599180252          0.000000000000          0.000000000000
      0.8000000000D+00  0.1000000000D+01
 Atom H32      Shell    93 S   3     bf  258 -   258         12.264366349588         -0.468289612586          2.002507275065
      0.1873113696D+02  0.3349460434D-01
      0.2825394365D+01  0.2347269535D+00
      0.6401216923D+00  0.8137573261D+00
 Atom H32      Shell    94 S   1     bf  259 -   259         12.264366349588         -0.468289612586          2.002507275065
      0.1612777588D+00  0.1000000000D+01
 Atom H33      Shell    95 S   3     bf  260 -   260         12.772762659242          1.921943771369         -0.236753374798
      0.1873113696D+02  0.3349460434D-01
      0.2825394365D+01  0.2347269535D+00
      0.6401216923D+00  0.8137573261D+00
 Atom H33      Shell    96 S   1     bf  261 -   261         12.772762659242          1.921943771369         -0.236753374798
      0.1612777588D+00  0.1000000000D+01
 Atom C34      Shell    97 S   6     bf  262 -   262         13.445028592515         -1.901828732726         -1.740805962627
      0.3047524880D+04  0.1834737132D-02
      0.4573695180D+03  0.1403732281D-01
      0.1039486850D+03  0.6884262226D-01
      0.2921015530D+02  0.2321844432D+00
      0.9286662960D+01  0.4679413484D+00
      0.3163926960D+01  0.3623119853D+00
 Atom C34      Shell    98 SP   3    bf  263 -   266         13.445028592515         -1.901828732726         -1.740805962627
      0.7868272350D+01 -0.1193324198D+00  0.6899906659D-01
      0.1881288540D+01 -0.1608541517D+00  0.3164239610D+00
      0.5442492580D+00  0.1143456438D+01  0.7443082909D+00
 Atom C34      Shell    99 SP   1    bf  267 -   270         13.445028592515         -1.901828732726         -1.740805962627
      0.1687144782D+00  0.1000000000D+01  0.1000000000D+01
 Atom C34      Shell   100 D   1     bf  271 -   276         13.445028592515         -1.901828732726         -1.740805962627
      0.8000000000D+00  0.1000000000D+01
 Atom H35      Shell   101 S   3     bf  277 -   277         15.128726162133         -1.030828408981         -2.577928466789
      0.1873113696D+02  0.3349460434D-01
      0.2825394365D+01  0.2347269535D+00
      0.6401216923D+00  0.8137573261D+00
 Atom H35      Shell   102 S   1     bf  278 -   278         15.128726162133         -1.030828408981         -2.577928466789
      0.1612777588D+00  0.1000000000D+01
 Atom H36      Shell   103 S   3     bf  279 -   279         14.109155248568         -3.541944776862         -0.671156720726
      0.1873113696D+02  0.3349460434D-01
      0.2825394365D+01  0.2347269535D+00
      0.6401216923D+00  0.8137573261D+00
 Atom H36      Shell   104 S   1     bf  280 -   280         14.109155248568         -3.541944776862         -0.671156720726
      0.1612777588D+00  0.1000000000D+01
 Atom C37      Shell   105 S   6     bf  281 -   281         11.544967528512         -2.720036174338         -3.858103612285
      0.3047524880D+04  0.1834737132D-02
      0.4573695180D+03  0.1403732281D-01
      0.1039486850D+03  0.6884262226D-01
      0.2921015530D+02  0.2321844432D+00
      0.9286662960D+01  0.4679413484D+00
      0.3163926960D+01  0.3623119853D+00
 Atom C37      Shell   106 SP   3    bf  282 -   285         11.544967528512         -2.720036174338         -3.858103612285
      0.7868272350D+01 -0.1193324198D+00  0.6899906659D-01
      0.1881288540D+01 -0.1608541517D+00  0.3164239610D+00
      0.5442492580D+00  0.1143456438D+01  0.7443082909D+00
[...]
 1664 Fit       0.003405
 1665 Fit       0.003758
 1666 Fit       0.002637
 1667 Fit       0.001682
 1668 Fit       0.002340
 1669 Fit       0.003389
 1670 Fit       0.004306
 1671 Fit       0.002672
 1672 Fit       0.001920
 1673 Fit       0.000771
 1674 Fit      -0.000139
 1675 Fit       0.003196
 1676 Fit       0.000293
 1677 Fit      -0.000207
 1678 Fit      -0.001114
 1679 Fit       0.000228
 1680 Fit       0.002266
 1681 Fit       0.000879
 1682 Fit       0.003686
 1683 Fit       0.000054
 1684 Fit       0.003021
 1685 Fit       0.005662
 1686 Fit       0.000854
 1687 Fit       0.004055
 1688 Fit      -0.011696
 1689 Fit      -0.009111
 1690 Fit      -0.004892
 1691 Fit      -0.008360
 1692 Fit      -0.002715
 1693 Fit      -0.001279
 1694 Fit      -0.003764
 1695 Fit      -0.014570
 1696 Fit      -0.004809
 1697 Fit      -0.000026
 1698 Fit       0.001935
 1699 Fit       0.000337
 1700 Fit      -0.001243
 1701 Fit       0.002996
 1702 Fit      -0.009419
 1703 Fit      -0.004297
 1704 Fit      -0.001141
 1705 Fit      -0.000676
 1706 Fit      -0.004852
 1707 Fit      -0.003219
 1708 Fit      -0.004239
 1709 Fit      -0.006615
 1710 Fit      -0.010804
 1711 Fit      -0.006891
 1712 Fit      -0.003302
 1713 Fit      -0.004934
 1714 Fit      -0.004691
 1715 Fit      -0.009784
 1716 Fit      -0.004937
 1717 Fit      -0.002758
 1718 Fit       0.001499
 1719 Fit      -0.003797
 1720 Fit       0.002042
 1721 Fit       0.007380
 1722 Fit      -0.000724
 1723 Fit       0.005211
 1724 Fit       0.010894
 1725 Fit       0.019569
 1726 Fit       0.004116
 1727 Fit       0.004915
 1728 Fit       0.004892
 1729 Fit       0.005912
 1730 Fit       0.002266
 1731 Fit       0.004048
 1732 Fit       0.004924
 1733 Fit       0.005533
 1734 Fit       0.004149
 1735 Fit       0.005321
 1736 Fit       0.006654
 1737 Fit       0.004308
 1738 Fit       0.005314
 1739 Fit       0.006599
 1740 Fit       0.005475
 1741 Fit       0.005199
 1742 Fit       0.004981
 1743 Fit       0.007229
 1744 Fit       0.006407
 1745 Fit       0.006257
 1746 Fit       0.006509
 1747 Fit       0.008276
 1748 Fit       0.007617
 1749 Fit       0.008117
 1750 Fit       0.008529
 1751 Fit       0.003543
 1752 Fit       0.003779
 1753 Fit       0.005614
 1754 Fit       0.013940
 1755 Fit       0.011826
 1756 Fit       0.006844
 1757 Fit       0.009774
 1758 Fit       0.008165
 1759 Fit       0.005130
 1760 Fit       0.007202
 1761 Fit       0.005542
 1762 Fit       0.007265
 1763 Fit      -0.007209
 1764 Fit      -0.008010
 1765 Fit      -0.004306
 1766 Fit      -0.001099
 1767 Fit       0.001644
 1768 Fit      -0.001246
 1769 Fit      -0.001149
 1770 Fit       0.000362
 1771 Fit       0.001964
 1772 Fit       0.003356
 1773 Fit       0.001870
 1774 Fit       0.002441
 1775 Fit       0.003510
 1776 Fit       0.004463
 1777 Fit       0.003799
 1778 Fit       0.004876
 1779 Fit      -0.004776
 1780 Fit      -0.004001
 1781 Fit      -0.005773
 1782 Fit      -0.004009
 1783 Fit      -0.000926
 1784 Fit      -0.017417
 1785 Fit       0.000509
 1786 Fit      -0.016034
 1787 Fit      -0.007285
 1788 Fit      -0.013018
 1789 Fit      -0.005388
 1790 Fit      -0.003258
 1791 Fit      -0.004671
 1792 Fit      -0.009348
 1793 Fit      -0.018986
 1794 Fit      -0.008562
 1795 Fit      -0.004370
 1796 Fit      -0.004658
 1797 Fit      -0.018797
 1798 Fit      -0.000172
 1799 Fit       0.002792
 1800 Fit       0.002231
 1801 Fit       0.005412
 1802 Fit       0.007964
 1803 Fit       0.013493
 1804 Fit       0.005184
 1805 Fit       0.007452
 1806 Fit       0.008813
 1807 Fit      -0.013296
 1808 Fit      -0.004271
 1809 Fit       0.002495
 1810 Fit       0.005780
 1811 Fit       0.006568
 1812 Fit       0.007157
 1813 Fit       0.008351
 1814 Fit       0.005155
 1815 Fit       0.006729
 1816 Fit       0.005347
 1817 Fit       0.006101
 1818 Fit       0.005490
 1819 Fit       0.005532
 1820 Fit       0.005958
 1821 Fit       0.005756
 1822 Fit       0.007262
 1823 Fit       0.006012
 1824 Fit       0.004813
 1825 Fit       0.008386
 1826 Fit       0.008423
 1827 Fit       0.007242
 1828 Fit       0.005905
 1829 Fit       0.006114
 1830 Fit       0.005289
 1831 Fit       0.003568
 1832 Fit       0.002415
 1833 Fit       0.006954
 1834 Fit       0.007049
 1835 Fit       0.005878
 1836 Fit       0.005693
 1837 Fit       0.005895
 1838 Fit       0.004655
 1839 Fit       0.004374
 1840 Fit       0.004671
 1841 Fit       0.002853
 1842 Fit       0.005887
 1843 Fit       0.005214
 1844 Fit       0.004476
 1845 Fit       0.003177
 1846 Fit       0.006174
 1847 Fit       0.005198
 1848 Fit       0.008264
 1849 Fit       0.007685
 1850 Fit       0.007464
 1851 Fit       0.007991
 1852 Fit       0.007375
 1853 Fit       0.006848
 1854 Fit       0.004022
 1855 Fit       0.003474
 1856 Fit       0.007194
 1857 Fit       0.001335
 1858 Fit       0.013823
 1859 Fit       0.014497
 1860 Fit       0.011181
 1861 Fit       0.009226
 1862 Fit       0.009089
 1863 Fit       0.009422
 1864 Fit       0.007405
 1865 Fit       0.000061
 1866 Fit       0.000251
 1867 Fit      -0.003235
 1868 Fit      -0.010738
 1869 Fit       0.001848
 1870 Fit      -0.000292
 1871 Fit      -0.003885
 1872 Fit      -0.007086
 1873 Fit       0.003822
 1874 Fit       0.002175
 1875 Fit       0.001838
 1876 Fit       0.003081
 1877 Fit       0.001862
 1878 Fit       0.002811
 1879 Fit       0.003059
 1880 Fit       0.002867
 1881 Fit       0.004527
 1882 Fit       0.004344
 1883 Fit       0.005514
 1884 Fit       0.005983
 1885 Fit       0.007034
 1886 Fit       0.006454
 1887 Fit       0.004011
 1888 Fit       0.006306
 1889 Fit       0.005979
 1890 Fit       0.005865
 1891 Fit       0.005255
 1892 Fit       0.002814
 1893 Fit       0.005028
 1894 Fit       0.005183
 1895 Fit       0.005652
 1896 Fit       0.004740
 1897 Fit       0.006714
 1898 Fit       0.005537
 1899 Fit       0.004789
 1900 Fit       0.006160
 1901 Fit       0.005273
 1902 Fit       0.005670
 1903 Fit       0.005286
 1904 Fit      -0.003297
 1905 Fit      -0.000294
 1906 Fit       0.000418
 1907 Fit       0.000133
 1908 Fit       0.001292
 1909 Fit       0.001058
 1910 Fit       0.001722
 1911 Fit       0.003329
 1912 Fit       0.000562
 1913 Fit       0.001256
 1914 Fit       0.003656
 1915 Fit       0.002695
 1916 Fit       0.005080
 1917 Fit       0.003557
 1918 Fit       0.001280
 1919 Fit      -0.000976
 1920 Fit       0.005118
 1921 Fit       0.003291
 1922 Fit       0.001469
 1923 Fit       0.001968
 1924 Fit       0.002032
 1925 Fit       0.001667
 1926 Fit       0.002235
 1927 Fit       0.003667
 1928 Fit       0.005415
 1929 Fit       0.003461
 1930 Fit       0.003431
 1931 Fit       0.004270
 1932 Fit       0.006138
 1933 Fit       0.004854
 1934 Fit       0.005879
 1935 Fit       0.005361
 1936 Fit       0.003792
 1937 Fit       0.002960
 1938 Fit       0.002777
 1939 Fit       0.002003
 1940 Fit       0.002063
 1941 Fit       0.001530
 1942 Fit       0.001674
 1943 Fit       0.002963
 1944 Fit       0.001363
 1945 Fit       0.000811
 1946 Fit       0.000972
 1947 Fit       0.001619
 1948 Fit       0.000732
 1949 Fit       0.000498
 1950 Fit       0.001446
 1951 Fit       0.001012
 1952 Fit       0.005204
 1953 Fit       0.005093
 1954 Fit       0.003724
 1955 Fit       0.004238
 1956 Fit       0.004089
 1957 Fit       0.002138
 1958 Fit       0.002732
 1959 Fit       0.003014
 1960 Fit       0.002726
 1961 Fit       0.002109
 1962 Fit       0.001292
 1963 Fit       0.001466
 1964 Fit       0.001135
 1965 Fit       0.002115
 1966 Fit       0.001649
 1967 Fit       0.001025
 1968 Fit       0.002380
 1969 Fit       0.003791
 1970 Fit       0.002509
 1971 Fit       0.001721
 1972 Fit       0.001544
 1973 Fit       0.002439
 1974 Fit       0.003877
 1975 Fit       0.002845
 1976 Fit       0.003762
 1977 Fit       0.005359
 1978 Fit       0.005676
 1979 Fit       0.004850
 1980 Fit       0.002545
 1981 Fit       0.002149
 1982 Fit       0.003377
 1983 Fit       0.002375
 1984 Fit      -0.003642
 1985 Fit       0.001519
 1986 Fit       0.001562
 1987 Fit       0.002639
 1988 Fit       0.004640
 1989 Fit       0.006463
 1990 Fit       0.004234
 1991 Fit       0.002862
 1992 Fit       0.003421
 1993 Fit       0.004824
 1994 Fit       0.003592
 1995 Fit       0.004135
 1996 Fit       0.005433
 1997 Fit       0.006753
 1998 Fit       0.008332
 1999 Fit       0.005660
 2000 Fit       0.006047
 2001 Fit       0.007276
 2002 Fit       0.007670
 2003 Fit       0.007047
 2004 Fit       0.002920
 2005 Fit       0.008153
 2006 Fit       0.014322
 2007 Fit       0.002757
 2008 Fit       0.006279
 2009 Fit       0.009921
 2010 Fit       0.004250
 2011 Fit       0.006731
 2012 Fit       0.008322
 2013 Fit      -0.016121
 2014 Fit      -0.009083
 2015 Fit      -0.006018
 2016 Fit      -0.004207
 2017 Fit      -0.002456
 2018 Fit       0.001046
 2019 Fit       0.000170
 2020 Fit       0.000171
 2021 Fit       0.003431
 2022 Fit       0.001910
 2023 Fit      -0.007810
 2024 Fit      -0.017051
 2025 Fit      -0.023279
 2026 Fit      -0.026027
 2027 Fit      -0.025957
 2028 Fit      -0.017675
 2029 Fit      -0.020604
 2030 Fit      -0.020213
 2031 Fit      -0.013467
 2032 Fit      -0.007817
 2033 Fit       0.000507
 2034 Fit      -0.009809
 2035 Fit      -0.015080
 2036 Fit      -0.012963
 2037 Fit      -0.007128
 2038 Fit       0.001280
 2039 Fit      -0.001929
 2040 Fit      -0.012978
 2041 Fit      -0.019190
 2042 Fit      -0.020013
 2043 Fit      -0.016311
 2044 Fit      -0.010752
 2045 Fit      -0.006540
 2046 Fit       0.001659
 2047 Fit      -0.011150
 2048 Fit      -0.020256
 2049 Fit      -0.024141
 2050 Fit      -0.023026
 2051 Fit      -0.003745
 2052 Fit       0.003670
 2053 Fit      -0.010836
 2054 Fit      -0.020851
 2055 Fit      -0.026340
 2056 Fit      -0.027588
 2057 Fit       0.010651
 2058 Fit       0.011528
 2059 Fit       0.015100
 2060 Fit       0.007396
 2061 Fit       0.009791
 2062 Fit       0.016422
 2063 Fit       0.018014
 2064 Fit       0.016255
 2065 Fit       0.009385
 2066 Fit       0.011376
 2067 Fit       0.017591
 2068 Fit       0.020145
 2069 Fit       0.019640
 2070 Fit       0.013653
 2071 Fit       0.006426
 2072 Fit       0.017419
 2073 Fit      -0.023959
 2074 Fit      -0.019186
 2075 Fit      -0.021698
 2076 Fit      -0.025924
 2077 Fit      -0.025436
 2078 Fit      -0.020584
 2079 Fit      -0.011130
 2080 Fit      -0.010969
 2081 Fit      -0.013924
 2082 Fit      -0.019791
 2083 Fit      -0.025215
 2084 Fit      -0.027108
 2085 Fit      -0.024341
 2086 Fit      -0.010723
 2087 Fit      -0.019370
 2088 Fit      -0.024890
 2089 Fit      -0.025676
 2090 Fit      -0.021476
 2091 Fit      -0.004472
 2092 Fit      -0.014777
 2093 Fit      -0.021180
 2094 Fit      -0.022700
 2095 Fit      -0.019222
 2096 Fit      -0.008308
 2097 Fit      -0.015733
 2098 Fit      -0.016135
 2099 Fit      -0.005832
 2100 Fit       0.002086
 2101 Fit       0.002740
 2102 Fit      -0.001881
 2103 Fit       0.012315
 2104 Fit       0.011374
 2105 Fit       0.007372
 2106 Fit      -0.000467
 2107 Fit       0.018290
 2108 Fit       0.016596
 2109 Fit       0.012609
 2110 Fit       0.005536
 2111 Fit       0.022125
 2112 Fit       0.019393
 2113 Fit       0.014778
 2114 Fit       0.007030
 2115 Fit       0.003375
 2116 Fit       0.004110
 2117 Fit       0.003289
 2118 Fit       0.002437
 2119 Fit       0.005023
 2120 Fit       0.004226
 2121 Fit       0.003740
 2122 Fit       0.003743
 2123 Fit       0.003654
 2124 Fit       0.002346
 2125 Fit       0.000567
 2126 Fit       0.000834
 2127 Fit       0.001156
 2128 Fit       0.002128
 2129 Fit       0.001684
 2130 Fit       0.003167
 2131 Fit       0.001902
 2132 Fit       0.001669
 2133 Fit       0.001776
 2134 Fit       0.003431
 2135 Fit       0.003305
 2136 Fit       0.002153
 2137 Fit       0.002965
 2138 Fit       0.004810
 2139 Fit       0.002675
 2140 Fit       0.003307
 2141 Fit       0.000973
 2142 Fit       0.001384
 2143 Fit       0.001934
 2144 Fit       0.001757
 2145 Fit       0.000728
 2146 Fit      -0.001143
 2147 Fit       0.000463
 2148 Fit      -0.000468
 2149 Fit       0.003038
 2150 Fit       0.002665
 2151 Fit       0.001488
 2152 Fit      -0.000182
 2153 Fit       0.000941
 2154 Fit       0.002405
 2155 Fit       0.002424
 2156 Fit       0.001971
 2157 Fit       0.001455
 2158 Fit       0.001479
 2159 Fit       0.000939
 2160 Fit       0.001692
 2161 Fit       0.001798
 2162 Fit       0.003479
 2163 Fit       0.003757
 2164 Fit       0.003492
 2165 Fit       0.003432
 2166 Fit       0.002868
 2167 Fit       0.002783
 2168 Fit       0.002228
 2169 Fit       0.000956
 2170 Fit       0.001893
 2171 Fit       0.001667
 2172 Fit       0.000793
 2173 Fit      -0.000788
 2174 Fit       0.000222
 2175 Fit       0.003747
 2176 Fit       0.002932
 2177 Fit       0.003224
 2178 Fit       0.004898
 2179 Fit       0.004865
 2180 Fit       0.003304
 2181 Fit       0.002418
 2182 Fit       0.003734
 2183 Fit       0.002906
 2184 Fit       0.002510
 2185 Fit       0.001742
 2186 Fit       0.000751
 2187 Fit       0.001637
 2188 Fit       0.000684
 2189 Fit      -0.000124
 2190 Fit      -0.000884
 2191 Fit      -0.000556
 2192 Fit      -0.001456
 2193 Fit      -0.001339
 2194 Fit      -0.001061
 2195 Fit      -0.001543
 2196 Fit      -0.001367
 2197 Fit      -0.001167
 2198 Fit      -0.000964
 2199 Fit      -0.000878
 2200 Fit       0.000684
 2201 Fit       0.000785
 2202 Fit      -0.001091
 2203 Fit      -0.000284
 2204 Fit       0.000362
 2205 Fit       0.002017
 2206 Fit       0.002659
 2207 Fit      -0.000445
 2208 Fit       0.000552
 2209 Fit       0.001439
 2210 Fit       0.002598
 2211 Fit       0.003503
 2212 Fit       0.000511
 2213 Fit       0.001613
 2214 Fit       0.002412
 2215 Fit       0.002703
 2216 Fit       0.003043
 2217 Fit       0.003558
 2218 Fit       0.002953
 2219 Fit       0.001887
 2220 Fit       0.001361
 2221 Fit       0.002097
 2222 Fit       0.002518
 2223 Fit       0.003337
 2224 Fit       0.000043
 2225 Fit       0.000865
 2226 Fit       0.001793
 2227 Fit       0.001102
 2228 Fit       0.001591
 2229 Fit      -0.000174
 2230 Fit       0.000585
 2231 Fit      -0.000732
 2232 Fit       0.000734
 2233 Fit       0.002494
 2234 Fit       0.002202
 2235 Fit       0.001129
 2236 Fit      -0.000473
 2237 Fit       0.003396
 2238 Fit       0.002909
 2239 Fit       0.001874
 2240 Fit       0.000317
 2241 Fit       0.003668
 2242 Fit       0.002796
 2243 Fit       0.001693
 2244 Fit       0.000126
 2245 Fit       0.001703
 2246 Fit       0.000532
 2247 Fit      -0.000650
 2248 Fit       0.001754
 2249 Fit       0.001017
 2250 Fit       0.002024
 2251 Fit       0.000046
 2252 Fit      -0.000950
 2253 Fit      -0.000580
 2254 Fit      -0.000891
 2255 Fit      -0.001070
 2256 Fit      -0.000642
 2257 Fit      -0.000793
 2258 Fit      -0.000066
 2259 Fit       0.000736
 2260 Fit       0.000398
 2261 Fit      -0.000120
 2262 Fit       0.000895
 2263 Fit       0.002089
 2264 Fit       0.001580
 2265 Fit       0.000954
 2266 Fit       0.000654
 2267 Fit       0.002573
 2268 Fit       0.002751
 2269 Fit       0.002016
 2270 Fit       0.001433
 2271 Fit       0.003430
 2272 Fit       0.002737
 2273 Fit       0.003093
 2274 Fit       0.003230
 2275 Fit       0.002488
 2276 Fit       0.002053
 2277 Fit       0.002618
 2278 Fit       0.003226
 2279 Fit       0.003710
 2280 Fit       0.002598
 2281 Fit       0.002012
 2282 Fit       0.001263
 2283 Fit       0.000770
 2284 Fit       0.003157
 2285 Fit       0.001186
 2286 Fit       0.000775
 2287 Fit       0.000137
 2288 Fit       0.001367
 2289 Fit      -0.000574
 2290 Fit       0.001985
 2291 Fit       0.000876
 2292 Fit       0.002934
 2293 Fit       0.002060
 2294 Fit       0.004306
 2295 Fit       0.002068
 2296 Fit       0.004305
 2297 Fit       0.000840
 2298 Fit       0.003366
 -----------------------------------------------------------------
 Leave Link  602 at Thu Apr 27 15:22:34 2017, MaxMem=    33554432 cpu:         3.5
 (Enter /home/michal/g09/l9999.exe)

 Test job not archived.
 1\1\GINC-LINUX\SP\RHF\6-31G(d)\C27H46O3\MICHAL\27-Apr-2017\0\\#P HF/6-
 31G* SCF(Conver=6) NoSymm Test Pop=mk IOp(6/33=2) GFInput GFPrint\\MEP
  - Input generated by R.E.D.-III.x MOLECULE\\0,1\C,0,-1.01120141,1.982
 09799,1.68443037\H,0,-0.99195832,1.00455362,2.18170756\C,0,0.31562287,
 2.70574171,1.95253394\H,0,0.47476964,2.80312022,3.03075691\H,0,0.22367
 81,3.72912176,1.55332655\C,0,1.50249867,2.01439327,1.30802417\C,0,1.38
 566591,1.66269059,-0.17842135\C,0,-0.01147042,1.01300193,-0.42586831\H
 ,0,0.,0.,0.\H,0,-0.17494685,0.89538423,-1.50235243\C,0,-1.19857051,1.7
 7636259,0.18158406\H,0,-1.31360652,2.75754216,-0.30241697\H,0,-2.12899
 968,1.22643341,0.\C,0,2.59953687,1.75089836,2.03004166\H,0,2.62707799,
 2.01376451,3.08515216\C,0,3.86401272,1.14209617,1.49975621\H,0,4.04587
 159,0.16828732,1.98045119\C,0,3.90602261,0.99225097,-0.02991325\H,0,4.
 20923045,1.96638755,-0.43575435\C,0,2.49384983,0.62479147,-0.56596291\
 H,0,2.21373073,-0.31056275,-0.054555\C,0,2.53782065,0.31141822,-2.0788
 9652\H,0,2.71405741,1.23438968,-2.64193653\H,0,1.55959279,-0.05852232,
 -2.40451405\C,0,3.60569025,-0.72458949,-2.47920842\H,0,3.35213329,-1.6
 9907451,-2.03722811\H,0,3.56945381,-0.8575082,-3.56480987\C,0,5.013456
 18,-0.31708577,-1.99976734\C,0,4.91197618,-0.09040729,-0.46324177\H,0,
 4.51614832,-1.03856417,-0.06030084\C,0,6.37425655,0.,0.\H,0,6.49002315
 ,-0.24780819,1.05968121\H,0,6.75905489,1.01704884,-0.12528449\C,0,7.11
 48027,-1.00640442,-0.92119484\H,0,8.00577708,-0.5454909,-1.36418099\H,
 0,7.46624339,-1.87431645,-0.35516084\C,0,6.10933369,-1.43938115,-2.041
 6205\H,0,5.60967149,-2.36390927,-1.71056272\C,0,5.50516345,0.94320416,
 -2.7483116\H,0,4.86295091,1.80972382,-2.57179641\H,0,6.51829183,1.2279
 2019,-2.44929247\H,0,5.52143671,0.76913317,-3.82903466\C,0,6.81606822,
 -1.77096064,-3.38190655\H,0,7.37687693,-0.87687333,-3.69446921\C,0,5.8
 3509447,-2.13830523,-4.50994187\H,0,5.16675022,-2.95008917,-4.19676549
 \H,0,6.36730798,-2.47598371,-5.40425157\H,0,5.21357057,-1.29219432,-4.
 81165622\C,0,1.50666669,2.96992941,-1.00647061\H,0,1.27654371,2.796592
 81,-2.06237271\H,0,0.81418436,3.73576359,-0.64759035\H,0,2.51401337,3.
 39108238,-0.93700283\O,0,4.99209351,1.99435274,1.82249659\O,0,5.175667
 75,1.96173251,3.27011544\H,0,6.03962691,1.52114971,3.3244978\O,0,-2.11
 823206,2.65866068,2.28668751\H,0,-2.19165905,3.54072754,1.89585111\C,0
 ,7.84780478,-2.91114003,-3.18134737\H,0,8.39550228,-2.74310596,-2.2491
 9178\H,0,7.30321406,-3.85889448,-3.04724266\C,0,8.86863894,-3.06803007
 ,-4.32044806\H,0,8.34622638,-3.19472912,-5.27628204\H,0,9.44362269,-2.
 13698261,-4.41682293\C,0,9.82640895,-4.26310365,-4.15565707\H,0,10.447
 05514,-4.34108154,-5.06068948\H,0,9.22856855,-5.18537817,-4.11942177\C
 ,0,10.7662757,-4.24421717,-2.93110666\H,0,10.14965655,-4.1884604,-2.02
 261056\C,0,11.56925777,-5.55310139,-2.86054924\H,0,12.21272757,-5.6652
 2585,-3.74272499\H,0,12.21377185,-5.57781566,-1.97443002\H,0,10.907670
 08,-6.42602106,-2.81868068\C,0,11.71113512,-3.03206792,-2.93532918\H,0
 ,12.33609882,-3.02891562,-3.8379291\H,0,12.38107484,-3.05498803,-2.068
 2877\H,0,11.16621643,-2.08297048,-2.90483048\\Version=EM64L-G09RevD.01
 \HF=-1273.6829656\RMSD=5.631e-07\Dipole=0.4117733,-0.4528908,-0.846497
 2\Quadrupole=1.5732359,0.7779837,-2.3512196,-6.1716067,3.771728,-6.265
 4188\PG=C01 [X(C27H46O3)]\\@


 THE UNDERLYING PHYSICAL LAWS NECESSARY FOR THE 
 MATHEMATICAL THEORY OF A LARGE PART OF PHYSICS AND THE
 WHOLE OF CHEMISTRY ARE THUS COMPLETELY KNOWN, AND THE
 DIFFICULTY IS ONLY THAT THE EXACT APPLICATION OF THESE
 LAWS LEADS TO EQUATIONS MUCH TOO COMPLICATED 
 TO BE SOLUBLE.

                                        -- P. A. M. DIRAC, 1929
 Job cpu time:       0 days  0 hours 11 minutes 43.3 seconds.
 File lengths (MBytes):  RWF=    159 Int=      0 D2E=      0 Chk=     11 Scr=      1
 Normal termination of Gaussian 09 at Thu Apr 27 15:22:34 2017.
