 Entering Gaussian System, Link 0=/home/michal/g09/g09
 Input=JOB2-gau_m1-15-1.com
 Output=JOB2-gau_m1-15-1.log
 Initial command:
 /home/michal/g09/l1.exe "/home/michal/gauss_scratch/Gau-1477.inp" -scrdir="/home/michal/gauss_scratch/"
 Entering Link 1 = /home/michal/g09/l1.exe PID=      1478.
  
 Copyright (c) 1988,1990,1992,1993,1995,1998,2003,2009,2013,
            Gaussian, Inc.  All Rights Reserved.
  
 This is part of the Gaussian(R) 09 program.  It is based on
 the Gaussian(R) 03 system (copyright 2003, Gaussian, Inc.),
 the Gaussian(R) 98 system (copyright 1998, Gaussian, Inc.),
 the Gaussian(R) 94 system (copyright 1995, Gaussian, Inc.),
 the Gaussian 92(TM) system (copyright 1992, Gaussian, Inc.),
 the Gaussian 90(TM) system (copyright 1990, Gaussian, Inc.),
 the Gaussian 88(TM) system (copyright 1988, Gaussian, Inc.),
 the Gaussian 86(TM) system (copyright 1986, Carnegie Mellon
 University), and the Gaussian 82(TM) system (copyright 1983,
 Carnegie Mellon University). Gaussian is a federally registered
 trademark of Gaussian, Inc.
  
 This software contains proprietary and confidential information,
 including trade secrets, belonging to Gaussian, Inc.
  
 This software is provided under written license and may be
 used, copied, transmitted, or stored only in accord with that
 written license.
  
 The following legend is applicable only to US Government
 contracts under FAR:
  
                    RESTRICTED RIGHTS LEGEND
  
 Use, reproduction and disclosure by the US Government is
 subject to restrictions as set forth in subparagraphs (a)
 and (c) of the Commercial Computer Software - Restricted
 Rights clause in FAR 52.227-19.
  
 Gaussian, Inc.
 340 Quinnipiac St., Bldg. 40, Wallingford CT 06492
  
  
 ---------------------------------------------------------------
 Warning -- This program may not be used in any manner that
 competes with the business of Gaussian, Inc. or will provide
 assistance to any competitor of Gaussian, Inc.  The licensee
 of this program is prohibited from giving any competitor of
 Gaussian, Inc. access to this program.  By using this program,
 the user acknowledges that Gaussian, Inc. is engaged in the
 business of creating and licensing software in the field of
 computational chemistry and represents and warrants to the
 licensee that it is not a competitor of Gaussian, Inc. and that
 it will not use this program in any manner prohibited above.
 ---------------------------------------------------------------
  

 Cite this work as:
 Gaussian 09, Revision D.01,
 M. J. Frisch, G. W. Trucks, H. B. Schlegel, G. E. Scuseria, 
 M. A. Robb, J. R. Cheeseman, G. Scalmani, V. Barone, B. Mennucci, 
 G. A. Petersson, H. Nakatsuji, M. Caricato, X. Li, H. P. Hratchian, 
 A. F. Izmaylov, J. Bloino, G. Zheng, J. L. Sonnenberg, M. Hada, 
 M. Ehara, K. Toyota, R. Fukuda, J. Hasegawa, M. Ishida, T. Nakajima, 
 Y. Honda, O. Kitao, H. Nakai, T. Vreven, J. A. Montgomery, Jr., 
 J. E. Peralta, F. Ogliaro, M. Bearpark, J. J. Heyd, E. Brothers, 
 K. N. Kudin, V. N. Staroverov, T. Keith, R. Kobayashi, J. Normand, 
 K. Raghavachari, A. Rendell, J. C. Burant, S. S. Iyengar, J. Tomasi, 
 M. Cossi, N. Rega, J. M. Millam, M. Klene, J. E. Knox, J. B. Cross, 
 V. Bakken, C. Adamo, J. Jaramillo, R. Gomperts, R. E. Stratmann, 
 O. Yazyev, A. J. Austin, R. Cammi, C. Pomelli, J. W. Ochterski, 
 R. L. Martin, K. Morokuma, V. G. Zakrzewski, G. A. Voth, 
 P. Salvador, J. J. Dannenberg, S. Dapprich, A. D. Daniels, 
 O. Farkas, J. B. Foresman, J. V. Ortiz, J. Cioslowski, 
 and D. J. Fox, Gaussian, Inc., Wallingford CT, 2013.
 
 ******************************************
 Gaussian 09:  EM64L-G09RevD.01 24-Apr-2013
                27-Apr-2017 
 ******************************************
 %Mem=256MB
 %NProc=12
 Will use up to   12 processors via shared memory.
 ----------------------------------------------------------------------
 #P HF/6-31G* SCF(Conver=6) NoSymm Test Pop=mk IOp(6/33=2) GFInput GFPr
 int
 ----------------------------------------------------------------------
 1/38=1/1;
 2/12=2,15=1,17=6,18=5,40=1/2;
 3/5=1,6=6,7=1,11=9,16=1,24=110,25=1,30=1/1,2,3;
 4//1;
 5/5=2,6=6,38=5/2;
 6/7=2,8=2,9=2,10=2,15=8,20=1,28=1,33=2/1,2;
 99/5=1,9=1/99;
 Leave Link    1 at Thu Apr 27 15:54:37 2017, MaxMem=    33554432 cpu:         0.6
 (Enter /home/michal/g09/l101.exe)
 ----------------------------------------------
 MEP - Input generated by R.E.D.-III.x MOLECULE
 ----------------------------------------------
 Symbolic Z-matrix:
 Charge =  0 Multiplicity = 1
 C                     1.75855  -1.24906  -0.05774 
 H                     1.87148  -1.13855  -1.14318 
 C                     3.15086  -1.30349   0.58702 
 H                     3.72779  -2.12706   0.1546 
 H                     3.01306  -1.53998   1.65468 
 C                     3.91405   0.00049   0.45385 
 C                     3.19035   1.28676   0.86773 
 C                     1.74834   1.25675   0.27141 
 H                     1.81923   1.43751  -0.8102 
 H                     1.16611   2.08589   0.68649 
 C                     0.97871  -0.05486   0.49006 
 H                     0.78599  -0.21404   1.56147 
 H                     0.        0.        0. 
 C                     5.17466   0.        0. 
 H                     5.63481  -0.93955  -0.3079 
 C                     6.05886   1.20611  -0.12001 
 H                     6.28578   1.3892   -1.183 
 C                     5.4837    2.48106   0.51538 
 H                     5.69092   2.41666   1.58882 
 C                     3.94644   2.53211   0.28487 
 H                     3.80256   2.47823  -0.80718 
 C                     3.34474   3.88162   0.74253 
 H                     3.3566    3.94213   1.83604 
 H                     2.29084   3.93139   0.44794 
 C                     4.06894   5.11481   0.16867 
 H                     3.93061   5.14045  -0.92141 
 H                     3.59374   6.01911   0.56689 
 C                     5.5761    5.08947   0.48221 
 C                     6.13601   3.74494  -0.07223 
 H                     5.86986   3.74239  -1.14361 
 C                     7.66572   3.91856   0. 
 H                     8.19077   3.27588  -0.71122 
 H                     8.03843   3.64375   0.99198 
 C                     7.8823    5.43104  -0.2885 
 H                     8.50223   5.88833   0.48956 
 H                     8.40984   5.59577  -1.2347 
 C                     6.46577   6.08507  -0.34046 
 H                     6.11652   5.96537  -1.37558 
 C                     5.80395   5.21801   2.00671 
 H                     5.44837   4.33931   2.5505 
 H                     6.85994   5.3425    2.25797 
 H                     5.26507   6.08188   2.4064 
 C                     6.49992   7.6236   -0.11022 
 H                     7.27581   7.96913  -0.8108 
 C                     6.95548   8.10959   1.28069 
 H                     6.16462   8.01304   2.03035 
 H                     7.22285   9.17127   1.22913 
 H                     7.8334    7.57158   1.64964 
 C                     3.1146    1.33153   2.41721 
 H                     2.4826    2.1563    2.7606 
 H                     2.68984   0.4098    2.82414 
 H                     4.10861   1.45079   2.85773 
 O                     7.39512   0.89953   0.35241 
 O                     7.34824   0.64729   1.78796 
 H                     7.3983   -0.32246   1.80715 
 O                     1.05423  -2.48399   0.09645 
 H                     0.89116  -2.63245   1.03856 
 C                     5.19637   8.36508  -0.49543 
 H                     4.38776   8.04312   0.17306 
 H                     5.34718   9.43016  -0.27274 
 C                     4.70853   8.23264  -1.95148 
 H                     4.43756   7.19066  -2.15928 
 H                     3.77254   8.7982   -2.04567 
 C                     5.69535   8.69517  -3.04079 
 H                     5.2267    8.52801  -4.02202 
 H                     6.58375   8.04954  -3.02319 
 C                     6.1616    10.16493  -2.97419 
 H                     6.64449   10.32974  -2.00008 
 C                     7.21438   10.43749  -4.06066 
 H                     6.78846   10.29493  -5.06222 
 H                     7.58961   11.46563  -4.0029 
 H                     8.07196   9.76158  -3.96504 
 C                     4.99423   11.15759  -3.09405 
 H                     4.46138   11.01839  -4.0438 
 H                     5.35565   12.19183  -3.0653 
 H                     4.26711   11.04066  -2.28401 
 
 NAtoms=     76 NQM=       76 NQMF=       0 NMMI=      0 NMMIF=      0
                NMic=       0 NMicF=      0.
                    Isotopes and Nuclear Properties:
 (Nuclear quadrupole moments (NQMom) in fm**2, nuclear magnetic moments (NMagM)
  in nuclear magnetons)

  Atom         1           2           3           4           5           6           7           8           9          10
 IAtWgt=          12           1          12           1           1          12          12          12           1           1
 AtmWgt=  12.0000000   1.0078250  12.0000000   1.0078250   1.0078250  12.0000000  12.0000000  12.0000000   1.0078250   1.0078250
 NucSpn=           0           1           0           1           1           0           0           0           1           1
 AtZEff=   0.0000000   0.0000000   0.0000000   0.0000000   0.0000000   0.0000000   0.0000000   0.0000000   0.0000000   0.0000000
 NQMom=    0.0000000   0.0000000   0.0000000   0.0000000   0.0000000   0.0000000   0.0000000   0.0000000   0.0000000   0.0000000
 NMagM=    0.0000000   2.7928460   0.0000000   2.7928460   2.7928460   0.0000000   0.0000000   0.0000000   2.7928460   2.7928460
 AtZNuc=   6.0000000   1.0000000   6.0000000   1.0000000   1.0000000   6.0000000   6.0000000   6.0000000   1.0000000   1.0000000

  Atom        11          12          13          14          15          16          17          18          19          20
 IAtWgt=          12           1           1          12           1          12           1          12           1          12
 AtmWgt=  12.0000000   1.0078250   1.0078250  12.0000000   1.0078250  12.0000000   1.0078250  12.0000000   1.0078250  12.0000000
 NucSpn=           0           1           1           0           1           0           1           0           1           0
 AtZEff=   0.0000000   0.0000000   0.0000000   0.0000000   0.0000000   0.0000000   0.0000000   0.0000000   0.0000000   0.0000000
 NQMom=    0.0000000   0.0000000   0.0000000   0.0000000   0.0000000   0.0000000   0.0000000   0.0000000   0.0000000   0.0000000
 NMagM=    0.0000000   2.7928460   2.7928460   0.0000000   2.7928460   0.0000000   2.7928460   0.0000000   2.7928460   0.0000000
 AtZNuc=   6.0000000   1.0000000   1.0000000   6.0000000   1.0000000   6.0000000   1.0000000   6.0000000   1.0000000   6.0000000

  Atom        21          22          23          24          25          26          27          28          29          30
 IAtWgt=           1          12           1           1          12           1           1          12          12           1
 AtmWgt=   1.0078250  12.0000000   1.0078250   1.0078250  12.0000000   1.0078250   1.0078250  12.0000000  12.0000000   1.0078250
 NucSpn=           1           0           1           1           0           1           1           0           0           1
 AtZEff=   0.0000000   0.0000000   0.0000000   0.0000000   0.0000000   0.0000000   0.0000000   0.0000000   0.0000000   0.0000000
 NQMom=    0.0000000   0.0000000   0.0000000   0.0000000   0.0000000   0.0000000   0.0000000   0.0000000   0.0000000   0.0000000
 NMagM=    2.7928460   0.0000000   2.7928460   2.7928460   0.0000000   2.7928460   2.7928460   0.0000000   0.0000000   2.7928460
 AtZNuc=   1.0000000   6.0000000   1.0000000   1.0000000   6.0000000   1.0000000   1.0000000   6.0000000   6.0000000   1.0000000

  Atom        31          32          33          34          35          36          37          38          39          40
 IAtWgt=          12           1           1          12           1           1          12           1          12           1
 AtmWgt=  12.0000000   1.0078250   1.0078250  12.0000000   1.0078250   1.0078250  12.0000000   1.0078250  12.0000000   1.0078250
 NucSpn=           0           1           1           0           1           1           0           1           0           1
 AtZEff=   0.0000000   0.0000000   0.0000000   0.0000000   0.0000000   0.0000000   0.0000000   0.0000000   0.0000000   0.0000000
 NQMom=    0.0000000   0.0000000   0.0000000   0.0000000   0.0000000   0.0000000   0.0000000   0.0000000   0.0000000   0.0000000
 NMagM=    0.0000000   2.7928460   2.7928460   0.0000000   2.7928460   2.7928460   0.0000000   2.7928460   0.0000000   2.7928460
 AtZNuc=   6.0000000   1.0000000   1.0000000   6.0000000   1.0000000   1.0000000   6.0000000   1.0000000   6.0000000   1.0000000

  Atom        41          42          43          44          45          46          47          48          49          50
 IAtWgt=           1           1          12           1          12           1           1           1          12           1
 AtmWgt=   1.0078250   1.0078250  12.0000000   1.0078250  12.0000000   1.0078250   1.0078250   1.0078250  12.0000000   1.0078250
 NucSpn=           1           1           0           1           0           1           1           1           0           1
 AtZEff=   0.0000000   0.0000000   0.0000000   0.0000000   0.0000000   0.0000000   0.0000000   0.0000000   0.0000000   0.0000000
 NQMom=    0.0000000   0.0000000   0.0000000   0.0000000   0.0000000   0.0000000   0.0000000   0.0000000   0.0000000   0.0000000
 NMagM=    2.7928460   2.7928460   0.0000000   2.7928460   0.0000000   2.7928460   2.7928460   2.7928460   0.0000000   2.7928460
 AtZNuc=   1.0000000   1.0000000   6.0000000   1.0000000   6.0000000   1.0000000   1.0000000   1.0000000   6.0000000   1.0000000

  Atom        51          52          53          54          55          56          57          58          59          60
 IAtWgt=           1           1          16          16           1          16           1          12           1           1
 AtmWgt=   1.0078250   1.0078250  15.9949146  15.9949146   1.0078250  15.9949146   1.0078250  12.0000000   1.0078250   1.0078250
 NucSpn=           1           1           0           0           1           0           1           0           1           1
 AtZEff=   0.0000000   0.0000000   0.0000000   0.0000000   0.0000000   0.0000000   0.0000000   0.0000000   0.0000000   0.0000000
 NQMom=    0.0000000   0.0000000   0.0000000   0.0000000   0.0000000   0.0000000   0.0000000   0.0000000   0.0000000   0.0000000
 NMagM=    2.7928460   2.7928460   0.0000000   0.0000000   2.7928460   0.0000000   2.7928460   0.0000000   2.7928460   2.7928460
 AtZNuc=   1.0000000   1.0000000   8.0000000   8.0000000   1.0000000   8.0000000   1.0000000   6.0000000   1.0000000   1.0000000

  Atom        61          62          63          64          65          66          67          68          69          70
 IAtWgt=          12           1           1          12           1           1          12           1          12           1
 AtmWgt=  12.0000000   1.0078250   1.0078250  12.0000000   1.0078250   1.0078250  12.0000000   1.0078250  12.0000000   1.0078250
 NucSpn=           0           1           1           0           1           1           0           1           0           1
 AtZEff=   0.0000000   0.0000000   0.0000000   0.0000000   0.0000000   0.0000000   0.0000000   0.0000000   0.0000000   0.0000000
 NQMom=    0.0000000   0.0000000   0.0000000   0.0000000   0.0000000   0.0000000   0.0000000   0.0000000   0.0000000   0.0000000
 NMagM=    0.0000000   2.7928460   2.7928460   0.0000000   2.7928460   2.7928460   0.0000000   2.7928460   0.0000000   2.7928460
 AtZNuc=   6.0000000   1.0000000   1.0000000   6.0000000   1.0000000   1.0000000   6.0000000   1.0000000   6.0000000   1.0000000

  Atom        71          72          73          74          75          76
 IAtWgt=           1           1          12           1           1           1
 AtmWgt=   1.0078250   1.0078250  12.0000000   1.0078250   1.0078250   1.0078250
 NucSpn=           1           1           0           1           1           1
 AtZEff=   0.0000000   0.0000000   0.0000000   0.0000000   0.0000000   0.0000000
 NQMom=    0.0000000   0.0000000   0.0000000   0.0000000   0.0000000   0.0000000
 NMagM=    2.7928460   2.7928460   0.0000000   2.7928460   2.7928460   2.7928460
 AtZNuc=   1.0000000   1.0000000   6.0000000   1.0000000   1.0000000   1.0000000
 Leave Link  101 at Thu Apr 27 15:54:37 2017, MaxMem=    33554432 cpu:         1.1
 (Enter /home/michal/g09/l202.exe)
 Symmetry turned off by external request.
 Stoichiometry    C27H46O3
 Framework group  C1[X(C27H46O3)]
 Deg. of freedom   222
 Full point group                 C1      NOp   1
                          Input orientation:                          
 ---------------------------------------------------------------------
 Center     Atomic      Atomic             Coordinates (Angstroms)
 Number     Number       Type             X           Y           Z
 ---------------------------------------------------------------------
      1          6           0        1.758548   -1.249065   -0.057745
      2          1           0        1.871477   -1.138546   -1.143183
      3          6           0        3.150859   -1.303489    0.587016
      4          1           0        3.727785   -2.127064    0.154600
      5          1           0        3.013062   -1.539981    1.654682
      6          6           0        3.914048    0.000486    0.453847
      7          6           0        3.190351    1.286763    0.867726
      8          6           0        1.748344    1.256748    0.271413
      9          1           0        1.819227    1.437511   -0.810204
     10          1           0        1.166106    2.085892    0.686493
     11          6           0        0.978710   -0.054858    0.490058
     12          1           0        0.785987   -0.214037    1.561469
     13          1           0        0.000000    0.000000    0.000000
     14          6           0        5.174662    0.000000    0.000000
     15          1           0        5.634812   -0.939545   -0.307898
     16          6           0        6.058855    1.206109   -0.120007
     17          1           0        6.285778    1.389203   -1.183002
     18          6           0        5.483702    2.481060    0.515384
     19          1           0        5.690924    2.416655    1.588820
     20          6           0        3.946440    2.532107    0.284872
     21          1           0        3.802563    2.478228   -0.807181
     22          6           0        3.344736    3.881616    0.742525
     23          1           0        3.356599    3.942129    1.836037
     24          1           0        2.290838    3.931393    0.447939
     25          6           0        4.068944    5.114809    0.168665
     26          1           0        3.930611    5.140447   -0.921412
     27          1           0        3.593744    6.019111    0.566888
     28          6           0        5.576095    5.089469    0.482212
     29          6           0        6.136012    3.744935   -0.072227
     30          1           0        5.869864    3.742389   -1.143605
     31          6           0        7.665718    3.918562    0.000000
     32          1           0        8.190772    3.275878   -0.711217
     33          1           0        8.038432    3.643748    0.991975
     34          6           0        7.882303    5.431045   -0.288503
     35          1           0        8.502230    5.888329    0.489556
     36          1           0        8.409844    5.595773   -1.234704
     37          6           0        6.465774    6.085074   -0.340461
     38          1           0        6.116523    5.965374   -1.375578
     39          6           0        5.803951    5.218015    2.006709
     40          1           0        5.448369    4.339305    2.550502
     41          1           0        6.859941    5.342504    2.257967
     42          1           0        5.265069    6.081877    2.406402
     43          6           0        6.499921    7.623599   -0.110225
     44          1           0        7.275815    7.969127   -0.810802
     45          6           0        6.955477    8.109587    1.280689
     46          1           0        6.164617    8.013035    2.030348
     47          1           0        7.222852    9.171266    1.229133
     48          1           0        7.833402    7.571582    1.649640
     49          6           0        3.114597    1.331527    2.417209
     50          1           0        2.482600    2.156301    2.760603
     51          1           0        2.689837    0.409801    2.824136
     52          1           0        4.108612    1.450788    2.857729
     53          8           0        7.395119    0.899533    0.352414
     54          8           0        7.348240    0.647287    1.787958
     55          1           0        7.398302   -0.322464    1.807153
     56          8           0        1.054228   -2.483993    0.096447
     57          1           0        0.891159   -2.632449    1.038558
     58          6           0        5.196375    8.365084   -0.495426
     59          1           0        4.387762    8.043121    0.173059
     60          1           0        5.347179    9.430158   -0.272743
     61          6           0        4.708535    8.232636   -1.951483
     62          1           0        4.437555    7.190660   -2.159281
     63          1           0        3.772540    8.798197   -2.045668
     64          6           0        5.695355    8.695167   -3.040791
     65          1           0        5.226699    8.528012   -4.022023
     66          1           0        6.583751    8.049537   -3.023194
     67          6           0        6.161601   10.164935   -2.974191
     68          1           0        6.644492   10.329738   -2.000080
     69          6           0        7.214381   10.437486   -4.060663
     70          1           0        6.788462   10.294926   -5.062217
     71          1           0        7.589614   11.465628   -4.002897
     72          1           0        8.071960    9.761581   -3.965037
     73          6           0        4.994228   11.157592   -3.094047
     74          1           0        4.461384   11.018389   -4.043800
     75          1           0        5.355646   12.191833   -3.065298
     76          1           0        4.267108   11.040658   -2.284014
 ---------------------------------------------------------------------
 Rotational constants (GHZ):      0.2876699      0.0655868      0.0598312
 Leave Link  202 at Thu Apr 27 15:54:37 2017, MaxMem=    33554432 cpu:         0.0
 (Enter /home/michal/g09/l301.exe)
 Standard basis: 6-31G(d) (6D, 7F)
 Ernie: Thresh=  0.10000D-02 Tol=  0.10000D-05 Strict=F.
 AO basis set in the form of general basis input (Overlap normalization):
      1 0
 S   6 1.00       0.000000000000
      0.3047524880D+04  0.1834737132D-02
      0.4573695180D+03  0.1403732281D-01
      0.1039486850D+03  0.6884262226D-01
      0.2921015530D+02  0.2321844432D+00
      0.9286662960D+01  0.4679413484D+00
      0.3163926960D+01  0.3623119853D+00
 SP   3 1.00       0.000000000000
      0.7868272350D+01 -0.1193324198D+00  0.6899906659D-01
      0.1881288540D+01 -0.1608541517D+00  0.3164239610D+00
      0.5442492580D+00  0.1143456438D+01  0.7443082909D+00
 SP   1 1.00       0.000000000000
      0.1687144782D+00  0.1000000000D+01  0.1000000000D+01
 D   1 1.00       0.000000000000
      0.8000000000D+00  0.1000000000D+01
 ****
      2 0
 S   3 1.00       0.000000000000
      0.1873113696D+02  0.3349460434D-01
      0.2825394365D+01  0.2347269535D+00
      0.6401216923D+00  0.8137573261D+00
 S   1 1.00       0.000000000000
      0.1612777588D+00  0.1000000000D+01
 ****
      3 0
 S   6 1.00       0.000000000000
      0.3047524880D+04  0.1834737132D-02
      0.4573695180D+03  0.1403732281D-01
      0.1039486850D+03  0.6884262226D-01
      0.2921015530D+02  0.2321844432D+00
      0.9286662960D+01  0.4679413484D+00
      0.3163926960D+01  0.3623119853D+00
 SP   3 1.00       0.000000000000
      0.7868272350D+01 -0.1193324198D+00  0.6899906659D-01
      0.1881288540D+01 -0.1608541517D+00  0.3164239610D+00
      0.5442492580D+00  0.1143456438D+01  0.7443082909D+00
 SP   1 1.00       0.000000000000
      0.1687144782D+00  0.1000000000D+01  0.1000000000D+01
 D   1 1.00       0.000000000000
      0.8000000000D+00  0.1000000000D+01
 ****
      4 0
 S   3 1.00       0.000000000000
      0.1873113696D+02  0.3349460434D-01
      0.2825394365D+01  0.2347269535D+00
      0.6401216923D+00  0.8137573261D+00
 S   1 1.00       0.000000000000
      0.1612777588D+00  0.1000000000D+01
 ****
      5 0
 S   3 1.00       0.000000000000
      0.1873113696D+02  0.3349460434D-01
      0.2825394365D+01  0.2347269535D+00
      0.6401216923D+00  0.8137573261D+00
 S   1 1.00       0.000000000000
      0.1612777588D+00  0.1000000000D+01
 ****
      6 0
 S   6 1.00       0.000000000000
      0.3047524880D+04  0.1834737132D-02
      0.4573695180D+03  0.1403732281D-01
      0.1039486850D+03  0.6884262226D-01
      0.2921015530D+02  0.2321844432D+00
      0.9286662960D+01  0.4679413484D+00
      0.3163926960D+01  0.3623119853D+00
 SP   3 1.00       0.000000000000
      0.7868272350D+01 -0.1193324198D+00  0.6899906659D-01
      0.1881288540D+01 -0.1608541517D+00  0.3164239610D+00
      0.5442492580D+00  0.1143456438D+01  0.7443082909D+00
 SP   1 1.00       0.000000000000
      0.1687144782D+00  0.1000000000D+01  0.1000000000D+01
 D   1 1.00       0.000000000000
      0.8000000000D+00  0.1000000000D+01
 ****
      7 0
 S   6 1.00       0.000000000000
      0.3047524880D+04  0.1834737132D-02
      0.4573695180D+03  0.1403732281D-01
      0.1039486850D+03  0.6884262226D-01
      0.2921015530D+02  0.2321844432D+00
      0.9286662960D+01  0.4679413484D+00
      0.3163926960D+01  0.3623119853D+00
 SP   3 1.00       0.000000000000
      0.7868272350D+01 -0.1193324198D+00  0.6899906659D-01
      0.1881288540D+01 -0.1608541517D+00  0.3164239610D+00
      0.5442492580D+00  0.1143456438D+01  0.7443082909D+00
 SP   1 1.00       0.000000000000
      0.1687144782D+00  0.1000000000D+01  0.1000000000D+01
 D   1 1.00       0.000000000000
      0.8000000000D+00  0.1000000000D+01
 ****
      8 0
 S   6 1.00       0.000000000000
      0.3047524880D+04  0.1834737132D-02
      0.4573695180D+03  0.1403732281D-01
      0.1039486850D+03  0.6884262226D-01
      0.2921015530D+02  0.2321844432D+00
      0.9286662960D+01  0.4679413484D+00
      0.3163926960D+01  0.3623119853D+00
 SP   3 1.00       0.000000000000
      0.7868272350D+01 -0.1193324198D+00  0.6899906659D-01
      0.1881288540D+01 -0.1608541517D+00  0.3164239610D+00
      0.5442492580D+00  0.1143456438D+01  0.7443082909D+00
 SP   1 1.00       0.000000000000
      0.1687144782D+00  0.1000000000D+01  0.1000000000D+01
 D   1 1.00       0.000000000000
      0.8000000000D+00  0.1000000000D+01
 ****
      9 0
 S   3 1.00       0.000000000000
      0.1873113696D+02  0.3349460434D-01
      0.2825394365D+01  0.2347269535D+00
      0.6401216923D+00  0.8137573261D+00
 S   1 1.00       0.000000000000
      0.1612777588D+00  0.1000000000D+01
 ****
     10 0
 S   3 1.00       0.000000000000
      0.1873113696D+02  0.3349460434D-01
      0.2825394365D+01  0.2347269535D+00
      0.6401216923D+00  0.8137573261D+00
 S   1 1.00       0.000000000000
      0.1612777588D+00  0.1000000000D+01
 ****
     11 0
 S   6 1.00       0.000000000000
      0.3047524880D+04  0.1834737132D-02
      0.4573695180D+03  0.1403732281D-01
      0.1039486850D+03  0.6884262226D-01
      0.2921015530D+02  0.2321844432D+00
      0.9286662960D+01  0.4679413484D+00
      0.3163926960D+01  0.3623119853D+00
 SP   3 1.00       0.000000000000
      0.7868272350D+01 -0.1193324198D+00  0.6899906659D-01
      0.1881288540D+01 -0.1608541517D+00  0.3164239610D+00
      0.5442492580D+00  0.1143456438D+01  0.7443082909D+00
 SP   1 1.00       0.000000000000
      0.1687144782D+00  0.1000000000D+01  0.1000000000D+01
 D   1 1.00       0.000000000000
      0.8000000000D+00  0.1000000000D+01
 ****
     12 0
 S   3 1.00       0.000000000000
      0.1873113696D+02  0.3349460434D-01
      0.2825394365D+01  0.2347269535D+00
      0.6401216923D+00  0.8137573261D+00
 S   1 1.00       0.000000000000
      0.1612777588D+00  0.1000000000D+01
 ****
     13 0
 S   3 1.00       0.000000000000
      0.1873113696D+02  0.3349460434D-01
      0.2825394365D+01  0.2347269535D+00
      0.6401216923D+00  0.8137573261D+00
 S   1 1.00       0.000000000000
      0.1612777588D+00  0.1000000000D+01
 ****
     14 0
 S   6 1.00       0.000000000000
      0.3047524880D+04  0.1834737132D-02
      0.4573695180D+03  0.1403732281D-01
      0.1039486850D+03  0.6884262226D-01
      0.2921015530D+02  0.2321844432D+00
      0.9286662960D+01  0.4679413484D+00
      0.3163926960D+01  0.3623119853D+00
 SP   3 1.00       0.000000000000
      0.7868272350D+01 -0.1193324198D+00  0.6899906659D-01
      0.1881288540D+01 -0.1608541517D+00  0.3164239610D+00
      0.5442492580D+00  0.1143456438D+01  0.7443082909D+00
 SP   1 1.00       0.000000000000
      0.1687144782D+00  0.1000000000D+01  0.1000000000D+01
 D   1 1.00       0.000000000000
      0.8000000000D+00  0.1000000000D+01
 ****
     15 0
 S   3 1.00       0.000000000000
      0.1873113696D+02  0.3349460434D-01
      0.2825394365D+01  0.2347269535D+00
      0.6401216923D+00  0.8137573261D+00
 S   1 1.00       0.000000000000
      0.1612777588D+00  0.1000000000D+01
 ****
     16 0
 S   6 1.00       0.000000000000
      0.3047524880D+04  0.1834737132D-02
      0.4573695180D+03  0.1403732281D-01
      0.1039486850D+03  0.6884262226D-01
      0.2921015530D+02  0.2321844432D+00
      0.9286662960D+01  0.4679413484D+00
      0.3163926960D+01  0.3623119853D+00
 SP   3 1.00       0.000000000000
      0.7868272350D+01 -0.1193324198D+00  0.6899906659D-01
      0.1881288540D+01 -0.1608541517D+00  0.3164239610D+00
      0.5442492580D+00  0.1143456438D+01  0.7443082909D+00
 SP   1 1.00       0.000000000000
      0.1687144782D+00  0.1000000000D+01  0.1000000000D+01
 D   1 1.00       0.000000000000
      0.8000000000D+00  0.1000000000D+01
 ****
     17 0
 S   3 1.00       0.000000000000
      0.1873113696D+02  0.3349460434D-01
      0.2825394365D+01  0.2347269535D+00
      0.6401216923D+00  0.8137573261D+00
 S   1 1.00       0.000000000000
      0.1612777588D+00  0.1000000000D+01
 ****
     18 0
 S   6 1.00       0.000000000000
      0.3047524880D+04  0.1834737132D-02
      0.4573695180D+03  0.1403732281D-01
      0.1039486850D+03  0.6884262226D-01
      0.2921015530D+02  0.2321844432D+00
      0.9286662960D+01  0.4679413484D+00
      0.3163926960D+01  0.3623119853D+00
 SP   3 1.00       0.000000000000
      0.7868272350D+01 -0.1193324198D+00  0.6899906659D-01
      0.1881288540D+01 -0.1608541517D+00  0.3164239610D+00
      0.5442492580D+00  0.1143456438D+01  0.7443082909D+00
 SP   1 1.00       0.000000000000
      0.1687144782D+00  0.1000000000D+01  0.1000000000D+01
 D   1 1.00       0.000000000000
      0.8000000000D+00  0.1000000000D+01
 ****
     19 0
 S   3 1.00       0.000000000000
      0.1873113696D+02  0.3349460434D-01
      0.2825394365D+01  0.2347269535D+00
      0.6401216923D+00  0.8137573261D+00
 S   1 1.00       0.000000000000
      0.1612777588D+00  0.1000000000D+01
 ****
     20 0
 S   6 1.00       0.000000000000
      0.3047524880D+04  0.1834737132D-02
      0.4573695180D+03  0.1403732281D-01
      0.1039486850D+03  0.6884262226D-01
      0.2921015530D+02  0.2321844432D+00
      0.9286662960D+01  0.4679413484D+00
      0.3163926960D+01  0.3623119853D+00
 SP   3 1.00       0.000000000000
      0.7868272350D+01 -0.1193324198D+00  0.6899906659D-01
      0.1881288540D+01 -0.1608541517D+00  0.3164239610D+00
      0.5442492580D+00  0.1143456438D+01  0.7443082909D+00
 SP   1 1.00       0.000000000000
      0.1687144782D+00  0.1000000000D+01  0.1000000000D+01
 D   1 1.00       0.000000000000
      0.8000000000D+00  0.1000000000D+01
 ****
     21 0
 S   3 1.00       0.000000000000
      0.1873113696D+02  0.3349460434D-01
      0.2825394365D+01  0.2347269535D+00
      0.6401216923D+00  0.8137573261D+00
 S   1 1.00       0.000000000000
      0.1612777588D+00  0.1000000000D+01
 ****
     22 0
 S   6 1.00       0.000000000000
      0.3047524880D+04  0.1834737132D-02
      0.4573695180D+03  0.1403732281D-01
      0.1039486850D+03  0.6884262226D-01
      0.2921015530D+02  0.2321844432D+00
      0.9286662960D+01  0.4679413484D+00
      0.3163926960D+01  0.3623119853D+00
 SP   3 1.00       0.000000000000
      0.7868272350D+01 -0.1193324198D+00  0.6899906659D-01
      0.1881288540D+01 -0.1608541517D+00  0.3164239610D+00
      0.5442492580D+00  0.1143456438D+01  0.7443082909D+00
 SP   1 1.00       0.000000000000
      0.1687144782D+00  0.1000000000D+01  0.1000000000D+01
 D   1 1.00       0.000000000000
      0.8000000000D+00  0.1000000000D+01
 ****
     23 0
 S   3 1.00       0.000000000000
      0.1873113696D+02  0.3349460434D-01
      0.2825394365D+01  0.2347269535D+00
      0.6401216923D+00  0.8137573261D+00
 S   1 1.00       0.000000000000
      0.1612777588D+00  0.1000000000D+01
 ****
     24 0
 S   3 1.00       0.000000000000
      0.1873113696D+02  0.3349460434D-01
      0.2825394365D+01  0.2347269535D+00
      0.6401216923D+00  0.8137573261D+00
 S   1 1.00       0.000000000000
      0.1612777588D+00  0.1000000000D+01
 ****
     25 0
 S   6 1.00       0.000000000000
      0.3047524880D+04  0.1834737132D-02
      0.4573695180D+03  0.1403732281D-01
      0.1039486850D+03  0.6884262226D-01
      0.2921015530D+02  0.2321844432D+00
      0.9286662960D+01  0.4679413484D+00
      0.3163926960D+01  0.3623119853D+00
 SP   3 1.00       0.000000000000
      0.7868272350D+01 -0.1193324198D+00  0.6899906659D-01
      0.1881288540D+01 -0.1608541517D+00  0.3164239610D+00
      0.5442492580D+00  0.1143456438D+01  0.7443082909D+00
 SP   1 1.00       0.000000000000
      0.1687144782D+00  0.1000000000D+01  0.1000000000D+01
 D   1 1.00       0.000000000000
      0.8000000000D+00  0.1000000000D+01
 ****
     26 0
 S   3 1.00       0.000000000000
      0.1873113696D+02  0.3349460434D-01
      0.2825394365D+01  0.2347269535D+00
      0.6401216923D+00  0.8137573261D+00
 S   1 1.00       0.000000000000
      0.1612777588D+00  0.1000000000D+01
 ****
     27 0
 S   3 1.00       0.000000000000
      0.1873113696D+02  0.3349460434D-01
      0.2825394365D+01  0.2347269535D+00
      0.6401216923D+00  0.8137573261D+00
 S   1 1.00       0.000000000000
      0.1612777588D+00  0.1000000000D+01
 ****
     28 0
 S   6 1.00       0.000000000000
      0.3047524880D+04  0.1834737132D-02
      0.4573695180D+03  0.1403732281D-01
      0.1039486850D+03  0.6884262226D-01
      0.2921015530D+02  0.2321844432D+00
      0.9286662960D+01  0.4679413484D+00
      0.3163926960D+01  0.3623119853D+00
 SP   3 1.00       0.000000000000
      0.7868272350D+01 -0.1193324198D+00  0.6899906659D-01
      0.1881288540D+01 -0.1608541517D+00  0.3164239610D+00
      0.5442492580D+00  0.1143456438D+01  0.7443082909D+00
 SP   1 1.00       0.000000000000
      0.1687144782D+00  0.1000000000D+01  0.1000000000D+01
 D   1 1.00       0.000000000000
      0.8000000000D+00  0.1000000000D+01
 ****
     29 0
 S   6 1.00       0.000000000000
      0.3047524880D+04  0.1834737132D-02
      0.4573695180D+03  0.1403732281D-01
      0.1039486850D+03  0.6884262226D-01
      0.2921015530D+02  0.2321844432D+00
      0.9286662960D+01  0.4679413484D+00
      0.3163926960D+01  0.3623119853D+00
 SP   3 1.00       0.000000000000
      0.7868272350D+01 -0.1193324198D+00  0.6899906659D-01
      0.1881288540D+01 -0.1608541517D+00  0.3164239610D+00
      0.5442492580D+00  0.1143456438D+01  0.7443082909D+00
 SP   1 1.00       0.000000000000
      0.1687144782D+00  0.1000000000D+01  0.1000000000D+01
 D   1 1.00       0.000000000000
      0.8000000000D+00  0.1000000000D+01
 ****
     30 0
 S   3 1.00       0.000000000000
      0.1873113696D+02  0.3349460434D-01
      0.2825394365D+01  0.2347269535D+00
      0.6401216923D+00  0.8137573261D+00
 S   1 1.00       0.000000000000
      0.1612777588D+00  0.1000000000D+01
 ****
     31 0
 S   6 1.00       0.000000000000
      0.3047524880D+04  0.1834737132D-02
      0.4573695180D+03  0.1403732281D-01
      0.1039486850D+03  0.6884262226D-01
      0.2921015530D+02  0.2321844432D+00
      0.9286662960D+01  0.4679413484D+00
      0.3163926960D+01  0.3623119853D+00
 SP   3 1.00       0.000000000000
      0.7868272350D+01 -0.1193324198D+00  0.6899906659D-01
      0.1881288540D+01 -0.1608541517D+00  0.3164239610D+00
      0.5442492580D+00  0.1143456438D+01  0.7443082909D+00
 SP   1 1.00       0.000000000000
      0.1687144782D+00  0.1000000000D+01  0.1000000000D+01
 D   1 1.00       0.000000000000
      0.8000000000D+00  0.1000000000D+01
 ****
     32 0
 S   3 1.00       0.000000000000
      0.1873113696D+02  0.3349460434D-01
      0.2825394365D+01  0.2347269535D+00
      0.6401216923D+00  0.8137573261D+00
 S   1 1.00       0.000000000000
      0.1612777588D+00  0.1000000000D+01
 ****
     33 0
 S   3 1.00       0.000000000000
      0.1873113696D+02  0.3349460434D-01
      0.2825394365D+01  0.2347269535D+00
      0.6401216923D+00  0.8137573261D+00
 S   1 1.00       0.000000000000
      0.1612777588D+00  0.1000000000D+01
 ****
     34 0
 S   6 1.00       0.000000000000
      0.3047524880D+04  0.1834737132D-02
      0.4573695180D+03  0.1403732281D-01
      0.1039486850D+03  0.6884262226D-01
      0.2921015530D+02  0.2321844432D+00
      0.9286662960D+01  0.4679413484D+00
      0.3163926960D+01  0.3623119853D+00
 SP   3 1.00       0.000000000000
      0.7868272350D+01 -0.1193324198D+00  0.6899906659D-01
      0.1881288540D+01 -0.1608541517D+00  0.3164239610D+00
      0.5442492580D+00  0.1143456438D+01  0.7443082909D+00
 SP   1 1.00       0.000000000000
      0.1687144782D+00  0.1000000000D+01  0.1000000000D+01
 D   1 1.00       0.000000000000
      0.8000000000D+00  0.1000000000D+01
 ****
     35 0
 S   3 1.00       0.000000000000
      0.1873113696D+02  0.3349460434D-01
      0.2825394365D+01  0.2347269535D+00
      0.6401216923D+00  0.8137573261D+00
 S   1 1.00       0.000000000000
      0.1612777588D+00  0.1000000000D+01
 ****
     36 0
 S   3 1.00       0.000000000000
      0.1873113696D+02  0.3349460434D-01
      0.2825394365D+01  0.2347269535D+00
      0.6401216923D+00  0.8137573261D+00
 S   1 1.00       0.000000000000
      0.1612777588D+00  0.1000000000D+01
 ****
     37 0
 S   6 1.00       0.000000000000
      0.3047524880D+04  0.1834737132D-02
      0.4573695180D+03  0.1403732281D-01
      0.1039486850D+03  0.6884262226D-01
      0.2921015530D+02  0.2321844432D+00
      0.9286662960D+01  0.4679413484D+00
      0.3163926960D+01  0.3623119853D+00
 SP   3 1.00       0.000000000000
      0.7868272350D+01 -0.1193324198D+00  0.6899906659D-01
      0.1881288540D+01 -0.1608541517D+00  0.3164239610D+00
      0.5442492580D+00  0.1143456438D+01  0.7443082909D+00
 SP   1 1.00       0.000000000000
      0.1687144782D+00  0.1000000000D+01  0.1000000000D+01
 D   1 1.00       0.000000000000
      0.8000000000D+00  0.1000000000D+01
 ****
     38 0
 S   3 1.00       0.000000000000
      0.1873113696D+02  0.3349460434D-01
      0.2825394365D+01  0.2347269535D+00
      0.6401216923D+00  0.8137573261D+00
 S   1 1.00       0.000000000000
      0.1612777588D+00  0.1000000000D+01
 ****
     39 0
 S   6 1.00       0.000000000000
      0.3047524880D+04  0.1834737132D-02
      0.4573695180D+03  0.1403732281D-01
      0.1039486850D+03  0.6884262226D-01
      0.2921015530D+02  0.2321844432D+00
      0.9286662960D+01  0.4679413484D+00
      0.3163926960D+01  0.3623119853D+00
 SP   3 1.00       0.000000000000
      0.7868272350D+01 -0.1193324198D+00  0.6899906659D-01
      0.1881288540D+01 -0.1608541517D+00  0.3164239610D+00
      0.5442492580D+00  0.1143456438D+01  0.7443082909D+00
 SP   1 1.00       0.000000000000
      0.1687144782D+00  0.1000000000D+01  0.1000000000D+01
 D   1 1.00       0.000000000000
      0.8000000000D+00  0.1000000000D+01
 ****
     40 0
 S   3 1.00       0.000000000000
      0.1873113696D+02  0.3349460434D-01
      0.2825394365D+01  0.2347269535D+00
      0.6401216923D+00  0.8137573261D+00
 S   1 1.00       0.000000000000
      0.1612777588D+00  0.1000000000D+01
 ****
     41 0
 S   3 1.00       0.000000000000
      0.1873113696D+02  0.3349460434D-01
      0.2825394365D+01  0.2347269535D+00
      0.6401216923D+00  0.8137573261D+00
 S   1 1.00       0.000000000000
      0.1612777588D+00  0.1000000000D+01
 ****
     42 0
 S   3 1.00       0.000000000000
      0.1873113696D+02  0.3349460434D-01
      0.2825394365D+01  0.2347269535D+00
      0.6401216923D+00  0.8137573261D+00
 S   1 1.00       0.000000000000
      0.1612777588D+00  0.1000000000D+01
 ****
     43 0
 S   6 1.00       0.000000000000
      0.3047524880D+04  0.1834737132D-02
      0.4573695180D+03  0.1403732281D-01
      0.1039486850D+03  0.6884262226D-01
      0.2921015530D+02  0.2321844432D+00
      0.9286662960D+01  0.4679413484D+00
      0.3163926960D+01  0.3623119853D+00
 SP   3 1.00       0.000000000000
      0.7868272350D+01 -0.1193324198D+00  0.6899906659D-01
      0.1881288540D+01 -0.1608541517D+00  0.3164239610D+00
      0.5442492580D+00  0.1143456438D+01  0.7443082909D+00
 SP   1 1.00       0.000000000000
      0.1687144782D+00  0.1000000000D+01  0.1000000000D+01
 D   1 1.00       0.000000000000
      0.8000000000D+00  0.1000000000D+01
 ****
     44 0
 S   3 1.00       0.000000000000
      0.1873113696D+02  0.3349460434D-01
      0.2825394365D+01  0.2347269535D+00
      0.6401216923D+00  0.8137573261D+00
 S   1 1.00       0.000000000000
      0.1612777588D+00  0.1000000000D+01
 ****
     45 0
 S   6 1.00       0.000000000000
      0.3047524880D+04  0.1834737132D-02
      0.4573695180D+03  0.1403732281D-01
      0.1039486850D+03  0.6884262226D-01
      0.2921015530D+02  0.2321844432D+00
      0.9286662960D+01  0.4679413484D+00
      0.3163926960D+01  0.3623119853D+00
 SP   3 1.00       0.000000000000
      0.7868272350D+01 -0.1193324198D+00  0.6899906659D-01
      0.1881288540D+01 -0.1608541517D+00  0.3164239610D+00
      0.5442492580D+00  0.1143456438D+01  0.7443082909D+00
 SP   1 1.00       0.000000000000
      0.1687144782D+00  0.1000000000D+01  0.1000000000D+01
 D   1 1.00       0.000000000000
      0.8000000000D+00  0.1000000000D+01
 ****
     46 0
 S   3 1.00       0.000000000000
      0.1873113696D+02  0.3349460434D-01
      0.2825394365D+01  0.2347269535D+00
      0.6401216923D+00  0.8137573261D+00
 S   1 1.00       0.000000000000
      0.1612777588D+00  0.1000000000D+01
 ****
     47 0
 S   3 1.00       0.000000000000
      0.1873113696D+02  0.3349460434D-01
      0.2825394365D+01  0.2347269535D+00
      0.6401216923D+00  0.8137573261D+00
 S   1 1.00       0.000000000000
      0.1612777588D+00  0.1000000000D+01
 ****
     48 0
 S   3 1.00       0.000000000000
      0.1873113696D+02  0.3349460434D-01
      0.2825394365D+01  0.2347269535D+00
      0.6401216923D+00  0.8137573261D+00
 S   1 1.00       0.000000000000
      0.1612777588D+00  0.1000000000D+01
 ****
     49 0
 S   6 1.00       0.000000000000
      0.3047524880D+04  0.1834737132D-02
      0.4573695180D+03  0.1403732281D-01
      0.1039486850D+03  0.6884262226D-01
      0.2921015530D+02  0.2321844432D+00
      0.9286662960D+01  0.4679413484D+00
      0.3163926960D+01  0.3623119853D+00
 SP   3 1.00       0.000000000000
      0.7868272350D+01 -0.1193324198D+00  0.6899906659D-01
      0.1881288540D+01 -0.1608541517D+00  0.3164239610D+00
      0.5442492580D+00  0.1143456438D+01  0.7443082909D+00
 SP   1 1.00       0.000000000000
      0.1687144782D+00  0.1000000000D+01  0.1000000000D+01
 D   1 1.00       0.000000000000
      0.8000000000D+00  0.1000000000D+01
 ****
     50 0
 S   3 1.00       0.000000000000
      0.1873113696D+02  0.3349460434D-01
      0.2825394365D+01  0.2347269535D+00
      0.6401216923D+00  0.8137573261D+00
 S   1 1.00       0.000000000000
      0.1612777588D+00  0.1000000000D+01
 ****
     51 0
 S   3 1.00       0.000000000000
      0.1873113696D+02  0.3349460434D-01
      0.2825394365D+01  0.2347269535D+00
      0.6401216923D+00  0.8137573261D+00
 S   1 1.00       0.000000000000
      0.1612777588D+00  0.1000000000D+01
 ****
     52 0
 S   3 1.00       0.000000000000
      0.1873113696D+02  0.3349460434D-01
      0.2825394365D+01  0.2347269535D+00
      0.6401216923D+00  0.8137573261D+00
 S   1 1.00       0.000000000000
      0.1612777588D+00  0.1000000000D+01
 ****
     53 0
 S   6 1.00       0.000000000000
      0.5484671660D+04  0.1831074430D-02
      0.8252349460D+03  0.1395017220D-01
      0.1880469580D+03  0.6844507810D-01
      0.5296450000D+02  0.2327143360D+00
      0.1689757040D+02  0.4701928980D+00
      0.5799635340D+01  0.3585208530D+00
 SP   3 1.00       0.000000000000
      0.1553961625D+02 -0.1107775495D+00  0.7087426823D-01
      0.3599933586D+01 -0.1480262627D+00  0.3397528391D+00
      0.1013761750D+01  0.1130767015D+01  0.7271585773D+00
 SP   1 1.00       0.000000000000
      0.2700058226D+00  0.1000000000D+01  0.1000000000D+01
 D   1 1.00       0.000000000000
      0.8000000000D+00  0.1000000000D+01
 ****
     54 0
 S   6 1.00       0.000000000000
      0.5484671660D+04  0.1831074430D-02
      0.8252349460D+03  0.1395017220D-01
      0.1880469580D+03  0.6844507810D-01
      0.5296450000D+02  0.2327143360D+00
      0.1689757040D+02  0.4701928980D+00
      0.5799635340D+01  0.3585208530D+00
 SP   3 1.00       0.000000000000
      0.1553961625D+02 -0.1107775495D+00  0.7087426823D-01
      0.3599933586D+01 -0.1480262627D+00  0.3397528391D+00
      0.1013761750D+01  0.1130767015D+01  0.7271585773D+00
 SP   1 1.00       0.000000000000
      0.2700058226D+00  0.1000000000D+01  0.1000000000D+01
 D   1 1.00       0.000000000000
      0.8000000000D+00  0.1000000000D+01
 ****
     55 0
 S   3 1.00       0.000000000000
      0.1873113696D+02  0.3349460434D-01
      0.2825394365D+01  0.2347269535D+00
      0.6401216923D+00  0.8137573261D+00
 S   1 1.00       0.000000000000
      0.1612777588D+00  0.1000000000D+01
 ****
     56 0
 S   6 1.00       0.000000000000
      0.5484671660D+04  0.1831074430D-02
      0.8252349460D+03  0.1395017220D-01
      0.1880469580D+03  0.6844507810D-01
      0.5296450000D+02  0.2327143360D+00
      0.1689757040D+02  0.4701928980D+00
      0.5799635340D+01  0.3585208530D+00
 SP   3 1.00       0.000000000000
      0.1553961625D+02 -0.1107775495D+00  0.7087426823D-01
      0.3599933586D+01 -0.1480262627D+00  0.3397528391D+00
      0.1013761750D+01  0.1130767015D+01  0.7271585773D+00
 SP   1 1.00       0.000000000000
      0.2700058226D+00  0.1000000000D+01  0.1000000000D+01
 D   1 1.00       0.000000000000
      0.8000000000D+00  0.1000000000D+01
 ****
     57 0
 S   3 1.00       0.000000000000
      0.1873113696D+02  0.3349460434D-01
      0.2825394365D+01  0.2347269535D+00
      0.6401216923D+00  0.8137573261D+00
 S   1 1.00       0.000000000000
      0.1612777588D+00  0.1000000000D+01
 ****
     58 0
 S   6 1.00       0.000000000000
      0.3047524880D+04  0.1834737132D-02
      0.4573695180D+03  0.1403732281D-01
      0.1039486850D+03  0.6884262226D-01
      0.2921015530D+02  0.2321844432D+00
      0.9286662960D+01  0.4679413484D+00
      0.3163926960D+01  0.3623119853D+00
 SP   3 1.00       0.000000000000
      0.7868272350D+01 -0.1193324198D+00  0.6899906659D-01
      0.1881288540D+01 -0.1608541517D+00  0.3164239610D+00
      0.5442492580D+00  0.1143456438D+01  0.7443082909D+00
 SP   1 1.00       0.000000000000
      0.1687144782D+00  0.1000000000D+01  0.1000000000D+01
 D   1 1.00       0.000000000000
      0.8000000000D+00  0.1000000000D+01
 ****
     59 0
 S   3 1.00       0.000000000000
      0.1873113696D+02  0.3349460434D-01
      0.2825394365D+01  0.2347269535D+00
      0.6401216923D+00  0.8137573261D+00
 S   1 1.00       0.000000000000
      0.1612777588D+00  0.1000000000D+01
 ****
     60 0
 S   3 1.00       0.000000000000
      0.1873113696D+02  0.3349460434D-01
      0.2825394365D+01  0.2347269535D+00
      0.6401216923D+00  0.8137573261D+00
 S   1 1.00       0.000000000000
      0.1612777588D+00  0.1000000000D+01
 ****
     61 0
 S   6 1.00       0.000000000000
      0.3047524880D+04  0.1834737132D-02
      0.4573695180D+03  0.1403732281D-01
      0.1039486850D+03  0.6884262226D-01
      0.2921015530D+02  0.2321844432D+00
      0.9286662960D+01  0.4679413484D+00
      0.3163926960D+01  0.3623119853D+00
 SP   3 1.00       0.000000000000
      0.7868272350D+01 -0.1193324198D+00  0.6899906659D-01
      0.1881288540D+01 -0.1608541517D+00  0.3164239610D+00
      0.5442492580D+00  0.1143456438D+01  0.7443082909D+00
 SP   1 1.00       0.000000000000
      0.1687144782D+00  0.1000000000D+01  0.1000000000D+01
 D   1 1.00       0.000000000000
      0.8000000000D+00  0.1000000000D+01
 ****
     62 0
 S   3 1.00       0.000000000000
      0.1873113696D+02  0.3349460434D-01
      0.2825394365D+01  0.2347269535D+00
      0.6401216923D+00  0.8137573261D+00
 S   1 1.00       0.000000000000
      0.1612777588D+00  0.1000000000D+01
 ****
     63 0
 S   3 1.00       0.000000000000
      0.1873113696D+02  0.3349460434D-01
      0.2825394365D+01  0.2347269535D+00
      0.6401216923D+00  0.8137573261D+00
 S   1 1.00       0.000000000000
      0.1612777588D+00  0.1000000000D+01
 ****
     64 0
 S   6 1.00       0.000000000000
      0.3047524880D+04  0.1834737132D-02
      0.4573695180D+03  0.1403732281D-01
      0.1039486850D+03  0.6884262226D-01
      0.2921015530D+02  0.2321844432D+00
      0.9286662960D+01  0.4679413484D+00
      0.3163926960D+01  0.3623119853D+00
 SP   3 1.00       0.000000000000
      0.7868272350D+01 -0.1193324198D+00  0.6899906659D-01
      0.1881288540D+01 -0.1608541517D+00  0.3164239610D+00
      0.5442492580D+00  0.1143456438D+01  0.7443082909D+00
 SP   1 1.00       0.000000000000
      0.1687144782D+00  0.1000000000D+01  0.1000000000D+01
 D   1 1.00       0.000000000000
      0.8000000000D+00  0.1000000000D+01
 ****
     65 0
 S   3 1.00       0.000000000000
      0.1873113696D+02  0.3349460434D-01
      0.2825394365D+01  0.2347269535D+00
      0.6401216923D+00  0.8137573261D+00
 S   1 1.00       0.000000000000
      0.1612777588D+00  0.1000000000D+01
 ****
     66 0
 S   3 1.00       0.000000000000
      0.1873113696D+02  0.3349460434D-01
      0.2825394365D+01  0.2347269535D+00
      0.6401216923D+00  0.8137573261D+00
 S   1 1.00       0.000000000000
      0.1612777588D+00  0.1000000000D+01
 ****
     67 0
 S   6 1.00       0.000000000000
      0.3047524880D+04  0.1834737132D-02
      0.4573695180D+03  0.1403732281D-01
      0.1039486850D+03  0.6884262226D-01
      0.2921015530D+02  0.2321844432D+00
      0.9286662960D+01  0.4679413484D+00
      0.3163926960D+01  0.3623119853D+00
 SP   3 1.00       0.000000000000
      0.7868272350D+01 -0.1193324198D+00  0.6899906659D-01
      0.1881288540D+01 -0.1608541517D+00  0.3164239610D+00
      0.5442492580D+00  0.1143456438D+01  0.7443082909D+00
 SP   1 1.00       0.000000000000
      0.1687144782D+00  0.1000000000D+01  0.1000000000D+01
 D   1 1.00       0.000000000000
      0.8000000000D+00  0.1000000000D+01
 ****
     68 0
 S   3 1.00       0.000000000000
      0.1873113696D+02  0.3349460434D-01
      0.2825394365D+01  0.2347269535D+00
      0.6401216923D+00  0.8137573261D+00
 S   1 1.00       0.000000000000
      0.1612777588D+00  0.1000000000D+01
 ****
     69 0
 S   6 1.00       0.000000000000
      0.3047524880D+04  0.1834737132D-02
      0.4573695180D+03  0.1403732281D-01
      0.1039486850D+03  0.6884262226D-01
      0.2921015530D+02  0.2321844432D+00
      0.9286662960D+01  0.4679413484D+00
      0.3163926960D+01  0.3623119853D+00
 SP   3 1.00       0.000000000000
      0.7868272350D+01 -0.1193324198D+00  0.6899906659D-01
      0.1881288540D+01 -0.1608541517D+00  0.3164239610D+00
      0.5442492580D+00  0.1143456438D+01  0.7443082909D+00
 SP   1 1.00       0.000000000000
      0.1687144782D+00  0.1000000000D+01  0.1000000000D+01
 D   1 1.00       0.000000000000
      0.8000000000D+00  0.1000000000D+01
 ****
     70 0
 S   3 1.00       0.000000000000
      0.1873113696D+02  0.3349460434D-01
      0.2825394365D+01  0.2347269535D+00
      0.6401216923D+00  0.8137573261D+00
 S   1 1.00       0.000000000000
      0.1612777588D+00  0.1000000000D+01
 ****
     71 0
 S   3 1.00       0.000000000000
      0.1873113696D+02  0.3349460434D-01
      0.2825394365D+01  0.2347269535D+00
      0.6401216923D+00  0.8137573261D+00
 S   1 1.00       0.000000000000
      0.1612777588D+00  0.1000000000D+01
 ****
     72 0
 S   3 1.00       0.000000000000
      0.1873113696D+02  0.3349460434D-01
      0.2825394365D+01  0.2347269535D+00
      0.6401216923D+00  0.8137573261D+00
 S   1 1.00       0.000000000000
      0.1612777588D+00  0.1000000000D+01
 ****
     73 0
 S   6 1.00       0.000000000000
      0.3047524880D+04  0.1834737132D-02
      0.4573695180D+03  0.1403732281D-01
      0.1039486850D+03  0.6884262226D-01
      0.2921015530D+02  0.2321844432D+00
      0.9286662960D+01  0.4679413484D+00
      0.3163926960D+01  0.3623119853D+00
 SP   3 1.00       0.000000000000
      0.7868272350D+01 -0.1193324198D+00  0.6899906659D-01
      0.1881288540D+01 -0.1608541517D+00  0.3164239610D+00
      0.5442492580D+00  0.1143456438D+01  0.7443082909D+00
 SP   1 1.00       0.000000000000
      0.1687144782D+00  0.1000000000D+01  0.1000000000D+01
 D   1 1.00       0.000000000000
      0.8000000000D+00  0.1000000000D+01
 ****
     74 0
 S   3 1.00       0.000000000000
      0.1873113696D+02  0.3349460434D-01
      0.2825394365D+01  0.2347269535D+00
      0.6401216923D+00  0.8137573261D+00
 S   1 1.00       0.000000000000
      0.1612777588D+00  0.1000000000D+01
 ****
     75 0
 S   3 1.00       0.000000000000
      0.1873113696D+02  0.3349460434D-01
      0.2825394365D+01  0.2347269535D+00
      0.6401216923D+00  0.8137573261D+00
 S   1 1.00       0.000000000000
      0.1612777588D+00  0.1000000000D+01
 ****
     76 0
 S   3 1.00       0.000000000000
      0.1873113696D+02  0.3349460434D-01
      0.2825394365D+01  0.2347269535D+00
      0.6401216923D+00  0.8137573261D+00
 S   1 1.00       0.000000000000
      0.1612777588D+00  0.1000000000D+01
 ****

 AO basis set (Overlap normalization):
 Atom C1       Shell     1 S   6     bf    1 -     1          3.323174206020         -2.360390337536         -0.109121290680
      0.3047524880D+04  0.1834737132D-02
      0.4573695180D+03  0.1403732281D-01
      0.1039486850D+03  0.6884262226D-01
      0.2921015530D+02  0.2321844432D+00
      0.9286662960D+01  0.4679413484D+00
      0.3163926960D+01  0.3623119853D+00
 Atom C1       Shell     2 SP   3    bf    2 -     5          3.323174206020         -2.360390337536         -0.109121290680
      0.7868272350D+01 -0.1193324198D+00  0.6899906659D-01
      0.1881288540D+01 -0.1608541517D+00  0.3164239610D+00
      0.5442492580D+00  0.1143456438D+01  0.7443082909D+00
 Atom C1       Shell     3 SP   1    bf    6 -     9          3.323174206020         -2.360390337536         -0.109121290680
      0.1687144782D+00  0.1000000000D+01  0.1000000000D+01
 Atom C1       Shell     4 D   1     bf   10 -    15          3.323174206020         -2.360390337536         -0.109121290680
      0.8000000000D+00  0.1000000000D+01
 Atom H2       Shell     5 S   3     bf   16 -    16          3.536578805022         -2.151540375357         -2.160302789771
      0.1873113696D+02  0.3349460434D-01
      0.2825394365D+01  0.2347269535D+00
      0.6401216923D+00  0.8137573261D+00
 Atom H2       Shell     6 S   1     bf   17 -    17          3.536578805022         -2.151540375357         -2.160302789771
      0.1612777588D+00  0.1000000000D+01
 Atom C3       Shell     7 S   6     bf   18 -    18          5.954260612235         -2.463237340613          1.109299702389
      0.3047524880D+04  0.1834737132D-02
      0.4573695180D+03  0.1403732281D-01
      0.1039486850D+03  0.6884262226D-01
      0.2921015530D+02  0.2321844432D+00
      0.9286662960D+01  0.4679413484D+00
      0.3163926960D+01  0.3623119853D+00
 Atom C3       Shell     8 SP   3    bf   19 -    22          5.954260612235         -2.463237340613          1.109299702389
      0.7868272350D+01 -0.1193324198D+00  0.6899906659D-01
      0.1881288540D+01 -0.1608541517D+00  0.3164239610D+00
      0.5442492580D+00  0.1143456438D+01  0.7443082909D+00
 Atom C3       Shell     9 SP   1    bf   23 -    26          5.954260612235         -2.463237340613          1.109299702389
      0.1687144782D+00  0.1000000000D+01  0.1000000000D+01
 Atom C3       Shell    10 D   1     bf   27 -    32          5.954260612235         -2.463237340613          1.109299702389
      0.8000000000D+00  0.1000000000D+01
 Atom H4       Shell    11 S   3     bf   33 -    33          7.044493507067         -4.019567803511          0.292150753076
      0.1873113696D+02  0.3349460434D-01
      0.2825394365D+01  0.2347269535D+00
      0.6401216923D+00  0.8137573261D+00
 Atom H4       Shell    12 S   1     bf   34 -    34          7.044493507067         -4.019567803511          0.292150753076
      0.1612777588D+00  0.1000000000D+01
 Atom H5       Shell    13 S   3     bf   35 -    35          5.693862568323         -2.910141772930          3.126895325687
      0.1873113696D+02  0.3349460434D-01
      0.2825394365D+01  0.2347269535D+00
      0.6401216923D+00  0.8137573261D+00
 Atom H5       Shell    14 S   1     bf   36 -    36          5.693862568323         -2.910141772930          3.126895325687
      0.1612777588D+00  0.1000000000D+01
 Atom C6       Shell    15 S   6     bf   37 -    37          7.396477883900          0.000918595873          0.857645742547
      0.3047524880D+04  0.1834737132D-02
      0.4573695180D+03  0.1403732281D-01
      0.1039486850D+03  0.6884262226D-01
      0.2921015530D+02  0.2321844432D+00
      0.9286662960D+01  0.4679413484D+00
      0.3163926960D+01  0.3623119853D+00
 Atom C6       Shell    16 SP   3    bf   38 -    41          7.396477883900          0.000918595873          0.857645742547
      0.7868272350D+01 -0.1193324198D+00  0.6899906659D-01
      0.1881288540D+01 -0.1608541517D+00  0.3164239610D+00
      0.5442492580D+00  0.1143456438D+01  0.7443082909D+00
 Atom C6       Shell    17 SP   1    bf   42 -    45          7.396477883900          0.000918595873          0.857645742547
      0.1687144782D+00  0.1000000000D+01  0.1000000000D+01
 Atom C6       Shell    18 D   1     bf   46 -    51          7.396477883900          0.000918595873          0.857645742547
      0.8000000000D+00  0.1000000000D+01
 Atom C7       Shell    19 S   6     bf   52 -    52          6.028888845196          2.431629573444          1.639764101542
      0.3047524880D+04  0.1834737132D-02
      0.4573695180D+03  0.1403732281D-01
      0.1039486850D+03  0.6884262226D-01
      0.2921015530D+02  0.2321844432D+00
      0.9286662960D+01  0.4679413484D+00
      0.3163926960D+01  0.3623119853D+00
 Atom C7       Shell    20 SP   3    bf   53 -    56          6.028888845196          2.431629573444          1.639764101542
      0.7868272350D+01 -0.1193324198D+00  0.6899906659D-01
      0.1881288540D+01 -0.1608541517D+00  0.3164239610D+00
      0.5442492580D+00  0.1143456438D+01  0.7443082909D+00
 Atom C7       Shell    21 SP   1    bf   57 -    60          6.028888845196          2.431629573444          1.639764101542
      0.1687144782D+00  0.1000000000D+01  0.1000000000D+01
 Atom C7       Shell    22 D   1     bf   61 -    66          6.028888845196          2.431629573444          1.639764101542
      0.8000000000D+00  0.1000000000D+01
 Atom C8       Shell    23 S   6     bf   67 -    67          3.303891081512          2.374908990031          0.512895917651
      0.3047524880D+04  0.1834737132D-02
      0.4573695180D+03  0.1403732281D-01
      0.1039486850D+03  0.6884262226D-01
      0.2921015530D+02  0.2321844432D+00
      0.9286662960D+01  0.4679413484D+00
      0.3163926960D+01  0.3623119853D+00
 Atom C8       Shell    24 SP   3    bf   68 -    71          3.303891081512          2.374908990031          0.512895917651
      0.7868272350D+01 -0.1193324198D+00  0.6899906659D-01
      0.1881288540D+01 -0.1608541517D+00  0.3164239610D+00
      0.5442492580D+00  0.1143456438D+01  0.7443082909D+00
 Atom C8       Shell    25 SP   1    bf   72 -    75          3.303891081512          2.374908990031          0.512895917651
      0.1687144782D+00  0.1000000000D+01  0.1000000000D+01
 Atom C8       Shell    26 D   1     bf   76 -    81          3.303891081512          2.374908990031          0.512895917651
      0.8000000000D+00  0.1000000000D+01
 Atom H9       Shell    27 S   3     bf   82 -    82          3.437840595681          2.716501857346         -1.531063501693
      0.1873113696D+02  0.3349460434D-01
      0.2825394365D+01  0.2347269535D+00
      0.6401216923D+00  0.8137573261D+00
 Atom H9       Shell    28 S   1     bf   83 -    83          3.437840595681          2.716501857346         -1.531063501693
      0.1612777588D+00  0.1000000000D+01
 Atom H10      Shell    29 S   3     bf   84 -    84          2.203621076401          3.941765057414          1.297283724349
      0.1873113696D+02  0.3349460434D-01
      0.2825394365D+01  0.2347269535D+00
      0.6401216923D+00  0.8137573261D+00
 Atom H10      Shell    30 S   1     bf   85 -    85          2.203621076401          3.941765057414          1.297283724349
      0.1612777588D+00  0.1000000000D+01
 Atom C11      Shell    31 S   6     bf   86 -    86          1.849494090284         -0.103666123766          0.926075314743
      0.3047524880D+04  0.1834737132D-02
      0.4573695180D+03  0.1403732281D-01
      0.1039486850D+03  0.6884262226D-01
      0.2921015530D+02  0.2321844432D+00
      0.9286662960D+01  0.4679413484D+00
      0.3163926960D+01  0.3623119853D+00
 Atom C11      Shell    32 SP   3    bf   87 -    90          1.849494090284         -0.103666123766          0.926075314743
      0.7868272350D+01 -0.1193324198D+00  0.6899906659D-01
      0.1881288540D+01 -0.1608541517D+00  0.3164239610D+00
      0.5442492580D+00  0.1143456438D+01  0.7443082909D+00
 Atom C11      Shell    33 SP   1    bf   91 -    94          1.849494090284         -0.103666123766          0.926075314743
      0.1687144782D+00  0.1000000000D+01  0.1000000000D+01
 Atom C11      Shell    34 D   1     bf   95 -   100          1.849494090284         -0.103666123766          0.926075314743
      0.8000000000D+00  0.1000000000D+01
 Atom H12      Shell    35 S   3     bf  101 -   101          1.485299569296         -0.404471860325          2.950748907272
      0.1873113696D+02  0.3349460434D-01
      0.2825394365D+01  0.2347269535D+00
      0.6401216923D+00  0.8137573261D+00
 Atom H12      Shell    36 S   1     bf  102 -   102          1.485299569296         -0.404471860325          2.950748907272
      0.1612777588D+00  0.1000000000D+01
 Atom H13      Shell    37 S   3     bf  103 -   103          0.000000000000          0.000000000000          0.000000000000
      0.1873113696D+02  0.3349460434D-01
      0.2825394365D+01  0.2347269535D+00
      0.6401216923D+00  0.8137573261D+00
 Atom H13      Shell    38 S   1     bf  104 -   104          0.000000000000          0.000000000000          0.000000000000
      0.1612777588D+00  0.1000000000D+01
 Atom C14      Shell    39 S   6     bf  105 -   105          9.778694425990          0.000000000000          0.000000000000
      0.3047524880D+04  0.1834737132D-02
      0.4573695180D+03  0.1403732281D-01
      0.1039486850D+03  0.6884262226D-01
      0.2921015530D+02  0.2321844432D+00
      0.9286662960D+01  0.4679413484D+00
      0.3163926960D+01  0.3623119853D+00
 Atom C14      Shell    40 SP   3    bf  106 -   109          9.778694425990          0.000000000000          0.000000000000
      0.7868272350D+01 -0.1193324198D+00  0.6899906659D-01
      0.1881288540D+01 -0.1608541517D+00  0.3164239610D+00
      0.5442492580D+00  0.1143456438D+01  0.7443082909D+00
 Atom C14      Shell    41 SP   1    bf  110 -   113          9.778694425990          0.000000000000          0.000000000000
      0.1687144782D+00  0.1000000000D+01  0.1000000000D+01
 Atom C14      Shell    42 D   1     bf  114 -   119          9.778694425990          0.000000000000          0.000000000000
      0.8000000000D+00  0.1000000000D+01
 Atom H15      Shell    43 S   3     bf  120 -   120         10.648251206839         -1.775483627693         -0.581843766137
      0.1873113696D+02  0.3349460434D-01
      0.2825394365D+01  0.2347269535D+00
      0.6401216923D+00  0.8137573261D+00
 Atom H15      Shell    44 S   1     bf  121 -   121         10.648251206839         -1.775483627693         -0.581843766137
      0.1612777588D+00  0.1000000000D+01
 Atom C16      Shell    45 S   6     bf  122 -   122         11.449576931221          2.279216376710         -0.226779532550
      0.3047524880D+04  0.1834737132D-02
      0.4573695180D+03  0.1403732281D-01
      0.1039486850D+03  0.6884262226D-01
      0.2921015530D+02  0.2321844432D+00
      0.9286662960D+01  0.4679413484D+00
      0.3163926960D+01  0.3623119853D+00
 Atom C16      Shell    46 SP   3    bf  123 -   126         11.449576931221          2.279216376710         -0.226779532550
      0.7868272350D+01 -0.1193324198D+00  0.6899906659D-01
      0.1881288540D+01 -0.1608541517D+00  0.3164239610D+00
      0.5442492580D+00  0.1143456438D+01  0.7443082909D+00
 Atom C16      Shell    47 SP   1    bf  127 -   130         11.449576931221          2.279216376710         -0.226779532550
      0.1687144782D+00  0.1000000000D+01  0.1000000000D+01
 Atom C16      Shell    48 D   1     bf  131 -   136         11.449576931221          2.279216376710         -0.226779532550
      0.8000000000D+00  0.1000000000D+01
 Atom H17      Shell    49 S   3     bf  137 -   137         11.878398215124          2.625213099600         -2.235550399368
      0.1873113696D+02  0.3349460434D-01
      0.2825394365D+01  0.2347269535D+00
      0.6401216923D+00  0.8137573261D+00
 Atom H17      Shell    50 S   1     bf  138 -   138         11.878398215124          2.625213099600         -2.235550399368
      0.1612777588D+00  0.1000000000D+01
 Atom C18      Shell    51 S   6     bf  139 -   139         10.362695371200          4.688524429483          0.973934877833
      0.3047524880D+04  0.1834737132D-02
      0.4573695180D+03  0.1403732281D-01
      0.1039486850D+03  0.6884262226D-01
      0.2921015530D+02  0.2321844432D+00
      0.9286662960D+01  0.4679413484D+00
      0.3163926960D+01  0.3623119853D+00
 Atom C18      Shell    52 SP   3    bf  140 -   143         10.362695371200          4.688524429483          0.973934877833
      0.7868272350D+01 -0.1193324198D+00  0.6899906659D-01
      0.1881288540D+01 -0.1608541517D+00  0.3164239610D+00
      0.5442492580D+00  0.1143456438D+01  0.7443082909D+00
 Atom C18      Shell    53 SP   1    bf  144 -   147         10.362695371200          4.688524429483          0.973934877833
      0.1687144782D+00  0.1000000000D+01  0.1000000000D+01
 Atom C18      Shell    54 D   1     bf  148 -   153         10.362695371200          4.688524429483          0.973934877833
      0.8000000000D+00  0.1000000000D+01
 Atom H19      Shell    55 S   3     bf  154 -   154         10.754288199909          4.566816693484          3.002434787835
      0.1873113696D+02  0.3349460434D-01
      0.2825394365D+01  0.2347269535D+00
      0.6401216923D+00  0.8137573261D+00
 Atom H19      Shell    56 S   1     bf  155 -   155         10.754288199909          4.566816693484          3.002434787835
      0.1612777588D+00  0.1000000000D+01
 Atom C20      Shell    57 S   6     bf  156 -   156          7.457689930591          4.784988391217          0.538329382626
      0.3047524880D+04  0.1834737132D-02
      0.4573695180D+03  0.1403732281D-01
      0.1039486850D+03  0.6884262226D-01
      0.2921015530D+02  0.2321844432D+00
      0.9286662960D+01  0.4679413484D+00
      0.3163926960D+01  0.3623119853D+00
 Atom C20      Shell    58 SP   3    bf  157 -   160          7.457689930591          4.784988391217          0.538329382626
      0.7868272350D+01 -0.1193324198D+00  0.6899906659D-01
      0.1881288540D+01 -0.1608541517D+00  0.3164239610D+00
      0.5442492580D+00  0.1143456438D+01  0.7443082909D+00
 Atom C20      Shell    59 SP   1    bf  161 -   164          7.457689930591          4.784988391217          0.538329382626
      0.1687144782D+00  0.1000000000D+01  0.1000000000D+01
 Atom C20      Shell    60 D   1     bf  165 -   170          7.457689930591          4.784988391217          0.538329382626
      0.8000000000D+00  0.1000000000D+01
 Atom H21      Shell    61 S   3     bf  171 -   171          7.185801841565          4.683171402267         -1.525350954080
      0.1873113696D+02  0.3349460434D-01
      0.2825394365D+01  0.2347269535D+00
      0.6401216923D+00  0.8137573261D+00
 Atom H21      Shell    62 S   1     bf  172 -   172          7.185801841565          4.683171402267         -1.525350954080
      0.1612777588D+00  0.1000000000D+01
 Atom C22      Shell    63 S   6     bf  173 -   173          6.320634459886          7.335191155233          1.403169747198
      0.3047524880D+04  0.1834737132D-02
      0.4573695180D+03  0.1403732281D-01
      0.1039486850D+03  0.6884262226D-01
      0.2921015530D+02  0.2321844432D+00
      0.9286662960D+01  0.4679413484D+00
      0.3163926960D+01  0.3623119853D+00
 Atom C22      Shell    64 SP   3    bf  174 -   177          6.320634459886          7.335191155233          1.403169747198
      0.7868272350D+01 -0.1193324198D+00  0.6899906659D-01
      0.1881288540D+01 -0.1608541517D+00  0.3164239610D+00
      0.5442492580D+00  0.1143456438D+01  0.7443082909D+00
 Atom C22      Shell    65 SP   1    bf  178 -   181          6.320634459886          7.335191155233          1.403169747198
      0.1687144782D+00  0.1000000000D+01  0.1000000000D+01
 Atom C22      Shell    66 D   1     bf  182 -   187          6.320634459886          7.335191155233          1.403169747198
      0.8000000000D+00  0.1000000000D+01
 Atom H23      Shell    67 S   3     bf  188 -   188          6.343052772329          7.449544568452          3.469606192776
      0.1873113696D+02  0.3349460434D-01
      0.2825394365D+01  0.2347269535D+00
      0.6401216923D+00  0.8137573261D+00
 Atom H23      Shell    68 S   1     bf  189 -   189          6.343052772329          7.449544568452          3.469606192776
      0.1612777588D+00  0.1000000000D+01
 Atom H24      Shell    69 S   3     bf  190 -   190          4.329056945034          7.429255882874          0.846482733437
      0.1873113696D+02  0.3349460434D-01
      0.2825394365D+01  0.2347269535D+00
      0.6401216923D+00  0.8137573261D+00
 Atom H24      Shell    70 S   1     bf  191 -   191          4.329056945034          7.429255882874          0.846482733437
      0.1612777588D+00  0.1000000000D+01
 Atom C25      Shell    71 S   6     bf  192 -   192          7.689189980124          9.665588477683          0.318731244018
      0.3047524880D+04  0.1834737132D-02
      0.4573695180D+03  0.1403732281D-01
      0.1039486850D+03  0.6884262226D-01
      0.2921015530D+02  0.2321844432D+00
      0.9286662960D+01  0.4679413484D+00
      0.3163926960D+01  0.3623119853D+00
 Atom C25      Shell    72 SP   3    bf  193 -   196          7.689189980124          9.665588477683          0.318731244018
      0.7868272350D+01 -0.1193324198D+00  0.6899906659D-01
      0.1881288540D+01 -0.1608541517D+00  0.3164239610D+00
      0.5442492580D+00  0.1143456438D+01  0.7443082909D+00
 Atom C25      Shell    73 SP   1    bf  197 -   200          7.689189980124          9.665588477683          0.318731244018
      0.1687144782D+00  0.1000000000D+01  0.1000000000D+01
 Atom C25      Shell    74 D   1     bf  201 -   206          7.689189980124          9.665588477683          0.318731244018
      0.8000000000D+00  0.1000000000D+01
 Atom H26      Shell    75 S   3     bf  207 -   207          7.427777946963          9.714037143997         -1.741216146582
      0.1873113696D+02  0.3349460434D-01
      0.2825394365D+01  0.2347269535D+00
      0.6401216923D+00  0.8137573261D+00
 Atom H26      Shell    76 S   1     bf  208 -   208          7.427777946963          9.714037143997         -1.741216146582
      0.1612777588D+00  0.1000000000D+01
 Atom H27      Shell    77 S   3     bf  209 -   209          6.791191252502         11.374470578652          1.071262406615
      0.1873113696D+02  0.3349460434D-01
      0.2825394365D+01  0.2347269535D+00
      0.6401216923D+00  0.8137573261D+00
 Atom H27      Shell    78 S   1     bf  210 -   210          6.791191252502         11.374470578652          1.071262406615
      0.1612777588D+00  0.1000000000D+01
 Atom C28      Shell    79 S   6     bf  211 -   211         10.537292875590          9.617702515120          0.911248069970
      0.3047524880D+04  0.1834737132D-02
      0.4573695180D+03  0.1403732281D-01
      0.1039486850D+03  0.6884262226D-01
      0.2921015530D+02  0.2321844432D+00
      0.9286662960D+01  0.4679413484D+00
      0.3163926960D+01  0.3623119853D+00
 Atom C28      Shell    80 SP   3    bf  212 -   215         10.537292875590          9.617702515120          0.911248069970
      0.7868272350D+01 -0.1193324198D+00  0.6899906659D-01
      0.1881288540D+01 -0.1608541517D+00  0.3164239610D+00
      0.5442492580D+00  0.1143456438D+01  0.7443082909D+00
 Atom C28      Shell    81 SP   1    bf  216 -   219         10.537292875590          9.617702515120          0.911248069970
      0.1687144782D+00  0.1000000000D+01  0.1000000000D+01
 Atom C28      Shell    82 D   1     bf  220 -   225         10.537292875590          9.617702515120          0.911248069970
      0.8000000000D+00  0.1000000000D+01
 Atom C29      Shell    83 S   6     bf  226 -   226         11.595382246997          7.076901762225         -0.136489400578
      0.3047524880D+04  0.1834737132D-02
      0.4573695180D+03  0.1403732281D-01
      0.1039486850D+03  0.6884262226D-01
      0.2921015530D+02  0.2321844432D+00
      0.9286662960D+01  0.4679413484D+00
      0.3163926960D+01  0.3623119853D+00
 Atom C29      Shell    84 SP   3    bf  227 -   230         11.595382246997          7.076901762225         -0.136489400578
      0.7868272350D+01 -0.1193324198D+00  0.6899906659D-01
      0.1881288540D+01 -0.1608541517D+00  0.3164239610D+00
      0.5442492580D+00  0.1143456438D+01  0.7443082909D+00
 Atom C29      Shell    85 SP   1    bf  231 -   234         11.595382246997          7.076901762225         -0.136489400578
      0.1687144782D+00  0.1000000000D+01  0.1000000000D+01
 Atom C29      Shell    86 D   1     bf  235 -   240         11.595382246997          7.076901762225         -0.136489400578
      0.8000000000D+00  0.1000000000D+01
 Atom H30      Shell    87 S   3     bf  241 -   241         11.092434622497          7.072090689566         -2.161100632144
      0.1873113696D+02  0.3349460434D-01
      0.2825394365D+01  0.2347269535D+00
      0.6401216923D+00  0.8137573261D+00
 Atom H30      Shell    88 S   1     bf  242 -   242         11.092434622497          7.072090689566         -2.161100632144
      0.1612777588D+00  0.1000000000D+01
 Atom C31      Shell    89 S   6     bf  243 -   243         14.486107877596          7.405009373781          0.000000000000
      0.3047524880D+04  0.1834737132D-02
      0.4573695180D+03  0.1403732281D-01
      0.1039486850D+03  0.6884262226D-01
      0.2921015530D+02  0.2321844432D+00
      0.9286662960D+01  0.4679413484D+00
      0.3163926960D+01  0.3623119853D+00
 Atom C31      Shell    90 SP   3    bf  244 -   247         14.486107877596          7.405009373781          0.000000000000
      0.7868272350D+01 -0.1193324198D+00  0.6899906659D-01
      0.1881288540D+01 -0.1608541517D+00  0.3164239610D+00
      0.5442492580D+00  0.1143456438D+01  0.7443082909D+00
 Atom C31      Shell    91 SP   1    bf  248 -   251         14.486107877596          7.405009373781          0.000000000000
      0.1687144782D+00  0.1000000000D+01  0.1000000000D+01
 Atom C31      Shell    92 D   1     bf  252 -   257         14.486107877596          7.405009373781          0.000000000000
      0.8000000000D+00  0.1000000000D+01
 Atom H32      Shell    93 S   3     bf  258 -   258         15.478316010292          6.190511981286         -1.344005710100
      0.1873113696D+02  0.3349460434D-01
      0.2825394365D+01  0.2347269535D+00
      0.6401216923D+00  0.8137573261D+00
 Atom H32      Shell    94 S   1     bf  259 -   259         15.478316010292          6.190511981286         -1.344005710100
      0.1612777588D+00  0.1000000000D+01
 Atom H33      Shell    95 S   3     bf  260 -   260         15.190434923338          6.885685439305          1.874561949943
      0.1873113696D+02  0.3349460434D-01
      0.2825394365D+01  0.2347269535D+00
      0.6401216923D+00  0.8137573261D+00
 Atom H33      Shell    96 S   1     bf  261 -   261         15.190434923338          6.885685439305          1.874561949943
      0.1612777588D+00  0.1000000000D+01
 Atom C34      Shell    97 S   6     bf  262 -   262         14.895393437300         10.263187514200         -0.545191204982
      0.3047524880D+04  0.1834737132D-02
      0.4573695180D+03  0.1403732281D-01
      0.1039486850D+03  0.6884262226D-01
      0.2921015530D+02  0.2321844432D+00
      0.9286662960D+01  0.4679413484D+00
      0.3163926960D+01  0.3623119853D+00
 Atom C34      Shell    98 SP   3    bf  263 -   266         14.895393437300         10.263187514200         -0.545191204982
      0.7868272350D+01 -0.1193324198D+00  0.6899906659D-01
      0.1881288540D+01 -0.1608541517D+00  0.3164239610D+00
      0.5442492580D+00  0.1143456438D+01  0.7443082909D+00
 Atom C34      Shell    99 SP   1    bf  267 -   270         14.895393437300         10.263187514200         -0.545191204982
      0.1687144782D+00  0.1000000000D+01  0.1000000000D+01
 Atom C34      Shell   100 D   1     bf  271 -   276         14.895393437300         10.263187514200         -0.545191204982
      0.8000000000D+00  0.1000000000D+01
 Atom H35      Shell   101 S   3     bf  277 -   277         16.066885765270         11.127328850178          0.925126974581
      0.1873113696D+02  0.3349460434D-01
      0.2825394365D+01  0.2347269535D+00
      0.6401216923D+00  0.8137573261D+00
 Atom H35      Shell   102 S   1     bf  278 -   278         16.066885765270         11.127328850178          0.925126974581
      0.1612777588D+00  0.1000000000D+01
 Atom H36      Shell   103 S   3     bf  279 -   279         15.892302603901         10.574477999364         -2.333252812021
      0.1873113696D+02  0.3349460434D-01
      0.2825394365D+01  0.2347269535D+00
      0.6401216923D+00  0.8137573261D+00
 Atom H36      Shell   104 S   1     bf  280 -   280         15.892302603901         10.574477999364         -2.333252812021
      0.1612777588D+00  0.1000000000D+01
 Atom C37      Shell   105 S   6     bf  281 -   281         12.218541983749         11.499123055987         -0.643378445771
      0.3047524880D+04  0.1834737132D-02
      0.4573695180D+03  0.1403732281D-01
      0.1039486850D+03  0.6884262226D-01
      0.2921015530D+02  0.2321844432D+00
      0.9286662960D+01  0.4679413484D+00
      0.3163926960D+01  0.3623119853D+00
 Atom C37      Shell   106 SP   3    bf  282 -   285         12.218541983749         11.499123055987         -0.643378445771
      0.7868272350D+01 -0.1193324198D+00  0.6899906659D-01
      0.1881288540D+01 -0.1608541517D+00  0.3164239610D+00
      0.5442492580D+00  0.1143456438D+01  0.7443082909D+00
[...]
 1587 Fit       0.001572
 1588 Fit      -0.000170
 1589 Fit      -0.002260
 1590 Fit       0.001846
 1591 Fit       0.001259
 1592 Fit      -0.001203
 1593 Fit      -0.001966
 1594 Fit      -0.000135
 1595 Fit       0.000028
 1596 Fit      -0.002999
 1597 Fit      -0.002457
 1598 Fit      -0.000101
 1599 Fit      -0.001516
 1600 Fit      -0.002175
 1601 Fit      -0.002783
 1602 Fit      -0.002229
 1603 Fit      -0.002868
 1604 Fit      -0.002629
 1605 Fit      -0.001270
 1606 Fit      -0.000307
 1607 Fit       0.000110
 1608 Fit      -0.002199
 1609 Fit      -0.000785
 1610 Fit       0.000589
 1611 Fit       0.001503
 1612 Fit       0.002011
 1613 Fit      -0.000704
 1614 Fit       0.000572
 1615 Fit       0.002090
 1616 Fit       0.002874
 1617 Fit       0.001926
 1618 Fit       0.000151
 1619 Fit      -0.001303
 1620 Fit       0.001811
 1621 Fit       0.001793
 1622 Fit       0.000699
 1623 Fit      -0.001338
 1624 Fit       0.002601
 1625 Fit       0.001856
 1626 Fit       0.000274
 1627 Fit      -0.001972
 1628 Fit       0.001284
 1629 Fit       0.000145
 1630 Fit      -0.001942
 1631 Fit      -0.001540
 1632 Fit      -0.002534
 1633 Fit       0.000258
 1634 Fit       0.001203
 1635 Fit       0.002463
 1636 Fit      -0.001378
 1637 Fit       0.000361
 1638 Fit       0.002072
 1639 Fit       0.003361
 1640 Fit      -0.001218
 1641 Fit       0.000394
 1642 Fit       0.001936
 1643 Fit       0.001010
 1644 Fit       0.002166
 1645 Fit       0.005205
 1646 Fit      -0.000517
 1647 Fit      -0.009108
 1648 Fit      -0.014260
 1649 Fit      -0.006425
 1650 Fit      -0.000183
 1651 Fit       0.001982
 1652 Fit       0.004324
 1653 Fit       0.003672
 1654 Fit      -0.001144
 1655 Fit      -0.004756
 1656 Fit      -0.001767
 1657 Fit       0.001092
 1658 Fit       0.006833
 1659 Fit       0.008359
 1660 Fit       0.011632
 1661 Fit       0.006363
 1662 Fit       0.009586
 1663 Fit      -0.003887
 1664 Fit       0.002707
 1665 Fit       0.007074
 1666 Fit       0.011741
 1667 Fit      -0.009482
 1668 Fit       0.000596
 1669 Fit       0.005979
 1670 Fit      -0.006624
 1671 Fit       0.001851
 1672 Fit       0.006877
 1673 Fit      -0.005242
 1674 Fit       0.001220
 1675 Fit       0.009530
 1676 Fit       0.016323
 1677 Fit       0.011892
 1678 Fit       0.007639
 1679 Fit       0.014357
 1680 Fit       0.010262
 1681 Fit       0.009442
 1682 Fit       0.007510
 1683 Fit       0.006252
 1684 Fit       0.005582
 1685 Fit       0.006459
 1686 Fit       0.005742
 1687 Fit       0.005435
 1688 Fit       0.005317
 1689 Fit       0.006893
 1690 Fit       0.007320
 1691 Fit       0.006368
 1692 Fit       0.005824
 1693 Fit       0.006193
 1694 Fit       0.006517
 1695 Fit       0.006527
 1696 Fit       0.009015
 1697 Fit       0.008527
 1698 Fit       0.008598
 1699 Fit       0.007968
 1700 Fit       0.007365
 1701 Fit       0.007959
 1702 Fit       0.007099
 1703 Fit       0.006582
 1704 Fit       0.007049
 1705 Fit       0.005908
 1706 Fit       0.006179
 1707 Fit      -0.000217
 1708 Fit       0.010176
 1709 Fit       0.011875
 1710 Fit       0.016686
 1711 Fit       0.008704
 1712 Fit       0.008707
 1713 Fit       0.010909
 1714 Fit       0.017870
 1715 Fit       0.006263
 1716 Fit       0.008496
 1717 Fit       0.005099
 1718 Fit       0.006475
 1719 Fit       0.004959
 1720 Fit       0.003165
 1721 Fit      -0.000031
 1722 Fit       0.005844
 1723 Fit       0.004539
 1724 Fit       0.002226
 1725 Fit      -0.002600
 1726 Fit       0.005000
 1727 Fit       0.003112
 1728 Fit      -0.001023
 1729 Fit      -0.010186
 1730 Fit       0.004484
 1731 Fit       0.001202
 1732 Fit      -0.004423
 1733 Fit       0.002779
 1734 Fit       0.000688
 1735 Fit       0.000348
 1736 Fit       0.002249
 1737 Fit       0.002532
 1738 Fit       0.016722
 1739 Fit       0.011283
 1740 Fit       0.012762
 1741 Fit       0.008621
 1742 Fit       0.007896
 1743 Fit       0.003557
 1744 Fit      -0.001645
 1745 Fit       0.005624
 1746 Fit       0.005902
 1747 Fit       0.003621
 1748 Fit       0.002783
 1749 Fit       0.002508
 1750 Fit       0.003741
 1751 Fit      -0.001957
 1752 Fit       0.001707
 1753 Fit      -0.001750
 1754 Fit       0.002962
 1755 Fit       0.004807
 1756 Fit       0.006851
 1757 Fit       0.006255
 1758 Fit       0.004610
 1759 Fit       0.003506
 1760 Fit       0.005340
 1761 Fit       0.008023
 1762 Fit       0.007191
 1763 Fit       0.006800
 1764 Fit       0.007332
 1765 Fit       0.006607
 1766 Fit       0.006396
 1767 Fit       0.006804
 1768 Fit       0.004650
 1769 Fit       0.004940
 1770 Fit       0.004777
 1771 Fit       0.004766
 1772 Fit       0.006715
 1773 Fit       0.007218
 1774 Fit       0.004844
 1775 Fit       0.006611
 1776 Fit       0.004526
 1777 Fit       0.006324
 1778 Fit       0.004355
 1779 Fit       0.006082
 1780 Fit       0.005934
 1781 Fit       0.000631
 1782 Fit       0.002992
 1783 Fit       0.003154
 1784 Fit       0.004971
 1785 Fit       0.004789
 1786 Fit       0.006083
 1787 Fit       0.006426
 1788 Fit       0.005562
 1789 Fit       0.004829
 1790 Fit       0.004489
 1791 Fit       0.004381
 1792 Fit       0.004167
 1793 Fit       0.004408
 1794 Fit       0.002955
 1795 Fit       0.002570
 1796 Fit       0.005074
 1797 Fit       0.006042
 1798 Fit       0.006608
 1799 Fit       0.005189
 1800 Fit       0.004520
 1801 Fit      -0.010783
 1802 Fit      -0.016241
 1803 Fit      -0.009604
 1804 Fit       0.000417
 1805 Fit      -0.017812
 1806 Fit      -0.008659
 1807 Fit      -0.017436
 1808 Fit      -0.011522
 1809 Fit      -0.005305
 1810 Fit      -0.007852
 1811 Fit      -0.006816
 1812 Fit      -0.002633
 1813 Fit      -0.002291
 1814 Fit      -0.000337
 1815 Fit      -0.010144
 1816 Fit      -0.010457
 1817 Fit      -0.005179
 1818 Fit      -0.019329
 1819 Fit      -0.011532
 1820 Fit      -0.018676
 1821 Fit      -0.009345
 1822 Fit      -0.005940
 1823 Fit      -0.004456
 1824 Fit      -0.003191
 1825 Fit      -0.008045
 1826 Fit      -0.000529
 1827 Fit      -0.002360
 1828 Fit      -0.005357
 1829 Fit      -0.003999
 1830 Fit      -0.002112
 1831 Fit      -0.007002
 1832 Fit      -0.005451
 1833 Fit      -0.003686
 1834 Fit      -0.002818
 1835 Fit      -0.003671
 1836 Fit      -0.002487
 1837 Fit      -0.001290
 1838 Fit      -0.005124
 1839 Fit      -0.001463
 1840 Fit      -0.000313
 1841 Fit       0.001325
 1842 Fit      -0.002440
 1843 Fit       0.000070
 1844 Fit       0.001301
 1845 Fit       0.001484
 1846 Fit       0.000575
 1847 Fit      -0.000382
 1848 Fit       0.000901
 1849 Fit       0.003942
 1850 Fit       0.002300
 1851 Fit      -0.002659
 1852 Fit      -0.003952
 1853 Fit      -0.003005
 1854 Fit      -0.001404
 1855 Fit      -0.000730
 1856 Fit      -0.003707
 1857 Fit      -0.002982
 1858 Fit      -0.006278
 1859 Fit      -0.012648
 1860 Fit      -0.001419
 1861 Fit       0.001291
 1862 Fit       0.001165
 1863 Fit      -0.002475
 1864 Fit      -0.005733
 1865 Fit      -0.008608
 1866 Fit      -0.003460
 1867 Fit      -0.003216
 1868 Fit      -0.002473
 1869 Fit      -0.001304
 1870 Fit      -0.005907
 1871 Fit      -0.001459
 1872 Fit      -0.001146
 1873 Fit       0.001010
 1874 Fit       0.000853
 1875 Fit       0.003192
 1876 Fit       0.003039
 1877 Fit       0.002615
 1878 Fit       0.004512
 1879 Fit       0.004636
 1880 Fit       0.004101
 1881 Fit      -0.002673
 1882 Fit      -0.001551
 1883 Fit      -0.001144
 1884 Fit      -0.000031
 1885 Fit       0.001378
 1886 Fit      -0.003232
 1887 Fit      -0.003230
 1888 Fit      -0.003358
 1889 Fit      -0.003245
 1890 Fit      -0.002974
 1891 Fit      -0.002572
 1892 Fit      -0.002888
 1893 Fit      -0.001825
 1894 Fit      -0.002679
 1895 Fit      -0.002406
 1896 Fit      -0.001442
 1897 Fit      -0.001110
 1898 Fit      -0.002406
 1899 Fit      -0.000323
 1900 Fit       0.001451
 1901 Fit      -0.003100
 1902 Fit      -0.001808
 1903 Fit       0.000209
 1904 Fit       0.002490
 1905 Fit      -0.000797
 1906 Fit       0.001488
 1907 Fit       0.004757
 1908 Fit      -0.002040
 1909 Fit      -0.000883
 1910 Fit      -0.000781
 1911 Fit      -0.001680
 1912 Fit      -0.001517
 1913 Fit      -0.000020
 1914 Fit       0.000773
 1915 Fit       0.000691
 1916 Fit      -0.000206
 1917 Fit      -0.000839
 1918 Fit       0.000770
 1919 Fit       0.001772
 1920 Fit       0.002070
 1921 Fit       0.000350
 1922 Fit      -0.001857
 1923 Fit      -0.001624
 1924 Fit      -0.000980
 1925 Fit      -0.002309
 1926 Fit      -0.000274
 1927 Fit      -0.000774
 1928 Fit      -0.002014
 1929 Fit      -0.001328
 1930 Fit      -0.002364
 1931 Fit       0.003166
 1932 Fit       0.002316
 1933 Fit       0.003652
 1934 Fit       0.004704
 1935 Fit       0.005492
 1936 Fit       0.003630
 1937 Fit       0.002768
 1938 Fit       0.005316
 1939 Fit       0.009472
 1940 Fit       0.003734
 1941 Fit       0.003778
 1942 Fit       0.005338
 1943 Fit       0.005620
 1944 Fit       0.005096
 1945 Fit       0.006284
 1946 Fit       0.006965
 1947 Fit       0.007174
 1948 Fit       0.007254
 1949 Fit       0.007829
 1950 Fit       0.008499
 1951 Fit       0.008557
 1952 Fit       0.007510
 1953 Fit       0.009358
 1954 Fit       0.007041
 1955 Fit       0.011726
 1956 Fit       0.014681
 1957 Fit       0.014021
 1958 Fit       0.010079
 1959 Fit       0.002025
 1960 Fit       0.000333
 1961 Fit       0.001443
 1962 Fit       0.002036
 1963 Fit      -0.005279
 1964 Fit      -0.001629
 1965 Fit       0.002798
 1966 Fit      -0.001521
 1967 Fit      -0.022628
 1968 Fit      -0.025158
 1969 Fit      -0.007207
 1970 Fit      -0.016781
 1971 Fit      -0.020288
 1972 Fit      -0.002117
 1973 Fit      -0.010471
 1974 Fit      -0.016795
 1975 Fit      -0.015350
 1976 Fit      -0.008354
 1977 Fit      -0.013573
 1978 Fit      -0.007540
 1979 Fit      -0.004753
 1980 Fit      -0.007349
 1981 Fit      -0.010087
 1982 Fit      -0.014579
 1983 Fit      -0.011173
 1984 Fit      -0.005188
 1985 Fit       0.001327
 1986 Fit      -0.000092
 1987 Fit      -0.013441
 1988 Fit      -0.018933
 1989 Fit      -0.019186
 1990 Fit      -0.015996
 1991 Fit       0.001592
 1992 Fit      -0.002867
 1993 Fit      -0.016703
 1994 Fit      -0.022347
 1995 Fit      -0.005441
 1996 Fit      -0.019898
 1997 Fit      -0.025590
 1998 Fit      -0.009216
 1999 Fit       0.011111
 2000 Fit       0.010109
 2001 Fit       0.014430
 2002 Fit       0.017509
 2003 Fit       0.015490
 2004 Fit       0.008406
 2005 Fit       0.015911
 2006 Fit       0.019617
 2007 Fit       0.018811
 2008 Fit       0.014270
 2009 Fit       0.005687
 2010 Fit       0.019490
 2011 Fit       0.017756
 2012 Fit       0.012367
 2013 Fit       0.002864
 2014 Fit       0.010320
 2015 Fit       0.000899
 2016 Fit       0.000069
 2017 Fit      -0.001886
 2018 Fit      -0.003006
 2019 Fit      -0.001833
 2020 Fit      -0.009590
 2021 Fit      -0.012158
 2022 Fit      -0.012896
 2023 Fit      -0.013248
 2024 Fit      -0.013872
 2025 Fit      -0.014374
 2026 Fit      -0.013422
 2027 Fit      -0.015112
 2028 Fit      -0.019425
 2029 Fit      -0.020995
 2030 Fit      -0.021545
 2031 Fit      -0.021606
 2032 Fit      -0.020320
 2033 Fit      -0.015775
 2034 Fit      -0.012237
 2035 Fit      -0.019689
 2036 Fit      -0.023242
 2037 Fit      -0.024282
 2038 Fit      -0.023493
 2039 Fit      -0.020003
 2040 Fit      -0.012583
 2041 Fit      -0.017700
 2042 Fit      -0.021378
 2043 Fit      -0.017791
 2044 Fit       0.023904
 2045 Fit       0.021061
 2046 Fit       0.020012
 2047 Fit       0.020560
 2048 Fit       0.015838
 2049 Fit       0.014667
 2050 Fit       0.014096
 2051 Fit       0.013615
 2052 Fit       0.013638
 2053 Fit       0.005303
 2054 Fit       0.004902
 2055 Fit       0.004578
 2056 Fit       0.003797
 2057 Fit       0.002830
 2058 Fit      -0.000729
 2059 Fit      -0.000025
 2060 Fit       0.000926
 2061 Fit       0.001650
 2062 Fit       0.004452
 2063 Fit       0.000803
 2064 Fit       0.003145
 2065 Fit       0.001849
 2066 Fit       0.003585
 2067 Fit       0.001788
 2068 Fit      -0.001353
 2069 Fit       0.000499
 2070 Fit      -0.000133
 2071 Fit       0.001625
 2072 Fit       0.001075
 2073 Fit       0.001055
 2074 Fit      -0.000026
 2075 Fit       0.000336
 2076 Fit       0.002140
 2077 Fit       0.001157
 2078 Fit       0.003358
 2079 Fit       0.004512
 2080 Fit       0.003682
 2081 Fit       0.001931
 2082 Fit       0.002112
 2083 Fit       0.001816
 2084 Fit       0.001537
 2085 Fit       0.002242
 2086 Fit       0.001710
 2087 Fit       0.000758
 2088 Fit       0.001657
 2089 Fit       0.001370
 2090 Fit       0.000472
 2091 Fit       0.000831
 2092 Fit       0.000432
 2093 Fit       0.000395
 2094 Fit       0.000661
 2095 Fit      -0.001301
 2096 Fit      -0.002156
 2097 Fit       0.000757
 2098 Fit       0.000851
 2099 Fit       0.001398
 2100 Fit       0.001299
 2101 Fit       0.002038
 2102 Fit       0.001753
 2103 Fit       0.001574
 2104 Fit       0.000845
 2105 Fit      -0.000532
 2106 Fit       0.002634
 2107 Fit       0.002128
 2108 Fit       0.001508
 2109 Fit       0.000354
 2110 Fit       0.001657
 2111 Fit       0.001563
 2112 Fit       0.001630
 2113 Fit       0.001772
 2114 Fit       0.000141
 2115 Fit       0.000304
 2116 Fit       0.001050
 2117 Fit       0.001368
 2118 Fit       0.001380
 2119 Fit       0.000890
 2120 Fit      -0.000082
 2121 Fit      -0.000038
 2122 Fit       0.000611
 2123 Fit       0.000933
 2124 Fit      -0.000577
 2125 Fit      -0.000473
 2126 Fit      -0.001420
 2127 Fit      -0.001844
 2128 Fit      -0.002182
 2129 Fit      -0.002467
 2130 Fit      -0.002550
 2131 Fit      -0.002309
 2132 Fit      -0.001808
 2133 Fit      -0.002783
 2134 Fit      -0.002707
 2135 Fit      -0.002288
 2136 Fit      -0.002014
 2137 Fit      -0.002033
 2138 Fit      -0.002437
 2139 Fit      -0.001445
 2140 Fit      -0.000169
 2141 Fit       0.001610
 2142 Fit       0.002301
 2143 Fit       0.001641
 2144 Fit      -0.000030
 2145 Fit      -0.001364
 2146 Fit      -0.001122
 2147 Fit      -0.000882
 2148 Fit       0.000251
 2149 Fit       0.001392
 2150 Fit       0.001035
 2151 Fit      -0.000294
 2152 Fit       0.000380
 2153 Fit       0.000636
 2154 Fit       0.000070
 2155 Fit       0.001319
 2156 Fit      -0.000336
 2157 Fit       0.001020
 2158 Fit       0.001805
 2159 Fit      -0.000730
 2160 Fit       0.000543
 2161 Fit       0.001112
 2162 Fit       0.000960
 2163 Fit      -0.001273
 2164 Fit      -0.000369
 2165 Fit      -0.000567
 2166 Fit       0.000046
 2167 Fit      -0.000248
 2168 Fit       0.000891
 2169 Fit      -0.000296
 2170 Fit      -0.001643
 2171 Fit       0.001501
 2172 Fit       0.000751
 2173 Fit      -0.000692
 2174 Fit      -0.002058
 2175 Fit       0.000579
 2176 Fit       0.000721
 2177 Fit       0.000299
 2178 Fit      -0.001590
 2179 Fit      -0.000826
 2180 Fit      -0.000736
 2181 Fit       0.000544
 2182 Fit      -0.000124
 2183 Fit      -0.000800
 2184 Fit      -0.001286
 2185 Fit      -0.001757
 2186 Fit      -0.001414
 2187 Fit      -0.002028
 2188 Fit      -0.001910
 2189 Fit      -0.001233
 2190 Fit      -0.000380
 2191 Fit      -0.001970
 2192 Fit      -0.002083
 2193 Fit      -0.001838
 2194 Fit      -0.001717
 2195 Fit      -0.000736
 2196 Fit       0.000121
 2197 Fit       0.000679
 2198 Fit      -0.001318
 2199 Fit      -0.000292
 2200 Fit       0.000743
 2201 Fit       0.001499
 2202 Fit       0.002033
 2203 Fit      -0.000286
 2204 Fit       0.000534
 2205 Fit       0.001650
 2206 Fit       0.002347
 2207 Fit       0.001548
 2208 Fit       0.000043
 2209 Fit       0.001168
 2210 Fit       0.001064
 2211 Fit       0.000254
 2212 Fit      -0.001068
 2213 Fit       0.001971
 2214 Fit       0.001506
 2215 Fit       0.000521
 2216 Fit      -0.000924
 2217 Fit       0.001962
 2218 Fit       0.001320
 2219 Fit       0.000314
 2220 Fit      -0.001160
 2221 Fit       0.000372
 2222 Fit      -0.000418
 2223 Fit      -0.001741
 2224 Fit       0.000661
 2225 Fit       0.001034
 2226 Fit       0.001692
 2227 Fit      -0.000560
 2228 Fit       0.000601
 2229 Fit       0.001807
 2230 Fit       0.002579
 2231 Fit      -0.000725
 2232 Fit       0.000530
 2233 Fit       0.001698
 2234 Fit       0.000096
 -----------------------------------------------------------------
 Leave Link  602 at Thu Apr 27 15:55:43 2017, MaxMem=    33554432 cpu:         4.0
 (Enter /home/michal/g09/l9999.exe)

 Test job not archived.
 1\1\GINC-LINUX\SP\RHF\6-31G(d)\C27H46O3\MICHAL\27-Apr-2017\0\\#P HF/6-
 31G* SCF(Conver=6) NoSymm Test Pop=mk IOp(6/33=2) GFInput GFPrint\\MEP
  - Input generated by R.E.D.-III.x MOLECULE\\0,1\C,0,1.75854805,-1.249
 06477,-0.0577445\H,0,1.8714769,-1.13854613,-1.143183\C,0,3.15085901,-1
 .30348906,0.58701612\H,0,3.72778541,-2.12706367,0.15459952\H,0,3.01306
 23,-1.5399807,1.65468174\C,0,3.91404752,0.0004861,0.45384658\C,0,3.190
 35057,1.28676295,0.86772579\C,0,1.74834386,1.25674771,0.27141283\H,0,1
 .81922689,1.43751087,-0.81020391\H,0,1.16610605,2.08589223,0.68649298\
 C,0,0.97871012,-0.05485775,0.49005795\H,0,0.78598668,-0.21403729,1.561
 46907\H,0,0.,0.,0.\C,0,5.17466222,0.,0.\H,0,5.63481185,-0.93954547,-0.
 30789846\C,0,6.05885516,1.20610936,-0.12000656\H,0,6.28577761,1.389202
 94,-1.18300232\C,0,5.48370221,2.48106027,0.51538414\H,0,5.69092421,2.4
 1665531,1.58882006\C,0,3.94643954,2.5321068,0.28487164\H,0,3.80256256,
 2.47822757,-0.80718096\C,0,3.3447357,3.88161598,0.74252545\H,0,3.35659
 896,3.9421292,1.83603652\H,0,2.29083827,3.93139289,0.44793937\C,0,4.06
 894409,5.11480913,0.16866531\H,0,3.9306108,5.14044706,-0.9214119\H,0,3
 .59374363,6.01911059,0.56688765\C,0,5.57609523,5.08946897,0.48221171\C
 ,0,6.13601201,3.74493512,-0.07222708\H,0,5.86986359,3.74238921,-1.1436
 052\C,0,7.66571813,3.91856219,0.\H,0,8.19077206,3.27587785,-0.71121719
 \H,0,8.03843195,3.6437478,0.99197546\C,0,7.88230272,5.43104492,-0.2885
 0276\H,0,8.50222976,5.88832882,0.48955611\H,0,8.40984433,5.59577275,-1
 .23470421\C,0,6.46577394,6.08507384,-0.34046121\H,0,6.11652292,5.96537
 371,-1.37557844\C,0,5.80395143,5.21801491,2.00670864\H,0,5.44836912,4.
 33930535,2.55050234\H,0,6.85994116,5.34250388,2.25796708\H,0,5.2650691
 9,6.08187703,2.40640227\C,0,6.49992141,7.62359919,-0.11022484\H,0,7.27
 581496,7.96912722,-0.81080158\C,0,6.95547722,8.10958749,1.28068933\H,0
 ,6.16461673,8.01303528,2.03034823\H,0,7.22285191,9.17126582,1.22913312
 \H,0,7.83340219,7.57158227,1.64963964\C,0,3.11459729,1.3315268,2.41720
 939\H,0,2.48259952,2.15630096,2.76060313\H,0,2.68983651,0.40980137,2.8
 2413647\H,0,4.10861228,1.45078776,2.85772917\O,0,7.39511911,0.89953311
 ,0.352414\O,0,7.34823988,0.6472872,1.78795775\H,0,7.3983024,-0.3224643
 9,1.80715327\O,0,1.05422849,-2.48399252,0.09644676\H,0,0.89115904,-2.6
 3244867,1.03855768\C,0,5.19637455,8.36508374,-0.49542623\H,0,4.3877615
 4,8.04312139,0.17305859\H,0,5.34717941,9.43015809,-0.2727428\C,0,4.708
 53485,8.23263558,-1.95148264\H,0,4.43755547,7.19065989,-2.15928118\H,0
 ,3.77254002,8.79819686,-2.04566832\C,0,5.69535468,8.69516706,-3.040791
 35\H,0,5.22669869,8.52801151,-4.02202293\H,0,6.58375129,8.04953702,-3.
 0231944\C,0,6.16160054,10.16493496,-2.97419135\H,0,6.64449171,10.32973
 757,-2.00007991\C,0,7.21438089,10.43748591,-4.06066277\H,0,6.78846215,
 10.29492628,-5.06221742\H,0,7.58961371,11.46562833,-4.00289688\H,0,8.0
 7195973,9.76158085,-3.96503743\C,0,4.99422765,11.15759217,-3.0940473\H
 ,0,4.46138399,11.01838876,-4.04379977\H,0,5.3556463,12.19183289,-3.065
 2984\H,0,4.26710823,11.04065766,-2.28401394\\Version=EM64L-G09RevD.01\
 HF=-1273.675749\RMSD=5.221e-07\Dipole=-0.5692042,0.0285533,0.4091739\Q
 uadrupole=-10.7421614,3.4841122,7.2580492,-7.4962289,-1.8670091,-4.642
 7135\PG=C01 [X(C27H46O3)]\\@


 MODELS ARE TO BE USED, NOT BELIEVED.

    -- PARAPHRASED BY H. THIEL IN "PRINCIPLES OF ECONOMETRICS"
 Job cpu time:       0 days  0 hours 12 minutes 19.0 seconds.
 File lengths (MBytes):  RWF=    159 Int=      0 D2E=      0 Chk=     11 Scr=      1
 Normal termination of Gaussian 09 at Thu Apr 27 15:55:43 2017.
