 Entering Gaussian System, Link 0=/home/michal/g09/g09
 Input=JOB2-gau_m1-5-3.com
 Output=JOB2-gau_m1-5-3.log
 Initial command:
 /home/michal/g09/l1.exe "/home/michal/gauss_scratch/Gau-29127.inp" -scrdir="/home/michal/gauss_scratch/"
 Entering Link 1 = /home/michal/g09/l1.exe PID=     29128.
  
 Copyright (c) 1988,1990,1992,1993,1995,1998,2003,2009,2013,
            Gaussian, Inc.  All Rights Reserved.
  
 This is part of the Gaussian(R) 09 program.  It is based on
 the Gaussian(R) 03 system (copyright 2003, Gaussian, Inc.),
 the Gaussian(R) 98 system (copyright 1998, Gaussian, Inc.),
 the Gaussian(R) 94 system (copyright 1995, Gaussian, Inc.),
 the Gaussian 92(TM) system (copyright 1992, Gaussian, Inc.),
 the Gaussian 90(TM) system (copyright 1990, Gaussian, Inc.),
 the Gaussian 88(TM) system (copyright 1988, Gaussian, Inc.),
 the Gaussian 86(TM) system (copyright 1986, Carnegie Mellon
 University), and the Gaussian 82(TM) system (copyright 1983,
 Carnegie Mellon University). Gaussian is a federally registered
 trademark of Gaussian, Inc.
  
 This software contains proprietary and confidential information,
 including trade secrets, belonging to Gaussian, Inc.
  
 This software is provided under written license and may be
 used, copied, transmitted, or stored only in accord with that
 written license.
  
 The following legend is applicable only to US Government
 contracts under FAR:
  
                    RESTRICTED RIGHTS LEGEND
  
 Use, reproduction and disclosure by the US Government is
 subject to restrictions as set forth in subparagraphs (a)
 and (c) of the Commercial Computer Software - Restricted
 Rights clause in FAR 52.227-19.
  
 Gaussian, Inc.
 340 Quinnipiac St., Bldg. 40, Wallingford CT 06492
  
  
 ---------------------------------------------------------------
 Warning -- This program may not be used in any manner that
 competes with the business of Gaussian, Inc. or will provide
 assistance to any competitor of Gaussian, Inc.  The licensee
 of this program is prohibited from giving any competitor of
 Gaussian, Inc. access to this program.  By using this program,
 the user acknowledges that Gaussian, Inc. is engaged in the
 business of creating and licensing software in the field of
 computational chemistry and represents and warrants to the
 licensee that it is not a competitor of Gaussian, Inc. and that
 it will not use this program in any manner prohibited above.
 ---------------------------------------------------------------
  

 Cite this work as:
 Gaussian 09, Revision D.01,
 M. J. Frisch, G. W. Trucks, H. B. Schlegel, G. E. Scuseria, 
 M. A. Robb, J. R. Cheeseman, G. Scalmani, V. Barone, B. Mennucci, 
 G. A. Petersson, H. Nakatsuji, M. Caricato, X. Li, H. P. Hratchian, 
 A. F. Izmaylov, J. Bloino, G. Zheng, J. L. Sonnenberg, M. Hada, 
 M. Ehara, K. Toyota, R. Fukuda, J. Hasegawa, M. Ishida, T. Nakajima, 
 Y. Honda, O. Kitao, H. Nakai, T. Vreven, J. A. Montgomery, Jr., 
 J. E. Peralta, F. Ogliaro, M. Bearpark, J. J. Heyd, E. Brothers, 
 K. N. Kudin, V. N. Staroverov, T. Keith, R. Kobayashi, J. Normand, 
 K. Raghavachari, A. Rendell, J. C. Burant, S. S. Iyengar, J. Tomasi, 
 M. Cossi, N. Rega, J. M. Millam, M. Klene, J. E. Knox, J. B. Cross, 
 V. Bakken, C. Adamo, J. Jaramillo, R. Gomperts, R. E. Stratmann, 
 O. Yazyev, A. J. Austin, R. Cammi, C. Pomelli, J. W. Ochterski, 
 R. L. Martin, K. Morokuma, V. G. Zakrzewski, G. A. Voth, 
 P. Salvador, J. J. Dannenberg, S. Dapprich, A. D. Daniels, 
 O. Farkas, J. B. Foresman, J. V. Ortiz, J. Cioslowski, 
 and D. J. Fox, Gaussian, Inc., Wallingford CT, 2013.
 
 ******************************************
 Gaussian 09:  EM64L-G09RevD.01 24-Apr-2013
                27-Apr-2017 
 ******************************************
 %Mem=256MB
 %NProc=12
 Will use up to   12 processors via shared memory.
 ----------------------------------------------------------------------
 #P HF/6-31G* SCF(Conver=6) NoSymm Test Pop=mk IOp(6/33=2) GFInput GFPr
 int
 ----------------------------------------------------------------------
 1/38=1/1;
 2/12=2,15=1,17=6,18=5,40=1/2;
 3/5=1,6=6,7=1,11=9,16=1,24=110,25=1,30=1/1,2,3;
 4//1;
 5/5=2,6=6,38=5/2;
 6/7=2,8=2,9=2,10=2,15=8,20=1,28=1,33=2/1,2;
 99/5=1,9=1/99;
 Leave Link    1 at Thu Apr 27 15:13:07 2017, MaxMem=    33554432 cpu:         0.6
 (Enter /home/michal/g09/l101.exe)
 ----------------------------------------------
 MEP - Input generated by R.E.D.-III.x MOLECULE
 ----------------------------------------------
 Symbolic Z-matrix:
 Charge =  0 Multiplicity = 1
 C                    -1.00451   1.97805   1.69201 
 H                    -0.99039   0.99776   2.18391 
 C                     0.32516   2.69481   1.96678 
 H                     0.48076   2.78656   3.04636 
 H                     0.23737   3.71989   1.5714 
 C                     1.51158   2.00515   1.32072 
 C                     1.39871   1.65341  -0.16674 
 C                    -0.00317   1.01571  -0.4194 
 H                     0.        0.        0. 
 H                    -0.16316   0.90534  -1.49694 
 C                    -1.1881    1.78232   0.18787 
 H                    -1.29571   2.76702  -0.29092 
 H                    -2.12085   1.23851   0. 
 C                     2.60845   1.73484   2.04109 
 H                     2.62785   1.98036   3.10346 
 C                     3.86932   1.11707   1.51217 
 H                     4.02064   0.13315   1.98535 
 C                     3.91345   0.97011  -0.01643 
 H                     4.21466   1.94383  -0.41781 
 C                     2.50015   0.60349  -0.54872 
 H                     2.21258  -0.32577  -0.02926 
 C                     2.53445   0.27429  -2.05842 
 H                     2.70537   1.19098  -2.63325 
 H                     1.55582  -0.10294  -2.37488 
 C                     3.60428  -0.76253  -2.45222 
 H                     3.35726  -1.73261  -1.99689 
 H                     3.5612   -0.90877  -3.53589 
 C                     5.01265  -0.34295  -1.98568 
 C                     4.92222  -0.10875  -0.44936 
 H                     4.53814  -1.05901  -0.03778 
 C                     6.38797   0.        0. 
 H                     6.51921  -0.22861   1.0607 
 H                     6.76025   1.01998  -0.13997 
 C                     7.12799  -1.00713  -0.92068 
 H                     8.01214  -0.54332  -1.37454 
 H                     7.4909   -1.86874  -0.35209 
 C                     6.1172   -1.45624  -2.03019 
 H                     5.62788  -2.38295  -1.6896 
 C                     5.48933   0.91698  -2.74472 
 H                     4.84665   1.78189  -2.5621 
 H                     6.50469   1.20627  -2.45876 
 H                     5.49258   0.73918  -3.82515 
 C                     6.81653  -1.79113  -3.3738 
 H                     7.37025  -0.89573  -3.69525 
 C                     5.83294  -2.17027  -4.49534 
 H                     5.18691  -3.00127  -4.18507 
 H                     6.36394  -2.48419  -5.39893 
 H                     5.18869  -1.33555  -4.78026 
 C                     1.53531   2.9602   -0.99267 
 H                     1.31728   2.78617  -2.05087 
 H                     0.84057   3.72895  -0.64334 
 H                     2.544     3.37518  -0.91079 
 O                     5.02857   1.80933   2.04158 
 O                     5.05903   3.16658   1.50945 
 H                     4.7268    3.67118   2.26992 
 O                    -2.10777   2.65705   2.29754 
 H                    -2.20003   3.52767   1.88558 
 C                     7.85628  -2.92132  -3.16807 
 H                     8.45238  -2.70846  -2.2737 
 H                     7.31954  -3.85963  -2.95877 
 C                     8.83062  -3.14338  -4.33632 
 H                     8.2786   -3.41645  -5.24236 
 H                     9.34337  -2.19592  -4.56047 
 C                     9.88085  -4.22231  -4.03123 
 H                     9.37364  -5.18155  -3.84481 
 H                     10.38815  -3.96075  -3.09155 
 C                     10.95308  -4.43143  -5.12007 
 H                     11.41878  -3.45376  -5.31938 
 C                     12.05346  -5.37948  -4.61723 
 H                     11.64263  -6.37372  -4.39916 
 H                     12.84412  -5.50462  -5.36585 
 H                     12.51728  -5.00251  -3.69851 
 C                     10.36147  -4.9494   -6.44121 
 H                     9.85917  -5.91388  -6.28988 
 H                     11.14788  -5.09965  -7.18969 
 H                     9.63042  -4.25509  -6.86726 
 
 NAtoms=     76 NQM=       76 NQMF=       0 NMMI=      0 NMMIF=      0
                NMic=       0 NMicF=      0.
                    Isotopes and Nuclear Properties:
 (Nuclear quadrupole moments (NQMom) in fm**2, nuclear magnetic moments (NMagM)
  in nuclear magnetons)

  Atom         1           2           3           4           5           6           7           8           9          10
 IAtWgt=          12           1          12           1           1          12          12          12           1           1
 AtmWgt=  12.0000000   1.0078250  12.0000000   1.0078250   1.0078250  12.0000000  12.0000000  12.0000000   1.0078250   1.0078250
 NucSpn=           0           1           0           1           1           0           0           0           1           1
 AtZEff=   0.0000000   0.0000000   0.0000000   0.0000000   0.0000000   0.0000000   0.0000000   0.0000000   0.0000000   0.0000000
 NQMom=    0.0000000   0.0000000   0.0000000   0.0000000   0.0000000   0.0000000   0.0000000   0.0000000   0.0000000   0.0000000
 NMagM=    0.0000000   2.7928460   0.0000000   2.7928460   2.7928460   0.0000000   0.0000000   0.0000000   2.7928460   2.7928460
 AtZNuc=   6.0000000   1.0000000   6.0000000   1.0000000   1.0000000   6.0000000   6.0000000   6.0000000   1.0000000   1.0000000

  Atom        11          12          13          14          15          16          17          18          19          20
 IAtWgt=          12           1           1          12           1          12           1          12           1          12
 AtmWgt=  12.0000000   1.0078250   1.0078250  12.0000000   1.0078250  12.0000000   1.0078250  12.0000000   1.0078250  12.0000000
 NucSpn=           0           1           1           0           1           0           1           0           1           0
 AtZEff=   0.0000000   0.0000000   0.0000000   0.0000000   0.0000000   0.0000000   0.0000000   0.0000000   0.0000000   0.0000000
 NQMom=    0.0000000   0.0000000   0.0000000   0.0000000   0.0000000   0.0000000   0.0000000   0.0000000   0.0000000   0.0000000
 NMagM=    0.0000000   2.7928460   2.7928460   0.0000000   2.7928460   0.0000000   2.7928460   0.0000000   2.7928460   0.0000000
 AtZNuc=   6.0000000   1.0000000   1.0000000   6.0000000   1.0000000   6.0000000   1.0000000   6.0000000   1.0000000   6.0000000

  Atom        21          22          23          24          25          26          27          28          29          30
 IAtWgt=           1          12           1           1          12           1           1          12          12           1
 AtmWgt=   1.0078250  12.0000000   1.0078250   1.0078250  12.0000000   1.0078250   1.0078250  12.0000000  12.0000000   1.0078250
 NucSpn=           1           0           1           1           0           1           1           0           0           1
 AtZEff=   0.0000000   0.0000000   0.0000000   0.0000000   0.0000000   0.0000000   0.0000000   0.0000000   0.0000000   0.0000000
 NQMom=    0.0000000   0.0000000   0.0000000   0.0000000   0.0000000   0.0000000   0.0000000   0.0000000   0.0000000   0.0000000
 NMagM=    2.7928460   0.0000000   2.7928460   2.7928460   0.0000000   2.7928460   2.7928460   0.0000000   0.0000000   2.7928460
 AtZNuc=   1.0000000   6.0000000   1.0000000   1.0000000   6.0000000   1.0000000   1.0000000   6.0000000   6.0000000   1.0000000

  Atom        31          32          33          34          35          36          37          38          39          40
 IAtWgt=          12           1           1          12           1           1          12           1          12           1
 AtmWgt=  12.0000000   1.0078250   1.0078250  12.0000000   1.0078250   1.0078250  12.0000000   1.0078250  12.0000000   1.0078250
 NucSpn=           0           1           1           0           1           1           0           1           0           1
 AtZEff=   0.0000000   0.0000000   0.0000000   0.0000000   0.0000000   0.0000000   0.0000000   0.0000000   0.0000000   0.0000000
 NQMom=    0.0000000   0.0000000   0.0000000   0.0000000   0.0000000   0.0000000   0.0000000   0.0000000   0.0000000   0.0000000
 NMagM=    0.0000000   2.7928460   2.7928460   0.0000000   2.7928460   2.7928460   0.0000000   2.7928460   0.0000000   2.7928460
 AtZNuc=   6.0000000   1.0000000   1.0000000   6.0000000   1.0000000   1.0000000   6.0000000   1.0000000   6.0000000   1.0000000

  Atom        41          42          43          44          45          46          47          48          49          50
 IAtWgt=           1           1          12           1          12           1           1           1          12           1
 AtmWgt=   1.0078250   1.0078250  12.0000000   1.0078250  12.0000000   1.0078250   1.0078250   1.0078250  12.0000000   1.0078250
 NucSpn=           1           1           0           1           0           1           1           1           0           1
 AtZEff=   0.0000000   0.0000000   0.0000000   0.0000000   0.0000000   0.0000000   0.0000000   0.0000000   0.0000000   0.0000000
 NQMom=    0.0000000   0.0000000   0.0000000   0.0000000   0.0000000   0.0000000   0.0000000   0.0000000   0.0000000   0.0000000
 NMagM=    2.7928460   2.7928460   0.0000000   2.7928460   0.0000000   2.7928460   2.7928460   2.7928460   0.0000000   2.7928460
 AtZNuc=   1.0000000   1.0000000   6.0000000   1.0000000   6.0000000   1.0000000   1.0000000   1.0000000   6.0000000   1.0000000

  Atom        51          52          53          54          55          56          57          58          59          60
 IAtWgt=           1           1          16          16           1          16           1          12           1           1
 AtmWgt=   1.0078250   1.0078250  15.9949146  15.9949146   1.0078250  15.9949146   1.0078250  12.0000000   1.0078250   1.0078250
 NucSpn=           1           1           0           0           1           0           1           0           1           1
 AtZEff=   0.0000000   0.0000000   0.0000000   0.0000000   0.0000000   0.0000000   0.0000000   0.0000000   0.0000000   0.0000000
 NQMom=    0.0000000   0.0000000   0.0000000   0.0000000   0.0000000   0.0000000   0.0000000   0.0000000   0.0000000   0.0000000
 NMagM=    2.7928460   2.7928460   0.0000000   0.0000000   2.7928460   0.0000000   2.7928460   0.0000000   2.7928460   2.7928460
 AtZNuc=   1.0000000   1.0000000   8.0000000   8.0000000   1.0000000   8.0000000   1.0000000   6.0000000   1.0000000   1.0000000

  Atom        61          62          63          64          65          66          67          68          69          70
 IAtWgt=          12           1           1          12           1           1          12           1          12           1
 AtmWgt=  12.0000000   1.0078250   1.0078250  12.0000000   1.0078250   1.0078250  12.0000000   1.0078250  12.0000000   1.0078250
 NucSpn=           0           1           1           0           1           1           0           1           0           1
 AtZEff=   0.0000000   0.0000000   0.0000000   0.0000000   0.0000000   0.0000000   0.0000000   0.0000000   0.0000000   0.0000000
 NQMom=    0.0000000   0.0000000   0.0000000   0.0000000   0.0000000   0.0000000   0.0000000   0.0000000   0.0000000   0.0000000
 NMagM=    0.0000000   2.7928460   2.7928460   0.0000000   2.7928460   2.7928460   0.0000000   2.7928460   0.0000000   2.7928460
 AtZNuc=   6.0000000   1.0000000   1.0000000   6.0000000   1.0000000   1.0000000   6.0000000   1.0000000   6.0000000   1.0000000

  Atom        71          72          73          74          75          76
 IAtWgt=           1           1          12           1           1           1
 AtmWgt=   1.0078250   1.0078250  12.0000000   1.0078250   1.0078250   1.0078250
 NucSpn=           1           1           0           1           1           1
 AtZEff=   0.0000000   0.0000000   0.0000000   0.0000000   0.0000000   0.0000000
 NQMom=    0.0000000   0.0000000   0.0000000   0.0000000   0.0000000   0.0000000
 NMagM=    2.7928460   2.7928460   0.0000000   2.7928460   2.7928460   2.7928460
 AtZNuc=   1.0000000   1.0000000   6.0000000   1.0000000   1.0000000   1.0000000
 Leave Link  101 at Thu Apr 27 15:13:07 2017, MaxMem=    33554432 cpu:         1.0
 (Enter /home/michal/g09/l202.exe)
 Symmetry turned off by external request.
 Stoichiometry    C27H46O3
 Framework group  C1[X(C27H46O3)]
 Deg. of freedom   222
 Full point group                 C1      NOp   1
                          Input orientation:                          
 ---------------------------------------------------------------------
 Center     Atomic      Atomic             Coordinates (Angstroms)
 Number     Number       Type             X           Y           Z
 ---------------------------------------------------------------------
      1          6           0       -1.004513    1.978053    1.692006
      2          1           0       -0.990393    0.997759    2.183915
      3          6           0        0.325161    2.694814    1.966778
      4          1           0        0.480757    2.786565    3.046360
      5          1           0        0.237371    3.719888    1.571401
      6          6           0        1.511579    2.005154    1.320725
      7          6           0        1.398710    1.653406   -0.166743
      8          6           0       -0.003173    1.015710   -0.419396
      9          1           0        0.000000    0.000000    0.000000
     10          1           0       -0.163157    0.905336   -1.496935
     11          6           0       -1.188096    1.782317    0.187870
     12          1           0       -1.295712    2.767018   -0.290924
     13          1           0       -2.120845    1.238508    0.000000
     14          6           0        2.608449    1.734838    2.041090
     15          1           0        2.627847    1.980362    3.103464
     16          6           0        3.869318    1.117066    1.512168
     17          1           0        4.020645    0.133153    1.985352
     18          6           0        3.913453    0.970108   -0.016425
     19          1           0        4.214659    1.943831   -0.417815
     20          6           0        2.500147    0.603485   -0.548724
     21          1           0        2.212579   -0.325773   -0.029258
     22          6           0        2.534445    0.274294   -2.058419
     23          1           0        2.705367    1.190980   -2.633250
     24          1           0        1.555824   -0.102937   -2.374877
     25          6           0        3.604280   -0.762534   -2.452223
     26          1           0        3.357261   -1.732608   -1.996885
     27          1           0        3.561200   -0.908770   -3.535892
     28          6           0        5.012653   -0.342953   -1.985684
     29          6           0        4.922216   -0.108752   -0.449363
     30          1           0        4.538136   -1.059006   -0.037778
     31          6           0        6.387966    0.000000    0.000000
     32          1           0        6.519211   -0.228609    1.060703
     33          1           0        6.760255    1.019977   -0.139971
     34          6           0        7.127991   -1.007133   -0.920685
     35          1           0        8.012138   -0.543317   -1.374541
     36          1           0        7.490898   -1.868737   -0.352085
     37          6           0        6.117203   -1.456235   -2.030194
     38          1           0        5.627885   -2.382946   -1.689605
     39          6           0        5.489334    0.916985   -2.744719
     40          1           0        4.846646    1.781893   -2.562105
     41          1           0        6.504693    1.206269   -2.458762
     42          1           0        5.492585    0.739180   -3.825150
     43          6           0        6.816529   -1.791130   -3.373804
     44          1           0        7.370254   -0.895731   -3.695247
     45          6           0        5.832935   -2.170268   -4.495340
     46          1           0        5.186905   -3.001265   -4.185069
     47          1           0        6.363939   -2.484191   -5.398927
     48          1           0        5.188690   -1.335546   -4.780258
     49          6           0        1.535309    2.960197   -0.992668
     50          1           0        1.317283    2.786166   -2.050870
     51          1           0        0.840575    3.728952   -0.643341
     52          1           0        2.544005    3.375179   -0.910790
     53          8           0        5.028567    1.809327    2.041585
     54          8           0        5.059029    3.166577    1.509447
     55          1           0        4.726804    3.671182    2.269918
     56          8           0       -2.107774    2.657051    2.297538
     57          1           0       -2.200035    3.527669    1.885581
     58          6           0        7.856282   -2.921317   -3.168065
     59          1           0        8.452384   -2.708461   -2.273698
     60          1           0        7.319543   -3.859625   -2.958774
     61          6           0        8.830620   -3.143385   -4.336320
     62          1           0        8.278600   -3.416446   -5.242358
     63          1           0        9.343367   -2.195925   -4.560466
     64          6           0        9.880846   -4.222311   -4.031226
     65          1           0        9.373639   -5.181546   -3.844815
     66          1           0       10.388154   -3.960754   -3.091549
     67          6           0       10.953078   -4.431430   -5.120065
     68          1           0       11.418783   -3.453762   -5.319383
     69          6           0       12.053458   -5.379485   -4.617233
     70          1           0       11.642632   -6.373716   -4.399157
     71          1           0       12.844125   -5.504620   -5.365849
     72          1           0       12.517281   -5.002510   -3.698510
     73          6           0       10.361471   -4.949401   -6.441205
     74          1           0        9.859167   -5.913878   -6.289876
     75          1           0       11.147880   -5.099646   -7.189690
     76          1           0        9.630421   -4.255091   -6.867261
 ---------------------------------------------------------------------
 Rotational constants (GHZ):      0.4156372      0.0503978      0.0471128
 Leave Link  202 at Thu Apr 27 15:13:07 2017, MaxMem=    33554432 cpu:         0.6
 (Enter /home/michal/g09/l301.exe)
 Standard basis: 6-31G(d) (6D, 7F)
 Ernie: Thresh=  0.10000D-02 Tol=  0.10000D-05 Strict=F.
 AO basis set in the form of general basis input (Overlap normalization):
      1 0
 S   6 1.00       0.000000000000
      0.3047524880D+04  0.1834737132D-02
      0.4573695180D+03  0.1403732281D-01
      0.1039486850D+03  0.6884262226D-01
      0.2921015530D+02  0.2321844432D+00
      0.9286662960D+01  0.4679413484D+00
      0.3163926960D+01  0.3623119853D+00
 SP   3 1.00       0.000000000000
      0.7868272350D+01 -0.1193324198D+00  0.6899906659D-01
      0.1881288540D+01 -0.1608541517D+00  0.3164239610D+00
      0.5442492580D+00  0.1143456438D+01  0.7443082909D+00
 SP   1 1.00       0.000000000000
      0.1687144782D+00  0.1000000000D+01  0.1000000000D+01
 D   1 1.00       0.000000000000
      0.8000000000D+00  0.1000000000D+01
 ****
      2 0
 S   3 1.00       0.000000000000
      0.1873113696D+02  0.3349460434D-01
      0.2825394365D+01  0.2347269535D+00
      0.6401216923D+00  0.8137573261D+00
 S   1 1.00       0.000000000000
      0.1612777588D+00  0.1000000000D+01
 ****
      3 0
 S   6 1.00       0.000000000000
      0.3047524880D+04  0.1834737132D-02
      0.4573695180D+03  0.1403732281D-01
      0.1039486850D+03  0.6884262226D-01
      0.2921015530D+02  0.2321844432D+00
      0.9286662960D+01  0.4679413484D+00
      0.3163926960D+01  0.3623119853D+00
 SP   3 1.00       0.000000000000
      0.7868272350D+01 -0.1193324198D+00  0.6899906659D-01
      0.1881288540D+01 -0.1608541517D+00  0.3164239610D+00
      0.5442492580D+00  0.1143456438D+01  0.7443082909D+00
 SP   1 1.00       0.000000000000
      0.1687144782D+00  0.1000000000D+01  0.1000000000D+01
 D   1 1.00       0.000000000000
      0.8000000000D+00  0.1000000000D+01
 ****
      4 0
 S   3 1.00       0.000000000000
      0.1873113696D+02  0.3349460434D-01
      0.2825394365D+01  0.2347269535D+00
      0.6401216923D+00  0.8137573261D+00
 S   1 1.00       0.000000000000
      0.1612777588D+00  0.1000000000D+01
 ****
      5 0
 S   3 1.00       0.000000000000
      0.1873113696D+02  0.3349460434D-01
      0.2825394365D+01  0.2347269535D+00
      0.6401216923D+00  0.8137573261D+00
 S   1 1.00       0.000000000000
      0.1612777588D+00  0.1000000000D+01
 ****
      6 0
 S   6 1.00       0.000000000000
      0.3047524880D+04  0.1834737132D-02
      0.4573695180D+03  0.1403732281D-01
      0.1039486850D+03  0.6884262226D-01
      0.2921015530D+02  0.2321844432D+00
      0.9286662960D+01  0.4679413484D+00
      0.3163926960D+01  0.3623119853D+00
 SP   3 1.00       0.000000000000
      0.7868272350D+01 -0.1193324198D+00  0.6899906659D-01
      0.1881288540D+01 -0.1608541517D+00  0.3164239610D+00
      0.5442492580D+00  0.1143456438D+01  0.7443082909D+00
 SP   1 1.00       0.000000000000
      0.1687144782D+00  0.1000000000D+01  0.1000000000D+01
 D   1 1.00       0.000000000000
      0.8000000000D+00  0.1000000000D+01
 ****
      7 0
 S   6 1.00       0.000000000000
      0.3047524880D+04  0.1834737132D-02
      0.4573695180D+03  0.1403732281D-01
      0.1039486850D+03  0.6884262226D-01
      0.2921015530D+02  0.2321844432D+00
      0.9286662960D+01  0.4679413484D+00
      0.3163926960D+01  0.3623119853D+00
 SP   3 1.00       0.000000000000
      0.7868272350D+01 -0.1193324198D+00  0.6899906659D-01
      0.1881288540D+01 -0.1608541517D+00  0.3164239610D+00
      0.5442492580D+00  0.1143456438D+01  0.7443082909D+00
 SP   1 1.00       0.000000000000
      0.1687144782D+00  0.1000000000D+01  0.1000000000D+01
 D   1 1.00       0.000000000000
      0.8000000000D+00  0.1000000000D+01
 ****
      8 0
 S   6 1.00       0.000000000000
      0.3047524880D+04  0.1834737132D-02
      0.4573695180D+03  0.1403732281D-01
      0.1039486850D+03  0.6884262226D-01
      0.2921015530D+02  0.2321844432D+00
      0.9286662960D+01  0.4679413484D+00
      0.3163926960D+01  0.3623119853D+00
 SP   3 1.00       0.000000000000
      0.7868272350D+01 -0.1193324198D+00  0.6899906659D-01
      0.1881288540D+01 -0.1608541517D+00  0.3164239610D+00
      0.5442492580D+00  0.1143456438D+01  0.7443082909D+00
 SP   1 1.00       0.000000000000
      0.1687144782D+00  0.1000000000D+01  0.1000000000D+01
 D   1 1.00       0.000000000000
      0.8000000000D+00  0.1000000000D+01
 ****
      9 0
 S   3 1.00       0.000000000000
      0.1873113696D+02  0.3349460434D-01
      0.2825394365D+01  0.2347269535D+00
      0.6401216923D+00  0.8137573261D+00
 S   1 1.00       0.000000000000
      0.1612777588D+00  0.1000000000D+01
 ****
     10 0
 S   3 1.00       0.000000000000
      0.1873113696D+02  0.3349460434D-01
      0.2825394365D+01  0.2347269535D+00
      0.6401216923D+00  0.8137573261D+00
 S   1 1.00       0.000000000000
      0.1612777588D+00  0.1000000000D+01
 ****
     11 0
 S   6 1.00       0.000000000000
      0.3047524880D+04  0.1834737132D-02
      0.4573695180D+03  0.1403732281D-01
      0.1039486850D+03  0.6884262226D-01
      0.2921015530D+02  0.2321844432D+00
      0.9286662960D+01  0.4679413484D+00
      0.3163926960D+01  0.3623119853D+00
 SP   3 1.00       0.000000000000
      0.7868272350D+01 -0.1193324198D+00  0.6899906659D-01
      0.1881288540D+01 -0.1608541517D+00  0.3164239610D+00
      0.5442492580D+00  0.1143456438D+01  0.7443082909D+00
 SP   1 1.00       0.000000000000
      0.1687144782D+00  0.1000000000D+01  0.1000000000D+01
 D   1 1.00       0.000000000000
      0.8000000000D+00  0.1000000000D+01
 ****
     12 0
 S   3 1.00       0.000000000000
      0.1873113696D+02  0.3349460434D-01
      0.2825394365D+01  0.2347269535D+00
      0.6401216923D+00  0.8137573261D+00
 S   1 1.00       0.000000000000
      0.1612777588D+00  0.1000000000D+01
 ****
     13 0
 S   3 1.00       0.000000000000
      0.1873113696D+02  0.3349460434D-01
      0.2825394365D+01  0.2347269535D+00
      0.6401216923D+00  0.8137573261D+00
 S   1 1.00       0.000000000000
      0.1612777588D+00  0.1000000000D+01
 ****
     14 0
 S   6 1.00       0.000000000000
      0.3047524880D+04  0.1834737132D-02
      0.4573695180D+03  0.1403732281D-01
      0.1039486850D+03  0.6884262226D-01
      0.2921015530D+02  0.2321844432D+00
      0.9286662960D+01  0.4679413484D+00
      0.3163926960D+01  0.3623119853D+00
 SP   3 1.00       0.000000000000
      0.7868272350D+01 -0.1193324198D+00  0.6899906659D-01
      0.1881288540D+01 -0.1608541517D+00  0.3164239610D+00
      0.5442492580D+00  0.1143456438D+01  0.7443082909D+00
 SP   1 1.00       0.000000000000
      0.1687144782D+00  0.1000000000D+01  0.1000000000D+01
 D   1 1.00       0.000000000000
      0.8000000000D+00  0.1000000000D+01
 ****
     15 0
 S   3 1.00       0.000000000000
      0.1873113696D+02  0.3349460434D-01
      0.2825394365D+01  0.2347269535D+00
      0.6401216923D+00  0.8137573261D+00
 S   1 1.00       0.000000000000
      0.1612777588D+00  0.1000000000D+01
 ****
     16 0
 S   6 1.00       0.000000000000
      0.3047524880D+04  0.1834737132D-02
      0.4573695180D+03  0.1403732281D-01
      0.1039486850D+03  0.6884262226D-01
      0.2921015530D+02  0.2321844432D+00
      0.9286662960D+01  0.4679413484D+00
      0.3163926960D+01  0.3623119853D+00
 SP   3 1.00       0.000000000000
      0.7868272350D+01 -0.1193324198D+00  0.6899906659D-01
      0.1881288540D+01 -0.1608541517D+00  0.3164239610D+00
      0.5442492580D+00  0.1143456438D+01  0.7443082909D+00
 SP   1 1.00       0.000000000000
      0.1687144782D+00  0.1000000000D+01  0.1000000000D+01
 D   1 1.00       0.000000000000
      0.8000000000D+00  0.1000000000D+01
 ****
     17 0
 S   3 1.00       0.000000000000
      0.1873113696D+02  0.3349460434D-01
      0.2825394365D+01  0.2347269535D+00
      0.6401216923D+00  0.8137573261D+00
 S   1 1.00       0.000000000000
      0.1612777588D+00  0.1000000000D+01
 ****
     18 0
 S   6 1.00       0.000000000000
      0.3047524880D+04  0.1834737132D-02
      0.4573695180D+03  0.1403732281D-01
      0.1039486850D+03  0.6884262226D-01
      0.2921015530D+02  0.2321844432D+00
      0.9286662960D+01  0.4679413484D+00
      0.3163926960D+01  0.3623119853D+00
 SP   3 1.00       0.000000000000
      0.7868272350D+01 -0.1193324198D+00  0.6899906659D-01
      0.1881288540D+01 -0.1608541517D+00  0.3164239610D+00
      0.5442492580D+00  0.1143456438D+01  0.7443082909D+00
 SP   1 1.00       0.000000000000
      0.1687144782D+00  0.1000000000D+01  0.1000000000D+01
 D   1 1.00       0.000000000000
      0.8000000000D+00  0.1000000000D+01
 ****
     19 0
 S   3 1.00       0.000000000000
      0.1873113696D+02  0.3349460434D-01
      0.2825394365D+01  0.2347269535D+00
      0.6401216923D+00  0.8137573261D+00
 S   1 1.00       0.000000000000
      0.1612777588D+00  0.1000000000D+01
 ****
     20 0
 S   6 1.00       0.000000000000
      0.3047524880D+04  0.1834737132D-02
      0.4573695180D+03  0.1403732281D-01
      0.1039486850D+03  0.6884262226D-01
      0.2921015530D+02  0.2321844432D+00
      0.9286662960D+01  0.4679413484D+00
      0.3163926960D+01  0.3623119853D+00
 SP   3 1.00       0.000000000000
      0.7868272350D+01 -0.1193324198D+00  0.6899906659D-01
      0.1881288540D+01 -0.1608541517D+00  0.3164239610D+00
      0.5442492580D+00  0.1143456438D+01  0.7443082909D+00
 SP   1 1.00       0.000000000000
      0.1687144782D+00  0.1000000000D+01  0.1000000000D+01
 D   1 1.00       0.000000000000
      0.8000000000D+00  0.1000000000D+01
 ****
     21 0
 S   3 1.00       0.000000000000
      0.1873113696D+02  0.3349460434D-01
      0.2825394365D+01  0.2347269535D+00
      0.6401216923D+00  0.8137573261D+00
 S   1 1.00       0.000000000000
      0.1612777588D+00  0.1000000000D+01
 ****
     22 0
 S   6 1.00       0.000000000000
      0.3047524880D+04  0.1834737132D-02
      0.4573695180D+03  0.1403732281D-01
      0.1039486850D+03  0.6884262226D-01
      0.2921015530D+02  0.2321844432D+00
      0.9286662960D+01  0.4679413484D+00
      0.3163926960D+01  0.3623119853D+00
 SP   3 1.00       0.000000000000
      0.7868272350D+01 -0.1193324198D+00  0.6899906659D-01
      0.1881288540D+01 -0.1608541517D+00  0.3164239610D+00
      0.5442492580D+00  0.1143456438D+01  0.7443082909D+00
 SP   1 1.00       0.000000000000
      0.1687144782D+00  0.1000000000D+01  0.1000000000D+01
 D   1 1.00       0.000000000000
      0.8000000000D+00  0.1000000000D+01
 ****
     23 0
 S   3 1.00       0.000000000000
      0.1873113696D+02  0.3349460434D-01
      0.2825394365D+01  0.2347269535D+00
      0.6401216923D+00  0.8137573261D+00
 S   1 1.00       0.000000000000
      0.1612777588D+00  0.1000000000D+01
 ****
     24 0
 S   3 1.00       0.000000000000
      0.1873113696D+02  0.3349460434D-01
      0.2825394365D+01  0.2347269535D+00
      0.6401216923D+00  0.8137573261D+00
 S   1 1.00       0.000000000000
      0.1612777588D+00  0.1000000000D+01
 ****
     25 0
 S   6 1.00       0.000000000000
      0.3047524880D+04  0.1834737132D-02
      0.4573695180D+03  0.1403732281D-01
      0.1039486850D+03  0.6884262226D-01
      0.2921015530D+02  0.2321844432D+00
      0.9286662960D+01  0.4679413484D+00
      0.3163926960D+01  0.3623119853D+00
 SP   3 1.00       0.000000000000
      0.7868272350D+01 -0.1193324198D+00  0.6899906659D-01
      0.1881288540D+01 -0.1608541517D+00  0.3164239610D+00
      0.5442492580D+00  0.1143456438D+01  0.7443082909D+00
 SP   1 1.00       0.000000000000
      0.1687144782D+00  0.1000000000D+01  0.1000000000D+01
 D   1 1.00       0.000000000000
      0.8000000000D+00  0.1000000000D+01
 ****
     26 0
 S   3 1.00       0.000000000000
      0.1873113696D+02  0.3349460434D-01
      0.2825394365D+01  0.2347269535D+00
      0.6401216923D+00  0.8137573261D+00
 S   1 1.00       0.000000000000
      0.1612777588D+00  0.1000000000D+01
 ****
     27 0
 S   3 1.00       0.000000000000
      0.1873113696D+02  0.3349460434D-01
      0.2825394365D+01  0.2347269535D+00
      0.6401216923D+00  0.8137573261D+00
 S   1 1.00       0.000000000000
      0.1612777588D+00  0.1000000000D+01
 ****
     28 0
 S   6 1.00       0.000000000000
      0.3047524880D+04  0.1834737132D-02
      0.4573695180D+03  0.1403732281D-01
      0.1039486850D+03  0.6884262226D-01
      0.2921015530D+02  0.2321844432D+00
      0.9286662960D+01  0.4679413484D+00
      0.3163926960D+01  0.3623119853D+00
 SP   3 1.00       0.000000000000
      0.7868272350D+01 -0.1193324198D+00  0.6899906659D-01
      0.1881288540D+01 -0.1608541517D+00  0.3164239610D+00
      0.5442492580D+00  0.1143456438D+01  0.7443082909D+00
 SP   1 1.00       0.000000000000
      0.1687144782D+00  0.1000000000D+01  0.1000000000D+01
 D   1 1.00       0.000000000000
      0.8000000000D+00  0.1000000000D+01
 ****
     29 0
 S   6 1.00       0.000000000000
      0.3047524880D+04  0.1834737132D-02
      0.4573695180D+03  0.1403732281D-01
      0.1039486850D+03  0.6884262226D-01
      0.2921015530D+02  0.2321844432D+00
      0.9286662960D+01  0.4679413484D+00
      0.3163926960D+01  0.3623119853D+00
 SP   3 1.00       0.000000000000
      0.7868272350D+01 -0.1193324198D+00  0.6899906659D-01
      0.1881288540D+01 -0.1608541517D+00  0.3164239610D+00
      0.5442492580D+00  0.1143456438D+01  0.7443082909D+00
 SP   1 1.00       0.000000000000
      0.1687144782D+00  0.1000000000D+01  0.1000000000D+01
 D   1 1.00       0.000000000000
      0.8000000000D+00  0.1000000000D+01
 ****
     30 0
 S   3 1.00       0.000000000000
      0.1873113696D+02  0.3349460434D-01
      0.2825394365D+01  0.2347269535D+00
      0.6401216923D+00  0.8137573261D+00
 S   1 1.00       0.000000000000
      0.1612777588D+00  0.1000000000D+01
 ****
     31 0
 S   6 1.00       0.000000000000
      0.3047524880D+04  0.1834737132D-02
      0.4573695180D+03  0.1403732281D-01
      0.1039486850D+03  0.6884262226D-01
      0.2921015530D+02  0.2321844432D+00
      0.9286662960D+01  0.4679413484D+00
      0.3163926960D+01  0.3623119853D+00
 SP   3 1.00       0.000000000000
      0.7868272350D+01 -0.1193324198D+00  0.6899906659D-01
      0.1881288540D+01 -0.1608541517D+00  0.3164239610D+00
      0.5442492580D+00  0.1143456438D+01  0.7443082909D+00
 SP   1 1.00       0.000000000000
      0.1687144782D+00  0.1000000000D+01  0.1000000000D+01
 D   1 1.00       0.000000000000
      0.8000000000D+00  0.1000000000D+01
 ****
     32 0
 S   3 1.00       0.000000000000
      0.1873113696D+02  0.3349460434D-01
      0.2825394365D+01  0.2347269535D+00
      0.6401216923D+00  0.8137573261D+00
 S   1 1.00       0.000000000000
      0.1612777588D+00  0.1000000000D+01
 ****
     33 0
 S   3 1.00       0.000000000000
      0.1873113696D+02  0.3349460434D-01
      0.2825394365D+01  0.2347269535D+00
      0.6401216923D+00  0.8137573261D+00
 S   1 1.00       0.000000000000
      0.1612777588D+00  0.1000000000D+01
 ****
     34 0
 S   6 1.00       0.000000000000
      0.3047524880D+04  0.1834737132D-02
      0.4573695180D+03  0.1403732281D-01
      0.1039486850D+03  0.6884262226D-01
      0.2921015530D+02  0.2321844432D+00
      0.9286662960D+01  0.4679413484D+00
      0.3163926960D+01  0.3623119853D+00
 SP   3 1.00       0.000000000000
      0.7868272350D+01 -0.1193324198D+00  0.6899906659D-01
      0.1881288540D+01 -0.1608541517D+00  0.3164239610D+00
      0.5442492580D+00  0.1143456438D+01  0.7443082909D+00
 SP   1 1.00       0.000000000000
      0.1687144782D+00  0.1000000000D+01  0.1000000000D+01
 D   1 1.00       0.000000000000
      0.8000000000D+00  0.1000000000D+01
 ****
     35 0
 S   3 1.00       0.000000000000
      0.1873113696D+02  0.3349460434D-01
      0.2825394365D+01  0.2347269535D+00
      0.6401216923D+00  0.8137573261D+00
 S   1 1.00       0.000000000000
      0.1612777588D+00  0.1000000000D+01
 ****
     36 0
 S   3 1.00       0.000000000000
      0.1873113696D+02  0.3349460434D-01
      0.2825394365D+01  0.2347269535D+00
      0.6401216923D+00  0.8137573261D+00
 S   1 1.00       0.000000000000
      0.1612777588D+00  0.1000000000D+01
 ****
     37 0
 S   6 1.00       0.000000000000
      0.3047524880D+04  0.1834737132D-02
      0.4573695180D+03  0.1403732281D-01
      0.1039486850D+03  0.6884262226D-01
      0.2921015530D+02  0.2321844432D+00
      0.9286662960D+01  0.4679413484D+00
      0.3163926960D+01  0.3623119853D+00
 SP   3 1.00       0.000000000000
      0.7868272350D+01 -0.1193324198D+00  0.6899906659D-01
      0.1881288540D+01 -0.1608541517D+00  0.3164239610D+00
      0.5442492580D+00  0.1143456438D+01  0.7443082909D+00
 SP   1 1.00       0.000000000000
      0.1687144782D+00  0.1000000000D+01  0.1000000000D+01
 D   1 1.00       0.000000000000
      0.8000000000D+00  0.1000000000D+01
 ****
     38 0
 S   3 1.00       0.000000000000
      0.1873113696D+02  0.3349460434D-01
      0.2825394365D+01  0.2347269535D+00
      0.6401216923D+00  0.8137573261D+00
 S   1 1.00       0.000000000000
      0.1612777588D+00  0.1000000000D+01
 ****
     39 0
 S   6 1.00       0.000000000000
      0.3047524880D+04  0.1834737132D-02
      0.4573695180D+03  0.1403732281D-01
      0.1039486850D+03  0.6884262226D-01
      0.2921015530D+02  0.2321844432D+00
      0.9286662960D+01  0.4679413484D+00
      0.3163926960D+01  0.3623119853D+00
 SP   3 1.00       0.000000000000
      0.7868272350D+01 -0.1193324198D+00  0.6899906659D-01
      0.1881288540D+01 -0.1608541517D+00  0.3164239610D+00
      0.5442492580D+00  0.1143456438D+01  0.7443082909D+00
 SP   1 1.00       0.000000000000
      0.1687144782D+00  0.1000000000D+01  0.1000000000D+01
 D   1 1.00       0.000000000000
      0.8000000000D+00  0.1000000000D+01
 ****
     40 0
 S   3 1.00       0.000000000000
      0.1873113696D+02  0.3349460434D-01
      0.2825394365D+01  0.2347269535D+00
      0.6401216923D+00  0.8137573261D+00
 S   1 1.00       0.000000000000
      0.1612777588D+00  0.1000000000D+01
 ****
     41 0
 S   3 1.00       0.000000000000
      0.1873113696D+02  0.3349460434D-01
      0.2825394365D+01  0.2347269535D+00
      0.6401216923D+00  0.8137573261D+00
 S   1 1.00       0.000000000000
      0.1612777588D+00  0.1000000000D+01
 ****
     42 0
 S   3 1.00       0.000000000000
      0.1873113696D+02  0.3349460434D-01
      0.2825394365D+01  0.2347269535D+00
      0.6401216923D+00  0.8137573261D+00
 S   1 1.00       0.000000000000
      0.1612777588D+00  0.1000000000D+01
 ****
     43 0
 S   6 1.00       0.000000000000
      0.3047524880D+04  0.1834737132D-02
      0.4573695180D+03  0.1403732281D-01
      0.1039486850D+03  0.6884262226D-01
      0.2921015530D+02  0.2321844432D+00
      0.9286662960D+01  0.4679413484D+00
      0.3163926960D+01  0.3623119853D+00
 SP   3 1.00       0.000000000000
      0.7868272350D+01 -0.1193324198D+00  0.6899906659D-01
      0.1881288540D+01 -0.1608541517D+00  0.3164239610D+00
      0.5442492580D+00  0.1143456438D+01  0.7443082909D+00
 SP   1 1.00       0.000000000000
      0.1687144782D+00  0.1000000000D+01  0.1000000000D+01
 D   1 1.00       0.000000000000
      0.8000000000D+00  0.1000000000D+01
 ****
     44 0
 S   3 1.00       0.000000000000
      0.1873113696D+02  0.3349460434D-01
      0.2825394365D+01  0.2347269535D+00
      0.6401216923D+00  0.8137573261D+00
 S   1 1.00       0.000000000000
      0.1612777588D+00  0.1000000000D+01
 ****
     45 0
 S   6 1.00       0.000000000000
      0.3047524880D+04  0.1834737132D-02
      0.4573695180D+03  0.1403732281D-01
      0.1039486850D+03  0.6884262226D-01
      0.2921015530D+02  0.2321844432D+00
      0.9286662960D+01  0.4679413484D+00
      0.3163926960D+01  0.3623119853D+00
 SP   3 1.00       0.000000000000
      0.7868272350D+01 -0.1193324198D+00  0.6899906659D-01
      0.1881288540D+01 -0.1608541517D+00  0.3164239610D+00
      0.5442492580D+00  0.1143456438D+01  0.7443082909D+00
 SP   1 1.00       0.000000000000
      0.1687144782D+00  0.1000000000D+01  0.1000000000D+01
 D   1 1.00       0.000000000000
      0.8000000000D+00  0.1000000000D+01
 ****
     46 0
 S   3 1.00       0.000000000000
      0.1873113696D+02  0.3349460434D-01
      0.2825394365D+01  0.2347269535D+00
      0.6401216923D+00  0.8137573261D+00
 S   1 1.00       0.000000000000
      0.1612777588D+00  0.1000000000D+01
 ****
     47 0
 S   3 1.00       0.000000000000
      0.1873113696D+02  0.3349460434D-01
      0.2825394365D+01  0.2347269535D+00
      0.6401216923D+00  0.8137573261D+00
 S   1 1.00       0.000000000000
      0.1612777588D+00  0.1000000000D+01
 ****
     48 0
 S   3 1.00       0.000000000000
      0.1873113696D+02  0.3349460434D-01
      0.2825394365D+01  0.2347269535D+00
      0.6401216923D+00  0.8137573261D+00
 S   1 1.00       0.000000000000
      0.1612777588D+00  0.1000000000D+01
 ****
     49 0
 S   6 1.00       0.000000000000
      0.3047524880D+04  0.1834737132D-02
      0.4573695180D+03  0.1403732281D-01
      0.1039486850D+03  0.6884262226D-01
      0.2921015530D+02  0.2321844432D+00
      0.9286662960D+01  0.4679413484D+00
      0.3163926960D+01  0.3623119853D+00
 SP   3 1.00       0.000000000000
      0.7868272350D+01 -0.1193324198D+00  0.6899906659D-01
      0.1881288540D+01 -0.1608541517D+00  0.3164239610D+00
      0.5442492580D+00  0.1143456438D+01  0.7443082909D+00
 SP   1 1.00       0.000000000000
      0.1687144782D+00  0.1000000000D+01  0.1000000000D+01
 D   1 1.00       0.000000000000
      0.8000000000D+00  0.1000000000D+01
 ****
     50 0
 S   3 1.00       0.000000000000
      0.1873113696D+02  0.3349460434D-01
      0.2825394365D+01  0.2347269535D+00
      0.6401216923D+00  0.8137573261D+00
 S   1 1.00       0.000000000000
      0.1612777588D+00  0.1000000000D+01
 ****
     51 0
 S   3 1.00       0.000000000000
      0.1873113696D+02  0.3349460434D-01
      0.2825394365D+01  0.2347269535D+00
      0.6401216923D+00  0.8137573261D+00
 S   1 1.00       0.000000000000
      0.1612777588D+00  0.1000000000D+01
 ****
     52 0
 S   3 1.00       0.000000000000
      0.1873113696D+02  0.3349460434D-01
      0.2825394365D+01  0.2347269535D+00
      0.6401216923D+00  0.8137573261D+00
 S   1 1.00       0.000000000000
      0.1612777588D+00  0.1000000000D+01
 ****
     53 0
 S   6 1.00       0.000000000000
      0.5484671660D+04  0.1831074430D-02
      0.8252349460D+03  0.1395017220D-01
      0.1880469580D+03  0.6844507810D-01
      0.5296450000D+02  0.2327143360D+00
      0.1689757040D+02  0.4701928980D+00
      0.5799635340D+01  0.3585208530D+00
 SP   3 1.00       0.000000000000
      0.1553961625D+02 -0.1107775495D+00  0.7087426823D-01
      0.3599933586D+01 -0.1480262627D+00  0.3397528391D+00
      0.1013761750D+01  0.1130767015D+01  0.7271585773D+00
 SP   1 1.00       0.000000000000
      0.2700058226D+00  0.1000000000D+01  0.1000000000D+01
 D   1 1.00       0.000000000000
      0.8000000000D+00  0.1000000000D+01
 ****
     54 0
 S   6 1.00       0.000000000000
      0.5484671660D+04  0.1831074430D-02
      0.8252349460D+03  0.1395017220D-01
      0.1880469580D+03  0.6844507810D-01
      0.5296450000D+02  0.2327143360D+00
      0.1689757040D+02  0.4701928980D+00
      0.5799635340D+01  0.3585208530D+00
 SP   3 1.00       0.000000000000
      0.1553961625D+02 -0.1107775495D+00  0.7087426823D-01
      0.3599933586D+01 -0.1480262627D+00  0.3397528391D+00
      0.1013761750D+01  0.1130767015D+01  0.7271585773D+00
 SP   1 1.00       0.000000000000
      0.2700058226D+00  0.1000000000D+01  0.1000000000D+01
 D   1 1.00       0.000000000000
      0.8000000000D+00  0.1000000000D+01
 ****
     55 0
 S   3 1.00       0.000000000000
      0.1873113696D+02  0.3349460434D-01
      0.2825394365D+01  0.2347269535D+00
      0.6401216923D+00  0.8137573261D+00
 S   1 1.00       0.000000000000
      0.1612777588D+00  0.1000000000D+01
 ****
     56 0
 S   6 1.00       0.000000000000
      0.5484671660D+04  0.1831074430D-02
      0.8252349460D+03  0.1395017220D-01
      0.1880469580D+03  0.6844507810D-01
      0.5296450000D+02  0.2327143360D+00
      0.1689757040D+02  0.4701928980D+00
      0.5799635340D+01  0.3585208530D+00
 SP   3 1.00       0.000000000000
      0.1553961625D+02 -0.1107775495D+00  0.7087426823D-01
      0.3599933586D+01 -0.1480262627D+00  0.3397528391D+00
      0.1013761750D+01  0.1130767015D+01  0.7271585773D+00
 SP   1 1.00       0.000000000000
      0.2700058226D+00  0.1000000000D+01  0.1000000000D+01
 D   1 1.00       0.000000000000
      0.8000000000D+00  0.1000000000D+01
 ****
     57 0
 S   3 1.00       0.000000000000
      0.1873113696D+02  0.3349460434D-01
      0.2825394365D+01  0.2347269535D+00
      0.6401216923D+00  0.8137573261D+00
 S   1 1.00       0.000000000000
      0.1612777588D+00  0.1000000000D+01
 ****
     58 0
 S   6 1.00       0.000000000000
      0.3047524880D+04  0.1834737132D-02
      0.4573695180D+03  0.1403732281D-01
      0.1039486850D+03  0.6884262226D-01
      0.2921015530D+02  0.2321844432D+00
      0.9286662960D+01  0.4679413484D+00
      0.3163926960D+01  0.3623119853D+00
 SP   3 1.00       0.000000000000
      0.7868272350D+01 -0.1193324198D+00  0.6899906659D-01
      0.1881288540D+01 -0.1608541517D+00  0.3164239610D+00
      0.5442492580D+00  0.1143456438D+01  0.7443082909D+00
 SP   1 1.00       0.000000000000
      0.1687144782D+00  0.1000000000D+01  0.1000000000D+01
 D   1 1.00       0.000000000000
      0.8000000000D+00  0.1000000000D+01
 ****
     59 0
 S   3 1.00       0.000000000000
      0.1873113696D+02  0.3349460434D-01
      0.2825394365D+01  0.2347269535D+00
      0.6401216923D+00  0.8137573261D+00
 S   1 1.00       0.000000000000
      0.1612777588D+00  0.1000000000D+01
 ****
     60 0
 S   3 1.00       0.000000000000
      0.1873113696D+02  0.3349460434D-01
      0.2825394365D+01  0.2347269535D+00
      0.6401216923D+00  0.8137573261D+00
 S   1 1.00       0.000000000000
      0.1612777588D+00  0.1000000000D+01
 ****
     61 0
 S   6 1.00       0.000000000000
      0.3047524880D+04  0.1834737132D-02
      0.4573695180D+03  0.1403732281D-01
      0.1039486850D+03  0.6884262226D-01
      0.2921015530D+02  0.2321844432D+00
      0.9286662960D+01  0.4679413484D+00
      0.3163926960D+01  0.3623119853D+00
 SP   3 1.00       0.000000000000
      0.7868272350D+01 -0.1193324198D+00  0.6899906659D-01
      0.1881288540D+01 -0.1608541517D+00  0.3164239610D+00
      0.5442492580D+00  0.1143456438D+01  0.7443082909D+00
 SP   1 1.00       0.000000000000
      0.1687144782D+00  0.1000000000D+01  0.1000000000D+01
 D   1 1.00       0.000000000000
      0.8000000000D+00  0.1000000000D+01
 ****
     62 0
 S   3 1.00       0.000000000000
      0.1873113696D+02  0.3349460434D-01
      0.2825394365D+01  0.2347269535D+00
      0.6401216923D+00  0.8137573261D+00
 S   1 1.00       0.000000000000
      0.1612777588D+00  0.1000000000D+01
 ****
     63 0
 S   3 1.00       0.000000000000
      0.1873113696D+02  0.3349460434D-01
      0.2825394365D+01  0.2347269535D+00
      0.6401216923D+00  0.8137573261D+00
 S   1 1.00       0.000000000000
      0.1612777588D+00  0.1000000000D+01
 ****
     64 0
 S   6 1.00       0.000000000000
      0.3047524880D+04  0.1834737132D-02
      0.4573695180D+03  0.1403732281D-01
      0.1039486850D+03  0.6884262226D-01
      0.2921015530D+02  0.2321844432D+00
      0.9286662960D+01  0.4679413484D+00
      0.3163926960D+01  0.3623119853D+00
 SP   3 1.00       0.000000000000
      0.7868272350D+01 -0.1193324198D+00  0.6899906659D-01
      0.1881288540D+01 -0.1608541517D+00  0.3164239610D+00
      0.5442492580D+00  0.1143456438D+01  0.7443082909D+00
 SP   1 1.00       0.000000000000
      0.1687144782D+00  0.1000000000D+01  0.1000000000D+01
 D   1 1.00       0.000000000000
      0.8000000000D+00  0.1000000000D+01
 ****
     65 0
 S   3 1.00       0.000000000000
      0.1873113696D+02  0.3349460434D-01
      0.2825394365D+01  0.2347269535D+00
      0.6401216923D+00  0.8137573261D+00
 S   1 1.00       0.000000000000
      0.1612777588D+00  0.1000000000D+01
 ****
     66 0
 S   3 1.00       0.000000000000
      0.1873113696D+02  0.3349460434D-01
      0.2825394365D+01  0.2347269535D+00
      0.6401216923D+00  0.8137573261D+00
 S   1 1.00       0.000000000000
      0.1612777588D+00  0.1000000000D+01
 ****
     67 0
 S   6 1.00       0.000000000000
      0.3047524880D+04  0.1834737132D-02
      0.4573695180D+03  0.1403732281D-01
      0.1039486850D+03  0.6884262226D-01
      0.2921015530D+02  0.2321844432D+00
      0.9286662960D+01  0.4679413484D+00
      0.3163926960D+01  0.3623119853D+00
 SP   3 1.00       0.000000000000
      0.7868272350D+01 -0.1193324198D+00  0.6899906659D-01
      0.1881288540D+01 -0.1608541517D+00  0.3164239610D+00
      0.5442492580D+00  0.1143456438D+01  0.7443082909D+00
 SP   1 1.00       0.000000000000
      0.1687144782D+00  0.1000000000D+01  0.1000000000D+01
 D   1 1.00       0.000000000000
      0.8000000000D+00  0.1000000000D+01
 ****
     68 0
 S   3 1.00       0.000000000000
      0.1873113696D+02  0.3349460434D-01
      0.2825394365D+01  0.2347269535D+00
      0.6401216923D+00  0.8137573261D+00
 S   1 1.00       0.000000000000
      0.1612777588D+00  0.1000000000D+01
 ****
     69 0
 S   6 1.00       0.000000000000
      0.3047524880D+04  0.1834737132D-02
      0.4573695180D+03  0.1403732281D-01
      0.1039486850D+03  0.6884262226D-01
      0.2921015530D+02  0.2321844432D+00
      0.9286662960D+01  0.4679413484D+00
      0.3163926960D+01  0.3623119853D+00
 SP   3 1.00       0.000000000000
      0.7868272350D+01 -0.1193324198D+00  0.6899906659D-01
      0.1881288540D+01 -0.1608541517D+00  0.3164239610D+00
      0.5442492580D+00  0.1143456438D+01  0.7443082909D+00
 SP   1 1.00       0.000000000000
      0.1687144782D+00  0.1000000000D+01  0.1000000000D+01
 D   1 1.00       0.000000000000
      0.8000000000D+00  0.1000000000D+01
 ****
     70 0
 S   3 1.00       0.000000000000
      0.1873113696D+02  0.3349460434D-01
      0.2825394365D+01  0.2347269535D+00
      0.6401216923D+00  0.8137573261D+00
 S   1 1.00       0.000000000000
      0.1612777588D+00  0.1000000000D+01
 ****
     71 0
 S   3 1.00       0.000000000000
      0.1873113696D+02  0.3349460434D-01
      0.2825394365D+01  0.2347269535D+00
      0.6401216923D+00  0.8137573261D+00
 S   1 1.00       0.000000000000
      0.1612777588D+00  0.1000000000D+01
 ****
     72 0
 S   3 1.00       0.000000000000
      0.1873113696D+02  0.3349460434D-01
      0.2825394365D+01  0.2347269535D+00
      0.6401216923D+00  0.8137573261D+00
 S   1 1.00       0.000000000000
      0.1612777588D+00  0.1000000000D+01
 ****
     73 0
 S   6 1.00       0.000000000000
      0.3047524880D+04  0.1834737132D-02
      0.4573695180D+03  0.1403732281D-01
      0.1039486850D+03  0.6884262226D-01
      0.2921015530D+02  0.2321844432D+00
      0.9286662960D+01  0.4679413484D+00
      0.3163926960D+01  0.3623119853D+00
 SP   3 1.00       0.000000000000
      0.7868272350D+01 -0.1193324198D+00  0.6899906659D-01
      0.1881288540D+01 -0.1608541517D+00  0.3164239610D+00
      0.5442492580D+00  0.1143456438D+01  0.7443082909D+00
 SP   1 1.00       0.000000000000
      0.1687144782D+00  0.1000000000D+01  0.1000000000D+01
 D   1 1.00       0.000000000000
      0.8000000000D+00  0.1000000000D+01
 ****
     74 0
 S   3 1.00       0.000000000000
      0.1873113696D+02  0.3349460434D-01
      0.2825394365D+01  0.2347269535D+00
      0.6401216923D+00  0.8137573261D+00
 S   1 1.00       0.000000000000
      0.1612777588D+00  0.1000000000D+01
 ****
     75 0
 S   3 1.00       0.000000000000
      0.1873113696D+02  0.3349460434D-01
      0.2825394365D+01  0.2347269535D+00
      0.6401216923D+00  0.8137573261D+00
 S   1 1.00       0.000000000000
      0.1612777588D+00  0.1000000000D+01
 ****
     76 0
 S   3 1.00       0.000000000000
      0.1873113696D+02  0.3349460434D-01
      0.2825394365D+01  0.2347269535D+00
      0.6401216923D+00  0.8137573261D+00
 S   1 1.00       0.000000000000
      0.1612777588D+00  0.1000000000D+01
 ****

 AO basis set (Overlap normalization):
 Atom C1       Shell     1 S   6     bf    1 -     1         -1.898254183464          3.737979334504          3.197427142617
      0.3047524880D+04  0.1834737132D-02
      0.4573695180D+03  0.1403732281D-01
      0.1039486850D+03  0.6884262226D-01
      0.2921015530D+02  0.2321844432D+00
      0.9286662960D+01  0.4679413484D+00
      0.3163926960D+01  0.3623119853D+00
 Atom C1       Shell     2 SP   3    bf    2 -     5         -1.898254183464          3.737979334504          3.197427142617
      0.7868272350D+01 -0.1193324198D+00  0.6899906659D-01
      0.1881288540D+01 -0.1608541517D+00  0.3164239610D+00
      0.5442492580D+00  0.1143456438D+01  0.7443082909D+00
 Atom C1       Shell     3 SP   1    bf    6 -     9         -1.898254183464          3.737979334504          3.197427142617
      0.1687144782D+00  0.1000000000D+01  0.1000000000D+01
 Atom C1       Shell     4 D   1     bf   10 -    15         -1.898254183464          3.737979334504          3.197427142617
      0.8000000000D+00  0.1000000000D+01
 Atom H2       Shell     5 S   3     bf   16 -    16         -1.871571363852          1.885490916471          4.127001039631
      0.1873113696D+02  0.3349460434D-01
      0.2825394365D+01  0.2347269535D+00
      0.6401216923D+00  0.8137573261D+00
 Atom H2       Shell     6 S   1     bf   17 -    17         -1.871571363852          1.885490916471          4.127001039631
      0.1612777588D+00  0.1000000000D+01
 Atom C3       Shell     7 S   6     bf   18 -    18          0.614464539897          5.092461194957          3.716670990500
      0.3047524880D+04  0.1834737132D-02
      0.4573695180D+03  0.1403732281D-01
      0.1039486850D+03  0.6884262226D-01
      0.2921015530D+02  0.2321844432D+00
      0.9286662960D+01  0.4679413484D+00
      0.3163926960D+01  0.3623119853D+00
 Atom C3       Shell     8 SP   3    bf   19 -    22          0.614464539897          5.092461194957          3.716670990500
      0.7868272350D+01 -0.1193324198D+00  0.6899906659D-01
      0.1881288540D+01 -0.1608541517D+00  0.3164239610D+00
      0.5442492580D+00  0.1143456438D+01  0.7443082909D+00
 Atom C3       Shell     9 SP   1    bf   23 -    26          0.614464539897          5.092461194957          3.716670990500
      0.1687144782D+00  0.1000000000D+01  0.1000000000D+01
 Atom C3       Shell    10 D   1     bf   27 -    32          0.614464539897          5.092461194957          3.716670990500
      0.8000000000D+00  0.1000000000D+01
 Atom H4       Shell    11 S   3     bf   33 -    33          0.908498953084          5.265844663690          5.756786914760
      0.1873113696D+02  0.3349460434D-01
      0.2825394365D+01  0.2347269535D+00
      0.6401216923D+00  0.8137573261D+00
 Atom H4       Shell    12 S   1     bf   34 -    34          0.908498953084          5.265844663690          5.756786914760
      0.1612777588D+00  0.1000000000D+01
 Atom H5       Shell    13 S   3     bf   35 -    35          0.448565237026          7.029569753980          2.969517232586
      0.1873113696D+02  0.3349460434D-01
      0.2825394365D+01  0.2347269535D+00
      0.6401216923D+00  0.8137573261D+00
 Atom H5       Shell    14 S   1     bf   36 -    36          0.448565237026          7.029569753980          2.969517232586
      0.1612777588D+00  0.1000000000D+01
 Atom C6       Shell    15 S   6     bf   37 -    37          2.856469865790          3.789191328445          2.495808225602
      0.3047524880D+04  0.1834737132D-02
      0.4573695180D+03  0.1403732281D-01
      0.1039486850D+03  0.6884262226D-01
      0.2921015530D+02  0.2321844432D+00
      0.9286662960D+01  0.4679413484D+00
      0.3163926960D+01  0.3623119853D+00
 Atom C6       Shell    16 SP   3    bf   38 -    41          2.856469865790          3.789191328445          2.495808225602
      0.7868272350D+01 -0.1193324198D+00  0.6899906659D-01
      0.1881288540D+01 -0.1608541517D+00  0.3164239610D+00
      0.5442492580D+00  0.1143456438D+01  0.7443082909D+00
 Atom C6       Shell    17 SP   1    bf   42 -    45          2.856469865790          3.789191328445          2.495808225602
      0.1687144782D+00  0.1000000000D+01  0.1000000000D+01
 Atom C6       Shell    18 D   1     bf   46 -    51          2.856469865790          3.789191328445          2.495808225602
      0.8000000000D+00  0.1000000000D+01
 Atom C7       Shell    19 S   6     bf   52 -    52          2.643179500733          3.124483921758         -0.315097867583
      0.3047524880D+04  0.1834737132D-02
      0.4573695180D+03  0.1403732281D-01
      0.1039486850D+03  0.6884262226D-01
      0.2921015530D+02  0.2321844432D+00
      0.9286662960D+01  0.4679413484D+00
      0.3163926960D+01  0.3623119853D+00
 Atom C7       Shell    20 SP   3    bf   53 -    56          2.643179500733          3.124483921758         -0.315097867583
      0.7868272350D+01 -0.1193324198D+00  0.6899906659D-01
      0.1881288540D+01 -0.1608541517D+00  0.3164239610D+00
      0.5442492580D+00  0.1143456438D+01  0.7443082909D+00
 Atom C7       Shell    21 SP   1    bf   57 -    60          2.643179500733          3.124483921758         -0.315097867583
      0.1687144782D+00  0.1000000000D+01  0.1000000000D+01
 Atom C7       Shell    22 D   1     bf   61 -    66          2.643179500733          3.124483921758         -0.315097867583
      0.8000000000D+00  0.1000000000D+01
 Atom C8       Shell    23 S   6     bf   67 -    67         -0.005996252198          1.919414070584         -0.792543675714
      0.3047524880D+04  0.1834737132D-02
      0.4573695180D+03  0.1403732281D-01
      0.1039486850D+03  0.6884262226D-01
      0.2921015530D+02  0.2321844432D+00
      0.9286662960D+01  0.4679413484D+00
      0.3163926960D+01  0.3623119853D+00
 Atom C8       Shell    24 SP   3    bf   68 -    71         -0.005996252198          1.919414070584         -0.792543675714
      0.7868272350D+01 -0.1193324198D+00  0.6899906659D-01
      0.1881288540D+01 -0.1608541517D+00  0.3164239610D+00
      0.5442492580D+00  0.1143456438D+01  0.7443082909D+00
 Atom C8       Shell    25 SP   1    bf   72 -    75         -0.005996252198          1.919414070584         -0.792543675714
      0.1687144782D+00  0.1000000000D+01  0.1000000000D+01
 Atom C8       Shell    26 D   1     bf   76 -    81         -0.005996252198          1.919414070584         -0.792543675714
      0.8000000000D+00  0.1000000000D+01
 Atom H9       Shell    27 S   3     bf   82 -    82          0.000000000000          0.000000000000          0.000000000000
      0.1873113696D+02  0.3349460434D-01
      0.2825394365D+01  0.2347269535D+00
      0.6401216923D+00  0.8137573261D+00
 Atom H9       Shell    28 S   1     bf   83 -    83          0.000000000000          0.000000000000          0.000000000000
      0.1612777588D+00  0.1000000000D+01
 Atom H10      Shell    29 S   3     bf   84 -    84         -0.308321404156          1.710836776989         -2.828797755649
      0.1873113696D+02  0.3349460434D-01
      0.2825394365D+01  0.2347269535D+00
      0.6401216923D+00  0.8137573261D+00
 Atom H10      Shell    30 S   1     bf   85 -    85         -0.308321404156          1.710836776989         -2.828797755649
      0.1612777588D+00  0.1000000000D+01
 Atom C11      Shell    31 S   6     bf   86 -    86         -2.245176569803          3.368091578904          0.355023094250
      0.3047524880D+04  0.1834737132D-02
      0.4573695180D+03  0.1403732281D-01
      0.1039486850D+03  0.6884262226D-01
      0.2921015530D+02  0.2321844432D+00
      0.9286662960D+01  0.4679413484D+00
      0.3163926960D+01  0.3623119853D+00
 Atom C11      Shell    32 SP   3    bf   87 -    90         -2.245176569803          3.368091578904          0.355023094250
      0.7868272350D+01 -0.1193324198D+00  0.6899906659D-01
      0.1881288540D+01 -0.1608541517D+00  0.3164239610D+00
      0.5442492580D+00  0.1143456438D+01  0.7443082909D+00
 Atom C11      Shell    33 SP   1    bf   91 -    94         -2.245176569803          3.368091578904          0.355023094250
      0.1687144782D+00  0.1000000000D+01  0.1000000000D+01
 Atom C11      Shell    34 D   1     bf   95 -   100         -2.245176569803          3.368091578904          0.355023094250
      0.8000000000D+00  0.1000000000D+01
 Atom H12      Shell    35 S   3     bf  101 -   101         -2.448540373559          5.228905582258         -0.549766836662
      0.1873113696D+02  0.3349460434D-01
      0.2825394365D+01  0.2347269535D+00
      0.6401216923D+00  0.8137573261D+00
 Atom H12      Shell    36 S   1     bf  102 -   102         -2.448540373559          5.228905582258         -0.549766836662
      0.1612777588D+00  0.1000000000D+01
 Atom H13      Shell    37 S   3     bf  103 -   103         -4.007816220300          2.340441594792          0.000000000000
      0.1873113696D+02  0.3349460434D-01
      0.2825394365D+01  0.2347269535D+00
      0.6401216923D+00  0.8137573261D+00
 Atom H13      Shell    38 S   1     bf  104 -   104         -4.007816220300          2.340441594792          0.000000000000
      0.1612777588D+00  0.1000000000D+01
 Atom C14      Shell    39 S   6     bf  105 -   105          4.929255129771          3.278369536403          3.857100715729
      0.3047524880D+04  0.1834737132D-02
      0.4573695180D+03  0.1403732281D-01
      0.1039486850D+03  0.6884262226D-01
      0.2921015530D+02  0.2321844432D+00
      0.9286662960D+01  0.4679413484D+00
      0.3163926960D+01  0.3623119853D+00
 Atom C14      Shell    40 SP   3    bf  106 -   109          4.929255129771          3.278369536403          3.857100715729
      0.7868272350D+01 -0.1193324198D+00  0.6899906659D-01
      0.1881288540D+01 -0.1608541517D+00  0.3164239610D+00
      0.5442492580D+00  0.1143456438D+01  0.7443082909D+00
 Atom C14      Shell    41 SP   1    bf  110 -   113          4.929255129771          3.278369536403          3.857100715729
      0.1687144782D+00  0.1000000000D+01  0.1000000000D+01
 Atom C14      Shell    42 D   1     bf  114 -   119          4.929255129771          3.278369536403          3.857100715729
      0.8000000000D+00  0.1000000000D+01
 Atom H15      Shell    43 S   3     bf  120 -   120          4.965911016844          3.742342334200          5.864697609085
      0.1873113696D+02  0.3349460434D-01
      0.2825394365D+01  0.2347269535D+00
      0.6401216923D+00  0.8137573261D+00
 Atom H15      Shell    44 S   1     bf  121 -   121          4.965911016844          3.742342334200          5.864697609085
      0.1612777588D+00  0.1000000000D+01
 Atom C16      Shell    45 S   6     bf  122 -   122          7.311950547360          2.110949473762          2.857583519194
      0.3047524880D+04  0.1834737132D-02
      0.4573695180D+03  0.1403732281D-01
      0.1039486850D+03  0.6884262226D-01
      0.2921015530D+02  0.2321844432D+00
      0.9286662960D+01  0.4679413484D+00
      0.3163926960D+01  0.3623119853D+00
 Atom C16      Shell    46 SP   3    bf  123 -   126          7.311950547360          2.110949473762          2.857583519194
      0.7868272350D+01 -0.1193324198D+00  0.6899906659D-01
      0.1881288540D+01 -0.1608541517D+00  0.3164239610D+00
      0.5442492580D+00  0.1143456438D+01  0.7443082909D+00
 Atom C16      Shell    47 SP   1    bf  127 -   130          7.311950547360          2.110949473762          2.857583519194
      0.1687144782D+00  0.1000000000D+01  0.1000000000D+01
 Atom C16      Shell    48 D   1     bf  131 -   136          7.311950547360          2.110949473762          2.857583519194
      0.8000000000D+00  0.1000000000D+01
 Atom H17      Shell    49 S   3     bf  137 -   137          7.597917171666          0.251622533697          3.751771236123
      0.1873113696D+02  0.3349460434D-01
      0.2825394365D+01  0.2347269535D+00
      0.6401216923D+00  0.8137573261D+00
 Atom H17      Shell    50 S   1     bf  138 -   138          7.597917171666          0.251622533697          3.751771236123
      0.1612777588D+00  0.1000000000D+01
 Atom C18      Shell    51 S   6     bf  139 -   139          7.395353855899          1.833238628294         -0.031039564315
      0.3047524880D+04  0.1834737132D-02
      0.4573695180D+03  0.1403732281D-01
      0.1039486850D+03  0.6884262226D-01
      0.2921015530D+02  0.2321844432D+00
      0.9286662960D+01  0.4679413484D+00
      0.3163926960D+01  0.3623119853D+00
 Atom C18      Shell    52 SP   3    bf  140 -   143          7.395353855899          1.833238628294         -0.031039564315
      0.7868272350D+01 -0.1193324198D+00  0.6899906659D-01
      0.1881288540D+01 -0.1608541517D+00  0.3164239610D+00
      0.5442492580D+00  0.1143456438D+01  0.7443082909D+00
 Atom C18      Shell    53 SP   1    bf  144 -   147          7.395353855899          1.833238628294         -0.031039564315
      0.1687144782D+00  0.1000000000D+01  0.1000000000D+01
 Atom C18      Shell    54 D   1     bf  148 -   153          7.395353855899          1.833238628294         -0.031039564315
      0.8000000000D+00  0.1000000000D+01
 Atom H19      Shell    55 S   3     bf  154 -   154          7.964551952700          3.673307312647         -0.789555376191
      0.1873113696D+02  0.3349460434D-01
      0.2825394365D+01  0.2347269535D+00
      0.6401216923D+00  0.8137573261D+00
 Atom H19      Shell    56 S   1     bf  155 -   155          7.964551952700          3.673307312647         -0.789555376191
      0.1612777588D+00  0.1000000000D+01
 Atom C20      Shell    57 S   6     bf  156 -   156          4.724593594387          1.140421828839         -1.036937647905
      0.3047524880D+04  0.1834737132D-02
      0.4573695180D+03  0.1403732281D-01
      0.1039486850D+03  0.6884262226D-01
      0.2921015530D+02  0.2321844432D+00
      0.9286662960D+01  0.4679413484D+00
      0.3163926960D+01  0.3623119853D+00
 Atom C20      Shell    58 SP   3    bf  157 -   160          4.724593594387          1.140421828839         -1.036937647905
      0.7868272350D+01 -0.1193324198D+00  0.6899906659D-01
      0.1881288540D+01 -0.1608541517D+00  0.3164239610D+00
      0.5442492580D+00  0.1143456438D+01  0.7443082909D+00
 Atom C20      Shell    59 SP   1    bf  161 -   164          4.724593594387          1.140421828839         -1.036937647905
      0.1687144782D+00  0.1000000000D+01  0.1000000000D+01
 Atom C20      Shell    60 D   1     bf  165 -   170          4.724593594387          1.140421828839         -1.036937647905
      0.8000000000D+00  0.1000000000D+01
 Atom H21      Shell    61 S   3     bf  171 -   171          4.181169226648         -0.615622072742         -0.055289115867
      0.1873113696D+02  0.3349460434D-01
      0.2825394365D+01  0.2347269535D+00
      0.6401216923D+00  0.8137573261D+00
 Atom H21      Shell    62 S   1     bf  172 -   172          4.181169226648         -0.615622072742         -0.055289115867
      0.1612777588D+00  0.1000000000D+01
 Atom C22      Shell    63 S   6     bf  173 -   173          4.789407118937          0.518339954079         -3.889847647605
      0.3047524880D+04  0.1834737132D-02
      0.4573695180D+03  0.1403732281D-01
      0.1039486850D+03  0.6884262226D-01
      0.2921015530D+02  0.2321844432D+00
      0.9286662960D+01  0.4679413484D+00
      0.3163926960D+01  0.3623119853D+00
 Atom C22      Shell    64 SP   3    bf  174 -   177          4.789407118937          0.518339954079         -3.889847647605
      0.7868272350D+01 -0.1193324198D+00  0.6899906659D-01
      0.1881288540D+01 -0.1608541517D+00  0.3164239610D+00
      0.5442492580D+00  0.1143456438D+01  0.7443082909D+00
 Atom C22      Shell    65 SP   1    bf  178 -   181          4.789407118937          0.518339954079         -3.889847647605
      0.1687144782D+00  0.1000000000D+01  0.1000000000D+01
 Atom C22      Shell    66 D   1     bf  182 -   187          4.789407118937          0.518339954079         -3.889847647605
      0.8000000000D+00  0.1000000000D+01
 Atom H23      Shell    67 S   3     bf  188 -   188          5.112403172481          2.250626747840         -4.976121792955
      0.1873113696D+02  0.3349460434D-01
      0.2825394365D+01  0.2347269535D+00
      0.6401216923D+00  0.8137573261D+00
 Atom H23      Shell    68 S   1     bf  189 -   189          5.112403172481          2.250626747840         -4.976121792955
      0.1612777588D+00  0.1000000000D+01
 Atom H24      Shell    69 S   3     bf  190 -   190          2.940081327662         -0.194522795633         -4.487866260015
      0.1873113696D+02  0.3349460434D-01
      0.2825394365D+01  0.2347269535D+00
      0.6401216923D+00  0.8137573261D+00
 Atom H24      Shell    70 S   1     bf  191 -   191          2.940081327662         -0.194522795633         -4.487866260015
      0.1612777588D+00  0.1000000000D+01
 Atom C25      Shell    71 S   6     bf  192 -   192          6.811102389696         -1.440980559295         -4.634029489921
      0.3047524880D+04  0.1834737132D-02
      0.4573695180D+03  0.1403732281D-01
      0.1039486850D+03  0.6884262226D-01
      0.2921015530D+02  0.2321844432D+00
      0.9286662960D+01  0.4679413484D+00
      0.3163926960D+01  0.3623119853D+00
 Atom C25      Shell    72 SP   3    bf  193 -   196          6.811102389696         -1.440980559295         -4.634029489921
      0.7868272350D+01 -0.1193324198D+00  0.6899906659D-01
      0.1881288540D+01 -0.1608541517D+00  0.3164239610D+00
      0.5442492580D+00  0.1143456438D+01  0.7443082909D+00
 Atom C25      Shell    73 SP   1    bf  197 -   200          6.811102389696         -1.440980559295         -4.634029489921
      0.1687144782D+00  0.1000000000D+01  0.1000000000D+01
 Atom C25      Shell    74 D   1     bf  201 -   206          6.811102389696         -1.440980559295         -4.634029489921
      0.8000000000D+00  0.1000000000D+01
 Atom H26      Shell    75 S   3     bf  207 -   207          6.344303922207         -3.274153784167         -3.773566657039
      0.1873113696D+02  0.3349460434D-01
      0.2825394365D+01  0.2347269535D+00
      0.6401216923D+00  0.8137573261D+00
 Atom H26      Shell    76 S   1     bf  208 -   208          6.344303922207         -3.274153784167         -3.773566657039
      0.1612777588D+00  0.1000000000D+01
 Atom H27      Shell    77 S   3     bf  209 -   209          6.729693479220         -1.717327060289         -6.681867269797
      0.1873113696D+02  0.3349460434D-01
      0.2825394365D+01  0.2347269535D+00
      0.6401216923D+00  0.8137573261D+00
 Atom H27      Shell    78 S   1     bf  210 -   210          6.729693479220         -1.717327060289         -6.681867269797
      0.1612777588D+00  0.1000000000D+01
 Atom C28      Shell    79 S   6     bf  211 -   211          9.472542011695         -0.648087492116         -3.752399040939
      0.3047524880D+04  0.1834737132D-02
      0.4573695180D+03  0.1403732281D-01
      0.1039486850D+03  0.6884262226D-01
      0.2921015530D+02  0.2321844432D+00
      0.9286662960D+01  0.4679413484D+00
      0.3163926960D+01  0.3623119853D+00
 Atom C28      Shell    80 SP   3    bf  212 -   215          9.472542011695         -0.648087492116         -3.752399040939
      0.7868272350D+01 -0.1193324198D+00  0.6899906659D-01
      0.1881288540D+01 -0.1608541517D+00  0.3164239610D+00
      0.5442492580D+00  0.1143456438D+01  0.7443082909D+00
 Atom C28      Shell    81 SP   1    bf  216 -   219          9.472542011695         -0.648087492116         -3.752399040939
      0.1687144782D+00  0.1000000000D+01  0.1000000000D+01
 Atom C28      Shell    82 D   1     bf  220 -   225          9.472542011695         -0.648087492116         -3.752399040939
      0.8000000000D+00  0.1000000000D+01
 Atom C29      Shell    83 S   6     bf  226 -   226          9.301640320291         -0.205511798760         -0.849172323950
      0.3047524880D+04  0.1834737132D-02
      0.4573695180D+03  0.1403732281D-01
      0.1039486850D+03  0.6884262226D-01
      0.2921015530D+02  0.2321844432D+00
      0.9286662960D+01  0.4679413484D+00
      0.3163926960D+01  0.3623119853D+00
 Atom C29      Shell    84 SP   3    bf  227 -   230          9.301640320291         -0.205511798760         -0.849172323950
      0.7868272350D+01 -0.1193324198D+00  0.6899906659D-01
      0.1881288540D+01 -0.1608541517D+00  0.3164239610D+00
      0.5442492580D+00  0.1143456438D+01  0.7443082909D+00
 Atom C29      Shell    85 SP   1    bf  231 -   234          9.301640320291         -0.205511798760         -0.849172323950
      0.1687144782D+00  0.1000000000D+01  0.1000000000D+01
 Atom C29      Shell    86 D   1     bf  235 -   240          9.301640320291         -0.205511798760         -0.849172323950
      0.8000000000D+00  0.1000000000D+01
 Atom H30      Shell    87 S   3     bf  241 -   241          8.575834288275         -2.001232163459         -0.071389695903
      0.1873113696D+02  0.3349460434D-01
      0.2825394365D+01  0.2347269535D+00
      0.6401216923D+00  0.8137573261D+00
 Atom H30      Shell    88 S   1     bf  242 -   242          8.575834288275         -2.001232163459         -0.071389695903
      0.1612777588D+00  0.1000000000D+01
 Atom C31      Shell    89 S   6     bf  243 -   243         12.071506834206          0.000000000000          0.000000000000
      0.3047524880D+04  0.1834737132D-02
      0.4573695180D+03  0.1403732281D-01
      0.1039486850D+03  0.6884262226D-01
      0.2921015530D+02  0.2321844432D+00
      0.9286662960D+01  0.4679413484D+00
      0.3163926960D+01  0.3623119853D+00
 Atom C31      Shell    90 SP   3    bf  244 -   247         12.071506834206          0.000000000000          0.000000000000
      0.7868272350D+01 -0.1193324198D+00  0.6899906659D-01
      0.1881288540D+01 -0.1608541517D+00  0.3164239610D+00
      0.5442492580D+00  0.1143456438D+01  0.7443082909D+00
 Atom C31      Shell    91 SP   1    bf  248 -   251         12.071506834206          0.000000000000          0.000000000000
      0.1687144782D+00  0.1000000000D+01  0.1000000000D+01
 Atom C31      Shell    92 D   1     bf  252 -   257         12.071506834206          0.000000000000          0.000000000000
      0.8000000000D+00  0.1000000000D+01
 Atom H32      Shell    93 S   3     bf  258 -   258         12.319523222420         -0.432007588931          2.004439028707
      0.1873113696D+02  0.3349460434D-01
      0.2825394365D+01  0.2347269535D+00
      0.6401216923D+00  0.8137573261D+00
 Atom H32      Shell    94 S   1     bf  259 -   259         12.319523222420         -0.432007588931          2.004439028707
      0.1612777588D+00  0.1000000000D+01
 Atom H33      Shell    95 S   3     bf  260 -   260         12.775029839272          1.927476568233         -0.264506913238
      0.1873113696D+02  0.3349460434D-01
      0.2825394365D+01  0.2347269535D+00
      0.6401216923D+00  0.8137573261D+00
 Atom H33      Shell    96 S   1     bf  261 -   261         12.775029839272          1.927476568233         -0.264506913238
      0.1612777588D+00  0.1000000000D+01
 Atom C34      Shell    97 S   6     bf  262 -   262         13.469950338550         -1.903205606083         -1.739842164505
      0.3047524880D+04  0.1834737132D-02
      0.4573695180D+03  0.1403732281D-01
      0.1039486850D+03  0.6884262226D-01
      0.2921015530D+02  0.2321844432D+00
      0.9286662960D+01  0.4679413484D+00
      0.3163926960D+01  0.3623119853D+00
 Atom C34      Shell    98 SP   3    bf  263 -   266         13.469950338550         -1.903205606083         -1.739842164505
      0.7868272350D+01 -0.1193324198D+00  0.6899906659D-01
      0.1881288540D+01 -0.1608541517D+00  0.3164239610D+00
      0.5442492580D+00  0.1143456438D+01  0.7443082909D+00
 Atom C34      Shell    99 SP   1    bf  267 -   270         13.469950338550         -1.903205606083         -1.739842164505
      0.1687144782D+00  0.1000000000D+01  0.1000000000D+01
 Atom C34      Shell   100 D   1     bf  271 -   276         13.469950338550         -1.903205606083         -1.739842164505
      0.8000000000D+00  0.1000000000D+01
 Atom H35      Shell   101 S   3     bf  277 -   277         15.140747409263         -1.026720975848         -2.597505292532
      0.1873113696D+02  0.3349460434D-01
      0.2825394365D+01  0.2347269535D+00
      0.6401216923D+00  0.8137573261D+00
 Atom H35      Shell   102 S   1     bf  278 -   278         15.140747409263         -1.026720975848         -2.597505292532
      0.1612777588D+00  0.1000000000D+01
 Atom H36      Shell   103 S   3     bf  279 -   279         14.155745539305         -3.531400199527         -0.665344716826
      0.1873113696D+02  0.3349460434D-01
      0.2825394365D+01  0.2347269535D+00
      0.6401216923D+00  0.8137573261D+00
 Atom H36      Shell   104 S   1     bf  280 -   280         14.155745539305         -3.531400199527         -0.665344716826
      0.1612777588D+00  0.1000000000D+01
 Atom C37      Shell   105 S   6     bf  281 -   281         11.559837972424         -2.751885391815         -3.836511525902
      0.3047524880D+04  0.1834737132D-02
      0.4573695180D+03  0.1403732281D-01
      0.1039486850D+03  0.6884262226D-01
      0.2921015530D+02  0.2321844432D+00
      0.9286662960D+01  0.4679413484D+00
      0.3163926960D+01  0.3623119853D+00
 Atom C37      Shell   106 SP   3    bf  282 -   285         11.559837972424         -2.751885391815         -3.836511525902
      0.7868272350D+01 -0.1193324198D+00  0.6899906659D-01
      0.1881288540D+01 -0.1608541517D+00  0.3164239610D+00
      0.5442492580D+00  0.1143456438D+01  0.7443082909D+00
[...]
 1641 Fit       0.000422
 1642 Fit      -0.001918
 1643 Fit      -0.001234
 1644 Fit      -0.000196
 1645 Fit      -0.000525
 1646 Fit      -0.002246
 1647 Fit      -0.002608
 1648 Fit       0.001034
 1649 Fit      -0.001435
 1650 Fit       0.002057
 1651 Fit       0.001039
 1652 Fit      -0.000906
 1653 Fit      -0.002663
 1654 Fit      -0.000552
 1655 Fit       0.001388
 1656 Fit       0.001227
 1657 Fit      -0.000200
 1658 Fit      -0.002253
 1659 Fit      -0.002002
 1660 Fit       0.000211
 1661 Fit      -0.000627
 1662 Fit      -0.000698
 1663 Fit       0.001077
 1664 Fit      -0.001140
 1665 Fit       0.000930
 1666 Fit       0.002591
 1667 Fit       0.002567
 1668 Fit       0.000099
 1669 Fit      -0.001569
 1670 Fit       0.000572
 1671 Fit      -0.000010
 1672 Fit      -0.001979
 1673 Fit      -0.007489
 1674 Fit      -0.005853
 1675 Fit      -0.001018
 1676 Fit      -0.005687
 1677 Fit      -0.000044
 1678 Fit       0.001863
 1679 Fit       0.000718
 1680 Fit      -0.011924
 1681 Fit      -0.002470
 1682 Fit       0.002190
 1683 Fit       0.004266
 1684 Fit       0.003265
 1685 Fit       0.000967
 1686 Fit       0.005014
 1687 Fit       0.011154
 1688 Fit       0.007854
 1689 Fit       0.006573
 1690 Fit       0.004308
 1691 Fit       0.002766
 1692 Fit       0.008117
 1693 Fit       0.005911
 1694 Fit       0.000435
 1695 Fit      -0.005121
 1696 Fit      -0.000965
 1697 Fit       0.004743
 1698 Fit       0.007538
 1699 Fit       0.003514
 1700 Fit      -0.004083
 1701 Fit       0.000515
 1702 Fit       0.008394
 1703 Fit       0.008732
 1704 Fit       0.009330
 1705 Fit       0.010523
 1706 Fit       0.013348
 1707 Fit       0.008585
 1708 Fit       0.011939
 1709 Fit       0.016003
 1710 Fit       0.024452
 1711 Fit       0.023418
 1712 Fit       0.005295
 1713 Fit       0.006116
 1714 Fit       0.005647
 1715 Fit       0.004837
 1716 Fit       0.005942
 1717 Fit       0.006339
 1718 Fit       0.006684
 1719 Fit       0.005483
 1720 Fit       0.006176
 1721 Fit       0.007022
 1722 Fit       0.005315
 1723 Fit       0.005818
 1724 Fit       0.006518
 1725 Fit       0.005743
 1726 Fit       0.006551
 1727 Fit       0.008630
 1728 Fit       0.007716
 1729 Fit       0.007282
 1730 Fit       0.007136
 1731 Fit       0.009048
 1732 Fit       0.008321
 1733 Fit       0.008374
 1734 Fit       0.008714
 1735 Fit       0.006773
 1736 Fit       0.005742
 1737 Fit       0.007220
 1738 Fit       0.016872
 1739 Fit       0.014748
 1740 Fit       0.009756
 1741 Fit       0.012123
 1742 Fit       0.010481
 1743 Fit       0.007377
 1744 Fit       0.009113
 1745 Fit       0.007396
 1746 Fit       0.008907
 1747 Fit      -0.004932
 1748 Fit      -0.005479
 1749 Fit      -0.002210
 1750 Fit       0.000775
 1751 Fit       0.003454
 1752 Fit       0.001370
 1753 Fit       0.001012
 1754 Fit       0.002198
 1755 Fit       0.003586
 1756 Fit       0.004859
 1757 Fit       0.003922
 1758 Fit       0.004185
 1759 Fit       0.005019
 1760 Fit       0.005827
 1761 Fit       0.005509
 1762 Fit       0.006337
 1763 Fit       0.001171
 1764 Fit       0.002101
 1765 Fit       0.002888
 1766 Fit       0.000004
 1767 Fit       0.002696
 1768 Fit       0.002812
 1769 Fit       0.006621
 1770 Fit       0.004662
 1771 Fit       0.009008
 1772 Fit       0.009014
 1773 Fit       0.006679
 1774 Fit       0.004637
 1775 Fit       0.003948
 1776 Fit       0.009782
 1777 Fit       0.015016
 1778 Fit       0.012047
 1779 Fit       0.002292
 1780 Fit       0.002613
 1781 Fit       0.002562
 1782 Fit      -0.002106
 1783 Fit       0.000529
 1784 Fit       0.003268
 1785 Fit       0.000677
 1786 Fit       0.004398
 1787 Fit       0.004647
 1788 Fit       0.002527
 1789 Fit      -0.002656
 1790 Fit       0.005973
 1791 Fit       0.006222
 1792 Fit       0.004732
 1793 Fit       0.004151
 1794 Fit       0.006657
 1795 Fit       0.006422
 1796 Fit       0.006428
 1797 Fit       0.006555
 1798 Fit       0.004216
 1799 Fit       0.003843
 1800 Fit       0.005335
 1801 Fit       0.004734
 1802 Fit       0.004170
 1803 Fit       0.005801
 1804 Fit       0.004811
 1805 Fit       0.007271
 1806 Fit       0.005539
 1807 Fit       0.003721
 1808 Fit       0.008573
 1809 Fit       0.008554
 1810 Fit       0.007028
 1811 Fit       0.005250
 1812 Fit       0.005590
 1813 Fit       0.004338
 1814 Fit       0.002237
 1815 Fit       0.000648
 1816 Fit       0.005394
 1817 Fit       0.004714
 1818 Fit       0.004834
 1819 Fit       0.004172
 1820 Fit       0.003799
 1821 Fit       0.003583
 1822 Fit       0.003444
 1823 Fit       0.002780
 1824 Fit       0.002586
 1825 Fit       0.004095
 1826 Fit       0.004035
 1827 Fit       0.003194
 1828 Fit       0.001614
 1829 Fit       0.004570
 1830 Fit       0.003740
 1831 Fit       0.006414
 1832 Fit       0.004192
 1833 Fit       0.001942
 1834 Fit       0.005802
 1835 Fit       0.004179
 1836 Fit       0.002430
 1837 Fit      -0.009909
 1838 Fit      -0.014026
 1839 Fit      -0.000015
 1840 Fit      -0.010036
 1841 Fit      -0.011222
 1842 Fit      -0.010394
 1843 Fit      -0.002822
 1844 Fit      -0.005182
 1845 Fit      -0.009608
 1846 Fit      -0.016726
 1847 Fit      -0.000726
 1848 Fit      -0.002851
 1849 Fit      -0.005565
 1850 Fit      -0.019021
 1851 Fit      -0.011407
 1852 Fit      -0.016105
 1853 Fit      -0.006653
 1854 Fit      -0.009482
 1855 Fit      -0.015013
 1856 Fit      -0.006810
 1857 Fit      -0.005699
 1858 Fit      -0.007832
 1859 Fit      -0.002238
 1860 Fit      -0.006993
 1861 Fit      -0.002766
 1862 Fit      -0.003379
 1863 Fit      -0.004539
 1864 Fit      -0.002189
 1865 Fit      -0.000790
 1866 Fit      -0.001052
 1867 Fit      -0.001486
 1868 Fit       0.000251
 1869 Fit       0.000331
 1870 Fit      -0.004043
 1871 Fit      -0.000883
 1872 Fit      -0.001608
 1873 Fit      -0.003990
 1874 Fit       0.000365
 1875 Fit       0.000026
 1876 Fit      -0.000484
 1877 Fit      -0.001651
 1878 Fit      -0.003447
 1879 Fit      -0.000128
 1880 Fit      -0.000592
 1881 Fit      -0.000723
 1882 Fit      -0.001372
 1883 Fit       0.003342
 1884 Fit       0.001696
 1885 Fit       0.000065
 1886 Fit       0.003241
 1887 Fit       0.002061
 1888 Fit       0.002863
 1889 Fit       0.002327
 1890 Fit      -0.013451
 1891 Fit      -0.004175
 1892 Fit      -0.002805
 1893 Fit      -0.002771
 1894 Fit      -0.001188
 1895 Fit      -0.001595
 1896 Fit      -0.000573
 1897 Fit      -0.004708
 1898 Fit      -0.001971
 1899 Fit       0.001381
 1900 Fit       0.000552
 1901 Fit       0.003480
 1902 Fit      -0.002504
 1903 Fit      -0.004876
 1904 Fit      -0.007468
 1905 Fit       0.000353
 1906 Fit      -0.001217
 1907 Fit      -0.002906
 1908 Fit      -0.004493
 1909 Fit      -0.001636
 1910 Fit      -0.000763
 1911 Fit      -0.000877
 1912 Fit       0.000017
 1913 Fit       0.001723
 1914 Fit       0.003514
 1915 Fit       0.000923
 1916 Fit       0.001103
 1917 Fit       0.002187
 1918 Fit       0.003998
 1919 Fit       0.002543
 1920 Fit       0.000693
 1921 Fit       0.000686
 1922 Fit       0.000221
 1923 Fit       0.000400
 1924 Fit      -0.000081
 1925 Fit      -0.000391
 1926 Fit       0.000228
 1927 Fit      -0.000684
 1928 Fit      -0.000719
 1929 Fit       0.000360
 1930 Fit      -0.000346
 1931 Fit      -0.000956
 1932 Fit      -0.000919
 1933 Fit      -0.000472
 1934 Fit      -0.000950
 1935 Fit      -0.001226
 1936 Fit      -0.000351
 1937 Fit      -0.000684
 1938 Fit       0.002657
 1939 Fit       0.002354
 1940 Fit       0.001649
 1941 Fit       0.002137
 1942 Fit       0.001823
 1943 Fit       0.000242
 1944 Fit       0.000892
 1945 Fit       0.001148
 1946 Fit       0.000747
 1947 Fit      -0.000096
 1948 Fit      -0.000508
 1949 Fit      -0.000316
 1950 Fit      -0.000718
 1951 Fit       0.000295
 1952 Fit      -0.000309
 1953 Fit      -0.000713
 1954 Fit       0.000714
 1955 Fit       0.002498
 1956 Fit       0.000862
 1957 Fit       0.000040
 1958 Fit      -0.000083
 1959 Fit       0.000866
 1960 Fit       0.002602
 1961 Fit       0.001325
 1962 Fit       0.001412
 1963 Fit       0.003267
 1964 Fit       0.003860
 1965 Fit       0.003195
 1966 Fit       0.000882
 1967 Fit       0.000111
 1968 Fit       0.001544
 1969 Fit       0.000655
 1970 Fit       0.004712
 1971 Fit       0.004051
 1972 Fit       0.002564
 1973 Fit       0.004255
 1974 Fit       0.006452
 1975 Fit       0.008307
 1976 Fit       0.003313
 1977 Fit       0.003116
 1978 Fit       0.004373
 1979 Fit       0.004098
 1980 Fit       0.003852
 1981 Fit       0.004995
 1982 Fit       0.006525
 1983 Fit       0.007862
 1984 Fit       0.009287
 1985 Fit       0.005650
 1986 Fit       0.006548
 1987 Fit       0.007782
 1988 Fit       0.007703
 1989 Fit       0.007040
 1990 Fit       0.007948
 1991 Fit       0.012406
 1992 Fit       0.018031
 1993 Fit       0.005860
 1994 Fit       0.009271
 1995 Fit       0.012739
 1996 Fit       0.006315
 1997 Fit       0.008829
 1998 Fit      -0.003137
 1999 Fit       0.001841
 2000 Fit      -0.004134
 2001 Fit      -0.000638
 2002 Fit       0.001754
 2003 Fit       0.001138
 2004 Fit       0.001698
 2005 Fit      -0.006902
 2006 Fit      -0.013451
 2007 Fit      -0.004296
 2008 Fit       0.004557
 2009 Fit      -0.004513
 2010 Fit      -0.011545
 2011 Fit      -0.018582
 2012 Fit      -0.013478
 2013 Fit      -0.011789
 2014 Fit      -0.017396
 2015 Fit      -0.022858
 2016 Fit      -0.021124
 2017 Fit      -0.020302
 2018 Fit      -0.026151
 2019 Fit      -0.015438
 2020 Fit      -0.003919
 2021 Fit      -0.022059
 2022 Fit      -0.014080
 2023 Fit      -0.003776
 2024 Fit      -0.024619
 2025 Fit      -0.019789
 2026 Fit      -0.012807
 2027 Fit      -0.004188
 2028 Fit       0.004131
 2029 Fit      -0.020557
 2030 Fit      -0.014938
 2031 Fit      -0.007963
 2032 Fit      -0.002212
 2033 Fit       0.000356
 2034 Fit      -0.018772
 2035 Fit      -0.014480
 2036 Fit      -0.009334
 2037 Fit      -0.013589
 2038 Fit       0.012143
 2039 Fit       0.004753
 2040 Fit       0.013776
 2041 Fit       0.018295
 2042 Fit       0.005486
 2043 Fit       0.013625
 2044 Fit       0.018420
 2045 Fit       0.019804
 2046 Fit       0.005429
 2047 Fit       0.012798
 2048 Fit       0.016753
 2049 Fit       0.017521
 2050 Fit       0.014479
 2051 Fit       0.006721
 2052 Fit       0.011277
 2053 Fit       0.011757
 2054 Fit      -0.020059
 2055 Fit      -0.014664
 2056 Fit      -0.018136
 2057 Fit      -0.022725
 2058 Fit      -0.022090
 2059 Fit      -0.016449
 2060 Fit      -0.006046
 2061 Fit      -0.007111
 2062 Fit      -0.010684
 2063 Fit      -0.016806
 2064 Fit      -0.022373
 2065 Fit      -0.024319
 2066 Fit      -0.021428
 2067 Fit      -0.007757
 2068 Fit      -0.016543
 2069 Fit      -0.022218
 2070 Fit      -0.023099
 2071 Fit      -0.018840
 2072 Fit      -0.001300
 2073 Fit      -0.011810
 2074 Fit      -0.018437
 2075 Fit      -0.020132
 2076 Fit      -0.016712
 2077 Fit      -0.005050
 2078 Fit      -0.012806
 2079 Fit      -0.013443
 2080 Fit      -0.002495
 2081 Fit       0.006707
 2082 Fit       0.006390
 2083 Fit       0.001268
 2084 Fit       0.016650
 2085 Fit       0.014899
 2086 Fit       0.010502
 2087 Fit       0.002588
 2088 Fit       0.022349
 2089 Fit       0.019998
 2090 Fit       0.015702
 2091 Fit       0.008616
 2092 Fit       0.025923
 2093 Fit       0.022698
 2094 Fit       0.017850
 2095 Fit       0.010196
 2096 Fit      -0.002910
 2097 Fit      -0.000410
 2098 Fit      -0.002292
 2099 Fit      -0.000374
 2100 Fit      -0.000709
 2101 Fit      -0.002348
 2102 Fit       0.000889
 2103 Fit      -0.000219
 2104 Fit      -0.002079
 2105 Fit       0.002191
 2106 Fit       0.001483
 2107 Fit       0.000791
 2108 Fit       0.001257
 2109 Fit       0.000986
 2110 Fit      -0.000030
 2111 Fit       0.000292
 2112 Fit      -0.000107
 2113 Fit      -0.000710
 2114 Fit       0.000082
 2115 Fit       0.001049
 2116 Fit       0.002797
 2117 Fit      -0.000127
 2118 Fit       0.000192
 2119 Fit       0.000387
 2120 Fit       0.000518
 2121 Fit       0.000677
 2122 Fit       0.000770
 2123 Fit       0.000653
 2124 Fit       0.000451
 2125 Fit       0.000323
 2126 Fit      -0.000135
 2127 Fit      -0.001034
 2128 Fit      -0.000423
 2129 Fit      -0.000670
 2130 Fit      -0.003326
 2131 Fit      -0.003312
 2132 Fit      -0.002133
 2133 Fit      -0.000155
 2134 Fit      -0.000494
 2135 Fit      -0.001725
 2136 Fit       0.000987
 2137 Fit       0.000933
 2138 Fit       0.000703
 2139 Fit       0.001301
 2140 Fit       0.001741
 2141 Fit      -0.000206
 2142 Fit      -0.000756
 2143 Fit      -0.000043
 2144 Fit       0.000016
 2145 Fit      -0.002336
 2146 Fit      -0.001319
 2147 Fit       0.000553
 2148 Fit       0.000083
 2149 Fit      -0.002687
 2150 Fit       0.000082
 2151 Fit      -0.000162
 2152 Fit      -0.000405
 2153 Fit       0.000012
 2154 Fit      -0.000626
 2155 Fit       0.000174
 2156 Fit       0.000586
 2157 Fit      -0.000242
 2158 Fit       0.000350
 2159 Fit       0.000589
 2160 Fit      -0.000049
 2161 Fit      -0.000054
 2162 Fit       0.000109
 2163 Fit      -0.000162
 2164 Fit      -0.000861
 2165 Fit      -0.002939
 2166 Fit      -0.002900
 2167 Fit      -0.003172
 2168 Fit      -0.002833
 2169 Fit      -0.002506
 2170 Fit      -0.002166
 2171 Fit      -0.000877
 2172 Fit      -0.002752
 2173 Fit      -0.003106
 2174 Fit      -0.002821
 2175 Fit      -0.001628
 2176 Fit      -0.002663
 2177 Fit      -0.002383
 2178 Fit      -0.001780
 2179 Fit      -0.002534
 2180 Fit       0.000024
 2181 Fit      -0.000380
 2182 Fit      -0.001637
 2183 Fit       0.001155
 2184 Fit       0.000504
 2185 Fit      -0.000656
 2186 Fit      -0.002235
 2187 Fit       0.001304
 2188 Fit       0.000302
 2189 Fit      -0.000938
 2190 Fit      -0.002434
 2191 Fit      -0.001075
 2192 Fit      -0.002297
 2193 Fit      -0.001642
 2194 Fit      -0.001873
 2195 Fit      -0.001880
 2196 Fit      -0.000035
 2197 Fit      -0.000296
 2198 Fit      -0.000760
 2199 Fit      -0.002211
 2200 Fit      -0.001093
 2201 Fit      -0.000286
 2202 Fit       0.001040
 2203 Fit       0.000816
 2204 Fit       0.000329
 2205 Fit      -0.001916
 2206 Fit      -0.000438
 2207 Fit       0.000632
 2208 Fit       0.001614
 2209 Fit       0.000892
 2210 Fit      -0.000244
 2211 Fit       0.000003
 2212 Fit       0.000687
 2213 Fit      -0.002008
 2214 Fit      -0.001200
 2215 Fit      -0.000466
 2216 Fit       0.000262
 2217 Fit       0.000650
 2218 Fit      -0.002607
 2219 Fit      -0.001521
 2220 Fit      -0.001572
 2221 Fit      -0.000858
 2222 Fit      -0.000361
 2223 Fit      -0.000006
 2224 Fit      -0.002512
 2225 Fit      -0.000621
 2226 Fit      -0.002550
 2227 Fit      -0.000897
 2228 Fit      -0.001364
 2229 Fit      -0.001221
 2230 Fit      -0.002218
 2231 Fit      -0.001552
 2232 Fit      -0.001906
 2233 Fit      -0.002444
 2234 Fit      -0.002452
 2235 Fit      -0.001644
 2236 Fit      -0.002010
 2237 Fit      -0.002372
 2238 Fit       0.001854
 2239 Fit       0.001909
 2240 Fit      -0.000211
 2241 Fit       0.000779
 2242 Fit       0.001394
 2243 Fit       0.001288
 2244 Fit       0.000462
 2245 Fit      -0.000778
 2246 Fit       0.000011
 2247 Fit       0.000574
 2248 Fit       0.000378
 2249 Fit      -0.000653
 2250 Fit      -0.001413
 2251 Fit      -0.000813
 2252 Fit      -0.001078
 2253 Fit      -0.002169
 2254 Fit       0.001875
 2255 Fit       0.000960
 2256 Fit      -0.000260
 2257 Fit      -0.001943
 2258 Fit      -0.000410
 2259 Fit       0.001337
 2260 Fit       0.001361
 2261 Fit       0.000680
 2262 Fit      -0.000660
 2263 Fit      -0.001898
 2264 Fit      -0.000416
 2265 Fit       0.000908
 2266 Fit       0.000621
 2267 Fit      -0.000306
 2268 Fit      -0.001640
 2269 Fit      -0.001570
 2270 Fit      -0.000081
 2271 Fit      -0.000671
 2272 Fit      -0.000487
 2273 Fit       0.000511
 2274 Fit       0.002096
 2275 Fit      -0.000492
 2276 Fit      -0.000976
 2277 Fit       0.000524
 2278 Fit       0.001645
 2279 Fit       0.001550
 2280 Fit      -0.000115
 2281 Fit      -0.001304
 2282 Fit       0.000083
 2283 Fit      -0.000325
 2284 Fit      -0.001638
 -----------------------------------------------------------------
 Leave Link  602 at Thu Apr 27 15:14:09 2017, MaxMem=    33554432 cpu:         3.7
 (Enter /home/michal/g09/l9999.exe)

 Test job not archived.
 1\1\GINC-LINUX\SP\RHF\6-31G(d)\C27H46O3\MICHAL\27-Apr-2017\0\\#P HF/6-
 31G* SCF(Conver=6) NoSymm Test Pop=mk IOp(6/33=2) GFInput GFPrint\\MEP
  - Input generated by R.E.D.-III.x MOLECULE\\0,1\C,0,-1.00451285,1.978
 05347,1.69200557\H,0,-0.99039291,0.99775882,2.18391489\C,0,0.32516063,
 2.6948144,1.96677758\H,0,0.48075694,2.78656498,3.04636043\H,0,0.237370
 5,3.7198881,1.57140084\C,0,1.51157875,2.00515369,1.32072483\C,0,1.3987
 1035,1.65340568,-0.16674261\C,0,-0.00317308,1.01571018,-0.41939605\H,0
 ,0.,0.,0.\H,0,-0.16315666,0.90533583,-1.4969353\C,0,-1.18809627,1.7823
 173,0.18787013\H,0,-1.29571176,2.76701766,-0.29092408\H,0,-2.120845,1.
 23850835,0.\C,0,2.60844947,1.73483844,2.04108979\H,0,2.62784693,1.9803
 6227,3.10346431\C,0,3.86931758,1.11706635,1.51216807\H,0,4.0206446,0.1
 3315291,1.98535183\C,0,3.91345271,0.9701081,-0.01642543\H,0,4.21465937
 ,1.94383051,-0.41781471\C,0,2.50014725,0.60348524,-0.54872377\H,0,2.21
 257946,-0.32577317,-0.02925774\C,0,2.53444509,0.27429369,-2.05841872\H
 ,0,2.70536724,1.19098038,-2.63325024\H,0,1.55582403,-0.10293703,-2.374
 87654\C,0,3.60428015,-0.76253407,-2.45222279\H,0,3.35726104,-1.7326075
 6,-1.99688547\H,0,3.56120041,-0.90877034,-3.53589187\C,0,5.01265334,-0
 .34295313,-1.98568405\C,0,4.92221606,-0.10875216,-0.44936264\H,0,4.538
 13605,-1.05900645,-0.0377778\C,0,6.38796629,0.,0.\H,0,6.51921091,-0.22
 860857,1.06070345\H,0,6.76025463,1.01997667,-0.13997103\C,0,7.12799072
 ,-1.00713303,-0.92068482\H,0,8.01213845,-0.54331734,-1.3745406\H,0,7.4
 9089791,-1.8687365,-0.35208526\C,0,6.11720279,-1.45623503,-2.03019446\
 H,0,5.62788474,-2.38294643,-1.68960481\C,0,5.48933383,0.91698494,-2.74
 471907\H,0,4.846646,1.78189274,-2.56210478\H,0,6.50469281,1.20626885,-
 2.45876237\H,0,5.49258465,0.73917979,-3.82514996\C,0,6.8165286,-1.7911
 3038,-3.37380391\H,0,7.37025446,-0.89573086,-3.69524651\C,0,5.83293546
 ,-2.17026757,-4.49534027\H,0,5.18690536,-3.00126521,-4.18506946\H,0,6.
 36393859,-2.48419078,-5.39892691\H,0,5.18869036,-1.33554636,-4.7802579
 9\C,0,1.53530897,2.9601974,-0.99266754\H,0,1.31728294,2.78616574,-2.05
 086975\H,0,0.84057458,3.72895161,-0.64334142\H,0,2.54400468,3.37517943
 ,-0.91078988\O,0,5.0285669,1.80932745,2.04158483\O,0,5.05902927,3.1665
 7723,1.50944656\H,0,4.72680398,3.67118233,2.26991779\O,0,-2.10777351,2
 .65705127,2.29753846\H,0,-2.20003475,3.5276694,1.88558075\C,0,7.856281
 82,-2.92131741,-3.16806541\H,0,8.45238435,-2.70846131,-2.27369816\H,0,
 7.31954344,-3.85962536,-2.9587739\C,0,8.83062014,-3.14338486,-4.336320
 03\H,0,8.27859997,-3.41644574,-5.24235795\H,0,9.34336676,-2.19592475,-
 4.56046579\C,0,9.88084559,-4.2223111,-4.03122586\H,0,9.37363936,-5.181
 54613,-3.84481468\H,0,10.38815373,-3.96075377,-3.09154852\C,0,10.95307
 831,-4.43142954,-5.12006517\H,0,11.41878322,-3.45376173,-5.31938302\C,
 0,12.05345797,-5.37948473,-4.61723279\H,0,11.64263188,-6.37371554,-4.3
 9915748\H,0,12.84412481,-5.50461965,-5.365849\H,0,12.51728093,-5.00250
 97,-3.69851041\C,0,10.36147133,-4.94940148,-6.44120532\H,0,9.85916686,
 -5.91387814,-6.289876\H,0,11.1478797,-5.09964613,-7.18969046\H,0,9.630
 42051,-4.2550912,-6.8672605\\Version=EM64L-G09RevD.01\HF=-1273.6849483
 \RMSD=5.190e-07\Dipole=-0.4373453,0.3178867,-0.4458141\Quadrupole=-12.
 2396356,10.2375332,2.0021025,-1.5980332,2.6877016,-0.3278071\PG=C01 [X
 (C27H46O3)]\\@


 IN THE UNIVERSE THE DIFFICULT THINGS ARE DONE AS IF THEY WERE EASY.

                                                          -- LAO-TSU
 Job cpu time:       0 days  0 hours 11 minutes 37.2 seconds.
 File lengths (MBytes):  RWF=    159 Int=      0 D2E=      0 Chk=     11 Scr=      1
 Normal termination of Gaussian 09 at Thu Apr 27 15:14:09 2017.
