 Entering Gaussian System, Link 0=/home/michal/g09/g09
 Input=JOB2-gau_m1-2-1.com
 Output=JOB2-gau_m1-2-1.log
 Initial command:
 /home/michal/g09/l1.exe "/home/michal/gauss_scratch/Gau-27342.inp" -scrdir="/home/michal/gauss_scratch/"
 Entering Link 1 = /home/michal/g09/l1.exe PID=     27343.
  
 Copyright (c) 1988,1990,1992,1993,1995,1998,2003,2009,2013,
            Gaussian, Inc.  All Rights Reserved.
  
 This is part of the Gaussian(R) 09 program.  It is based on
 the Gaussian(R) 03 system (copyright 2003, Gaussian, Inc.),
 the Gaussian(R) 98 system (copyright 1998, Gaussian, Inc.),
 the Gaussian(R) 94 system (copyright 1995, Gaussian, Inc.),
 the Gaussian 92(TM) system (copyright 1992, Gaussian, Inc.),
 the Gaussian 90(TM) system (copyright 1990, Gaussian, Inc.),
 the Gaussian 88(TM) system (copyright 1988, Gaussian, Inc.),
 the Gaussian 86(TM) system (copyright 1986, Carnegie Mellon
 University), and the Gaussian 82(TM) system (copyright 1983,
 Carnegie Mellon University). Gaussian is a federally registered
 trademark of Gaussian, Inc.
  
 This software contains proprietary and confidential information,
 including trade secrets, belonging to Gaussian, Inc.
  
 This software is provided under written license and may be
 used, copied, transmitted, or stored only in accord with that
 written license.
  
 The following legend is applicable only to US Government
 contracts under FAR:
  
                    RESTRICTED RIGHTS LEGEND
  
 Use, reproduction and disclosure by the US Government is
 subject to restrictions as set forth in subparagraphs (a)
 and (c) of the Commercial Computer Software - Restricted
 Rights clause in FAR 52.227-19.
  
 Gaussian, Inc.
 340 Quinnipiac St., Bldg. 40, Wallingford CT 06492
  
  
 ---------------------------------------------------------------
 Warning -- This program may not be used in any manner that
 competes with the business of Gaussian, Inc. or will provide
 assistance to any competitor of Gaussian, Inc.  The licensee
 of this program is prohibited from giving any competitor of
 Gaussian, Inc. access to this program.  By using this program,
 the user acknowledges that Gaussian, Inc. is engaged in the
 business of creating and licensing software in the field of
 computational chemistry and represents and warrants to the
 licensee that it is not a competitor of Gaussian, Inc. and that
 it will not use this program in any manner prohibited above.
 ---------------------------------------------------------------
  

 Cite this work as:
 Gaussian 09, Revision D.01,
 M. J. Frisch, G. W. Trucks, H. B. Schlegel, G. E. Scuseria, 
 M. A. Robb, J. R. Cheeseman, G. Scalmani, V. Barone, B. Mennucci, 
 G. A. Petersson, H. Nakatsuji, M. Caricato, X. Li, H. P. Hratchian, 
 A. F. Izmaylov, J. Bloino, G. Zheng, J. L. Sonnenberg, M. Hada, 
 M. Ehara, K. Toyota, R. Fukuda, J. Hasegawa, M. Ishida, T. Nakajima, 
 Y. Honda, O. Kitao, H. Nakai, T. Vreven, J. A. Montgomery, Jr., 
 J. E. Peralta, F. Ogliaro, M. Bearpark, J. J. Heyd, E. Brothers, 
 K. N. Kudin, V. N. Staroverov, T. Keith, R. Kobayashi, J. Normand, 
 K. Raghavachari, A. Rendell, J. C. Burant, S. S. Iyengar, J. Tomasi, 
 M. Cossi, N. Rega, J. M. Millam, M. Klene, J. E. Knox, J. B. Cross, 
 V. Bakken, C. Adamo, J. Jaramillo, R. Gomperts, R. E. Stratmann, 
 O. Yazyev, A. J. Austin, R. Cammi, C. Pomelli, J. W. Ochterski, 
 R. L. Martin, K. Morokuma, V. G. Zakrzewski, G. A. Voth, 
 P. Salvador, J. J. Dannenberg, S. Dapprich, A. D. Daniels, 
 O. Farkas, J. B. Foresman, J. V. Ortiz, J. Cioslowski, 
 and D. J. Fox, Gaussian, Inc., Wallingford CT, 2013.
 
 ******************************************
 Gaussian 09:  EM64L-G09RevD.01 24-Apr-2013
                27-Apr-2017 
 ******************************************
 %Mem=256MB
 %NProc=12
 Will use up to   12 processors via shared memory.
 ----------------------------------------------------------------------
 #P HF/6-31G* SCF(Conver=6) NoSymm Test Pop=mk IOp(6/33=2) GFInput GFPr
 int
 ----------------------------------------------------------------------
 1/38=1/1;
 2/12=2,15=1,17=6,18=5,40=1/2;
 3/5=1,6=6,7=1,11=9,16=1,24=110,25=1,30=1/1,2,3;
 4//1;
 5/5=2,6=6,38=5/2;
 6/7=2,8=2,9=2,10=2,15=8,20=1,28=1,33=2/1,2;
 99/5=1,9=1/99;
 Leave Link    1 at Thu Apr 27 14:58:17 2017, MaxMem=    33554432 cpu:         0.6
 (Enter /home/michal/g09/l101.exe)
 ----------------------------------------------
 MEP - Input generated by R.E.D.-III.x MOLECULE
 ----------------------------------------------
 Symbolic Z-matrix:
 Charge =  0 Multiplicity = 1
 C                     1.75948  -1.24751  -0.07498 
 H                     1.87261  -1.11896  -1.15846 
 C                     3.15123  -1.31259   0.56905 
 H                     3.72971  -2.12721   0.12279 
 H                     3.01464  -1.5683    1.63257 
 C                     3.91321  -0.00549   0.45526 
 C                     3.18744   1.26909   0.89735 
 C                     1.74689   1.25319   0.29745 
 H                     1.82118   1.45222  -0.78075 
 H                     1.16319   2.07516   0.72535 
 C                     0.97761  -0.06265   0.49138 
 H                     0.78189  -0.24039   1.55921 
 H                     0.        0.        0. 
 C                     5.17297   0.        0. 
 H                     5.639    -0.9329   -0.30925 
 C                     6.05903   1.20711  -0.09214 
 H                     6.31638   1.4081   -1.1437 
 C                     5.48121   2.47313   0.56163 
 H                     5.69821   2.40283   1.63567 
 C                     3.94269   2.52675   0.3464 
 H                     3.79252   2.50605  -0.74535 
 C                     3.35726   3.86453   0.85281 
 H                     3.39116   3.89154   1.94739 
 H                     2.29764   3.9259    0.58221 
 C                     4.07086   5.11502   0.30391 
 H                     3.91345   5.1773   -0.78264 
 H                     3.59745   6.00152   0.73693 
 C                     5.58748   5.08298   0.58103 
 C                     6.12005   3.74883  -0.0185 
 H                     5.8181    3.7726   -1.07977 
 C                     7.64777   3.91165   0. 
 H                     8.14223   3.27063  -0.73649 
 H                     8.05605   3.63491   0.9772 
 C                     7.86073   5.41997  -0.29897 
 H                     8.54832   5.86692   0.42903 
 H                     8.31556   5.56869  -1.28297 
 C                     6.45806   6.11277  -0.22146 
 H                     6.03554   6.13866  -1.23869 
 C                     5.87225   5.20263   2.09575 
 H                     5.43841   4.37858   2.66771 
 H                     6.94489   5.21376   2.31077 
 H                     5.4501    6.13007   2.49616 
 C                     6.54789   7.58451   0.26024 
 H                     7.02947   7.58485   1.25018 
 C                     5.17535   8.26611   0.40032 
 H                     4.61867   8.22505  -0.54454 
 H                     5.28344   9.31927   0.6757 
 H                     4.55838   7.79873   1.17074 
 C                     3.1066    1.27945   2.44735 
 H                     2.46646   2.09057   2.80824 
 H                     2.68996   0.34493   2.832 
 H                     4.09805   1.39638   2.89487 
 O                     7.30266   0.95828   0.61115 
 O                     8.03685  -0.0631   -0.12914 
 H                     8.80264   0.45575  -0.42556 
 O                     1.05257  -2.48385   0.05814 
 H                     0.92241  -2.66605   0.99945 
 C                     7.4594    8.40199  -0.68933 
 H                     8.39465   7.85401  -0.85359 
 H                     6.9681    8.46603  -1.67114 
 C                     7.82651   9.81042  -0.19135 
 H                     6.93803   10.45115  -0.15606 
 H                     8.18172   9.73315   0.84614 
 C                     8.92535   10.5033  -1.01842 
 H                     9.83407   9.88521  -0.97975 
 H                     9.18502   11.45454  -0.53053 
 C                     8.59857   10.79543  -2.49858 
 H                     8.35702   9.84307  -2.9921 
 C                     7.3889    11.72984  -2.65929 
 H                     7.57005   12.69073  -2.16013 
 H                     7.19318   11.93773  -3.7174 
 H                     6.47564   11.30082  -2.23432 
 C                     9.83008   11.38151  -3.20753 
 H                     10.1189   12.34137  -2.76018 
 H                     9.63144   11.55746  -4.27092 
 H                     10.69175   10.70803  -3.13413 
 
 NAtoms=     76 NQM=       76 NQMF=       0 NMMI=      0 NMMIF=      0
                NMic=       0 NMicF=      0.
                    Isotopes and Nuclear Properties:
 (Nuclear quadrupole moments (NQMom) in fm**2, nuclear magnetic moments (NMagM)
  in nuclear magnetons)

  Atom         1           2           3           4           5           6           7           8           9          10
 IAtWgt=          12           1          12           1           1          12          12          12           1           1
 AtmWgt=  12.0000000   1.0078250  12.0000000   1.0078250   1.0078250  12.0000000  12.0000000  12.0000000   1.0078250   1.0078250
 NucSpn=           0           1           0           1           1           0           0           0           1           1
 AtZEff=   0.0000000   0.0000000   0.0000000   0.0000000   0.0000000   0.0000000   0.0000000   0.0000000   0.0000000   0.0000000
 NQMom=    0.0000000   0.0000000   0.0000000   0.0000000   0.0000000   0.0000000   0.0000000   0.0000000   0.0000000   0.0000000
 NMagM=    0.0000000   2.7928460   0.0000000   2.7928460   2.7928460   0.0000000   0.0000000   0.0000000   2.7928460   2.7928460
 AtZNuc=   6.0000000   1.0000000   6.0000000   1.0000000   1.0000000   6.0000000   6.0000000   6.0000000   1.0000000   1.0000000

  Atom        11          12          13          14          15          16          17          18          19          20
 IAtWgt=          12           1           1          12           1          12           1          12           1          12
 AtmWgt=  12.0000000   1.0078250   1.0078250  12.0000000   1.0078250  12.0000000   1.0078250  12.0000000   1.0078250  12.0000000
 NucSpn=           0           1           1           0           1           0           1           0           1           0
 AtZEff=   0.0000000   0.0000000   0.0000000   0.0000000   0.0000000   0.0000000   0.0000000   0.0000000   0.0000000   0.0000000
 NQMom=    0.0000000   0.0000000   0.0000000   0.0000000   0.0000000   0.0000000   0.0000000   0.0000000   0.0000000   0.0000000
 NMagM=    0.0000000   2.7928460   2.7928460   0.0000000   2.7928460   0.0000000   2.7928460   0.0000000   2.7928460   0.0000000
 AtZNuc=   6.0000000   1.0000000   1.0000000   6.0000000   1.0000000   6.0000000   1.0000000   6.0000000   1.0000000   6.0000000

  Atom        21          22          23          24          25          26          27          28          29          30
 IAtWgt=           1          12           1           1          12           1           1          12          12           1
 AtmWgt=   1.0078250  12.0000000   1.0078250   1.0078250  12.0000000   1.0078250   1.0078250  12.0000000  12.0000000   1.0078250
 NucSpn=           1           0           1           1           0           1           1           0           0           1
 AtZEff=   0.0000000   0.0000000   0.0000000   0.0000000   0.0000000   0.0000000   0.0000000   0.0000000   0.0000000   0.0000000
 NQMom=    0.0000000   0.0000000   0.0000000   0.0000000   0.0000000   0.0000000   0.0000000   0.0000000   0.0000000   0.0000000
 NMagM=    2.7928460   0.0000000   2.7928460   2.7928460   0.0000000   2.7928460   2.7928460   0.0000000   0.0000000   2.7928460
 AtZNuc=   1.0000000   6.0000000   1.0000000   1.0000000   6.0000000   1.0000000   1.0000000   6.0000000   6.0000000   1.0000000

  Atom        31          32          33          34          35          36          37          38          39          40
 IAtWgt=          12           1           1          12           1           1          12           1          12           1
 AtmWgt=  12.0000000   1.0078250   1.0078250  12.0000000   1.0078250   1.0078250  12.0000000   1.0078250  12.0000000   1.0078250
 NucSpn=           0           1           1           0           1           1           0           1           0           1
 AtZEff=   0.0000000   0.0000000   0.0000000   0.0000000   0.0000000   0.0000000   0.0000000   0.0000000   0.0000000   0.0000000
 NQMom=    0.0000000   0.0000000   0.0000000   0.0000000   0.0000000   0.0000000   0.0000000   0.0000000   0.0000000   0.0000000
 NMagM=    0.0000000   2.7928460   2.7928460   0.0000000   2.7928460   2.7928460   0.0000000   2.7928460   0.0000000   2.7928460
 AtZNuc=   6.0000000   1.0000000   1.0000000   6.0000000   1.0000000   1.0000000   6.0000000   1.0000000   6.0000000   1.0000000

  Atom        41          42          43          44          45          46          47          48          49          50
 IAtWgt=           1           1          12           1          12           1           1           1          12           1
 AtmWgt=   1.0078250   1.0078250  12.0000000   1.0078250  12.0000000   1.0078250   1.0078250   1.0078250  12.0000000   1.0078250
 NucSpn=           1           1           0           1           0           1           1           1           0           1
 AtZEff=   0.0000000   0.0000000   0.0000000   0.0000000   0.0000000   0.0000000   0.0000000   0.0000000   0.0000000   0.0000000
 NQMom=    0.0000000   0.0000000   0.0000000   0.0000000   0.0000000   0.0000000   0.0000000   0.0000000   0.0000000   0.0000000
 NMagM=    2.7928460   2.7928460   0.0000000   2.7928460   0.0000000   2.7928460   2.7928460   2.7928460   0.0000000   2.7928460
 AtZNuc=   1.0000000   1.0000000   6.0000000   1.0000000   6.0000000   1.0000000   1.0000000   1.0000000   6.0000000   1.0000000

  Atom        51          52          53          54          55          56          57          58          59          60
 IAtWgt=           1           1          16          16           1          16           1          12           1           1
 AtmWgt=   1.0078250   1.0078250  15.9949146  15.9949146   1.0078250  15.9949146   1.0078250  12.0000000   1.0078250   1.0078250
 NucSpn=           1           1           0           0           1           0           1           0           1           1
 AtZEff=   0.0000000   0.0000000   0.0000000   0.0000000   0.0000000   0.0000000   0.0000000   0.0000000   0.0000000   0.0000000
 NQMom=    0.0000000   0.0000000   0.0000000   0.0000000   0.0000000   0.0000000   0.0000000   0.0000000   0.0000000   0.0000000
 NMagM=    2.7928460   2.7928460   0.0000000   0.0000000   2.7928460   0.0000000   2.7928460   0.0000000   2.7928460   2.7928460
 AtZNuc=   1.0000000   1.0000000   8.0000000   8.0000000   1.0000000   8.0000000   1.0000000   6.0000000   1.0000000   1.0000000

  Atom        61          62          63          64          65          66          67          68          69          70
 IAtWgt=          12           1           1          12           1           1          12           1          12           1
 AtmWgt=  12.0000000   1.0078250   1.0078250  12.0000000   1.0078250   1.0078250  12.0000000   1.0078250  12.0000000   1.0078250
 NucSpn=           0           1           1           0           1           1           0           1           0           1
 AtZEff=   0.0000000   0.0000000   0.0000000   0.0000000   0.0000000   0.0000000   0.0000000   0.0000000   0.0000000   0.0000000
 NQMom=    0.0000000   0.0000000   0.0000000   0.0000000   0.0000000   0.0000000   0.0000000   0.0000000   0.0000000   0.0000000
 NMagM=    0.0000000   2.7928460   2.7928460   0.0000000   2.7928460   2.7928460   0.0000000   2.7928460   0.0000000   2.7928460
 AtZNuc=   6.0000000   1.0000000   1.0000000   6.0000000   1.0000000   1.0000000   6.0000000   1.0000000   6.0000000   1.0000000

  Atom        71          72          73          74          75          76
 IAtWgt=           1           1          12           1           1           1
 AtmWgt=   1.0078250   1.0078250  12.0000000   1.0078250   1.0078250   1.0078250
 NucSpn=           1           1           0           1           1           1
 AtZEff=   0.0000000   0.0000000   0.0000000   0.0000000   0.0000000   0.0000000
 NQMom=    0.0000000   0.0000000   0.0000000   0.0000000   0.0000000   0.0000000
 NMagM=    2.7928460   2.7928460   0.0000000   2.7928460   2.7928460   2.7928460
 AtZNuc=   1.0000000   1.0000000   6.0000000   1.0000000   1.0000000   1.0000000
 Leave Link  101 at Thu Apr 27 14:58:17 2017, MaxMem=    33554432 cpu:         1.0
 (Enter /home/michal/g09/l202.exe)
 Symmetry turned off by external request.
 Stoichiometry    C27H46O3
 Framework group  C1[X(C27H46O3)]
 Deg. of freedom   222
 Full point group                 C1      NOp   1
                          Input orientation:                          
 ---------------------------------------------------------------------
 Center     Atomic      Atomic             Coordinates (Angstroms)
 Number     Number       Type             X           Y           Z
 ---------------------------------------------------------------------
      1          6           0        1.759475   -1.247508   -0.074984
      2          1           0        1.872614   -1.118956   -1.158463
      3          6           0        3.151234   -1.312590    0.569052
      4          1           0        3.729711   -2.127211    0.122792
      5          1           0        3.014638   -1.568300    1.632566
      6          6           0        3.913214   -0.005487    0.455260
      7          6           0        3.187437    1.269092    0.897348
      8          6           0        1.746887    1.253188    0.297453
      9          1           0        1.821175    1.452220   -0.780751
     10          1           0        1.163192    2.075159    0.725352
     11          6           0        0.977612   -0.062655    0.491376
     12          1           0        0.781893   -0.240386    1.559212
     13          1           0        0.000000    0.000000    0.000000
     14          6           0        5.172970    0.000000    0.000000
     15          1           0        5.639005   -0.932902   -0.309252
     16          6           0        6.059026    1.207106   -0.092137
     17          1           0        6.316381    1.408101   -1.143705
     18          6           0        5.481215    2.473126    0.561630
     19          1           0        5.698207    2.402829    1.635668
     20          6           0        3.942694    2.526748    0.346399
     21          1           0        3.792519    2.506050   -0.745347
     22          6           0        3.357258    3.864532    0.852808
     23          1           0        3.391162    3.891544    1.947391
     24          1           0        2.297641    3.925895    0.582209
     25          6           0        4.070858    5.115023    0.303905
     26          1           0        3.913453    5.177297   -0.782636
     27          1           0        3.597446    6.001517    0.736929
     28          6           0        5.587477    5.082984    0.581033
     29          6           0        6.120047    3.748828   -0.018501
     30          1           0        5.818096    3.772605   -1.079772
     31          6           0        7.647775    3.911652    0.000000
     32          1           0        8.142226    3.270633   -0.736492
     33          1           0        8.056053    3.634910    0.977196
     34          6           0        7.860734    5.419971   -0.298970
     35          1           0        8.548324    5.866919    0.429033
     36          1           0        8.315561    5.568686   -1.282967
     37          6           0        6.458059    6.112774   -0.221455
     38          1           0        6.035541    6.138658   -1.238693
     39          6           0        5.872253    5.202631    2.095752
     40          1           0        5.438408    4.378575    2.667711
     41          1           0        6.944893    5.213762    2.310774
     42          1           0        5.450097    6.130073    2.496155
     43          6           0        6.547887    7.584507    0.260239
     44          1           0        7.029467    7.584849    1.250179
     45          6           0        5.175351    8.266111    0.400317
     46          1           0        4.618669    8.225052   -0.544544
     47          1           0        5.283438    9.319274    0.675697
     48          1           0        4.558376    7.798732    1.170743
     49          6           0        3.106601    1.279448    2.447350
     50          1           0        2.466464    2.090567    2.808245
     51          1           0        2.689964    0.344932    2.832002
     52          1           0        4.098053    1.396381    2.894873
     53          8           0        7.302661    0.958284    0.611148
     54          8           0        8.036845   -0.063102   -0.129136
     55          1           0        8.802643    0.455747   -0.425559
     56          8           0        1.052572   -2.483853    0.058145
     57          1           0        0.922412   -2.666050    0.999447
     58          6           0        7.459401    8.401995   -0.689335
     59          1           0        8.394646    7.854006   -0.853591
     60          1           0        6.968096    8.466031   -1.671136
     61          6           0        7.826511    9.810421   -0.191355
     62          1           0        6.938031   10.451155   -0.156063
     63          1           0        8.181715    9.733151    0.846138
     64          6           0        8.925353   10.503296   -1.018424
     65          1           0        9.834070    9.885210   -0.979751
     66          1           0        9.185025   11.454540   -0.530532
     67          6           0        8.598569   10.795427   -2.498575
     68          1           0        8.357015    9.843066   -2.992099
     69          6           0        7.388897   11.729836   -2.659293
     70          1           0        7.570055   12.690725   -2.160129
     71          1           0        7.193178   11.937733   -3.717400
     72          1           0        6.475641   11.300825   -2.234325
     73          6           0        9.830081   11.381512   -3.207528
     74          1           0       10.118904   12.341366   -2.760179
     75          1           0        9.631437   11.557461   -4.270918
     76          1           0       10.691749   10.708027   -3.134126
 ---------------------------------------------------------------------
 Rotational constants (GHZ):      0.3468223      0.0539993      0.0502322
 Leave Link  202 at Thu Apr 27 14:58:17 2017, MaxMem=    33554432 cpu:         0.0
 (Enter /home/michal/g09/l301.exe)
 Standard basis: 6-31G(d) (6D, 7F)
 Ernie: Thresh=  0.10000D-02 Tol=  0.10000D-05 Strict=F.
 AO basis set in the form of general basis input (Overlap normalization):
      1 0
 S   6 1.00       0.000000000000
      0.3047524880D+04  0.1834737132D-02
      0.4573695180D+03  0.1403732281D-01
      0.1039486850D+03  0.6884262226D-01
      0.2921015530D+02  0.2321844432D+00
      0.9286662960D+01  0.4679413484D+00
      0.3163926960D+01  0.3623119853D+00
 SP   3 1.00       0.000000000000
      0.7868272350D+01 -0.1193324198D+00  0.6899906659D-01
      0.1881288540D+01 -0.1608541517D+00  0.3164239610D+00
      0.5442492580D+00  0.1143456438D+01  0.7443082909D+00
 SP   1 1.00       0.000000000000
      0.1687144782D+00  0.1000000000D+01  0.1000000000D+01
 D   1 1.00       0.000000000000
      0.8000000000D+00  0.1000000000D+01
 ****
      2 0
 S   3 1.00       0.000000000000
      0.1873113696D+02  0.3349460434D-01
      0.2825394365D+01  0.2347269535D+00
      0.6401216923D+00  0.8137573261D+00
 S   1 1.00       0.000000000000
      0.1612777588D+00  0.1000000000D+01
 ****
      3 0
 S   6 1.00       0.000000000000
      0.3047524880D+04  0.1834737132D-02
      0.4573695180D+03  0.1403732281D-01
      0.1039486850D+03  0.6884262226D-01
      0.2921015530D+02  0.2321844432D+00
      0.9286662960D+01  0.4679413484D+00
      0.3163926960D+01  0.3623119853D+00
 SP   3 1.00       0.000000000000
      0.7868272350D+01 -0.1193324198D+00  0.6899906659D-01
      0.1881288540D+01 -0.1608541517D+00  0.3164239610D+00
      0.5442492580D+00  0.1143456438D+01  0.7443082909D+00
 SP   1 1.00       0.000000000000
      0.1687144782D+00  0.1000000000D+01  0.1000000000D+01
 D   1 1.00       0.000000000000
      0.8000000000D+00  0.1000000000D+01
 ****
      4 0
 S   3 1.00       0.000000000000
      0.1873113696D+02  0.3349460434D-01
      0.2825394365D+01  0.2347269535D+00
      0.6401216923D+00  0.8137573261D+00
 S   1 1.00       0.000000000000
      0.1612777588D+00  0.1000000000D+01
 ****
      5 0
 S   3 1.00       0.000000000000
      0.1873113696D+02  0.3349460434D-01
      0.2825394365D+01  0.2347269535D+00
      0.6401216923D+00  0.8137573261D+00
 S   1 1.00       0.000000000000
      0.1612777588D+00  0.1000000000D+01
 ****
      6 0
 S   6 1.00       0.000000000000
      0.3047524880D+04  0.1834737132D-02
      0.4573695180D+03  0.1403732281D-01
      0.1039486850D+03  0.6884262226D-01
      0.2921015530D+02  0.2321844432D+00
      0.9286662960D+01  0.4679413484D+00
      0.3163926960D+01  0.3623119853D+00
 SP   3 1.00       0.000000000000
      0.7868272350D+01 -0.1193324198D+00  0.6899906659D-01
      0.1881288540D+01 -0.1608541517D+00  0.3164239610D+00
      0.5442492580D+00  0.1143456438D+01  0.7443082909D+00
 SP   1 1.00       0.000000000000
      0.1687144782D+00  0.1000000000D+01  0.1000000000D+01
 D   1 1.00       0.000000000000
      0.8000000000D+00  0.1000000000D+01
 ****
      7 0
 S   6 1.00       0.000000000000
      0.3047524880D+04  0.1834737132D-02
      0.4573695180D+03  0.1403732281D-01
      0.1039486850D+03  0.6884262226D-01
      0.2921015530D+02  0.2321844432D+00
      0.9286662960D+01  0.4679413484D+00
      0.3163926960D+01  0.3623119853D+00
 SP   3 1.00       0.000000000000
      0.7868272350D+01 -0.1193324198D+00  0.6899906659D-01
      0.1881288540D+01 -0.1608541517D+00  0.3164239610D+00
      0.5442492580D+00  0.1143456438D+01  0.7443082909D+00
 SP   1 1.00       0.000000000000
      0.1687144782D+00  0.1000000000D+01  0.1000000000D+01
 D   1 1.00       0.000000000000
      0.8000000000D+00  0.1000000000D+01
 ****
      8 0
 S   6 1.00       0.000000000000
      0.3047524880D+04  0.1834737132D-02
      0.4573695180D+03  0.1403732281D-01
      0.1039486850D+03  0.6884262226D-01
      0.2921015530D+02  0.2321844432D+00
      0.9286662960D+01  0.4679413484D+00
      0.3163926960D+01  0.3623119853D+00
 SP   3 1.00       0.000000000000
      0.7868272350D+01 -0.1193324198D+00  0.6899906659D-01
      0.1881288540D+01 -0.1608541517D+00  0.3164239610D+00
      0.5442492580D+00  0.1143456438D+01  0.7443082909D+00
 SP   1 1.00       0.000000000000
      0.1687144782D+00  0.1000000000D+01  0.1000000000D+01
 D   1 1.00       0.000000000000
      0.8000000000D+00  0.1000000000D+01
 ****
      9 0
 S   3 1.00       0.000000000000
      0.1873113696D+02  0.3349460434D-01
      0.2825394365D+01  0.2347269535D+00
      0.6401216923D+00  0.8137573261D+00
 S   1 1.00       0.000000000000
      0.1612777588D+00  0.1000000000D+01
 ****
     10 0
 S   3 1.00       0.000000000000
      0.1873113696D+02  0.3349460434D-01
      0.2825394365D+01  0.2347269535D+00
      0.6401216923D+00  0.8137573261D+00
 S   1 1.00       0.000000000000
      0.1612777588D+00  0.1000000000D+01
 ****
     11 0
 S   6 1.00       0.000000000000
      0.3047524880D+04  0.1834737132D-02
      0.4573695180D+03  0.1403732281D-01
      0.1039486850D+03  0.6884262226D-01
      0.2921015530D+02  0.2321844432D+00
      0.9286662960D+01  0.4679413484D+00
      0.3163926960D+01  0.3623119853D+00
 SP   3 1.00       0.000000000000
      0.7868272350D+01 -0.1193324198D+00  0.6899906659D-01
      0.1881288540D+01 -0.1608541517D+00  0.3164239610D+00
      0.5442492580D+00  0.1143456438D+01  0.7443082909D+00
 SP   1 1.00       0.000000000000
      0.1687144782D+00  0.1000000000D+01  0.1000000000D+01
 D   1 1.00       0.000000000000
      0.8000000000D+00  0.1000000000D+01
 ****
     12 0
 S   3 1.00       0.000000000000
      0.1873113696D+02  0.3349460434D-01
      0.2825394365D+01  0.2347269535D+00
      0.6401216923D+00  0.8137573261D+00
 S   1 1.00       0.000000000000
      0.1612777588D+00  0.1000000000D+01
 ****
     13 0
 S   3 1.00       0.000000000000
      0.1873113696D+02  0.3349460434D-01
      0.2825394365D+01  0.2347269535D+00
      0.6401216923D+00  0.8137573261D+00
 S   1 1.00       0.000000000000
      0.1612777588D+00  0.1000000000D+01
 ****
     14 0
 S   6 1.00       0.000000000000
      0.3047524880D+04  0.1834737132D-02
      0.4573695180D+03  0.1403732281D-01
      0.1039486850D+03  0.6884262226D-01
      0.2921015530D+02  0.2321844432D+00
      0.9286662960D+01  0.4679413484D+00
      0.3163926960D+01  0.3623119853D+00
 SP   3 1.00       0.000000000000
      0.7868272350D+01 -0.1193324198D+00  0.6899906659D-01
      0.1881288540D+01 -0.1608541517D+00  0.3164239610D+00
      0.5442492580D+00  0.1143456438D+01  0.7443082909D+00
 SP   1 1.00       0.000000000000
      0.1687144782D+00  0.1000000000D+01  0.1000000000D+01
 D   1 1.00       0.000000000000
      0.8000000000D+00  0.1000000000D+01
 ****
     15 0
 S   3 1.00       0.000000000000
      0.1873113696D+02  0.3349460434D-01
      0.2825394365D+01  0.2347269535D+00
      0.6401216923D+00  0.8137573261D+00
 S   1 1.00       0.000000000000
      0.1612777588D+00  0.1000000000D+01
 ****
     16 0
 S   6 1.00       0.000000000000
      0.3047524880D+04  0.1834737132D-02
      0.4573695180D+03  0.1403732281D-01
      0.1039486850D+03  0.6884262226D-01
      0.2921015530D+02  0.2321844432D+00
      0.9286662960D+01  0.4679413484D+00
      0.3163926960D+01  0.3623119853D+00
 SP   3 1.00       0.000000000000
      0.7868272350D+01 -0.1193324198D+00  0.6899906659D-01
      0.1881288540D+01 -0.1608541517D+00  0.3164239610D+00
      0.5442492580D+00  0.1143456438D+01  0.7443082909D+00
 SP   1 1.00       0.000000000000
      0.1687144782D+00  0.1000000000D+01  0.1000000000D+01
 D   1 1.00       0.000000000000
      0.8000000000D+00  0.1000000000D+01
 ****
     17 0
 S   3 1.00       0.000000000000
      0.1873113696D+02  0.3349460434D-01
      0.2825394365D+01  0.2347269535D+00
      0.6401216923D+00  0.8137573261D+00
 S   1 1.00       0.000000000000
      0.1612777588D+00  0.1000000000D+01
 ****
     18 0
 S   6 1.00       0.000000000000
      0.3047524880D+04  0.1834737132D-02
      0.4573695180D+03  0.1403732281D-01
      0.1039486850D+03  0.6884262226D-01
      0.2921015530D+02  0.2321844432D+00
      0.9286662960D+01  0.4679413484D+00
      0.3163926960D+01  0.3623119853D+00
 SP   3 1.00       0.000000000000
      0.7868272350D+01 -0.1193324198D+00  0.6899906659D-01
      0.1881288540D+01 -0.1608541517D+00  0.3164239610D+00
      0.5442492580D+00  0.1143456438D+01  0.7443082909D+00
 SP   1 1.00       0.000000000000
      0.1687144782D+00  0.1000000000D+01  0.1000000000D+01
 D   1 1.00       0.000000000000
      0.8000000000D+00  0.1000000000D+01
 ****
     19 0
 S   3 1.00       0.000000000000
      0.1873113696D+02  0.3349460434D-01
      0.2825394365D+01  0.2347269535D+00
      0.6401216923D+00  0.8137573261D+00
 S   1 1.00       0.000000000000
      0.1612777588D+00  0.1000000000D+01
 ****
     20 0
 S   6 1.00       0.000000000000
      0.3047524880D+04  0.1834737132D-02
      0.4573695180D+03  0.1403732281D-01
      0.1039486850D+03  0.6884262226D-01
      0.2921015530D+02  0.2321844432D+00
      0.9286662960D+01  0.4679413484D+00
      0.3163926960D+01  0.3623119853D+00
 SP   3 1.00       0.000000000000
      0.7868272350D+01 -0.1193324198D+00  0.6899906659D-01
      0.1881288540D+01 -0.1608541517D+00  0.3164239610D+00
      0.5442492580D+00  0.1143456438D+01  0.7443082909D+00
 SP   1 1.00       0.000000000000
      0.1687144782D+00  0.1000000000D+01  0.1000000000D+01
 D   1 1.00       0.000000000000
      0.8000000000D+00  0.1000000000D+01
 ****
     21 0
 S   3 1.00       0.000000000000
      0.1873113696D+02  0.3349460434D-01
      0.2825394365D+01  0.2347269535D+00
      0.6401216923D+00  0.8137573261D+00
 S   1 1.00       0.000000000000
      0.1612777588D+00  0.1000000000D+01
 ****
     22 0
 S   6 1.00       0.000000000000
      0.3047524880D+04  0.1834737132D-02
      0.4573695180D+03  0.1403732281D-01
      0.1039486850D+03  0.6884262226D-01
      0.2921015530D+02  0.2321844432D+00
      0.9286662960D+01  0.4679413484D+00
      0.3163926960D+01  0.3623119853D+00
 SP   3 1.00       0.000000000000
      0.7868272350D+01 -0.1193324198D+00  0.6899906659D-01
      0.1881288540D+01 -0.1608541517D+00  0.3164239610D+00
      0.5442492580D+00  0.1143456438D+01  0.7443082909D+00
 SP   1 1.00       0.000000000000
      0.1687144782D+00  0.1000000000D+01  0.1000000000D+01
 D   1 1.00       0.000000000000
      0.8000000000D+00  0.1000000000D+01
 ****
     23 0
 S   3 1.00       0.000000000000
      0.1873113696D+02  0.3349460434D-01
      0.2825394365D+01  0.2347269535D+00
      0.6401216923D+00  0.8137573261D+00
 S   1 1.00       0.000000000000
      0.1612777588D+00  0.1000000000D+01
 ****
     24 0
 S   3 1.00       0.000000000000
      0.1873113696D+02  0.3349460434D-01
      0.2825394365D+01  0.2347269535D+00
      0.6401216923D+00  0.8137573261D+00
 S   1 1.00       0.000000000000
      0.1612777588D+00  0.1000000000D+01
 ****
     25 0
 S   6 1.00       0.000000000000
      0.3047524880D+04  0.1834737132D-02
      0.4573695180D+03  0.1403732281D-01
      0.1039486850D+03  0.6884262226D-01
      0.2921015530D+02  0.2321844432D+00
      0.9286662960D+01  0.4679413484D+00
      0.3163926960D+01  0.3623119853D+00
 SP   3 1.00       0.000000000000
      0.7868272350D+01 -0.1193324198D+00  0.6899906659D-01
      0.1881288540D+01 -0.1608541517D+00  0.3164239610D+00
      0.5442492580D+00  0.1143456438D+01  0.7443082909D+00
 SP   1 1.00       0.000000000000
      0.1687144782D+00  0.1000000000D+01  0.1000000000D+01
 D   1 1.00       0.000000000000
      0.8000000000D+00  0.1000000000D+01
 ****
     26 0
 S   3 1.00       0.000000000000
      0.1873113696D+02  0.3349460434D-01
      0.2825394365D+01  0.2347269535D+00
      0.6401216923D+00  0.8137573261D+00
 S   1 1.00       0.000000000000
      0.1612777588D+00  0.1000000000D+01
 ****
     27 0
 S   3 1.00       0.000000000000
      0.1873113696D+02  0.3349460434D-01
      0.2825394365D+01  0.2347269535D+00
      0.6401216923D+00  0.8137573261D+00
 S   1 1.00       0.000000000000
      0.1612777588D+00  0.1000000000D+01
 ****
     28 0
 S   6 1.00       0.000000000000
      0.3047524880D+04  0.1834737132D-02
      0.4573695180D+03  0.1403732281D-01
      0.1039486850D+03  0.6884262226D-01
      0.2921015530D+02  0.2321844432D+00
      0.9286662960D+01  0.4679413484D+00
      0.3163926960D+01  0.3623119853D+00
 SP   3 1.00       0.000000000000
      0.7868272350D+01 -0.1193324198D+00  0.6899906659D-01
      0.1881288540D+01 -0.1608541517D+00  0.3164239610D+00
      0.5442492580D+00  0.1143456438D+01  0.7443082909D+00
 SP   1 1.00       0.000000000000
      0.1687144782D+00  0.1000000000D+01  0.1000000000D+01
 D   1 1.00       0.000000000000
      0.8000000000D+00  0.1000000000D+01
 ****
     29 0
 S   6 1.00       0.000000000000
      0.3047524880D+04  0.1834737132D-02
      0.4573695180D+03  0.1403732281D-01
      0.1039486850D+03  0.6884262226D-01
      0.2921015530D+02  0.2321844432D+00
      0.9286662960D+01  0.4679413484D+00
      0.3163926960D+01  0.3623119853D+00
 SP   3 1.00       0.000000000000
      0.7868272350D+01 -0.1193324198D+00  0.6899906659D-01
      0.1881288540D+01 -0.1608541517D+00  0.3164239610D+00
      0.5442492580D+00  0.1143456438D+01  0.7443082909D+00
 SP   1 1.00       0.000000000000
      0.1687144782D+00  0.1000000000D+01  0.1000000000D+01
 D   1 1.00       0.000000000000
      0.8000000000D+00  0.1000000000D+01
 ****
     30 0
 S   3 1.00       0.000000000000
      0.1873113696D+02  0.3349460434D-01
      0.2825394365D+01  0.2347269535D+00
      0.6401216923D+00  0.8137573261D+00
 S   1 1.00       0.000000000000
      0.1612777588D+00  0.1000000000D+01
 ****
     31 0
 S   6 1.00       0.000000000000
      0.3047524880D+04  0.1834737132D-02
      0.4573695180D+03  0.1403732281D-01
      0.1039486850D+03  0.6884262226D-01
      0.2921015530D+02  0.2321844432D+00
      0.9286662960D+01  0.4679413484D+00
      0.3163926960D+01  0.3623119853D+00
 SP   3 1.00       0.000000000000
      0.7868272350D+01 -0.1193324198D+00  0.6899906659D-01
      0.1881288540D+01 -0.1608541517D+00  0.3164239610D+00
      0.5442492580D+00  0.1143456438D+01  0.7443082909D+00
 SP   1 1.00       0.000000000000
      0.1687144782D+00  0.1000000000D+01  0.1000000000D+01
 D   1 1.00       0.000000000000
      0.8000000000D+00  0.1000000000D+01
 ****
     32 0
 S   3 1.00       0.000000000000
      0.1873113696D+02  0.3349460434D-01
      0.2825394365D+01  0.2347269535D+00
      0.6401216923D+00  0.8137573261D+00
 S   1 1.00       0.000000000000
      0.1612777588D+00  0.1000000000D+01
 ****
     33 0
 S   3 1.00       0.000000000000
      0.1873113696D+02  0.3349460434D-01
      0.2825394365D+01  0.2347269535D+00
      0.6401216923D+00  0.8137573261D+00
 S   1 1.00       0.000000000000
      0.1612777588D+00  0.1000000000D+01
 ****
     34 0
 S   6 1.00       0.000000000000
      0.3047524880D+04  0.1834737132D-02
      0.4573695180D+03  0.1403732281D-01
      0.1039486850D+03  0.6884262226D-01
      0.2921015530D+02  0.2321844432D+00
      0.9286662960D+01  0.4679413484D+00
      0.3163926960D+01  0.3623119853D+00
 SP   3 1.00       0.000000000000
      0.7868272350D+01 -0.1193324198D+00  0.6899906659D-01
      0.1881288540D+01 -0.1608541517D+00  0.3164239610D+00
      0.5442492580D+00  0.1143456438D+01  0.7443082909D+00
 SP   1 1.00       0.000000000000
      0.1687144782D+00  0.1000000000D+01  0.1000000000D+01
 D   1 1.00       0.000000000000
      0.8000000000D+00  0.1000000000D+01
 ****
     35 0
 S   3 1.00       0.000000000000
      0.1873113696D+02  0.3349460434D-01
      0.2825394365D+01  0.2347269535D+00
      0.6401216923D+00  0.8137573261D+00
 S   1 1.00       0.000000000000
      0.1612777588D+00  0.1000000000D+01
 ****
     36 0
 S   3 1.00       0.000000000000
      0.1873113696D+02  0.3349460434D-01
      0.2825394365D+01  0.2347269535D+00
      0.6401216923D+00  0.8137573261D+00
 S   1 1.00       0.000000000000
      0.1612777588D+00  0.1000000000D+01
 ****
     37 0
 S   6 1.00       0.000000000000
      0.3047524880D+04  0.1834737132D-02
      0.4573695180D+03  0.1403732281D-01
      0.1039486850D+03  0.6884262226D-01
      0.2921015530D+02  0.2321844432D+00
      0.9286662960D+01  0.4679413484D+00
      0.3163926960D+01  0.3623119853D+00
 SP   3 1.00       0.000000000000
      0.7868272350D+01 -0.1193324198D+00  0.6899906659D-01
      0.1881288540D+01 -0.1608541517D+00  0.3164239610D+00
      0.5442492580D+00  0.1143456438D+01  0.7443082909D+00
 SP   1 1.00       0.000000000000
      0.1687144782D+00  0.1000000000D+01  0.1000000000D+01
 D   1 1.00       0.000000000000
      0.8000000000D+00  0.1000000000D+01
 ****
     38 0
 S   3 1.00       0.000000000000
      0.1873113696D+02  0.3349460434D-01
      0.2825394365D+01  0.2347269535D+00
      0.6401216923D+00  0.8137573261D+00
 S   1 1.00       0.000000000000
      0.1612777588D+00  0.1000000000D+01
 ****
     39 0
 S   6 1.00       0.000000000000
      0.3047524880D+04  0.1834737132D-02
      0.4573695180D+03  0.1403732281D-01
      0.1039486850D+03  0.6884262226D-01
      0.2921015530D+02  0.2321844432D+00
      0.9286662960D+01  0.4679413484D+00
      0.3163926960D+01  0.3623119853D+00
 SP   3 1.00       0.000000000000
      0.7868272350D+01 -0.1193324198D+00  0.6899906659D-01
      0.1881288540D+01 -0.1608541517D+00  0.3164239610D+00
      0.5442492580D+00  0.1143456438D+01  0.7443082909D+00
 SP   1 1.00       0.000000000000
      0.1687144782D+00  0.1000000000D+01  0.1000000000D+01
 D   1 1.00       0.000000000000
      0.8000000000D+00  0.1000000000D+01
 ****
     40 0
 S   3 1.00       0.000000000000
      0.1873113696D+02  0.3349460434D-01
      0.2825394365D+01  0.2347269535D+00
      0.6401216923D+00  0.8137573261D+00
 S   1 1.00       0.000000000000
      0.1612777588D+00  0.1000000000D+01
 ****
     41 0
 S   3 1.00       0.000000000000
      0.1873113696D+02  0.3349460434D-01
      0.2825394365D+01  0.2347269535D+00
      0.6401216923D+00  0.8137573261D+00
 S   1 1.00       0.000000000000
      0.1612777588D+00  0.1000000000D+01
 ****
     42 0
 S   3 1.00       0.000000000000
      0.1873113696D+02  0.3349460434D-01
      0.2825394365D+01  0.2347269535D+00
      0.6401216923D+00  0.8137573261D+00
 S   1 1.00       0.000000000000
      0.1612777588D+00  0.1000000000D+01
 ****
     43 0
 S   6 1.00       0.000000000000
      0.3047524880D+04  0.1834737132D-02
      0.4573695180D+03  0.1403732281D-01
      0.1039486850D+03  0.6884262226D-01
      0.2921015530D+02  0.2321844432D+00
      0.9286662960D+01  0.4679413484D+00
      0.3163926960D+01  0.3623119853D+00
 SP   3 1.00       0.000000000000
      0.7868272350D+01 -0.1193324198D+00  0.6899906659D-01
      0.1881288540D+01 -0.1608541517D+00  0.3164239610D+00
      0.5442492580D+00  0.1143456438D+01  0.7443082909D+00
 SP   1 1.00       0.000000000000
      0.1687144782D+00  0.1000000000D+01  0.1000000000D+01
 D   1 1.00       0.000000000000
      0.8000000000D+00  0.1000000000D+01
 ****
     44 0
 S   3 1.00       0.000000000000
      0.1873113696D+02  0.3349460434D-01
      0.2825394365D+01  0.2347269535D+00
      0.6401216923D+00  0.8137573261D+00
 S   1 1.00       0.000000000000
      0.1612777588D+00  0.1000000000D+01
 ****
     45 0
 S   6 1.00       0.000000000000
      0.3047524880D+04  0.1834737132D-02
      0.4573695180D+03  0.1403732281D-01
      0.1039486850D+03  0.6884262226D-01
      0.2921015530D+02  0.2321844432D+00
      0.9286662960D+01  0.4679413484D+00
      0.3163926960D+01  0.3623119853D+00
 SP   3 1.00       0.000000000000
      0.7868272350D+01 -0.1193324198D+00  0.6899906659D-01
      0.1881288540D+01 -0.1608541517D+00  0.3164239610D+00
      0.5442492580D+00  0.1143456438D+01  0.7443082909D+00
 SP   1 1.00       0.000000000000
      0.1687144782D+00  0.1000000000D+01  0.1000000000D+01
 D   1 1.00       0.000000000000
      0.8000000000D+00  0.1000000000D+01
 ****
     46 0
 S   3 1.00       0.000000000000
      0.1873113696D+02  0.3349460434D-01
      0.2825394365D+01  0.2347269535D+00
      0.6401216923D+00  0.8137573261D+00
 S   1 1.00       0.000000000000
      0.1612777588D+00  0.1000000000D+01
 ****
     47 0
 S   3 1.00       0.000000000000
      0.1873113696D+02  0.3349460434D-01
      0.2825394365D+01  0.2347269535D+00
      0.6401216923D+00  0.8137573261D+00
 S   1 1.00       0.000000000000
      0.1612777588D+00  0.1000000000D+01
 ****
     48 0
 S   3 1.00       0.000000000000
      0.1873113696D+02  0.3349460434D-01
      0.2825394365D+01  0.2347269535D+00
      0.6401216923D+00  0.8137573261D+00
 S   1 1.00       0.000000000000
      0.1612777588D+00  0.1000000000D+01
 ****
     49 0
 S   6 1.00       0.000000000000
      0.3047524880D+04  0.1834737132D-02
      0.4573695180D+03  0.1403732281D-01
      0.1039486850D+03  0.6884262226D-01
      0.2921015530D+02  0.2321844432D+00
      0.9286662960D+01  0.4679413484D+00
      0.3163926960D+01  0.3623119853D+00
 SP   3 1.00       0.000000000000
      0.7868272350D+01 -0.1193324198D+00  0.6899906659D-01
      0.1881288540D+01 -0.1608541517D+00  0.3164239610D+00
      0.5442492580D+00  0.1143456438D+01  0.7443082909D+00
 SP   1 1.00       0.000000000000
      0.1687144782D+00  0.1000000000D+01  0.1000000000D+01
 D   1 1.00       0.000000000000
      0.8000000000D+00  0.1000000000D+01
 ****
     50 0
 S   3 1.00       0.000000000000
      0.1873113696D+02  0.3349460434D-01
      0.2825394365D+01  0.2347269535D+00
      0.6401216923D+00  0.8137573261D+00
 S   1 1.00       0.000000000000
      0.1612777588D+00  0.1000000000D+01
 ****
     51 0
 S   3 1.00       0.000000000000
      0.1873113696D+02  0.3349460434D-01
      0.2825394365D+01  0.2347269535D+00
      0.6401216923D+00  0.8137573261D+00
 S   1 1.00       0.000000000000
      0.1612777588D+00  0.1000000000D+01
 ****
     52 0
 S   3 1.00       0.000000000000
      0.1873113696D+02  0.3349460434D-01
      0.2825394365D+01  0.2347269535D+00
      0.6401216923D+00  0.8137573261D+00
 S   1 1.00       0.000000000000
      0.1612777588D+00  0.1000000000D+01
 ****
     53 0
 S   6 1.00       0.000000000000
      0.5484671660D+04  0.1831074430D-02
      0.8252349460D+03  0.1395017220D-01
      0.1880469580D+03  0.6844507810D-01
      0.5296450000D+02  0.2327143360D+00
      0.1689757040D+02  0.4701928980D+00
      0.5799635340D+01  0.3585208530D+00
 SP   3 1.00       0.000000000000
      0.1553961625D+02 -0.1107775495D+00  0.7087426823D-01
      0.3599933586D+01 -0.1480262627D+00  0.3397528391D+00
      0.1013761750D+01  0.1130767015D+01  0.7271585773D+00
 SP   1 1.00       0.000000000000
      0.2700058226D+00  0.1000000000D+01  0.1000000000D+01
 D   1 1.00       0.000000000000
      0.8000000000D+00  0.1000000000D+01
 ****
     54 0
 S   6 1.00       0.000000000000
      0.5484671660D+04  0.1831074430D-02
      0.8252349460D+03  0.1395017220D-01
      0.1880469580D+03  0.6844507810D-01
      0.5296450000D+02  0.2327143360D+00
      0.1689757040D+02  0.4701928980D+00
      0.5799635340D+01  0.3585208530D+00
 SP   3 1.00       0.000000000000
      0.1553961625D+02 -0.1107775495D+00  0.7087426823D-01
      0.3599933586D+01 -0.1480262627D+00  0.3397528391D+00
      0.1013761750D+01  0.1130767015D+01  0.7271585773D+00
 SP   1 1.00       0.000000000000
      0.2700058226D+00  0.1000000000D+01  0.1000000000D+01
 D   1 1.00       0.000000000000
      0.8000000000D+00  0.1000000000D+01
 ****
     55 0
 S   3 1.00       0.000000000000
      0.1873113696D+02  0.3349460434D-01
      0.2825394365D+01  0.2347269535D+00
      0.6401216923D+00  0.8137573261D+00
 S   1 1.00       0.000000000000
      0.1612777588D+00  0.1000000000D+01
 ****
     56 0
 S   6 1.00       0.000000000000
      0.5484671660D+04  0.1831074430D-02
      0.8252349460D+03  0.1395017220D-01
      0.1880469580D+03  0.6844507810D-01
      0.5296450000D+02  0.2327143360D+00
      0.1689757040D+02  0.4701928980D+00
      0.5799635340D+01  0.3585208530D+00
 SP   3 1.00       0.000000000000
      0.1553961625D+02 -0.1107775495D+00  0.7087426823D-01
      0.3599933586D+01 -0.1480262627D+00  0.3397528391D+00
      0.1013761750D+01  0.1130767015D+01  0.7271585773D+00
 SP   1 1.00       0.000000000000
      0.2700058226D+00  0.1000000000D+01  0.1000000000D+01
 D   1 1.00       0.000000000000
      0.8000000000D+00  0.1000000000D+01
 ****
     57 0
 S   3 1.00       0.000000000000
      0.1873113696D+02  0.3349460434D-01
      0.2825394365D+01  0.2347269535D+00
      0.6401216923D+00  0.8137573261D+00
 S   1 1.00       0.000000000000
      0.1612777588D+00  0.1000000000D+01
 ****
     58 0
 S   6 1.00       0.000000000000
      0.3047524880D+04  0.1834737132D-02
      0.4573695180D+03  0.1403732281D-01
      0.1039486850D+03  0.6884262226D-01
      0.2921015530D+02  0.2321844432D+00
      0.9286662960D+01  0.4679413484D+00
      0.3163926960D+01  0.3623119853D+00
 SP   3 1.00       0.000000000000
      0.7868272350D+01 -0.1193324198D+00  0.6899906659D-01
      0.1881288540D+01 -0.1608541517D+00  0.3164239610D+00
      0.5442492580D+00  0.1143456438D+01  0.7443082909D+00
 SP   1 1.00       0.000000000000
      0.1687144782D+00  0.1000000000D+01  0.1000000000D+01
 D   1 1.00       0.000000000000
      0.8000000000D+00  0.1000000000D+01
 ****
     59 0
 S   3 1.00       0.000000000000
      0.1873113696D+02  0.3349460434D-01
      0.2825394365D+01  0.2347269535D+00
      0.6401216923D+00  0.8137573261D+00
 S   1 1.00       0.000000000000
      0.1612777588D+00  0.1000000000D+01
 ****
     60 0
 S   3 1.00       0.000000000000
      0.1873113696D+02  0.3349460434D-01
      0.2825394365D+01  0.2347269535D+00
      0.6401216923D+00  0.8137573261D+00
 S   1 1.00       0.000000000000
      0.1612777588D+00  0.1000000000D+01
 ****
     61 0
 S   6 1.00       0.000000000000
      0.3047524880D+04  0.1834737132D-02
      0.4573695180D+03  0.1403732281D-01
      0.1039486850D+03  0.6884262226D-01
      0.2921015530D+02  0.2321844432D+00
      0.9286662960D+01  0.4679413484D+00
      0.3163926960D+01  0.3623119853D+00
 SP   3 1.00       0.000000000000
      0.7868272350D+01 -0.1193324198D+00  0.6899906659D-01
      0.1881288540D+01 -0.1608541517D+00  0.3164239610D+00
      0.5442492580D+00  0.1143456438D+01  0.7443082909D+00
 SP   1 1.00       0.000000000000
      0.1687144782D+00  0.1000000000D+01  0.1000000000D+01
 D   1 1.00       0.000000000000
      0.8000000000D+00  0.1000000000D+01
 ****
     62 0
 S   3 1.00       0.000000000000
      0.1873113696D+02  0.3349460434D-01
      0.2825394365D+01  0.2347269535D+00
      0.6401216923D+00  0.8137573261D+00
 S   1 1.00       0.000000000000
      0.1612777588D+00  0.1000000000D+01
 ****
     63 0
 S   3 1.00       0.000000000000
      0.1873113696D+02  0.3349460434D-01
      0.2825394365D+01  0.2347269535D+00
      0.6401216923D+00  0.8137573261D+00
 S   1 1.00       0.000000000000
      0.1612777588D+00  0.1000000000D+01
 ****
     64 0
 S   6 1.00       0.000000000000
      0.3047524880D+04  0.1834737132D-02
      0.4573695180D+03  0.1403732281D-01
      0.1039486850D+03  0.6884262226D-01
      0.2921015530D+02  0.2321844432D+00
      0.9286662960D+01  0.4679413484D+00
      0.3163926960D+01  0.3623119853D+00
 SP   3 1.00       0.000000000000
      0.7868272350D+01 -0.1193324198D+00  0.6899906659D-01
      0.1881288540D+01 -0.1608541517D+00  0.3164239610D+00
      0.5442492580D+00  0.1143456438D+01  0.7443082909D+00
 SP   1 1.00       0.000000000000
      0.1687144782D+00  0.1000000000D+01  0.1000000000D+01
 D   1 1.00       0.000000000000
      0.8000000000D+00  0.1000000000D+01
 ****
     65 0
 S   3 1.00       0.000000000000
      0.1873113696D+02  0.3349460434D-01
      0.2825394365D+01  0.2347269535D+00
      0.6401216923D+00  0.8137573261D+00
 S   1 1.00       0.000000000000
      0.1612777588D+00  0.1000000000D+01
 ****
     66 0
 S   3 1.00       0.000000000000
      0.1873113696D+02  0.3349460434D-01
      0.2825394365D+01  0.2347269535D+00
      0.6401216923D+00  0.8137573261D+00
 S   1 1.00       0.000000000000
      0.1612777588D+00  0.1000000000D+01
 ****
     67 0
 S   6 1.00       0.000000000000
      0.3047524880D+04  0.1834737132D-02
      0.4573695180D+03  0.1403732281D-01
      0.1039486850D+03  0.6884262226D-01
      0.2921015530D+02  0.2321844432D+00
      0.9286662960D+01  0.4679413484D+00
      0.3163926960D+01  0.3623119853D+00
 SP   3 1.00       0.000000000000
      0.7868272350D+01 -0.1193324198D+00  0.6899906659D-01
      0.1881288540D+01 -0.1608541517D+00  0.3164239610D+00
      0.5442492580D+00  0.1143456438D+01  0.7443082909D+00
 SP   1 1.00       0.000000000000
      0.1687144782D+00  0.1000000000D+01  0.1000000000D+01
 D   1 1.00       0.000000000000
      0.8000000000D+00  0.1000000000D+01
 ****
     68 0
 S   3 1.00       0.000000000000
      0.1873113696D+02  0.3349460434D-01
      0.2825394365D+01  0.2347269535D+00
      0.6401216923D+00  0.8137573261D+00
 S   1 1.00       0.000000000000
      0.1612777588D+00  0.1000000000D+01
 ****
     69 0
 S   6 1.00       0.000000000000
      0.3047524880D+04  0.1834737132D-02
      0.4573695180D+03  0.1403732281D-01
      0.1039486850D+03  0.6884262226D-01
      0.2921015530D+02  0.2321844432D+00
      0.9286662960D+01  0.4679413484D+00
      0.3163926960D+01  0.3623119853D+00
 SP   3 1.00       0.000000000000
      0.7868272350D+01 -0.1193324198D+00  0.6899906659D-01
      0.1881288540D+01 -0.1608541517D+00  0.3164239610D+00
      0.5442492580D+00  0.1143456438D+01  0.7443082909D+00
 SP   1 1.00       0.000000000000
      0.1687144782D+00  0.1000000000D+01  0.1000000000D+01
 D   1 1.00       0.000000000000
      0.8000000000D+00  0.1000000000D+01
 ****
     70 0
 S   3 1.00       0.000000000000
      0.1873113696D+02  0.3349460434D-01
      0.2825394365D+01  0.2347269535D+00
      0.6401216923D+00  0.8137573261D+00
 S   1 1.00       0.000000000000
      0.1612777588D+00  0.1000000000D+01
 ****
     71 0
 S   3 1.00       0.000000000000
      0.1873113696D+02  0.3349460434D-01
      0.2825394365D+01  0.2347269535D+00
      0.6401216923D+00  0.8137573261D+00
 S   1 1.00       0.000000000000
      0.1612777588D+00  0.1000000000D+01
 ****
     72 0
 S   3 1.00       0.000000000000
      0.1873113696D+02  0.3349460434D-01
      0.2825394365D+01  0.2347269535D+00
      0.6401216923D+00  0.8137573261D+00
 S   1 1.00       0.000000000000
      0.1612777588D+00  0.1000000000D+01
 ****
     73 0
 S   6 1.00       0.000000000000
      0.3047524880D+04  0.1834737132D-02
      0.4573695180D+03  0.1403732281D-01
      0.1039486850D+03  0.6884262226D-01
      0.2921015530D+02  0.2321844432D+00
      0.9286662960D+01  0.4679413484D+00
      0.3163926960D+01  0.3623119853D+00
 SP   3 1.00       0.000000000000
      0.7868272350D+01 -0.1193324198D+00  0.6899906659D-01
      0.1881288540D+01 -0.1608541517D+00  0.3164239610D+00
      0.5442492580D+00  0.1143456438D+01  0.7443082909D+00
 SP   1 1.00       0.000000000000
      0.1687144782D+00  0.1000000000D+01  0.1000000000D+01
 D   1 1.00       0.000000000000
      0.8000000000D+00  0.1000000000D+01
 ****
     74 0
 S   3 1.00       0.000000000000
      0.1873113696D+02  0.3349460434D-01
      0.2825394365D+01  0.2347269535D+00
      0.6401216923D+00  0.8137573261D+00
 S   1 1.00       0.000000000000
      0.1612777588D+00  0.1000000000D+01
 ****
     75 0
 S   3 1.00       0.000000000000
      0.1873113696D+02  0.3349460434D-01
      0.2825394365D+01  0.2347269535D+00
      0.6401216923D+00  0.8137573261D+00
 S   1 1.00       0.000000000000
      0.1612777588D+00  0.1000000000D+01
 ****
     76 0
 S   3 1.00       0.000000000000
      0.1873113696D+02  0.3349460434D-01
      0.2825394365D+01  0.2347269535D+00
      0.6401216923D+00  0.8137573261D+00
 S   1 1.00       0.000000000000
      0.1612777588D+00  0.1000000000D+01
 ****

 AO basis set (Overlap normalization):
 Atom C1       Shell     1 S   6     bf    1 -     1          3.324926775830         -2.357448071741         -0.141698978684
      0.3047524880D+04  0.1834737132D-02
      0.4573695180D+03  0.1403732281D-01
      0.1039486850D+03  0.6884262226D-01
      0.2921015530D+02  0.2321844432D+00
      0.9286662960D+01  0.4679413484D+00
      0.3163926960D+01  0.3623119853D+00
 Atom C1       Shell     2 SP   3    bf    2 -     5          3.324926775830         -2.357448071741         -0.141698978684
      0.7868272350D+01 -0.1193324198D+00  0.6899906659D-01
      0.1881288540D+01 -0.1608541517D+00  0.3164239610D+00
      0.5442492580D+00  0.1143456438D+01  0.7443082909D+00
 Atom C1       Shell     3 SP   1    bf    6 -     9          3.324926775830         -2.357448071741         -0.141698978684
      0.1687144782D+00  0.1000000000D+01  0.1000000000D+01
 Atom C1       Shell     4 D   1     bf   10 -    15          3.324926775830         -2.357448071741         -0.141698978684
      0.8000000000D+00  0.1000000000D+01
 Atom H2       Shell     5 S   3     bf   16 -    16          3.538728538573         -2.114520262468         -2.189178334204
      0.1873113696D+02  0.3349460434D-01
      0.2825394365D+01  0.2347269535D+00
      0.6401216923D+00  0.8137573261D+00
 Atom H2       Shell     6 S   1     bf   17 -    17          3.538728538573         -2.114520262468         -2.189178334204
      0.1612777588D+00  0.1000000000D+01
 Atom C3       Shell     7 S   6     bf   18 -    18          5.954970109912         -2.480434868874          1.075353323542
      0.3047524880D+04  0.1834737132D-02
      0.4573695180D+03  0.1403732281D-01
      0.1039486850D+03  0.6884262226D-01
      0.2921015530D+02  0.2321844432D+00
      0.9286662960D+01  0.4679413484D+00
      0.3163926960D+01  0.3623119853D+00
 Atom C3       Shell     8 SP   3    bf   19 -    22          5.954970109912         -2.480434868874          1.075353323542
      0.7868272350D+01 -0.1193324198D+00  0.6899906659D-01
      0.1881288540D+01 -0.1608541517D+00  0.3164239610D+00
      0.5442492580D+00  0.1143456438D+01  0.7443082909D+00
 Atom C3       Shell     9 SP   1    bf   23 -    26          5.954970109912         -2.480434868874          1.075353323542
      0.1687144782D+00  0.1000000000D+01  0.1000000000D+01
 Atom C3       Shell    10 D   1     bf   27 -    32          5.954970109912         -2.480434868874          1.075353323542
      0.8000000000D+00  0.1000000000D+01
 Atom H4       Shell    11 S   3     bf   33 -    33          7.048132817243         -4.019846443629          0.232043364693
      0.1873113696D+02  0.3349460434D-01
      0.2825394365D+01  0.2347269535D+00
      0.6401216923D+00  0.8137573261D+00
 Atom H4       Shell    12 S   1     bf   34 -    34          7.048132817243         -4.019846443629          0.232043364693
      0.1612777588D+00  0.1000000000D+01
 Atom H5       Shell    13 S   3     bf   35 -    35          5.696839794050         -2.963658136711          3.085102803936
      0.1873113696D+02  0.3349460434D-01
      0.2825394365D+01  0.2347269535D+00
      0.6401216923D+00  0.8137573261D+00
 Atom H5       Shell    14 S   1     bf   36 -    36          5.696839794050         -2.963658136711          3.085102803936
      0.1612777588D+00  0.1000000000D+01
 Atom C6       Shell    15 S   6     bf   37 -    37          7.394902173559         -0.010369758771          0.860316757052
      0.3047524880D+04  0.1834737132D-02
      0.4573695180D+03  0.1403732281D-01
      0.1039486850D+03  0.6884262226D-01
      0.2921015530D+02  0.2321844432D+00
      0.9286662960D+01  0.4679413484D+00
      0.3163926960D+01  0.3623119853D+00
 Atom C6       Shell    16 SP   3    bf   38 -    41          7.394902173559         -0.010369758771          0.860316757052
      0.7868272350D+01 -0.1193324198D+00  0.6899906659D-01
      0.1881288540D+01 -0.1608541517D+00  0.3164239610D+00
      0.5442492580D+00  0.1143456438D+01  0.7443082909D+00
 Atom C6       Shell    17 SP   1    bf   42 -    45          7.394902173559         -0.010369758771          0.860316757052
      0.1687144782D+00  0.1000000000D+01  0.1000000000D+01
 Atom C6       Shell    18 D   1     bf   46 -    51          7.394902173559         -0.010369758771          0.860316757052
      0.8000000000D+00  0.1000000000D+01
 Atom C7       Shell    19 S   6     bf   52 -    52          6.023383071416          2.398237243402          1.695741134413
      0.3047524880D+04  0.1834737132D-02
      0.4573695180D+03  0.1403732281D-01
      0.1039486850D+03  0.6884262226D-01
      0.2921015530D+02  0.2321844432D+00
      0.9286662960D+01  0.4679413484D+00
      0.3163926960D+01  0.3623119853D+00
 Atom C7       Shell    20 SP   3    bf   53 -    56          6.023383071416          2.398237243402          1.695741134413
      0.7868272350D+01 -0.1193324198D+00  0.6899906659D-01
      0.1881288540D+01 -0.1608541517D+00  0.3164239610D+00
      0.5442492580D+00  0.1143456438D+01  0.7443082909D+00
 Atom C7       Shell    21 SP   1    bf   57 -    60          6.023383071416          2.398237243402          1.695741134413
      0.1687144782D+00  0.1000000000D+01  0.1000000000D+01
 Atom C7       Shell    22 D   1     bf   61 -    66          6.023383071416          2.398237243402          1.695741134413
      0.8000000000D+00  0.1000000000D+01
 Atom C8       Shell    23 S   6     bf   67 -    67          3.301137845023          2.368182018532          0.562105047556
      0.3047524880D+04  0.1834737132D-02
      0.4573695180D+03  0.1403732281D-01
      0.1039486850D+03  0.6884262226D-01
      0.2921015530D+02  0.2321844432D+00
      0.9286662960D+01  0.4679413484D+00
      0.3163926960D+01  0.3623119853D+00
 Atom C8       Shell    24 SP   3    bf   68 -    71          3.301137845023          2.368182018532          0.562105047556
      0.7868272350D+01 -0.1193324198D+00  0.6899906659D-01
      0.1881288540D+01 -0.1608541517D+00  0.3164239610D+00
      0.5442492580D+00  0.1143456438D+01  0.7443082909D+00
 Atom C8       Shell    25 SP   1    bf   72 -    75          3.301137845023          2.368182018532          0.562105047556
      0.1687144782D+00  0.1000000000D+01  0.1000000000D+01
 Atom C8       Shell    26 D   1     bf   76 -    81          3.301137845023          2.368182018532          0.562105047556
      0.8000000000D+00  0.1000000000D+01
 Atom H9       Shell    27 S   3     bf   82 -    82          3.441522254620          2.744298405953         -1.475405945922
      0.1873113696D+02  0.3349460434D-01
      0.2825394365D+01  0.2347269535D+00
      0.6401216923D+00  0.8137573261D+00
 Atom H9       Shell    28 S   1     bf   83 -    83          3.441522254620          2.744298405953         -1.475405945922
      0.1612777588D+00  0.1000000000D+01
 Atom H10      Shell    29 S   3     bf   84 -    84          2.198113790840          3.921482381165          1.370716251996
      0.1873113696D+02  0.3349460434D-01
      0.2825394365D+01  0.2347269535D+00
      0.6401216923D+00  0.8137573261D+00
 Atom H10      Shell    30 S   1     bf   85 -    85          2.198113790840          3.921482381165          1.370716251996
      0.1612777588D+00  0.1000000000D+01
 Atom C11      Shell    31 S   6     bf   86 -    86          1.847419322168         -0.118400318424          0.928565728122
      0.3047524880D+04  0.1834737132D-02
      0.4573695180D+03  0.1403732281D-01
      0.1039486850D+03  0.6884262226D-01
      0.2921015530D+02  0.2321844432D+00
      0.9286662960D+01  0.4679413484D+00
      0.3163926960D+01  0.3623119853D+00
 Atom C11      Shell    32 SP   3    bf   87 -    90          1.847419322168         -0.118400318424          0.928565728122
      0.7868272350D+01 -0.1193324198D+00  0.6899906659D-01
      0.1881288540D+01 -0.1608541517D+00  0.3164239610D+00
      0.5442492580D+00  0.1143456438D+01  0.7443082909D+00
 Atom C11      Shell    33 SP   1    bf   91 -    94          1.847419322168         -0.118400318424          0.928565728122
      0.1687144782D+00  0.1000000000D+01  0.1000000000D+01
 Atom C11      Shell    34 D   1     bf   95 -   100          1.847419322168         -0.118400318424          0.928565728122
      0.8000000000D+00  0.1000000000D+01
 Atom H12      Shell    35 S   3     bf  101 -   101          1.477563276172         -0.454263006981          2.946484041054
      0.1873113696D+02  0.3349460434D-01
      0.2825394365D+01  0.2347269535D+00
      0.6401216923D+00  0.8137573261D+00
 Atom H12      Shell    36 S   1     bf  102 -   102          1.477563276172         -0.454263006981          2.946484041054
      0.1612777588D+00  0.1000000000D+01
 Atom H13      Shell    37 S   3     bf  103 -   103          0.000000000000          0.000000000000          0.000000000000
      0.1873113696D+02  0.3349460434D-01
      0.2825394365D+01  0.2347269535D+00
      0.6401216923D+00  0.8137573261D+00
 Atom H13      Shell    38 S   1     bf  104 -   104          0.000000000000          0.000000000000          0.000000000000
      0.1612777588D+00  0.1000000000D+01
 Atom C14      Shell    39 S   6     bf  105 -   105          9.775496555839          0.000000000000          0.000000000000
      0.3047524880D+04  0.1834737132D-02
      0.4573695180D+03  0.1403732281D-01
      0.1039486850D+03  0.6884262226D-01
      0.2921015530D+02  0.2321844432D+00
      0.9286662960D+01  0.4679413484D+00
      0.3163926960D+01  0.3623119853D+00
 Atom C14      Shell    40 SP   3    bf  106 -   109          9.775496555839          0.000000000000          0.000000000000
      0.7868272350D+01 -0.1193324198D+00  0.6899906659D-01
      0.1881288540D+01 -0.1608541517D+00  0.3164239610D+00
      0.5442492580D+00  0.1143456438D+01  0.7443082909D+00
 Atom C14      Shell    41 SP   1    bf  110 -   113          9.775496555839          0.000000000000          0.000000000000
      0.1687144782D+00  0.1000000000D+01  0.1000000000D+01
 Atom C14      Shell    42 D   1     bf  114 -   119          9.775496555839          0.000000000000          0.000000000000
      0.8000000000D+00  0.1000000000D+01
 Atom H15      Shell    43 S   3     bf  120 -   120         10.656174280493         -1.762930139198         -0.584401113616
      0.1873113696D+02  0.3349460434D-01
      0.2825394365D+01  0.2347269535D+00
      0.6401216923D+00  0.8137573261D+00
 Atom H15      Shell    44 S   1     bf  121 -   121         10.656174280493         -1.762930139198         -0.584401113616
      0.1612777588D+00  0.1000000000D+01
 Atom C16      Shell    45 S   6     bf  122 -   122         11.449899450780          2.281099980130         -0.174112827432
      0.3047524880D+04  0.1834737132D-02
      0.4573695180D+03  0.1403732281D-01
      0.1039486850D+03  0.6884262226D-01
      0.2921015530D+02  0.2321844432D+00
      0.9286662960D+01  0.4679413484D+00
      0.3163926960D+01  0.3623119853D+00
 Atom C16      Shell    46 SP   3    bf  123 -   126         11.449899450780          2.281099980130         -0.174112827432
      0.7868272350D+01 -0.1193324198D+00  0.6899906659D-01
      0.1881288540D+01 -0.1608541517D+00  0.3164239610D+00
      0.5442492580D+00  0.1143456438D+01  0.7443082909D+00
 Atom C16      Shell    47 SP   1    bf  127 -   130         11.449899450780          2.281099980130         -0.174112827432
      0.1687144782D+00  0.1000000000D+01  0.1000000000D+01
 Atom C16      Shell    48 D   1     bf  131 -   136         11.449899450780          2.281099980130         -0.174112827432
      0.8000000000D+00  0.1000000000D+01
 Atom H17      Shell    49 S   3     bf  137 -   137         11.936231072442          2.660925786566         -2.161288697689
      0.1873113696D+02  0.3349460434D-01
      0.2825394365D+01  0.2347269535D+00
      0.6401216923D+00  0.8137573261D+00
 Atom H17      Shell    50 S   1     bf  138 -   138         11.936231072442          2.660925786566         -2.161288697689
      0.1612777588D+00  0.1000000000D+01
 Atom C18      Shell    51 S   6     bf  139 -   139         10.357995168773          4.673531304550          1.061326321095
      0.3047524880D+04  0.1834737132D-02
      0.4573695180D+03  0.1403732281D-01
      0.1039486850D+03  0.6884262226D-01
      0.2921015530D+02  0.2321844432D+00
      0.9286662960D+01  0.4679413484D+00
      0.3163926960D+01  0.3623119853D+00
 Atom C18      Shell    52 SP   3    bf  140 -   143         10.357995168773          4.673531304550          1.061326321095
      0.7868272350D+01 -0.1193324198D+00  0.6899906659D-01
      0.1881288540D+01 -0.1608541517D+00  0.3164239610D+00
      0.5442492580D+00  0.1143456438D+01  0.7443082909D+00
 Atom C18      Shell    53 SP   1    bf  144 -   147         10.357995168773          4.673531304550          1.061326321095
      0.1687144782D+00  0.1000000000D+01  0.1000000000D+01
 Atom C18      Shell    54 D   1     bf  148 -   153         10.357995168773          4.673531304550          1.061326321095
      0.8000000000D+00  0.1000000000D+01
 Atom H19      Shell    55 S   3     bf  154 -   154         10.768050546211          4.540688716361          3.090964734400
      0.1873113696D+02  0.3349460434D-01
      0.2825394365D+01  0.2347269535D+00
      0.6401216923D+00  0.8137573261D+00
 Atom H19      Shell    56 S   1     bf  155 -   155         10.768050546211          4.540688716361          3.090964734400
      0.1612777588D+00  0.1000000000D+01
 Atom C20      Shell    57 S   6     bf  156 -   156          7.450611810182          4.774861462255          0.654599072630
      0.3047524880D+04  0.1834737132D-02
      0.4573695180D+03  0.1403732281D-01
      0.1039486850D+03  0.6884262226D-01
      0.2921015530D+02  0.2321844432D+00
      0.9286662960D+01  0.4679413484D+00
      0.3163926960D+01  0.3623119853D+00
 Atom C20      Shell    58 SP   3    bf  157 -   160          7.450611810182          4.774861462255          0.654599072630
      0.7868272350D+01 -0.1193324198D+00  0.6899906659D-01
      0.1881288540D+01 -0.1608541517D+00  0.3164239610D+00
      0.5442492580D+00  0.1143456438D+01  0.7443082909D+00
 Atom C20      Shell    59 SP   1    bf  161 -   164          7.450611810182          4.774861462255          0.654599072630
      0.1687144782D+00  0.1000000000D+01  0.1000000000D+01
 Atom C20      Shell    60 D   1     bf  165 -   170          7.450611810182          4.774861462255          0.654599072630
      0.8000000000D+00  0.1000000000D+01
 Atom H21      Shell    61 S   3     bf  171 -   171          7.166822792889          4.735747910756         -1.408500872488
      0.1873113696D+02  0.3349460434D-01
      0.2825394365D+01  0.2347269535D+00
      0.6401216923D+00  0.8137573261D+00
 Atom H21      Shell    62 S   1     bf  172 -   172          7.166822792889          4.735747910756         -1.408500872488
      0.1612777588D+00  0.1000000000D+01
 Atom C22      Shell    63 S   6     bf  173 -   173          6.344298442001          7.302906336985          1.611574338722
      0.3047524880D+04  0.1834737132D-02
      0.4573695180D+03  0.1403732281D-01
      0.1039486850D+03  0.6884262226D-01
      0.2921015530D+02  0.2321844432D+00
      0.9286662960D+01  0.4679413484D+00
      0.3163926960D+01  0.3623119853D+00
 Atom C22      Shell    64 SP   3    bf  174 -   177          6.344298442001          7.302906336985          1.611574338722
      0.7868272350D+01 -0.1193324198D+00  0.6899906659D-01
      0.1881288540D+01 -0.1608541517D+00  0.3164239610D+00
      0.5442492580D+00  0.1143456438D+01  0.7443082909D+00
 Atom C22      Shell    65 SP   1    bf  178 -   181          6.344298442001          7.302906336985          1.611574338722
      0.1687144782D+00  0.1000000000D+01  0.1000000000D+01
 Atom C22      Shell    66 D   1     bf  182 -   187          6.344298442001          7.302906336985          1.611574338722
      0.8000000000D+00  0.1000000000D+01
 Atom H23      Shell    67 S   3     bf  188 -   188          6.408366677461          7.353951921643          3.680036457331
      0.1873113696D+02  0.3349460434D-01
      0.2825394365D+01  0.2347269535D+00
      0.6401216923D+00  0.8137573261D+00
 Atom H23      Shell    68 S   1     bf  189 -   189          6.408366677461          7.353951921643          3.680036457331
      0.1612777588D+00  0.1000000000D+01
 Atom H24      Shell    69 S   3     bf  190 -   190          4.341912468457          7.418866754410          1.100215297540
      0.1873113696D+02  0.3349460434D-01
      0.2825394365D+01  0.2347269535D+00
      0.6401216923D+00  0.8137573261D+00
 Atom H24      Shell    70 S   1     bf  191 -   191          4.341912468457          7.418866754410          1.100215297540
      0.1612777588D+00  0.1000000000D+01
 Atom C25      Shell    71 S   6     bf  192 -   192          7.692806915942          9.665992236569          0.574297938511
      0.3047524880D+04  0.1834737132D-02
      0.4573695180D+03  0.1403732281D-01
      0.1039486850D+03  0.6884262226D-01
      0.2921015530D+02  0.2321844432D+00
      0.9286662960D+01  0.4679413484D+00
      0.3163926960D+01  0.3623119853D+00
 Atom C25      Shell    72 SP   3    bf  193 -   196          7.692806915942          9.665992236569          0.574297938511
      0.7868272350D+01 -0.1193324198D+00  0.6899906659D-01
      0.1881288540D+01 -0.1608541517D+00  0.3164239610D+00
      0.5442492580D+00  0.1143456438D+01  0.7443082909D+00
 Atom C25      Shell    73 SP   1    bf  197 -   200          7.692806915942          9.665992236569          0.574297938511
      0.1687144782D+00  0.1000000000D+01  0.1000000000D+01
 Atom C25      Shell    74 D   1     bf  201 -   206          7.692806915942          9.665992236569          0.574297938511
      0.8000000000D+00  0.1000000000D+01
 Atom H26      Shell    75 S   3     bf  207 -   207          7.395354120461          9.783673117357         -1.478966794669
      0.1873113696D+02  0.3349460434D-01
      0.2825394365D+01  0.2347269535D+00
      0.6401216923D+00  0.8137573261D+00
 Atom H26      Shell    76 S   1     bf  208 -   208          7.395354120461          9.783673117357         -1.478966794669
      0.1612777588D+00  0.1000000000D+01
 Atom H27      Shell    77 S   3     bf  209 -   209          6.798188360352         11.341222680378          1.392593554744
      0.1873113696D+02  0.3349460434D-01
      0.2825394365D+01  0.2347269535D+00
      0.6401216923D+00  0.8137573261D+00
 Atom H27      Shell    78 S   1     bf  210 -   210          6.798188360352         11.341222680378          1.392593554744
      0.1612777588D+00  0.1000000000D+01
 Atom C28      Shell    79 S   6     bf  211 -   211         10.558801625051          9.605447830120          1.097992299306
      0.3047524880D+04  0.1834737132D-02
      0.4573695180D+03  0.1403732281D-01
      0.1039486850D+03  0.6884262226D-01
      0.2921015530D+02  0.2321844432D+00
      0.9286662960D+01  0.4679413484D+00
      0.3163926960D+01  0.3623119853D+00
 Atom C28      Shell    80 SP   3    bf  212 -   215         10.558801625051          9.605447830120          1.097992299306
      0.7868272350D+01 -0.1193324198D+00  0.6899906659D-01
      0.1881288540D+01 -0.1608541517D+00  0.3164239610D+00
      0.5442492580D+00  0.1143456438D+01  0.7443082909D+00
 Atom C28      Shell    81 SP   1    bf  216 -   219         10.558801625051          9.605447830120          1.097992299306
      0.1687144782D+00  0.1000000000D+01  0.1000000000D+01
 Atom C28      Shell    82 D   1     bf  220 -   225         10.558801625051          9.605447830120          1.097992299306
      0.8000000000D+00  0.1000000000D+01
 Atom C29      Shell    83 S   6     bf  226 -   226         11.565211900012          7.084257407814         -0.034961993260
      0.3047524880D+04  0.1834737132D-02
      0.4573695180D+03  0.1403732281D-01
      0.1039486850D+03  0.6884262226D-01
      0.2921015530D+02  0.2321844432D+00
      0.9286662960D+01  0.4679413484D+00
      0.3163926960D+01  0.3623119853D+00
 Atom C29      Shell    84 SP   3    bf  227 -   230         11.565211900012          7.084257407814         -0.034961993260
      0.7868272350D+01 -0.1193324198D+00  0.6899906659D-01
      0.1881288540D+01 -0.1608541517D+00  0.3164239610D+00
      0.5442492580D+00  0.1143456438D+01  0.7443082909D+00
 Atom C29      Shell    85 SP   1    bf  231 -   234         11.565211900012          7.084257407814         -0.034961993260
      0.1687144782D+00  0.1000000000D+01  0.1000000000D+01
 Atom C29      Shell    86 D   1     bf  235 -   240         11.565211900012          7.084257407814         -0.034961993260
      0.8000000000D+00  0.1000000000D+01
 Atom H30      Shell    87 S   3     bf  241 -   241         10.994607960351          7.129190144171         -2.040472572273
      0.1873113696D+02  0.3349460434D-01
      0.2825394365D+01  0.2347269535D+00
      0.6401216923D+00  0.8137573261D+00
 Atom H30      Shell    88 S   1     bf  242 -   242         10.994607960351          7.129190144171         -2.040472572273
      0.1612777588D+00  0.1000000000D+01
 Atom C31      Shell    89 S   6     bf  243 -   243         14.452200086957          7.391951139435          0.000000000000
      0.3047524880D+04  0.1834737132D-02
      0.4573695180D+03  0.1403732281D-01
      0.1039486850D+03  0.6884262226D-01
      0.2921015530D+02  0.2321844432D+00
      0.9286662960D+01  0.4679413484D+00
      0.3163926960D+01  0.3623119853D+00
 Atom C31      Shell    90 SP   3    bf  244 -   247         14.452200086957          7.391951139435          0.000000000000
      0.7868272350D+01 -0.1193324198D+00  0.6899906659D-01
      0.1881288540D+01 -0.1608541517D+00  0.3164239610D+00
      0.5442492580D+00  0.1143456438D+01  0.7443082909D+00
 Atom C31      Shell    91 SP   1    bf  248 -   251         14.452200086957          7.391951139435          0.000000000000
      0.1687144782D+00  0.1000000000D+01  0.1000000000D+01
 Atom C31      Shell    92 D   1     bf  252 -   257         14.452200086957          7.391951139435          0.000000000000
      0.8000000000D+00  0.1000000000D+01
 Atom H32      Shell    93 S   3     bf  258 -   258         15.386577478828          6.180601161404         -1.391767782219
      0.1873113696D+02  0.3349460434D-01
      0.2825394365D+01  0.2347269535D+00
      0.6401216923D+00  0.8137573261D+00
 Atom H32      Shell    94 S   1     bf  259 -   259         15.386577478828          6.180601161404         -1.391767782219
      0.1612777588D+00  0.1000000000D+01
 Atom H33      Shell    95 S   3     bf  260 -   260         15.223733522964          6.868984606660          1.846632837049
      0.1873113696D+02  0.3349460434D-01
      0.2825394365D+01  0.2347269535D+00
      0.6401216923D+00  0.8137573261D+00
 Atom H33      Shell    96 S   1     bf  261 -   261         15.223733522964          6.868984606660          1.846632837049
      0.1612777588D+00  0.1000000000D+01
 Atom C34      Shell    97 S   6     bf  262 -   262         14.854634085517         10.242260875977         -0.564971554230
      0.3047524880D+04  0.1834737132D-02
      0.4573695180D+03  0.1403732281D-01
      0.1039486850D+03  0.6884262226D-01
      0.2921015530D+02  0.2321844432D+00
      0.9286662960D+01  0.4679413484D+00
      0.3163926960D+01  0.3623119853D+00
 Atom C34      Shell    98 SP   3    bf  263 -   266         14.854634085517         10.242260875977         -0.564971554230
      0.7868272350D+01 -0.1193324198D+00  0.6899906659D-01
      0.1881288540D+01 -0.1608541517D+00  0.3164239610D+00
      0.5442492580D+00  0.1143456438D+01  0.7443082909D+00
 Atom C34      Shell    99 SP   1    bf  267 -   270         14.854634085517         10.242260875977         -0.564971554230
      0.1687144782D+00  0.1000000000D+01  0.1000000000D+01
 Atom C34      Shell   100 D   1     bf  271 -   276         14.854634085517         10.242260875977         -0.564971554230
      0.8000000000D+00  0.1000000000D+01
 Atom H35      Shell   101 S   3     bf  277 -   277         16.153991463043         11.086869341241          0.810754701895
      0.1873113696D+02  0.3349460434D-01
      0.2825394365D+01  0.2347269535D+00
      0.6401216923D+00  0.8137573261D+00
 Atom H35      Shell   102 S   1     bf  278 -   278         16.153991463043         11.086869341241          0.810754701895
      0.1612777588D+00  0.1000000000D+01
 Atom H36      Shell   103 S   3     bf  279 -   279         15.714133554914         10.523292102541         -2.424455813996
      0.1873113696D+02  0.3349460434D-01
      0.2825394365D+01  0.2347269535D+00
      0.6401216923D+00  0.8137573261D+00
 Atom H36      Shell   104 S   1     bf  280 -   280         15.714133554914         10.523292102541         -2.424455813996
      0.1612777588D+00  0.1000000000D+01
 Atom C37      Shell   105 S   6     bf  281 -   281         12.203962746634         11.551469055683         -0.418490056649
      0.3047524880D+04  0.1834737132D-02
      0.4573695180D+03  0.1403732281D-01
      0.1039486850D+03  0.6884262226D-01
      0.2921015530D+02  0.2321844432D+00
      0.9286662960D+01  0.4679413484D+00
      0.3163926960D+01  0.3623119853D+00
 Atom C37      Shell   106 SP   3    bf  282 -   285         12.203962746634         11.551469055683         -0.418490056649
      0.7868272350D+01 -0.1193324198D+00  0.6899906659D-01
      0.1881288540D+01 -0.1608541517D+00  0.3164239610D+00
      0.5442492580D+00  0.1143456438D+01  0.7443082909D+00
[...]
 1654 Fit      -0.002394
 1655 Fit      -0.002074
 1656 Fit      -0.001758
 1657 Fit      -0.001728
 1658 Fit      -0.001788
 1659 Fit       0.000600
 1660 Fit      -0.000472
 1661 Fit      -0.000360
 1662 Fit       0.002596
 1663 Fit      -0.001087
 1664 Fit       0.001144
 1665 Fit       0.002710
 1666 Fit       0.003384
 1667 Fit      -0.000163
 1668 Fit       0.001320
 1669 Fit       0.001871
 1670 Fit       0.001534
 1671 Fit      -0.001544
 1672 Fit      -0.000476
 1673 Fit      -0.000626
 1674 Fit      -0.001384
 1675 Fit      -0.001053
 1676 Fit      -0.000358
 1677 Fit       0.000578
 1678 Fit       0.002213
 1679 Fit       0.002515
 1680 Fit       0.001081
 1681 Fit       0.001179
 1682 Fit       0.001831
 1683 Fit       0.003059
 1684 Fit       0.003897
 1685 Fit       0.002931
 1686 Fit       0.001583
 1687 Fit       0.003022
 1688 Fit       0.001150
 1689 Fit      -0.001520
 1690 Fit       0.003330
 1691 Fit       0.001363
 1692 Fit      -0.001145
 1693 Fit       0.003614
 1694 Fit       0.003925
 1695 Fit       0.003170
 1696 Fit       0.000484
 1697 Fit       0.001427
 1698 Fit       0.002299
 1699 Fit       0.002066
 1700 Fit      -0.001104
 1701 Fit      -0.000170
 1702 Fit      -0.003434
 1703 Fit      -0.001263
 1704 Fit       0.002902
 1705 Fit      -0.003023
 1706 Fit      -0.011988
 1707 Fit      -0.018129
 1708 Fit      -0.010646
 1709 Fit      -0.004798
 1710 Fit      -0.001291
 1711 Fit       0.001711
 1712 Fit       0.001307
 1713 Fit      -0.003731
 1714 Fit      -0.007792
 1715 Fit      -0.005165
 1716 Fit      -0.001650
 1717 Fit      -0.001423
 1718 Fit      -0.005122
 1719 Fit      -0.011571
 1720 Fit      -0.003793
 1721 Fit      -0.007049
 1722 Fit      -0.009201
 1723 Fit      -0.005149
 1724 Fit      -0.004686
 1725 Fit      -0.007104
 1726 Fit      -0.014677
 1727 Fit      -0.006473
 1728 Fit      -0.004049
 1729 Fit      -0.012063
 1730 Fit      -0.005233
 1731 Fit      -0.002777
 1732 Fit      -0.010362
 1733 Fit      -0.005007
 1734 Fit       0.001451
 1735 Fit       0.011353
 1736 Fit       0.004924
 1737 Fit      -0.006720
 1738 Fit       0.008946
 1739 Fit       0.002298
 1740 Fit      -0.002440
 1741 Fit       0.000558
 1742 Fit       0.005562
 1743 Fit       0.004484
 1744 Fit       0.006200
 1745 Fit       0.004990
 1746 Fit       0.004154
 1747 Fit       0.003458
 1748 Fit       0.005463
 1749 Fit       0.006678
 1750 Fit       0.005539
 1751 Fit       0.004411
 1752 Fit       0.004202
 1753 Fit       0.004326
 1754 Fit       0.005182
 1755 Fit       0.008328
 1756 Fit       0.007310
 1757 Fit       0.008105
 1758 Fit       0.006951
 1759 Fit       0.005814
 1760 Fit       0.007394
 1761 Fit       0.006063
 1762 Fit       0.005803
 1763 Fit       0.005246
 1764 Fit       0.003725
 1765 Fit       0.003470
 1766 Fit      -0.003486
 1767 Fit       0.007982
 1768 Fit       0.009321
 1769 Fit       0.013461
 1770 Fit       0.006802
 1771 Fit       0.006467
 1772 Fit       0.008150
 1773 Fit       0.014263
 1774 Fit       0.003739
 1775 Fit       0.005313
 1776 Fit       0.002981
 1777 Fit       0.004833
 1778 Fit       0.003150
 1779 Fit       0.001051
 1780 Fit      -0.002615
 1781 Fit       0.004278
 1782 Fit       0.002806
 1783 Fit       0.000202
 1784 Fit      -0.005067
 1785 Fit       0.003362
 1786 Fit       0.001248
 1787 Fit      -0.003290
 1788 Fit      -0.013156
 1789 Fit       0.002605
 1790 Fit      -0.000961
 1791 Fit      -0.007257
 1792 Fit       0.000359
 1793 Fit      -0.017549
 1794 Fit      -0.018015
 1795 Fit       0.001964
 1796 Fit      -0.002825
 1797 Fit      -0.004501
 1798 Fit      -0.004012
 1799 Fit      -0.001383
 1800 Fit      -0.014731
 1801 Fit      -0.007586
 1802 Fit      -0.017043
 1803 Fit      -0.005523
 1804 Fit      -0.012827
 1805 Fit      -0.003232
 1806 Fit      -0.006285
 1807 Fit      -0.007610
 1808 Fit      -0.004311
 1809 Fit      -0.005420
 1810 Fit       0.012739
 1811 Fit       0.007634
 1812 Fit       0.008767
 1813 Fit       0.008266
 1814 Fit       0.005512
 1815 Fit       0.002387
 1816 Fit       0.003028
 1817 Fit       0.006233
 1818 Fit      -0.002591
 1819 Fit      -0.009607
 1820 Fit       0.008693
 1821 Fit       0.007341
 1822 Fit       0.007019
 1823 Fit       0.005479
 1824 Fit       0.005368
 1825 Fit       0.006899
 1826 Fit       0.005256
 1827 Fit       0.006190
 1828 Fit       0.005941
 1829 Fit       0.005330
 1830 Fit       0.005661
 1831 Fit       0.006875
 1832 Fit       0.007118
 1833 Fit       0.005439
 1834 Fit       0.006743
 1835 Fit       0.005173
 1836 Fit       0.006524
 1837 Fit       0.005082
 1838 Fit       0.006196
 1839 Fit       0.005986
 1840 Fit       0.002695
 1841 Fit       0.004108
 1842 Fit       0.004166
 1843 Fit       0.004618
 1844 Fit       0.005724
 1845 Fit       0.005617
 1846 Fit       0.005918
 1847 Fit       0.007099
 1848 Fit       0.006738
 1849 Fit       0.007002
 1850 Fit       0.005788
 1851 Fit       0.006165
 1852 Fit       0.005578
 1853 Fit       0.004426
 1854 Fit       0.004839
 1855 Fit       0.005219
 1856 Fit       0.002593
 1857 Fit       0.003655
 1858 Fit       0.007449
 1859 Fit       0.006846
 1860 Fit       0.007399
 1861 Fit       0.007796
 1862 Fit       0.008248
 1863 Fit       0.008655
 1864 Fit       0.007460
 1865 Fit       0.001927
 1866 Fit       0.004032
 1867 Fit       0.003732
 1868 Fit       0.007204
 1869 Fit       0.008249
 1870 Fit       0.018139
 1871 Fit       0.009296
 1872 Fit       0.016018
 1873 Fit       0.009032
 1874 Fit       0.011690
 1875 Fit       0.008381
 1876 Fit      -0.000585
 1877 Fit      -0.006564
 1878 Fit      -0.000069
 1879 Fit       0.002783
 1880 Fit      -0.004954
 1881 Fit       0.000767
 1882 Fit      -0.000948
 1883 Fit       0.001829
 1884 Fit       0.002325
 1885 Fit       0.002951
 1886 Fit       0.003193
 1887 Fit       0.004380
 1888 Fit       0.004960
 1889 Fit       0.003539
 1890 Fit       0.004235
 1891 Fit       0.002588
 1892 Fit       0.002929
 1893 Fit       0.003691
 1894 Fit       0.003998
 1895 Fit       0.002012
 1896 Fit       0.002331
 1897 Fit       0.003419
 1898 Fit       0.003763
 1899 Fit       0.004077
 1900 Fit       0.004646
 1901 Fit       0.005069
 1902 Fit       0.004724
 1903 Fit       0.006050
 1904 Fit       0.005617
 1905 Fit       0.004859
 1906 Fit       0.004569
 1907 Fit       0.005496
 1908 Fit       0.006235
 1909 Fit       0.006333
 1910 Fit       0.005596
 1911 Fit       0.005914
 1912 Fit       0.004997
 1913 Fit       0.005535
 1914 Fit       0.006119
 1915 Fit       0.006679
 1916 Fit       0.006040
 1917 Fit       0.005585
 1918 Fit       0.000422
 1919 Fit      -0.000143
 1920 Fit       0.000410
 1921 Fit       0.001289
 1922 Fit       0.001784
 1923 Fit       0.000090
 1924 Fit       0.001287
 1925 Fit       0.003188
 1926 Fit       0.002496
 1927 Fit       0.004969
 1928 Fit      -0.002819
 1929 Fit       0.001636
 1930 Fit       0.003626
 1931 Fit       0.003704
 1932 Fit       0.001449
 1933 Fit       0.004983
 1934 Fit       0.001073
 1935 Fit       0.000940
 1936 Fit       0.000855
 1937 Fit       0.002515
 1938 Fit       0.002949
 1939 Fit       0.002224
 1940 Fit      -0.001956
 1941 Fit       0.000559
 1942 Fit       0.004076
 1943 Fit       0.004873
 1944 Fit       0.001895
 1945 Fit       0.003067
 1946 Fit       0.002722
 1947 Fit       0.002753
 1948 Fit       0.003803
 1949 Fit       0.004785
 1950 Fit       0.004704
 1951 Fit       0.002479
 1952 Fit       0.003371
 1953 Fit       0.003074
 1954 Fit       0.002654
 1955 Fit       0.004213
 1956 Fit       0.001812
 1957 Fit       0.002020
 1958 Fit       0.001487
 1959 Fit       0.001154
 1960 Fit       0.000714
 1961 Fit       0.001685
 1962 Fit       0.001088
 1963 Fit       0.000647
 1964 Fit       0.001252
 1965 Fit       0.001773
 1966 Fit       0.001421
 1967 Fit       0.001920
 1968 Fit       0.002465
 1969 Fit       0.003260
 1970 Fit       0.002889
 1971 Fit       0.003407
 1972 Fit       0.003865
 1973 Fit       0.004010
 1974 Fit       0.004560
 1975 Fit       0.005430
 1976 Fit       0.005094
 1977 Fit       0.001887
 1978 Fit       0.001844
 1979 Fit       0.002267
 1980 Fit       0.002884
 1981 Fit       0.002110
 1982 Fit       0.003540
 1983 Fit       0.002372
 1984 Fit       0.003981
 1985 Fit       0.002228
 1986 Fit       0.003355
 1987 Fit       0.005565
 1988 Fit       0.002269
 1989 Fit       0.004364
 1990 Fit       0.006684
 1991 Fit       0.002511
 1992 Fit       0.005052
 1993 Fit       0.001831
 1994 Fit       0.002175
 1995 Fit       0.003020
 1996 Fit       0.003222
 1997 Fit       0.003154
 1998 Fit       0.001129
 1999 Fit       0.003987
 2000 Fit       0.005380
 2001 Fit       0.000812
 2002 Fit       0.007345
 2003 Fit      -0.004424
 2004 Fit       0.004027
 2005 Fit       0.005040
 2006 Fit       0.004633
 2007 Fit       0.006666
 2008 Fit       0.006669
 2009 Fit       0.006298
 2010 Fit       0.005777
 2011 Fit       0.007618
 2012 Fit       0.007734
 2013 Fit       0.007191
 2014 Fit       0.005286
 2015 Fit       0.006277
 2016 Fit       0.003301
 2017 Fit       0.009147
 2018 Fit       0.011311
 2019 Fit       0.009647
 2020 Fit       0.004440
 2021 Fit       0.001188
 2022 Fit       0.000483
 2023 Fit       0.002466
 2024 Fit      -0.000409
 2025 Fit      -0.001842
 2026 Fit       0.002566
 2027 Fit      -0.003036
 2028 Fit      -0.004322
 2029 Fit      -0.011096
 2030 Fit      -0.013096
 2031 Fit      -0.018353
 2032 Fit      -0.020329
 2033 Fit      -0.014933
 2034 Fit      -0.021705
 2035 Fit      -0.024234
 2036 Fit      -0.017246
 2037 Fit      -0.013969
 2038 Fit      -0.028345
 2039 Fit      -0.028628
 2040 Fit      -0.023212
 2041 Fit      -0.026936
 2042 Fit      -0.011779
 2043 Fit      -0.026954
 2044 Fit      -0.026107
 2045 Fit      -0.023353
 2046 Fit      -0.017836
 2047 Fit      -0.022779
 2048 Fit      -0.021356
 2049 Fit      -0.016110
 2050 Fit      -0.007847
 2051 Fit      -0.017358
 2052 Fit      -0.018542
 2053 Fit      -0.014871
 2054 Fit      -0.007666
 2055 Fit       0.002529
 2056 Fit      -0.014806
 2057 Fit      -0.011923
 2058 Fit      -0.004276
 2059 Fit      -0.010817
 2060 Fit      -0.010457
 2061 Fit      -0.004457
 2062 Fit       0.005959
 2063 Fit      -0.006940
 2064 Fit      -0.001544
 2065 Fit       0.001283
 2066 Fit       0.003360
 2067 Fit       0.004761
 2068 Fit       0.012115
 2069 Fit       0.014106
 2070 Fit       0.011448
 2071 Fit       0.006051
 2072 Fit       0.016810
 2073 Fit       0.018879
 2074 Fit       0.011622
 2075 Fit       0.018027
 2076 Fit       0.020205
 2077 Fit       0.012437
 2078 Fit       0.015957
 2079 Fit       0.017579
 2080 Fit       0.013494
 2081 Fit       0.008261
 2082 Fit       0.010648
 2083 Fit      -0.002946
 2084 Fit      -0.003483
 2085 Fit      -0.006011
 2086 Fit      -0.006266
 2087 Fit      -0.012872
 2088 Fit      -0.015263
 2089 Fit      -0.015739
 2090 Fit      -0.015856
 2091 Fit      -0.016437
 2092 Fit      -0.017269
 2093 Fit      -0.017164
 2094 Fit      -0.018054
 2095 Fit      -0.022224
 2096 Fit      -0.023670
 2097 Fit      -0.024200
 2098 Fit      -0.024497
 2099 Fit      -0.023841
 2100 Fit      -0.020379
 2101 Fit      -0.015164
 2102 Fit      -0.022454
 2103 Fit      -0.025962
 2104 Fit      -0.027108
 2105 Fit      -0.026688
 2106 Fit      -0.023892
 2107 Fit      -0.017335
 2108 Fit      -0.020648
 2109 Fit      -0.024457
 2110 Fit      -0.021462
 2111 Fit       0.020307
 2112 Fit       0.017850
 2113 Fit       0.016751
 2114 Fit       0.016698
 2115 Fit       0.012534
 2116 Fit       0.011570
 2117 Fit       0.011138
 2118 Fit       0.010518
 2119 Fit       0.009902
 2120 Fit       0.001793
 2121 Fit       0.001807
 2122 Fit       0.001791
 2123 Fit       0.001090
 2124 Fit      -0.000163
 2125 Fit      -0.001003
 2126 Fit       0.003744
 2127 Fit       0.003951
 2128 Fit       0.003897
 2129 Fit       0.004281
 2130 Fit       0.005302
 2131 Fit       0.004441
 2132 Fit       0.004708
 2133 Fit       0.004093
 2134 Fit       0.000659
 2135 Fit       0.001306
 2136 Fit       0.000933
 2137 Fit       0.001601
 2138 Fit       0.001561
 2139 Fit       0.003095
 2140 Fit       0.001815
 2141 Fit       0.003087
 2142 Fit       0.002832
 2143 Fit       0.002930
 2144 Fit       0.002254
 2145 Fit       0.001846
 2146 Fit       0.002158
 2147 Fit       0.003599
 2148 Fit       0.002381
 2149 Fit       0.001753
 2150 Fit       0.001432
 2151 Fit       0.000958
 2152 Fit       0.003278
 2153 Fit       0.003977
 2154 Fit       0.002683
 2155 Fit       0.000185
 2156 Fit       0.001577
 2157 Fit      -0.001097
 2158 Fit       0.000831
 2159 Fit       0.001071
 2160 Fit       0.003422
 2161 Fit       0.002494
 2162 Fit       0.001586
 2163 Fit      -0.000336
 2164 Fit       0.003788
 2165 Fit       0.002971
 2166 Fit       0.004097
 2167 Fit       0.003612
 2168 Fit       0.003814
 2169 Fit       0.000707
 2170 Fit       0.001508
 2171 Fit       0.001366
 2172 Fit      -0.000140
 2173 Fit       0.001121
 2174 Fit       0.002147
 2175 Fit       0.002332
 2176 Fit       0.001632
 2177 Fit       0.000460
 2178 Fit       0.002027
 2179 Fit       0.002897
 2180 Fit       0.003047
 2181 Fit       0.003454
 2182 Fit       0.002966
 2183 Fit       0.002803
 2184 Fit       0.003890
 2185 Fit       0.003732
 2186 Fit       0.002940
 2187 Fit       0.002524
 2188 Fit       0.002965
 2189 Fit       0.002221
 2190 Fit       0.002345
 2191 Fit       0.000136
 2192 Fit      -0.000595
 2193 Fit      -0.000507
 2194 Fit      -0.001092
 2195 Fit      -0.000891
 2196 Fit      -0.000029
 2197 Fit      -0.000952
 2198 Fit      -0.000745
 2199 Fit      -0.000092
 2200 Fit       0.000464
 2201 Fit       0.001303
 2202 Fit       0.002450
 2203 Fit       0.002770
 2204 Fit       0.001831
 2205 Fit       0.003050
 2206 Fit       0.002331
 2207 Fit       0.001302
 2208 Fit       0.002917
 2209 Fit       0.002355
 2210 Fit       0.001662
 2211 Fit       0.000624
 2212 Fit       0.001394
 2213 Fit       0.001070
 2214 Fit       0.000504
 2215 Fit      -0.000469
 2216 Fit      -0.000720
 2217 Fit      -0.000537
 2218 Fit      -0.000331
 2219 Fit      -0.000134
 2220 Fit       0.000114
 2221 Fit       0.000957
 2222 Fit       0.001129
 2223 Fit       0.001345
 2224 Fit       0.001490
 2225 Fit       0.001633
 2226 Fit       0.001935
 2227 Fit       0.002402
 2228 Fit       0.002749
 2229 Fit       0.002572
 2230 Fit       0.002690
 2231 Fit       0.002922
 2232 Fit       0.003474
 2233 Fit       0.003307
 2234 Fit       0.001261
 2235 Fit       0.003112
 2236 Fit       0.001447
 2237 Fit       0.002709
 2238 Fit       0.000396
 2239 Fit       0.001862
 2240 Fit       0.002956
 2241 Fit       0.003992
 2242 Fit       0.001178
 2243 Fit       0.002097
 2244 Fit      -0.001154
 2245 Fit      -0.001468
 2246 Fit      -0.000943
 2247 Fit      -0.001567
 2248 Fit      -0.001476
 2249 Fit      -0.001148
 2250 Fit      -0.000875
 2251 Fit      -0.000846
 2252 Fit       0.001144
 2253 Fit       0.000224
 2254 Fit      -0.000355
 2255 Fit      -0.000593
 2256 Fit       0.001055
 2257 Fit       0.002326
 2258 Fit       0.003118
 2259 Fit       0.000188
 2260 Fit       0.001363
 2261 Fit       0.002024
 2262 Fit       0.002234
 2263 Fit      -0.000732
 2264 Fit       0.000301
 2265 Fit       0.000781
 2266 Fit       0.000578
 2267 Fit      -0.000856
 2268 Fit      -0.000881
 2269 Fit      -0.000590
 2270 Fit      -0.000413
 2271 Fit      -0.000216
 2272 Fit       0.000316
 2273 Fit       0.001073
 2274 Fit       0.002319
 2275 Fit       0.002592
 2276 Fit       0.001560
 2277 Fit       0.000498
 2278 Fit      -0.000157
 2279 Fit       0.001255
 2280 Fit       0.001680
 2281 Fit       0.002603
 2282 Fit       0.003245
 2283 Fit       0.002620
 2284 Fit       0.001639
 2285 Fit       0.002504
 2286 Fit       0.000823
 2287 Fit       0.002748
 2288 Fit       0.001183
 2289 Fit      -0.000624
 2290 Fit       0.003943
 2291 Fit       0.003627
 2292 Fit       0.002685
 2293 Fit       0.000926
 2294 Fit      -0.000839
 2295 Fit       0.002972
 2296 Fit       0.002963
 2297 Fit       0.002274
 2298 Fit       0.000130
 2299 Fit       0.001614
 2300 Fit       0.001317
 -----------------------------------------------------------------
 Leave Link  602 at Thu Apr 27 14:59:19 2017, MaxMem=    33554432 cpu:         3.9
 (Enter /home/michal/g09/l9999.exe)

 Test job not archived.
 1\1\GINC-LINUX\SP\RHF\6-31G(d)\C27H46O3\MICHAL\27-Apr-2017\0\\#P HF/6-
 31G* SCF(Conver=6) NoSymm Test Pop=mk IOp(6/33=2) GFInput GFPrint\\MEP
  - Input generated by R.E.D.-III.x MOLECULE\\0,1\C,0,1.75947547,-1.247
 50779,-0.07498387\H,0,1.87261449,-1.11895593,-1.15846328\C,0,3.1512344
 6,-1.3125896,0.56905247\H,0,3.72971125,-2.12721112,0.12279206\H,0,3.01
 463778,-1.56830034,1.63256609\C,0,3.91321369,-0.00548744,0.45526002\C,
 0,3.18743704,1.26909249,0.89734756\C,0,1.74688691,1.25318795,0.2974531
 8\H,0,1.82117514,1.45222017,-0.7807512\H,0,1.16319172,2.0751591,0.7253
 518\C,0,0.9776122,-0.06265475,0.49137582\H,0,0.78189281,-0.24038563,1.
 5592122\H,0,0.,0.,0.\C,0,5.17296998,0.,0.\H,0,5.63900456,-0.93290245,-
 0.30925175\C,0,6.05902583,1.20710612,-0.09213654\H,0,6.31638144,1.4081
 0128,-1.14370472\C,0,5.48121497,2.47312625,0.5616297\H,0,5.69820693,2.
 40282898,1.63566809\C,0,3.94269396,2.52674786,0.34639891\H,0,3.7925192
 8,2.50604986,-0.74534656\C,0,3.35725814,3.86453159,0.85280841\H,0,3.39
 116159,3.89154375,1.94739142\H,0,2.29764112,3.9258952,0.58220886\C,0,4
 .07085809,5.11502279,0.30390538\H,0,3.91345285,5.17729683,-0.78263552\
 H,0,3.59744634,6.00151656,0.73692877\C,0,5.58747717,5.08298407,0.58103
 25\C,0,6.12004655,3.74882756,-0.01850109\H,0,5.81809595,3.77260494,-1.
 07977158\C,0,7.6477749,3.91165207,0.\H,0,8.14222612,3.27063327,-0.7364
 9179\H,0,8.05605281,3.6349101,0.97719601\C,0,7.8607338,5.41997102,-0.2
 9897007\H,0,8.54832411,5.86691857,0.42903291\H,0,8.31556133,5.56868634
 ,-1.28296676\C,0,6.45805894,6.11277415,-0.2214554\H,0,6.03554052,6.138
 65766,-1.23869297\C,0,5.87225259,5.20263142,2.09575201\H,0,5.43840786,
 4.3785753,2.66771102\H,0,6.94489334,5.21376189,2.31077378\H,0,5.450097
 39,6.13007329,2.49615533\C,0,6.54788702,7.58450684,0.26023916\H,0,7.02
 946725,7.5848487,1.25017944\C,0,5.17535088,8.26611065,0.40031712\H,0,4
 .61866932,8.22505184,-0.5445436\H,0,5.28343793,9.31927408,0.6756969\H,
 0,4.55837616,7.79873206,1.17074297\C,0,3.10660096,1.27944751,2.4473503
 3\H,0,2.46646358,2.09056745,2.80824481\H,0,2.68996364,0.34493207,2.832
 00185\H,0,4.09805313,1.39638121,2.89487284\O,0,7.30266098,0.95828397,0
 .61114821\O,0,8.03684529,-0.0631017,-0.12913621\H,0,8.80264315,0.45574
 679,-0.42555924\O,0,1.05257237,-2.48385332,0.05814461\H,0,0.92241168,-
 2.6660501,0.99944666\C,0,7.45940111,8.4019948,-0.68933488\H,0,8.394646
 37,7.85400573,-0.85359058\H,0,6.96809581,8.46603112,-1.67113646\C,0,7.
 82651122,9.81042108,-0.1913548\H,0,6.93803075,10.45115491,-0.15606339\
 H,0,8.181715,9.73315063,0.84613767\C,0,8.92535315,10.50329626,-1.01842
 43\H,0,9.83407012,9.88521016,-0.97975143\H,0,9.185025,11.45453964,-0.5
 3053199\C,0,8.59856854,10.79542721,-2.49857532\H,0,8.35701512,9.843066
 23,-2.99209901\C,0,7.38889692,11.72983617,-2.6592934\H,0,7.57005472,12
 .6907253,-2.16012869\H,0,7.19317751,11.93773334,-3.71740026\H,0,6.4756
 409,11.30082494,-2.23432483\C,0,9.83008132,11.38151199,-3.20752757\H,0
 ,10.11890385,12.34136624,-2.76017879\H,0,9.63143655,11.55746063,-4.270
 91782\H,0,10.69174898,10.70802733,-3.13412649\\Version=EM64L-G09RevD.0
 1\HF=-1273.68334\RMSD=5.607e-07\Dipole=0.0124616,1.0345487,0.104866\Qu
 adrupole=0.5574395,-2.1590607,1.6016212,7.410861,-6.9230873,-2.5402159
 \PG=C01 [X(C27H46O3)]\\@


 NATURE GIVES TO EVERY TIME AND SEASON SOME BEAUTY OF ITS OWN.

                                                    --DICKENS
 Job cpu time:       0 days  0 hours 11 minutes 38.5 seconds.
 File lengths (MBytes):  RWF=    159 Int=      0 D2E=      0 Chk=     11 Scr=      1
 Normal termination of Gaussian 09 at Thu Apr 27 14:59:19 2017.
