 Entering Gaussian System, Link 0=/home/michal/g09/g09
 Input=JOB2-gau_m1-25-3.com
 Output=JOB2-gau_m1-25-3.log
 Initial command:
 /home/michal/g09/l1.exe "/home/michal/gauss_scratch/Gau-6957.inp" -scrdir="/home/michal/gauss_scratch/"
 Entering Link 1 = /home/michal/g09/l1.exe PID=      6958.
  
 Copyright (c) 1988,1990,1992,1993,1995,1998,2003,2009,2013,
            Gaussian, Inc.  All Rights Reserved.
  
 This is part of the Gaussian(R) 09 program.  It is based on
 the Gaussian(R) 03 system (copyright 2003, Gaussian, Inc.),
 the Gaussian(R) 98 system (copyright 1998, Gaussian, Inc.),
 the Gaussian(R) 94 system (copyright 1995, Gaussian, Inc.),
 the Gaussian 92(TM) system (copyright 1992, Gaussian, Inc.),
 the Gaussian 90(TM) system (copyright 1990, Gaussian, Inc.),
 the Gaussian 88(TM) system (copyright 1988, Gaussian, Inc.),
 the Gaussian 86(TM) system (copyright 1986, Carnegie Mellon
 University), and the Gaussian 82(TM) system (copyright 1983,
 Carnegie Mellon University). Gaussian is a federally registered
 trademark of Gaussian, Inc.
  
 This software contains proprietary and confidential information,
 including trade secrets, belonging to Gaussian, Inc.
  
 This software is provided under written license and may be
 used, copied, transmitted, or stored only in accord with that
 written license.
  
 The following legend is applicable only to US Government
 contracts under FAR:
  
                    RESTRICTED RIGHTS LEGEND
  
 Use, reproduction and disclosure by the US Government is
 subject to restrictions as set forth in subparagraphs (a)
 and (c) of the Commercial Computer Software - Restricted
 Rights clause in FAR 52.227-19.
  
 Gaussian, Inc.
 340 Quinnipiac St., Bldg. 40, Wallingford CT 06492
  
  
 ---------------------------------------------------------------
 Warning -- This program may not be used in any manner that
 competes with the business of Gaussian, Inc. or will provide
 assistance to any competitor of Gaussian, Inc.  The licensee
 of this program is prohibited from giving any competitor of
 Gaussian, Inc. access to this program.  By using this program,
 the user acknowledges that Gaussian, Inc. is engaged in the
 business of creating and licensing software in the field of
 computational chemistry and represents and warrants to the
 licensee that it is not a competitor of Gaussian, Inc. and that
 it will not use this program in any manner prohibited above.
 ---------------------------------------------------------------
  

 Cite this work as:
 Gaussian 09, Revision D.01,
 M. J. Frisch, G. W. Trucks, H. B. Schlegel, G. E. Scuseria, 
 M. A. Robb, J. R. Cheeseman, G. Scalmani, V. Barone, B. Mennucci, 
 G. A. Petersson, H. Nakatsuji, M. Caricato, X. Li, H. P. Hratchian, 
 A. F. Izmaylov, J. Bloino, G. Zheng, J. L. Sonnenberg, M. Hada, 
 M. Ehara, K. Toyota, R. Fukuda, J. Hasegawa, M. Ishida, T. Nakajima, 
 Y. Honda, O. Kitao, H. Nakai, T. Vreven, J. A. Montgomery, Jr., 
 J. E. Peralta, F. Ogliaro, M. Bearpark, J. J. Heyd, E. Brothers, 
 K. N. Kudin, V. N. Staroverov, T. Keith, R. Kobayashi, J. Normand, 
 K. Raghavachari, A. Rendell, J. C. Burant, S. S. Iyengar, J. Tomasi, 
 M. Cossi, N. Rega, J. M. Millam, M. Klene, J. E. Knox, J. B. Cross, 
 V. Bakken, C. Adamo, J. Jaramillo, R. Gomperts, R. E. Stratmann, 
 O. Yazyev, A. J. Austin, R. Cammi, C. Pomelli, J. W. Ochterski, 
 R. L. Martin, K. Morokuma, V. G. Zakrzewski, G. A. Voth, 
 P. Salvador, J. J. Dannenberg, S. Dapprich, A. D. Daniels, 
 O. Farkas, J. B. Foresman, J. V. Ortiz, J. Cioslowski, 
 and D. J. Fox, Gaussian, Inc., Wallingford CT, 2013.
 
 ******************************************
 Gaussian 09:  EM64L-G09RevD.01 24-Apr-2013
                27-Apr-2017 
 ******************************************
 %Mem=256MB
 %NProc=12
 Will use up to   12 processors via shared memory.
 ----------------------------------------------------------------------
 #P HF/6-31G* SCF(Conver=6) NoSymm Test Pop=mk IOp(6/33=2) GFInput GFPr
 int
 ----------------------------------------------------------------------
 1/38=1/1;
 2/12=2,15=1,17=6,18=5,40=1/2;
 3/5=1,6=6,7=1,11=9,16=1,24=110,25=1,30=1/1,2,3;
 4//1;
 5/5=2,6=6,38=5/2;
 6/7=2,8=2,9=2,10=2,15=8,20=1,28=1,33=2/1,2;
 99/5=1,9=1/99;
 Leave Link    1 at Thu Apr 27 16:39:22 2017, MaxMem=    33554432 cpu:         0.6
 (Enter /home/michal/g09/l101.exe)
 ----------------------------------------------
 MEP - Input generated by R.E.D.-III.x MOLECULE
 ----------------------------------------------
 Symbolic Z-matrix:
 Charge =  0 Multiplicity = 1
 C                    -1.00351   1.98102   1.68994 
 H                    -0.98799   1.00162   2.18358 
 C                     0.32557   2.69963   1.96239 
 H                     0.48177   2.79382   3.04167 
 H                     0.23651   3.72379   1.56491 
 C                     1.51231   2.00986   1.31706 
 C                     1.39878   1.65319  -0.16928 
 C                    -0.00326   1.01531  -0.4204 
 H                     0.        0.        0. 
 H                    -0.16381   0.90379  -1.49769 
 C                    -1.18797   1.78253   0.1863 
 H                    -1.29642   2.76634  -0.29412 
 H                    -2.12061   1.23798   0. 
 C                     2.61079   1.74444   2.03686 
 H                     2.6312    1.99393   3.09829 
 C                     3.87208   1.12702   1.50852 
 H                     4.02705   0.14645   1.98741 
 C                     3.91359   0.97098  -0.01923 
 H                     4.2142    1.94229  -0.4268 
 C                     2.49966   0.60156  -0.54778 
 H                     2.21276  -0.3252   -0.02347 
 C                     2.53235   0.26487  -2.05589 
 H                     2.70282   1.17872  -2.63536 
 H                     1.55342  -0.11385  -2.36963 
 C                     3.60142  -0.77442  -2.44551 
 H                     3.35401  -1.74205  -1.98524 
 H                     3.55812  -0.92605  -3.52845 
 C                     5.01029  -0.35353  -1.98195 
 C                     4.92146  -0.11062  -0.447 
 H                     4.53739  -1.05831  -0.0295 
 C                     6.38775   0.        0. 
 H                     6.52022  -0.22029   1.06231 
 H                     6.76126   1.01827  -0.14872 
 C                     7.12501  -1.01566  -0.9135 
 H                     8.01206  -0.55873  -1.36856 
 H                     7.48285  -1.87478  -0.33791 
 C                     6.11386  -1.46808  -2.02158 
 H                     5.62388  -2.39327  -1.67774 
 C                     5.48747   0.90194  -2.74799 
 H                     4.8448    1.7679   -2.57044 
 H                     6.5028    1.1927   -2.46348 
 H                     5.49093   0.71803  -3.82734 
 C                     6.8122   -1.80766  -3.36431 
 H                     7.36614  -0.91344  -3.68846 
 C                     5.82594  -2.18999  -4.48283 
 H                     5.16395  -3.00266  -4.15842 
 H                     6.35415  -2.53266  -5.37778 
 H                     5.19801  -1.34968  -4.78767 
 C                     1.53607   2.9575   -0.99912 
 H                     1.32048   2.77993  -2.05725 
 H                     0.83984   3.72672  -0.65375 
 H                     2.54424   3.37365  -0.91637 
 O                     5.03102   1.82543   2.03074 
 O                     5.05775   3.17889   1.48871 
 H                     4.72654   3.68838   2.24636 
 O                    -2.10701   2.65996   2.2951 
 H                    -2.20079   3.52955   1.8813 
 C                     7.85097  -2.94099  -3.16129 
 H                     8.39946  -2.76577  -2.23101 
 H                     7.31189  -3.89119  -3.02192 
 C                     8.86967  -3.09695  -4.30241 
 H                     8.34534  -3.22317  -5.25735 
 H                     9.44409  -2.1656   -4.39933 
 C                     9.8283   -4.29168  -4.1405 
 H                     10.44754  -4.36867  -5.04665 
 H                     9.23087  -5.21424  -4.10394 
 C                     10.77    -4.27337  -2.91738 
 H                     10.15476  -4.21641  -2.0081 
 C                     11.57174  -5.58306  -2.84746 
 H                     12.2137  -5.69629  -3.73064 
 H                     12.21765  -5.60798  -1.96235 
 H                     10.90929  -6.45528  -2.80409 
 C                     11.71622  -3.06234  -2.92358 
 H                     12.33995  -3.06059  -3.82708 
 H                     12.38722  -3.08552  -2.05736 
 H                     11.17254  -2.11259  -2.89263 
 
 NAtoms=     76 NQM=       76 NQMF=       0 NMMI=      0 NMMIF=      0
                NMic=       0 NMicF=      0.
                    Isotopes and Nuclear Properties:
 (Nuclear quadrupole moments (NQMom) in fm**2, nuclear magnetic moments (NMagM)
  in nuclear magnetons)

  Atom         1           2           3           4           5           6           7           8           9          10
 IAtWgt=          12           1          12           1           1          12          12          12           1           1
 AtmWgt=  12.0000000   1.0078250  12.0000000   1.0078250   1.0078250  12.0000000  12.0000000  12.0000000   1.0078250   1.0078250
 NucSpn=           0           1           0           1           1           0           0           0           1           1
 AtZEff=   0.0000000   0.0000000   0.0000000   0.0000000   0.0000000   0.0000000   0.0000000   0.0000000   0.0000000   0.0000000
 NQMom=    0.0000000   0.0000000   0.0000000   0.0000000   0.0000000   0.0000000   0.0000000   0.0000000   0.0000000   0.0000000
 NMagM=    0.0000000   2.7928460   0.0000000   2.7928460   2.7928460   0.0000000   0.0000000   0.0000000   2.7928460   2.7928460
 AtZNuc=   6.0000000   1.0000000   6.0000000   1.0000000   1.0000000   6.0000000   6.0000000   6.0000000   1.0000000   1.0000000

  Atom        11          12          13          14          15          16          17          18          19          20
 IAtWgt=          12           1           1          12           1          12           1          12           1          12
 AtmWgt=  12.0000000   1.0078250   1.0078250  12.0000000   1.0078250  12.0000000   1.0078250  12.0000000   1.0078250  12.0000000
 NucSpn=           0           1           1           0           1           0           1           0           1           0
 AtZEff=   0.0000000   0.0000000   0.0000000   0.0000000   0.0000000   0.0000000   0.0000000   0.0000000   0.0000000   0.0000000
 NQMom=    0.0000000   0.0000000   0.0000000   0.0000000   0.0000000   0.0000000   0.0000000   0.0000000   0.0000000   0.0000000
 NMagM=    0.0000000   2.7928460   2.7928460   0.0000000   2.7928460   0.0000000   2.7928460   0.0000000   2.7928460   0.0000000
 AtZNuc=   6.0000000   1.0000000   1.0000000   6.0000000   1.0000000   6.0000000   1.0000000   6.0000000   1.0000000   6.0000000

  Atom        21          22          23          24          25          26          27          28          29          30
 IAtWgt=           1          12           1           1          12           1           1          12          12           1
 AtmWgt=   1.0078250  12.0000000   1.0078250   1.0078250  12.0000000   1.0078250   1.0078250  12.0000000  12.0000000   1.0078250
 NucSpn=           1           0           1           1           0           1           1           0           0           1
 AtZEff=   0.0000000   0.0000000   0.0000000   0.0000000   0.0000000   0.0000000   0.0000000   0.0000000   0.0000000   0.0000000
 NQMom=    0.0000000   0.0000000   0.0000000   0.0000000   0.0000000   0.0000000   0.0000000   0.0000000   0.0000000   0.0000000
 NMagM=    2.7928460   0.0000000   2.7928460   2.7928460   0.0000000   2.7928460   2.7928460   0.0000000   0.0000000   2.7928460
 AtZNuc=   1.0000000   6.0000000   1.0000000   1.0000000   6.0000000   1.0000000   1.0000000   6.0000000   6.0000000   1.0000000

  Atom        31          32          33          34          35          36          37          38          39          40
 IAtWgt=          12           1           1          12           1           1          12           1          12           1
 AtmWgt=  12.0000000   1.0078250   1.0078250  12.0000000   1.0078250   1.0078250  12.0000000   1.0078250  12.0000000   1.0078250
 NucSpn=           0           1           1           0           1           1           0           1           0           1
 AtZEff=   0.0000000   0.0000000   0.0000000   0.0000000   0.0000000   0.0000000   0.0000000   0.0000000   0.0000000   0.0000000
 NQMom=    0.0000000   0.0000000   0.0000000   0.0000000   0.0000000   0.0000000   0.0000000   0.0000000   0.0000000   0.0000000
 NMagM=    0.0000000   2.7928460   2.7928460   0.0000000   2.7928460   2.7928460   0.0000000   2.7928460   0.0000000   2.7928460
 AtZNuc=   6.0000000   1.0000000   1.0000000   6.0000000   1.0000000   1.0000000   6.0000000   1.0000000   6.0000000   1.0000000

  Atom        41          42          43          44          45          46          47          48          49          50
 IAtWgt=           1           1          12           1          12           1           1           1          12           1
 AtmWgt=   1.0078250   1.0078250  12.0000000   1.0078250  12.0000000   1.0078250   1.0078250   1.0078250  12.0000000   1.0078250
 NucSpn=           1           1           0           1           0           1           1           1           0           1
 AtZEff=   0.0000000   0.0000000   0.0000000   0.0000000   0.0000000   0.0000000   0.0000000   0.0000000   0.0000000   0.0000000
 NQMom=    0.0000000   0.0000000   0.0000000   0.0000000   0.0000000   0.0000000   0.0000000   0.0000000   0.0000000   0.0000000
 NMagM=    2.7928460   2.7928460   0.0000000   2.7928460   0.0000000   2.7928460   2.7928460   2.7928460   0.0000000   2.7928460
 AtZNuc=   1.0000000   1.0000000   6.0000000   1.0000000   6.0000000   1.0000000   1.0000000   1.0000000   6.0000000   1.0000000

  Atom        51          52          53          54          55          56          57          58          59          60
 IAtWgt=           1           1          16          16           1          16           1          12           1           1
 AtmWgt=   1.0078250   1.0078250  15.9949146  15.9949146   1.0078250  15.9949146   1.0078250  12.0000000   1.0078250   1.0078250
 NucSpn=           1           1           0           0           1           0           1           0           1           1
 AtZEff=   0.0000000   0.0000000   0.0000000   0.0000000   0.0000000   0.0000000   0.0000000   0.0000000   0.0000000   0.0000000
 NQMom=    0.0000000   0.0000000   0.0000000   0.0000000   0.0000000   0.0000000   0.0000000   0.0000000   0.0000000   0.0000000
 NMagM=    2.7928460   2.7928460   0.0000000   0.0000000   2.7928460   0.0000000   2.7928460   0.0000000   2.7928460   2.7928460
 AtZNuc=   1.0000000   1.0000000   8.0000000   8.0000000   1.0000000   8.0000000   1.0000000   6.0000000   1.0000000   1.0000000

  Atom        61          62          63          64          65          66          67          68          69          70
 IAtWgt=          12           1           1          12           1           1          12           1          12           1
 AtmWgt=  12.0000000   1.0078250   1.0078250  12.0000000   1.0078250   1.0078250  12.0000000   1.0078250  12.0000000   1.0078250
 NucSpn=           0           1           1           0           1           1           0           1           0           1
 AtZEff=   0.0000000   0.0000000   0.0000000   0.0000000   0.0000000   0.0000000   0.0000000   0.0000000   0.0000000   0.0000000
 NQMom=    0.0000000   0.0000000   0.0000000   0.0000000   0.0000000   0.0000000   0.0000000   0.0000000   0.0000000   0.0000000
 NMagM=    0.0000000   2.7928460   2.7928460   0.0000000   2.7928460   2.7928460   0.0000000   2.7928460   0.0000000   2.7928460
 AtZNuc=   6.0000000   1.0000000   1.0000000   6.0000000   1.0000000   1.0000000   6.0000000   1.0000000   6.0000000   1.0000000

  Atom        71          72          73          74          75          76
 IAtWgt=           1           1          12           1           1           1
 AtmWgt=   1.0078250   1.0078250  12.0000000   1.0078250   1.0078250   1.0078250
 NucSpn=           1           1           0           1           1           1
 AtZEff=   0.0000000   0.0000000   0.0000000   0.0000000   0.0000000   0.0000000
 NQMom=    0.0000000   0.0000000   0.0000000   0.0000000   0.0000000   0.0000000
 NMagM=    2.7928460   2.7928460   0.0000000   2.7928460   2.7928460   2.7928460
 AtZNuc=   1.0000000   1.0000000   6.0000000   1.0000000   1.0000000   1.0000000
 Leave Link  101 at Thu Apr 27 16:39:22 2017, MaxMem=    33554432 cpu:         1.2
 (Enter /home/michal/g09/l202.exe)
 Symmetry turned off by external request.
 Stoichiometry    C27H46O3
 Framework group  C1[X(C27H46O3)]
 Deg. of freedom   222
 Full point group                 C1      NOp   1
                          Input orientation:                          
 ---------------------------------------------------------------------
 Center     Atomic      Atomic             Coordinates (Angstroms)
 Number     Number       Type             X           Y           Z
 ---------------------------------------------------------------------
      1          6           0       -1.003511    1.981020    1.689937
      2          1           0       -0.987990    1.001621    2.183576
      3          6           0        0.325570    2.699628    1.962392
      4          1           0        0.481772    2.793824    3.041672
      5          1           0        0.236510    3.723794    1.564914
      6          6           0        1.512313    2.009863    1.317061
      7          6           0        1.398776    1.653194   -0.169280
      8          6           0       -0.003256    1.015308   -0.420400
      9          1           0        0.000000    0.000000    0.000000
     10          1           0       -0.163811    0.903788   -1.497686
     11          6           0       -1.187974    1.782527    0.186304
     12          1           0       -1.296415    2.766345   -0.294120
     13          1           0       -2.120612    1.237983    0.000000
     14          6           0        2.610791    1.744438    2.036857
     15          1           0        2.631198    1.993926    3.098289
     16          6           0        3.872077    1.127024    1.508519
     17          1           0        4.027050    0.146449    1.987407
     18          6           0        3.913590    0.970975   -0.019226
     19          1           0        4.214200    1.942288   -0.426799
     20          6           0        2.499665    0.601561   -0.547780
     21          1           0        2.212760   -0.325196   -0.023467
     22          6           0        2.532346    0.264872   -2.055893
     23          1           0        2.702817    1.178717   -2.635363
     24          1           0        1.553419   -0.113848   -2.369626
     25          6           0        3.601422   -0.774417   -2.445513
     26          1           0        3.354012   -1.742046   -1.985241
     27          1           0        3.558122   -0.926047   -3.528451
     28          6           0        5.010294   -0.353527   -1.981949
     29          6           0        4.921461   -0.110615   -0.447005
     30          1           0        4.537395   -1.058307   -0.029500
     31          6           0        6.387751    0.000000    0.000000
     32          1           0        6.520222   -0.220289    1.062311
     33          1           0        6.761265    1.018268   -0.148724
     34          6           0        7.125008   -1.015660   -0.913502
     35          1           0        8.012062   -0.558734   -1.368555
     36          1           0        7.482849   -1.874778   -0.337905
     37          6           0        6.113860   -1.468077   -2.021575
     38          1           0        5.623878   -2.393268   -1.677740
     39          6           0        5.487468    0.901941   -2.747990
     40          1           0        4.844803    1.767900   -2.570439
     41          1           0        6.502799    1.192697   -2.463480
     42          1           0        5.490932    0.718032   -3.827338
     43          6           0        6.812200   -1.807659   -3.364314
     44          1           0        7.366136   -0.913440   -3.688462
     45          6           0        5.825942   -2.189991   -4.482833
     46          1           0        5.163952   -3.002656   -4.158423
     47          1           0        6.354153   -2.532656   -5.377782
     48          1           0        5.198007   -1.349676   -4.787668
     49          6           0        1.536074    2.957503   -0.999121
     50          1           0        1.320484    2.779926   -2.057248
     51          1           0        0.839835    3.726719   -0.653747
     52          1           0        2.544245    3.373653   -0.916373
     53          8           0        5.031023    1.825429    2.030736
     54          8           0        5.057751    3.178886    1.488706
     55          1           0        4.726537    3.688376    2.246358
     56          8           0       -2.107011    2.659965    2.295096
     57          1           0       -2.200794    3.529548    1.881302
     58          6           0        7.850970   -2.940994   -3.161290
     59          1           0        8.399456   -2.765767   -2.231007
     60          1           0        7.311894   -3.891187   -3.021920
     61          6           0        8.869669   -3.096946   -4.302415
     62          1           0        8.345342   -3.223166   -5.257346
     63          1           0        9.444088   -2.165601   -4.399334
     64          6           0        9.828297   -4.291685   -4.140499
     65          1           0       10.447544   -4.368674   -5.046655
     66          1           0        9.230872   -5.214236   -4.103943
     67          6           0       10.770000   -4.273370   -2.917385
     68          1           0       10.154761   -4.216413   -2.008100
     69          6           0       11.571738   -5.583059   -2.847463
     70          1           0       12.213697   -5.696292   -3.730643
     71          1           0       12.217649   -5.607977   -1.962354
     72          1           0       10.909289   -6.455281   -2.804089
     73          6           0       11.716224   -3.062343   -2.923578
     74          1           0       12.339953   -3.060594   -3.827079
     75          1           0       12.387224   -3.085521   -2.057364
     76          1           0       11.172539   -2.112594   -2.892631
 ---------------------------------------------------------------------
 Rotational constants (GHZ):      0.3858676      0.0547522      0.0510286
 Leave Link  202 at Thu Apr 27 16:39:22 2017, MaxMem=    33554432 cpu:         0.5
 (Enter /home/michal/g09/l301.exe)
 Standard basis: 6-31G(d) (6D, 7F)
 Ernie: Thresh=  0.10000D-02 Tol=  0.10000D-05 Strict=F.
 AO basis set in the form of general basis input (Overlap normalization):
      1 0
 S   6 1.00       0.000000000000
      0.3047524880D+04  0.1834737132D-02
      0.4573695180D+03  0.1403732281D-01
      0.1039486850D+03  0.6884262226D-01
      0.2921015530D+02  0.2321844432D+00
      0.9286662960D+01  0.4679413484D+00
      0.3163926960D+01  0.3623119853D+00
 SP   3 1.00       0.000000000000
      0.7868272350D+01 -0.1193324198D+00  0.6899906659D-01
      0.1881288540D+01 -0.1608541517D+00  0.3164239610D+00
      0.5442492580D+00  0.1143456438D+01  0.7443082909D+00
 SP   1 1.00       0.000000000000
      0.1687144782D+00  0.1000000000D+01  0.1000000000D+01
 D   1 1.00       0.000000000000
      0.8000000000D+00  0.1000000000D+01
 ****
      2 0
 S   3 1.00       0.000000000000
      0.1873113696D+02  0.3349460434D-01
      0.2825394365D+01  0.2347269535D+00
      0.6401216923D+00  0.8137573261D+00
 S   1 1.00       0.000000000000
      0.1612777588D+00  0.1000000000D+01
 ****
      3 0
 S   6 1.00       0.000000000000
      0.3047524880D+04  0.1834737132D-02
      0.4573695180D+03  0.1403732281D-01
      0.1039486850D+03  0.6884262226D-01
      0.2921015530D+02  0.2321844432D+00
      0.9286662960D+01  0.4679413484D+00
      0.3163926960D+01  0.3623119853D+00
 SP   3 1.00       0.000000000000
      0.7868272350D+01 -0.1193324198D+00  0.6899906659D-01
      0.1881288540D+01 -0.1608541517D+00  0.3164239610D+00
      0.5442492580D+00  0.1143456438D+01  0.7443082909D+00
 SP   1 1.00       0.000000000000
      0.1687144782D+00  0.1000000000D+01  0.1000000000D+01
 D   1 1.00       0.000000000000
      0.8000000000D+00  0.1000000000D+01
 ****
      4 0
 S   3 1.00       0.000000000000
      0.1873113696D+02  0.3349460434D-01
      0.2825394365D+01  0.2347269535D+00
      0.6401216923D+00  0.8137573261D+00
 S   1 1.00       0.000000000000
      0.1612777588D+00  0.1000000000D+01
 ****
      5 0
 S   3 1.00       0.000000000000
      0.1873113696D+02  0.3349460434D-01
      0.2825394365D+01  0.2347269535D+00
      0.6401216923D+00  0.8137573261D+00
 S   1 1.00       0.000000000000
      0.1612777588D+00  0.1000000000D+01
 ****
      6 0
 S   6 1.00       0.000000000000
      0.3047524880D+04  0.1834737132D-02
      0.4573695180D+03  0.1403732281D-01
      0.1039486850D+03  0.6884262226D-01
      0.2921015530D+02  0.2321844432D+00
      0.9286662960D+01  0.4679413484D+00
      0.3163926960D+01  0.3623119853D+00
 SP   3 1.00       0.000000000000
      0.7868272350D+01 -0.1193324198D+00  0.6899906659D-01
      0.1881288540D+01 -0.1608541517D+00  0.3164239610D+00
      0.5442492580D+00  0.1143456438D+01  0.7443082909D+00
 SP   1 1.00       0.000000000000
      0.1687144782D+00  0.1000000000D+01  0.1000000000D+01
 D   1 1.00       0.000000000000
      0.8000000000D+00  0.1000000000D+01
 ****
      7 0
 S   6 1.00       0.000000000000
      0.3047524880D+04  0.1834737132D-02
      0.4573695180D+03  0.1403732281D-01
      0.1039486850D+03  0.6884262226D-01
      0.2921015530D+02  0.2321844432D+00
      0.9286662960D+01  0.4679413484D+00
      0.3163926960D+01  0.3623119853D+00
 SP   3 1.00       0.000000000000
      0.7868272350D+01 -0.1193324198D+00  0.6899906659D-01
      0.1881288540D+01 -0.1608541517D+00  0.3164239610D+00
      0.5442492580D+00  0.1143456438D+01  0.7443082909D+00
 SP   1 1.00       0.000000000000
      0.1687144782D+00  0.1000000000D+01  0.1000000000D+01
 D   1 1.00       0.000000000000
      0.8000000000D+00  0.1000000000D+01
 ****
      8 0
 S   6 1.00       0.000000000000
      0.3047524880D+04  0.1834737132D-02
      0.4573695180D+03  0.1403732281D-01
      0.1039486850D+03  0.6884262226D-01
      0.2921015530D+02  0.2321844432D+00
      0.9286662960D+01  0.4679413484D+00
      0.3163926960D+01  0.3623119853D+00
 SP   3 1.00       0.000000000000
      0.7868272350D+01 -0.1193324198D+00  0.6899906659D-01
      0.1881288540D+01 -0.1608541517D+00  0.3164239610D+00
      0.5442492580D+00  0.1143456438D+01  0.7443082909D+00
 SP   1 1.00       0.000000000000
      0.1687144782D+00  0.1000000000D+01  0.1000000000D+01
 D   1 1.00       0.000000000000
      0.8000000000D+00  0.1000000000D+01
 ****
      9 0
 S   3 1.00       0.000000000000
      0.1873113696D+02  0.3349460434D-01
      0.2825394365D+01  0.2347269535D+00
      0.6401216923D+00  0.8137573261D+00
 S   1 1.00       0.000000000000
      0.1612777588D+00  0.1000000000D+01
 ****
     10 0
 S   3 1.00       0.000000000000
      0.1873113696D+02  0.3349460434D-01
      0.2825394365D+01  0.2347269535D+00
      0.6401216923D+00  0.8137573261D+00
 S   1 1.00       0.000000000000
      0.1612777588D+00  0.1000000000D+01
 ****
     11 0
 S   6 1.00       0.000000000000
      0.3047524880D+04  0.1834737132D-02
      0.4573695180D+03  0.1403732281D-01
      0.1039486850D+03  0.6884262226D-01
      0.2921015530D+02  0.2321844432D+00
      0.9286662960D+01  0.4679413484D+00
      0.3163926960D+01  0.3623119853D+00
 SP   3 1.00       0.000000000000
      0.7868272350D+01 -0.1193324198D+00  0.6899906659D-01
      0.1881288540D+01 -0.1608541517D+00  0.3164239610D+00
      0.5442492580D+00  0.1143456438D+01  0.7443082909D+00
 SP   1 1.00       0.000000000000
      0.1687144782D+00  0.1000000000D+01  0.1000000000D+01
 D   1 1.00       0.000000000000
      0.8000000000D+00  0.1000000000D+01
 ****
     12 0
 S   3 1.00       0.000000000000
      0.1873113696D+02  0.3349460434D-01
      0.2825394365D+01  0.2347269535D+00
      0.6401216923D+00  0.8137573261D+00
 S   1 1.00       0.000000000000
      0.1612777588D+00  0.1000000000D+01
 ****
     13 0
 S   3 1.00       0.000000000000
      0.1873113696D+02  0.3349460434D-01
      0.2825394365D+01  0.2347269535D+00
      0.6401216923D+00  0.8137573261D+00
 S   1 1.00       0.000000000000
      0.1612777588D+00  0.1000000000D+01
 ****
     14 0
 S   6 1.00       0.000000000000
      0.3047524880D+04  0.1834737132D-02
      0.4573695180D+03  0.1403732281D-01
      0.1039486850D+03  0.6884262226D-01
      0.2921015530D+02  0.2321844432D+00
      0.9286662960D+01  0.4679413484D+00
      0.3163926960D+01  0.3623119853D+00
 SP   3 1.00       0.000000000000
      0.7868272350D+01 -0.1193324198D+00  0.6899906659D-01
      0.1881288540D+01 -0.1608541517D+00  0.3164239610D+00
      0.5442492580D+00  0.1143456438D+01  0.7443082909D+00
 SP   1 1.00       0.000000000000
      0.1687144782D+00  0.1000000000D+01  0.1000000000D+01
 D   1 1.00       0.000000000000
      0.8000000000D+00  0.1000000000D+01
 ****
     15 0
 S   3 1.00       0.000000000000
      0.1873113696D+02  0.3349460434D-01
      0.2825394365D+01  0.2347269535D+00
      0.6401216923D+00  0.8137573261D+00
 S   1 1.00       0.000000000000
      0.1612777588D+00  0.1000000000D+01
 ****
     16 0
 S   6 1.00       0.000000000000
      0.3047524880D+04  0.1834737132D-02
      0.4573695180D+03  0.1403732281D-01
      0.1039486850D+03  0.6884262226D-01
      0.2921015530D+02  0.2321844432D+00
      0.9286662960D+01  0.4679413484D+00
      0.3163926960D+01  0.3623119853D+00
 SP   3 1.00       0.000000000000
      0.7868272350D+01 -0.1193324198D+00  0.6899906659D-01
      0.1881288540D+01 -0.1608541517D+00  0.3164239610D+00
      0.5442492580D+00  0.1143456438D+01  0.7443082909D+00
 SP   1 1.00       0.000000000000
      0.1687144782D+00  0.1000000000D+01  0.1000000000D+01
 D   1 1.00       0.000000000000
      0.8000000000D+00  0.1000000000D+01
 ****
     17 0
 S   3 1.00       0.000000000000
      0.1873113696D+02  0.3349460434D-01
      0.2825394365D+01  0.2347269535D+00
      0.6401216923D+00  0.8137573261D+00
 S   1 1.00       0.000000000000
      0.1612777588D+00  0.1000000000D+01
 ****
     18 0
 S   6 1.00       0.000000000000
      0.3047524880D+04  0.1834737132D-02
      0.4573695180D+03  0.1403732281D-01
      0.1039486850D+03  0.6884262226D-01
      0.2921015530D+02  0.2321844432D+00
      0.9286662960D+01  0.4679413484D+00
      0.3163926960D+01  0.3623119853D+00
 SP   3 1.00       0.000000000000
      0.7868272350D+01 -0.1193324198D+00  0.6899906659D-01
      0.1881288540D+01 -0.1608541517D+00  0.3164239610D+00
      0.5442492580D+00  0.1143456438D+01  0.7443082909D+00
 SP   1 1.00       0.000000000000
      0.1687144782D+00  0.1000000000D+01  0.1000000000D+01
 D   1 1.00       0.000000000000
      0.8000000000D+00  0.1000000000D+01
 ****
     19 0
 S   3 1.00       0.000000000000
      0.1873113696D+02  0.3349460434D-01
      0.2825394365D+01  0.2347269535D+00
      0.6401216923D+00  0.8137573261D+00
 S   1 1.00       0.000000000000
      0.1612777588D+00  0.1000000000D+01
 ****
     20 0
 S   6 1.00       0.000000000000
      0.3047524880D+04  0.1834737132D-02
      0.4573695180D+03  0.1403732281D-01
      0.1039486850D+03  0.6884262226D-01
      0.2921015530D+02  0.2321844432D+00
      0.9286662960D+01  0.4679413484D+00
      0.3163926960D+01  0.3623119853D+00
 SP   3 1.00       0.000000000000
      0.7868272350D+01 -0.1193324198D+00  0.6899906659D-01
      0.1881288540D+01 -0.1608541517D+00  0.3164239610D+00
      0.5442492580D+00  0.1143456438D+01  0.7443082909D+00
 SP   1 1.00       0.000000000000
      0.1687144782D+00  0.1000000000D+01  0.1000000000D+01
 D   1 1.00       0.000000000000
      0.8000000000D+00  0.1000000000D+01
 ****
     21 0
 S   3 1.00       0.000000000000
      0.1873113696D+02  0.3349460434D-01
      0.2825394365D+01  0.2347269535D+00
      0.6401216923D+00  0.8137573261D+00
 S   1 1.00       0.000000000000
      0.1612777588D+00  0.1000000000D+01
 ****
     22 0
 S   6 1.00       0.000000000000
      0.3047524880D+04  0.1834737132D-02
      0.4573695180D+03  0.1403732281D-01
      0.1039486850D+03  0.6884262226D-01
      0.2921015530D+02  0.2321844432D+00
      0.9286662960D+01  0.4679413484D+00
      0.3163926960D+01  0.3623119853D+00
 SP   3 1.00       0.000000000000
      0.7868272350D+01 -0.1193324198D+00  0.6899906659D-01
      0.1881288540D+01 -0.1608541517D+00  0.3164239610D+00
      0.5442492580D+00  0.1143456438D+01  0.7443082909D+00
 SP   1 1.00       0.000000000000
      0.1687144782D+00  0.1000000000D+01  0.1000000000D+01
 D   1 1.00       0.000000000000
      0.8000000000D+00  0.1000000000D+01
 ****
     23 0
 S   3 1.00       0.000000000000
      0.1873113696D+02  0.3349460434D-01
      0.2825394365D+01  0.2347269535D+00
      0.6401216923D+00  0.8137573261D+00
 S   1 1.00       0.000000000000
      0.1612777588D+00  0.1000000000D+01
 ****
     24 0
 S   3 1.00       0.000000000000
      0.1873113696D+02  0.3349460434D-01
      0.2825394365D+01  0.2347269535D+00
      0.6401216923D+00  0.8137573261D+00
 S   1 1.00       0.000000000000
      0.1612777588D+00  0.1000000000D+01
 ****
     25 0
 S   6 1.00       0.000000000000
      0.3047524880D+04  0.1834737132D-02
      0.4573695180D+03  0.1403732281D-01
      0.1039486850D+03  0.6884262226D-01
      0.2921015530D+02  0.2321844432D+00
      0.9286662960D+01  0.4679413484D+00
      0.3163926960D+01  0.3623119853D+00
 SP   3 1.00       0.000000000000
      0.7868272350D+01 -0.1193324198D+00  0.6899906659D-01
      0.1881288540D+01 -0.1608541517D+00  0.3164239610D+00
      0.5442492580D+00  0.1143456438D+01  0.7443082909D+00
 SP   1 1.00       0.000000000000
      0.1687144782D+00  0.1000000000D+01  0.1000000000D+01
 D   1 1.00       0.000000000000
      0.8000000000D+00  0.1000000000D+01
 ****
     26 0
 S   3 1.00       0.000000000000
      0.1873113696D+02  0.3349460434D-01
      0.2825394365D+01  0.2347269535D+00
      0.6401216923D+00  0.8137573261D+00
 S   1 1.00       0.000000000000
      0.1612777588D+00  0.1000000000D+01
 ****
     27 0
 S   3 1.00       0.000000000000
      0.1873113696D+02  0.3349460434D-01
      0.2825394365D+01  0.2347269535D+00
      0.6401216923D+00  0.8137573261D+00
 S   1 1.00       0.000000000000
      0.1612777588D+00  0.1000000000D+01
 ****
     28 0
 S   6 1.00       0.000000000000
      0.3047524880D+04  0.1834737132D-02
      0.4573695180D+03  0.1403732281D-01
      0.1039486850D+03  0.6884262226D-01
      0.2921015530D+02  0.2321844432D+00
      0.9286662960D+01  0.4679413484D+00
      0.3163926960D+01  0.3623119853D+00
 SP   3 1.00       0.000000000000
      0.7868272350D+01 -0.1193324198D+00  0.6899906659D-01
      0.1881288540D+01 -0.1608541517D+00  0.3164239610D+00
      0.5442492580D+00  0.1143456438D+01  0.7443082909D+00
 SP   1 1.00       0.000000000000
      0.1687144782D+00  0.1000000000D+01  0.1000000000D+01
 D   1 1.00       0.000000000000
      0.8000000000D+00  0.1000000000D+01
 ****
     29 0
 S   6 1.00       0.000000000000
      0.3047524880D+04  0.1834737132D-02
      0.4573695180D+03  0.1403732281D-01
      0.1039486850D+03  0.6884262226D-01
      0.2921015530D+02  0.2321844432D+00
      0.9286662960D+01  0.4679413484D+00
      0.3163926960D+01  0.3623119853D+00
 SP   3 1.00       0.000000000000
      0.7868272350D+01 -0.1193324198D+00  0.6899906659D-01
      0.1881288540D+01 -0.1608541517D+00  0.3164239610D+00
      0.5442492580D+00  0.1143456438D+01  0.7443082909D+00
 SP   1 1.00       0.000000000000
      0.1687144782D+00  0.1000000000D+01  0.1000000000D+01
 D   1 1.00       0.000000000000
      0.8000000000D+00  0.1000000000D+01
 ****
     30 0
 S   3 1.00       0.000000000000
      0.1873113696D+02  0.3349460434D-01
      0.2825394365D+01  0.2347269535D+00
      0.6401216923D+00  0.8137573261D+00
 S   1 1.00       0.000000000000
      0.1612777588D+00  0.1000000000D+01
 ****
     31 0
 S   6 1.00       0.000000000000
      0.3047524880D+04  0.1834737132D-02
      0.4573695180D+03  0.1403732281D-01
      0.1039486850D+03  0.6884262226D-01
      0.2921015530D+02  0.2321844432D+00
      0.9286662960D+01  0.4679413484D+00
      0.3163926960D+01  0.3623119853D+00
 SP   3 1.00       0.000000000000
      0.7868272350D+01 -0.1193324198D+00  0.6899906659D-01
      0.1881288540D+01 -0.1608541517D+00  0.3164239610D+00
      0.5442492580D+00  0.1143456438D+01  0.7443082909D+00
 SP   1 1.00       0.000000000000
      0.1687144782D+00  0.1000000000D+01  0.1000000000D+01
 D   1 1.00       0.000000000000
      0.8000000000D+00  0.1000000000D+01
 ****
     32 0
 S   3 1.00       0.000000000000
      0.1873113696D+02  0.3349460434D-01
      0.2825394365D+01  0.2347269535D+00
      0.6401216923D+00  0.8137573261D+00
 S   1 1.00       0.000000000000
      0.1612777588D+00  0.1000000000D+01
 ****
     33 0
 S   3 1.00       0.000000000000
      0.1873113696D+02  0.3349460434D-01
      0.2825394365D+01  0.2347269535D+00
      0.6401216923D+00  0.8137573261D+00
 S   1 1.00       0.000000000000
      0.1612777588D+00  0.1000000000D+01
 ****
     34 0
 S   6 1.00       0.000000000000
      0.3047524880D+04  0.1834737132D-02
      0.4573695180D+03  0.1403732281D-01
      0.1039486850D+03  0.6884262226D-01
      0.2921015530D+02  0.2321844432D+00
      0.9286662960D+01  0.4679413484D+00
      0.3163926960D+01  0.3623119853D+00
 SP   3 1.00       0.000000000000
      0.7868272350D+01 -0.1193324198D+00  0.6899906659D-01
      0.1881288540D+01 -0.1608541517D+00  0.3164239610D+00
      0.5442492580D+00  0.1143456438D+01  0.7443082909D+00
 SP   1 1.00       0.000000000000
      0.1687144782D+00  0.1000000000D+01  0.1000000000D+01
 D   1 1.00       0.000000000000
      0.8000000000D+00  0.1000000000D+01
 ****
     35 0
 S   3 1.00       0.000000000000
      0.1873113696D+02  0.3349460434D-01
      0.2825394365D+01  0.2347269535D+00
      0.6401216923D+00  0.8137573261D+00
 S   1 1.00       0.000000000000
      0.1612777588D+00  0.1000000000D+01
 ****
     36 0
 S   3 1.00       0.000000000000
      0.1873113696D+02  0.3349460434D-01
      0.2825394365D+01  0.2347269535D+00
      0.6401216923D+00  0.8137573261D+00
 S   1 1.00       0.000000000000
      0.1612777588D+00  0.1000000000D+01
 ****
     37 0
 S   6 1.00       0.000000000000
      0.3047524880D+04  0.1834737132D-02
      0.4573695180D+03  0.1403732281D-01
      0.1039486850D+03  0.6884262226D-01
      0.2921015530D+02  0.2321844432D+00
      0.9286662960D+01  0.4679413484D+00
      0.3163926960D+01  0.3623119853D+00
 SP   3 1.00       0.000000000000
      0.7868272350D+01 -0.1193324198D+00  0.6899906659D-01
      0.1881288540D+01 -0.1608541517D+00  0.3164239610D+00
      0.5442492580D+00  0.1143456438D+01  0.7443082909D+00
 SP   1 1.00       0.000000000000
      0.1687144782D+00  0.1000000000D+01  0.1000000000D+01
 D   1 1.00       0.000000000000
      0.8000000000D+00  0.1000000000D+01
 ****
     38 0
 S   3 1.00       0.000000000000
      0.1873113696D+02  0.3349460434D-01
      0.2825394365D+01  0.2347269535D+00
      0.6401216923D+00  0.8137573261D+00
 S   1 1.00       0.000000000000
      0.1612777588D+00  0.1000000000D+01
 ****
     39 0
 S   6 1.00       0.000000000000
      0.3047524880D+04  0.1834737132D-02
      0.4573695180D+03  0.1403732281D-01
      0.1039486850D+03  0.6884262226D-01
      0.2921015530D+02  0.2321844432D+00
      0.9286662960D+01  0.4679413484D+00
      0.3163926960D+01  0.3623119853D+00
 SP   3 1.00       0.000000000000
      0.7868272350D+01 -0.1193324198D+00  0.6899906659D-01
      0.1881288540D+01 -0.1608541517D+00  0.3164239610D+00
      0.5442492580D+00  0.1143456438D+01  0.7443082909D+00
 SP   1 1.00       0.000000000000
      0.1687144782D+00  0.1000000000D+01  0.1000000000D+01
 D   1 1.00       0.000000000000
      0.8000000000D+00  0.1000000000D+01
 ****
     40 0
 S   3 1.00       0.000000000000
      0.1873113696D+02  0.3349460434D-01
      0.2825394365D+01  0.2347269535D+00
      0.6401216923D+00  0.8137573261D+00
 S   1 1.00       0.000000000000
      0.1612777588D+00  0.1000000000D+01
 ****
     41 0
 S   3 1.00       0.000000000000
      0.1873113696D+02  0.3349460434D-01
      0.2825394365D+01  0.2347269535D+00
      0.6401216923D+00  0.8137573261D+00
 S   1 1.00       0.000000000000
      0.1612777588D+00  0.1000000000D+01
 ****
     42 0
 S   3 1.00       0.000000000000
      0.1873113696D+02  0.3349460434D-01
      0.2825394365D+01  0.2347269535D+00
      0.6401216923D+00  0.8137573261D+00
 S   1 1.00       0.000000000000
      0.1612777588D+00  0.1000000000D+01
 ****
     43 0
 S   6 1.00       0.000000000000
      0.3047524880D+04  0.1834737132D-02
      0.4573695180D+03  0.1403732281D-01
      0.1039486850D+03  0.6884262226D-01
      0.2921015530D+02  0.2321844432D+00
      0.9286662960D+01  0.4679413484D+00
      0.3163926960D+01  0.3623119853D+00
 SP   3 1.00       0.000000000000
      0.7868272350D+01 -0.1193324198D+00  0.6899906659D-01
      0.1881288540D+01 -0.1608541517D+00  0.3164239610D+00
      0.5442492580D+00  0.1143456438D+01  0.7443082909D+00
 SP   1 1.00       0.000000000000
      0.1687144782D+00  0.1000000000D+01  0.1000000000D+01
 D   1 1.00       0.000000000000
      0.8000000000D+00  0.1000000000D+01
 ****
     44 0
 S   3 1.00       0.000000000000
      0.1873113696D+02  0.3349460434D-01
      0.2825394365D+01  0.2347269535D+00
      0.6401216923D+00  0.8137573261D+00
 S   1 1.00       0.000000000000
      0.1612777588D+00  0.1000000000D+01
 ****
     45 0
 S   6 1.00       0.000000000000
      0.3047524880D+04  0.1834737132D-02
      0.4573695180D+03  0.1403732281D-01
      0.1039486850D+03  0.6884262226D-01
      0.2921015530D+02  0.2321844432D+00
      0.9286662960D+01  0.4679413484D+00
      0.3163926960D+01  0.3623119853D+00
 SP   3 1.00       0.000000000000
      0.7868272350D+01 -0.1193324198D+00  0.6899906659D-01
      0.1881288540D+01 -0.1608541517D+00  0.3164239610D+00
      0.5442492580D+00  0.1143456438D+01  0.7443082909D+00
 SP   1 1.00       0.000000000000
      0.1687144782D+00  0.1000000000D+01  0.1000000000D+01
 D   1 1.00       0.000000000000
      0.8000000000D+00  0.1000000000D+01
 ****
     46 0
 S   3 1.00       0.000000000000
      0.1873113696D+02  0.3349460434D-01
      0.2825394365D+01  0.2347269535D+00
      0.6401216923D+00  0.8137573261D+00
 S   1 1.00       0.000000000000
      0.1612777588D+00  0.1000000000D+01
 ****
     47 0
 S   3 1.00       0.000000000000
      0.1873113696D+02  0.3349460434D-01
      0.2825394365D+01  0.2347269535D+00
      0.6401216923D+00  0.8137573261D+00
 S   1 1.00       0.000000000000
      0.1612777588D+00  0.1000000000D+01
 ****
     48 0
 S   3 1.00       0.000000000000
      0.1873113696D+02  0.3349460434D-01
      0.2825394365D+01  0.2347269535D+00
      0.6401216923D+00  0.8137573261D+00
 S   1 1.00       0.000000000000
      0.1612777588D+00  0.1000000000D+01
 ****
     49 0
 S   6 1.00       0.000000000000
      0.3047524880D+04  0.1834737132D-02
      0.4573695180D+03  0.1403732281D-01
      0.1039486850D+03  0.6884262226D-01
      0.2921015530D+02  0.2321844432D+00
      0.9286662960D+01  0.4679413484D+00
      0.3163926960D+01  0.3623119853D+00
 SP   3 1.00       0.000000000000
      0.7868272350D+01 -0.1193324198D+00  0.6899906659D-01
      0.1881288540D+01 -0.1608541517D+00  0.3164239610D+00
      0.5442492580D+00  0.1143456438D+01  0.7443082909D+00
 SP   1 1.00       0.000000000000
      0.1687144782D+00  0.1000000000D+01  0.1000000000D+01
 D   1 1.00       0.000000000000
      0.8000000000D+00  0.1000000000D+01
 ****
     50 0
 S   3 1.00       0.000000000000
      0.1873113696D+02  0.3349460434D-01
      0.2825394365D+01  0.2347269535D+00
      0.6401216923D+00  0.8137573261D+00
 S   1 1.00       0.000000000000
      0.1612777588D+00  0.1000000000D+01
 ****
     51 0
 S   3 1.00       0.000000000000
      0.1873113696D+02  0.3349460434D-01
      0.2825394365D+01  0.2347269535D+00
      0.6401216923D+00  0.8137573261D+00
 S   1 1.00       0.000000000000
      0.1612777588D+00  0.1000000000D+01
 ****
     52 0
 S   3 1.00       0.000000000000
      0.1873113696D+02  0.3349460434D-01
      0.2825394365D+01  0.2347269535D+00
      0.6401216923D+00  0.8137573261D+00
 S   1 1.00       0.000000000000
      0.1612777588D+00  0.1000000000D+01
 ****
     53 0
 S   6 1.00       0.000000000000
      0.5484671660D+04  0.1831074430D-02
      0.8252349460D+03  0.1395017220D-01
      0.1880469580D+03  0.6844507810D-01
      0.5296450000D+02  0.2327143360D+00
      0.1689757040D+02  0.4701928980D+00
      0.5799635340D+01  0.3585208530D+00
 SP   3 1.00       0.000000000000
      0.1553961625D+02 -0.1107775495D+00  0.7087426823D-01
      0.3599933586D+01 -0.1480262627D+00  0.3397528391D+00
      0.1013761750D+01  0.1130767015D+01  0.7271585773D+00
 SP   1 1.00       0.000000000000
      0.2700058226D+00  0.1000000000D+01  0.1000000000D+01
 D   1 1.00       0.000000000000
      0.8000000000D+00  0.1000000000D+01
 ****
     54 0
 S   6 1.00       0.000000000000
      0.5484671660D+04  0.1831074430D-02
      0.8252349460D+03  0.1395017220D-01
      0.1880469580D+03  0.6844507810D-01
      0.5296450000D+02  0.2327143360D+00
      0.1689757040D+02  0.4701928980D+00
      0.5799635340D+01  0.3585208530D+00
 SP   3 1.00       0.000000000000
      0.1553961625D+02 -0.1107775495D+00  0.7087426823D-01
      0.3599933586D+01 -0.1480262627D+00  0.3397528391D+00
      0.1013761750D+01  0.1130767015D+01  0.7271585773D+00
 SP   1 1.00       0.000000000000
      0.2700058226D+00  0.1000000000D+01  0.1000000000D+01
 D   1 1.00       0.000000000000
      0.8000000000D+00  0.1000000000D+01
 ****
     55 0
 S   3 1.00       0.000000000000
      0.1873113696D+02  0.3349460434D-01
      0.2825394365D+01  0.2347269535D+00
      0.6401216923D+00  0.8137573261D+00
 S   1 1.00       0.000000000000
      0.1612777588D+00  0.1000000000D+01
 ****
     56 0
 S   6 1.00       0.000000000000
      0.5484671660D+04  0.1831074430D-02
      0.8252349460D+03  0.1395017220D-01
      0.1880469580D+03  0.6844507810D-01
      0.5296450000D+02  0.2327143360D+00
      0.1689757040D+02  0.4701928980D+00
      0.5799635340D+01  0.3585208530D+00
 SP   3 1.00       0.000000000000
      0.1553961625D+02 -0.1107775495D+00  0.7087426823D-01
      0.3599933586D+01 -0.1480262627D+00  0.3397528391D+00
      0.1013761750D+01  0.1130767015D+01  0.7271585773D+00
 SP   1 1.00       0.000000000000
      0.2700058226D+00  0.1000000000D+01  0.1000000000D+01
 D   1 1.00       0.000000000000
      0.8000000000D+00  0.1000000000D+01
 ****
     57 0
 S   3 1.00       0.000000000000
      0.1873113696D+02  0.3349460434D-01
      0.2825394365D+01  0.2347269535D+00
      0.6401216923D+00  0.8137573261D+00
 S   1 1.00       0.000000000000
      0.1612777588D+00  0.1000000000D+01
 ****
     58 0
 S   6 1.00       0.000000000000
      0.3047524880D+04  0.1834737132D-02
      0.4573695180D+03  0.1403732281D-01
      0.1039486850D+03  0.6884262226D-01
      0.2921015530D+02  0.2321844432D+00
      0.9286662960D+01  0.4679413484D+00
      0.3163926960D+01  0.3623119853D+00
 SP   3 1.00       0.000000000000
      0.7868272350D+01 -0.1193324198D+00  0.6899906659D-01
      0.1881288540D+01 -0.1608541517D+00  0.3164239610D+00
      0.5442492580D+00  0.1143456438D+01  0.7443082909D+00
 SP   1 1.00       0.000000000000
      0.1687144782D+00  0.1000000000D+01  0.1000000000D+01
 D   1 1.00       0.000000000000
      0.8000000000D+00  0.1000000000D+01
 ****
     59 0
 S   3 1.00       0.000000000000
      0.1873113696D+02  0.3349460434D-01
      0.2825394365D+01  0.2347269535D+00
      0.6401216923D+00  0.8137573261D+00
 S   1 1.00       0.000000000000
      0.1612777588D+00  0.1000000000D+01
 ****
     60 0
 S   3 1.00       0.000000000000
      0.1873113696D+02  0.3349460434D-01
      0.2825394365D+01  0.2347269535D+00
      0.6401216923D+00  0.8137573261D+00
 S   1 1.00       0.000000000000
      0.1612777588D+00  0.1000000000D+01
 ****
     61 0
 S   6 1.00       0.000000000000
      0.3047524880D+04  0.1834737132D-02
      0.4573695180D+03  0.1403732281D-01
      0.1039486850D+03  0.6884262226D-01
      0.2921015530D+02  0.2321844432D+00
      0.9286662960D+01  0.4679413484D+00
      0.3163926960D+01  0.3623119853D+00
 SP   3 1.00       0.000000000000
      0.7868272350D+01 -0.1193324198D+00  0.6899906659D-01
      0.1881288540D+01 -0.1608541517D+00  0.3164239610D+00
      0.5442492580D+00  0.1143456438D+01  0.7443082909D+00
 SP   1 1.00       0.000000000000
      0.1687144782D+00  0.1000000000D+01  0.1000000000D+01
 D   1 1.00       0.000000000000
      0.8000000000D+00  0.1000000000D+01
 ****
     62 0
 S   3 1.00       0.000000000000
      0.1873113696D+02  0.3349460434D-01
      0.2825394365D+01  0.2347269535D+00
      0.6401216923D+00  0.8137573261D+00
 S   1 1.00       0.000000000000
      0.1612777588D+00  0.1000000000D+01
 ****
     63 0
 S   3 1.00       0.000000000000
      0.1873113696D+02  0.3349460434D-01
      0.2825394365D+01  0.2347269535D+00
      0.6401216923D+00  0.8137573261D+00
 S   1 1.00       0.000000000000
      0.1612777588D+00  0.1000000000D+01
 ****
     64 0
 S   6 1.00       0.000000000000
      0.3047524880D+04  0.1834737132D-02
      0.4573695180D+03  0.1403732281D-01
      0.1039486850D+03  0.6884262226D-01
      0.2921015530D+02  0.2321844432D+00
      0.9286662960D+01  0.4679413484D+00
      0.3163926960D+01  0.3623119853D+00
 SP   3 1.00       0.000000000000
      0.7868272350D+01 -0.1193324198D+00  0.6899906659D-01
      0.1881288540D+01 -0.1608541517D+00  0.3164239610D+00
      0.5442492580D+00  0.1143456438D+01  0.7443082909D+00
 SP   1 1.00       0.000000000000
      0.1687144782D+00  0.1000000000D+01  0.1000000000D+01
 D   1 1.00       0.000000000000
      0.8000000000D+00  0.1000000000D+01
 ****
     65 0
 S   3 1.00       0.000000000000
      0.1873113696D+02  0.3349460434D-01
      0.2825394365D+01  0.2347269535D+00
      0.6401216923D+00  0.8137573261D+00
 S   1 1.00       0.000000000000
      0.1612777588D+00  0.1000000000D+01
 ****
     66 0
 S   3 1.00       0.000000000000
      0.1873113696D+02  0.3349460434D-01
      0.2825394365D+01  0.2347269535D+00
      0.6401216923D+00  0.8137573261D+00
 S   1 1.00       0.000000000000
      0.1612777588D+00  0.1000000000D+01
 ****
     67 0
 S   6 1.00       0.000000000000
      0.3047524880D+04  0.1834737132D-02
      0.4573695180D+03  0.1403732281D-01
      0.1039486850D+03  0.6884262226D-01
      0.2921015530D+02  0.2321844432D+00
      0.9286662960D+01  0.4679413484D+00
      0.3163926960D+01  0.3623119853D+00
 SP   3 1.00       0.000000000000
      0.7868272350D+01 -0.1193324198D+00  0.6899906659D-01
      0.1881288540D+01 -0.1608541517D+00  0.3164239610D+00
      0.5442492580D+00  0.1143456438D+01  0.7443082909D+00
 SP   1 1.00       0.000000000000
      0.1687144782D+00  0.1000000000D+01  0.1000000000D+01
 D   1 1.00       0.000000000000
      0.8000000000D+00  0.1000000000D+01
 ****
     68 0
 S   3 1.00       0.000000000000
      0.1873113696D+02  0.3349460434D-01
      0.2825394365D+01  0.2347269535D+00
      0.6401216923D+00  0.8137573261D+00
 S   1 1.00       0.000000000000
      0.1612777588D+00  0.1000000000D+01
 ****
     69 0
 S   6 1.00       0.000000000000
      0.3047524880D+04  0.1834737132D-02
      0.4573695180D+03  0.1403732281D-01
      0.1039486850D+03  0.6884262226D-01
      0.2921015530D+02  0.2321844432D+00
      0.9286662960D+01  0.4679413484D+00
      0.3163926960D+01  0.3623119853D+00
 SP   3 1.00       0.000000000000
      0.7868272350D+01 -0.1193324198D+00  0.6899906659D-01
      0.1881288540D+01 -0.1608541517D+00  0.3164239610D+00
      0.5442492580D+00  0.1143456438D+01  0.7443082909D+00
 SP   1 1.00       0.000000000000
      0.1687144782D+00  0.1000000000D+01  0.1000000000D+01
 D   1 1.00       0.000000000000
      0.8000000000D+00  0.1000000000D+01
 ****
     70 0
 S   3 1.00       0.000000000000
      0.1873113696D+02  0.3349460434D-01
      0.2825394365D+01  0.2347269535D+00
      0.6401216923D+00  0.8137573261D+00
 S   1 1.00       0.000000000000
      0.1612777588D+00  0.1000000000D+01
 ****
     71 0
 S   3 1.00       0.000000000000
      0.1873113696D+02  0.3349460434D-01
      0.2825394365D+01  0.2347269535D+00
      0.6401216923D+00  0.8137573261D+00
 S   1 1.00       0.000000000000
      0.1612777588D+00  0.1000000000D+01
 ****
     72 0
 S   3 1.00       0.000000000000
      0.1873113696D+02  0.3349460434D-01
      0.2825394365D+01  0.2347269535D+00
      0.6401216923D+00  0.8137573261D+00
 S   1 1.00       0.000000000000
      0.1612777588D+00  0.1000000000D+01
 ****
     73 0
 S   6 1.00       0.000000000000
      0.3047524880D+04  0.1834737132D-02
      0.4573695180D+03  0.1403732281D-01
      0.1039486850D+03  0.6884262226D-01
      0.2921015530D+02  0.2321844432D+00
      0.9286662960D+01  0.4679413484D+00
      0.3163926960D+01  0.3623119853D+00
 SP   3 1.00       0.000000000000
      0.7868272350D+01 -0.1193324198D+00  0.6899906659D-01
      0.1881288540D+01 -0.1608541517D+00  0.3164239610D+00
      0.5442492580D+00  0.1143456438D+01  0.7443082909D+00
 SP   1 1.00       0.000000000000
      0.1687144782D+00  0.1000000000D+01  0.1000000000D+01
 D   1 1.00       0.000000000000
      0.8000000000D+00  0.1000000000D+01
 ****
     74 0
 S   3 1.00       0.000000000000
      0.1873113696D+02  0.3349460434D-01
      0.2825394365D+01  0.2347269535D+00
      0.6401216923D+00  0.8137573261D+00
 S   1 1.00       0.000000000000
      0.1612777588D+00  0.1000000000D+01
 ****
     75 0
 S   3 1.00       0.000000000000
      0.1873113696D+02  0.3349460434D-01
      0.2825394365D+01  0.2347269535D+00
      0.6401216923D+00  0.8137573261D+00
 S   1 1.00       0.000000000000
      0.1612777588D+00  0.1000000000D+01
 ****
     76 0
 S   3 1.00       0.000000000000
      0.1873113696D+02  0.3349460434D-01
      0.2825394365D+01  0.2347269535D+00
      0.6401216923D+00  0.8137573261D+00
 S   1 1.00       0.000000000000
      0.1612777588D+00  0.1000000000D+01
 ****

 AO basis set (Overlap normalization):
 Atom C1       Shell     1 S   6     bf    1 -     1         -1.896360451112          3.743584451187          3.193517374837
      0.3047524880D+04  0.1834737132D-02
      0.4573695180D+03  0.1403732281D-01
      0.1039486850D+03  0.6884262226D-01
      0.2921015530D+02  0.2321844432D+00
      0.9286662960D+01  0.4679413484D+00
      0.3163926960D+01  0.3623119853D+00
 Atom C1       Shell     2 SP   3    bf    2 -     5         -1.896360451112          3.743584451187          3.193517374837
      0.7868272350D+01 -0.1193324198D+00  0.6899906659D-01
      0.1881288540D+01 -0.1608541517D+00  0.3164239610D+00
      0.5442492580D+00  0.1143456438D+01  0.7443082909D+00
 Atom C1       Shell     3 SP   1    bf    6 -     9         -1.896360451112          3.743584451187          3.193517374837
      0.1687144782D+00  0.1000000000D+01  0.1000000000D+01
 Atom C1       Shell     4 D   1     bf   10 -    15         -1.896360451112          3.743584451187          3.193517374837
      0.8000000000D+00  0.1000000000D+01
 Atom H2       Shell     5 S   3     bf   16 -    16         -1.867030370852          1.892790304913          4.126360290191
      0.1873113696D+02  0.3349460434D-01
      0.2825394365D+01  0.2347269535D+00
      0.6401216923D+00  0.8137573261D+00
 Atom H2       Shell     6 S   1     bf   17 -    17         -1.867030370852          1.892790304913          4.126360290191
      0.1612777588D+00  0.1000000000D+01
 Atom C3       Shell     7 S   6     bf   18 -    18          0.615237192221          5.101557448389          3.708383086318
      0.3047524880D+04  0.1834737132D-02
      0.4573695180D+03  0.1403732281D-01
      0.1039486850D+03  0.6884262226D-01
      0.2921015530D+02  0.2321844432D+00
      0.9286662960D+01  0.4679413484D+00
      0.3163926960D+01  0.3623119853D+00
 Atom C3       Shell     8 SP   3    bf   19 -    22          0.615237192221          5.101557448389          3.708383086318
      0.7868272350D+01 -0.1193324198D+00  0.6899906659D-01
      0.1881288540D+01 -0.1608541517D+00  0.3164239610D+00
      0.5442492580D+00  0.1143456438D+01  0.7443082909D+00
 Atom C3       Shell     9 SP   1    bf   23 -    26          0.615237192221          5.101557448389          3.708383086318
      0.1687144782D+00  0.1000000000D+01  0.1000000000D+01
 Atom C3       Shell    10 D   1     bf   27 -    32          0.615237192221          5.101557448389          3.708383086318
      0.8000000000D+00  0.1000000000D+01
 Atom H4       Shell    11 S   3     bf   33 -    33          0.910416439294          5.279562450250          5.747927557395
      0.1873113696D+02  0.3349460434D-01
      0.2825394365D+01  0.2347269535D+00
      0.6401216923D+00  0.8137573261D+00
 Atom H4       Shell    12 S   1     bf   34 -    34          0.910416439294          5.279562450250          5.747927557395
      0.1612777588D+00  0.1000000000D+01
 Atom H5       Shell    13 S   3     bf   35 -    35          0.446939259970          7.036950287262          2.957258711443
      0.1873113696D+02  0.3349460434D-01
      0.2825394365D+01  0.2347269535D+00
      0.6401216923D+00  0.8137573261D+00
 Atom H5       Shell    14 S   1     bf   36 -    36          0.446939259970          7.036950287262          2.957258711443
      0.1612777588D+00  0.1000000000D+01
 Atom C6       Shell    15 S   6     bf   37 -    37          2.857857642867          3.798091447202          2.488884004489
      0.3047524880D+04  0.1834737132D-02
      0.4573695180D+03  0.1403732281D-01
      0.1039486850D+03  0.6884262226D-01
      0.2921015530D+02  0.2321844432D+00
      0.9286662960D+01  0.4679413484D+00
      0.3163926960D+01  0.3623119853D+00
 Atom C6       Shell    16 SP   3    bf   38 -    41          2.857857642867          3.798091447202          2.488884004489
      0.7868272350D+01 -0.1193324198D+00  0.6899906659D-01
      0.1881288540D+01 -0.1608541517D+00  0.3164239610D+00
      0.5442492580D+00  0.1143456438D+01  0.7443082909D+00
 Atom C6       Shell    17 SP   1    bf   42 -    45          2.857857642867          3.798091447202          2.488884004489
      0.1687144782D+00  0.1000000000D+01  0.1000000000D+01
 Atom C6       Shell    18 D   1     bf   46 -    51          2.857857642867          3.798091447202          2.488884004489
      0.8000000000D+00  0.1000000000D+01
 Atom C7       Shell    19 S   6     bf   52 -    52          2.643302824260          3.124084792701         -0.319893482282
      0.3047524880D+04  0.1834737132D-02
      0.4573695180D+03  0.1403732281D-01
      0.1039486850D+03  0.6884262226D-01
      0.2921015530D+02  0.2321844432D+00
      0.9286662960D+01  0.4679413484D+00
      0.3163926960D+01  0.3623119853D+00
 Atom C7       Shell    20 SP   3    bf   53 -    56          2.643302824260          3.124084792701         -0.319893482282
      0.7868272350D+01 -0.1193324198D+00  0.6899906659D-01
      0.1881288540D+01 -0.1608541517D+00  0.3164239610D+00
      0.5442492580D+00  0.1143456438D+01  0.7443082909D+00
 Atom C7       Shell    21 SP   1    bf   57 -    60          2.643302824260          3.124084792701         -0.319893482282
      0.1687144782D+00  0.1000000000D+01  0.1000000000D+01
 Atom C7       Shell    22 D   1     bf   61 -    66          2.643302824260          3.124084792701         -0.319893482282
      0.8000000000D+00  0.1000000000D+01
 Atom C8       Shell    23 S   6     bf   67 -    67         -0.006152324679          1.918654835316         -0.794441300902
      0.3047524880D+04  0.1834737132D-02
      0.4573695180D+03  0.1403732281D-01
      0.1039486850D+03  0.6884262226D-01
      0.2921015530D+02  0.2321844432D+00
      0.9286662960D+01  0.4679413484D+00
      0.3163926960D+01  0.3623119853D+00
 Atom C8       Shell    24 SP   3    bf   68 -    71         -0.006152324679          1.918654835316         -0.794441300902
      0.7868272350D+01 -0.1193324198D+00  0.6899906659D-01
      0.1881288540D+01 -0.1608541517D+00  0.3164239610D+00
      0.5442492580D+00  0.1143456438D+01  0.7443082909D+00
 Atom C8       Shell    25 SP   1    bf   72 -    75         -0.006152324679          1.918654835316         -0.794441300902
      0.1687144782D+00  0.1000000000D+01  0.1000000000D+01
 Atom C8       Shell    26 D   1     bf   76 -    81         -0.006152324679          1.918654835316         -0.794441300902
      0.8000000000D+00  0.1000000000D+01
 Atom H9       Shell    27 S   3     bf   82 -    82          0.000000000000          0.000000000000          0.000000000000
      0.1873113696D+02  0.3349460434D-01
      0.2825394365D+01  0.2347269535D+00
      0.6401216923D+00  0.8137573261D+00
 Atom H9       Shell    28 S   1     bf   83 -    83          0.000000000000          0.000000000000          0.000000000000
      0.1612777588D+00  0.1000000000D+01
 Atom H10      Shell    29 S   3     bf   84 -    84         -0.309557285047          1.707912576976         -2.830216354160
      0.1873113696D+02  0.3349460434D-01
      0.2825394365D+01  0.2347269535D+00
      0.6401216923D+00  0.8137573261D+00
 Atom H10      Shell    30 S   1     bf   85 -    85         -0.309557285047          1.707912576976         -2.830216354160
      0.1612777588D+00  0.1000000000D+01
 Atom C11      Shell    31 S   6     bf   86 -    86         -2.244944605920          3.368487400940          0.352062668187
      0.3047524880D+04  0.1834737132D-02
      0.4573695180D+03  0.1403732281D-01
      0.1039486850D+03  0.6884262226D-01
      0.2921015530D+02  0.2321844432D+00
      0.9286662960D+01  0.4679413484D+00
      0.3163926960D+01  0.3623119853D+00
 Atom C11      Shell    32 SP   3    bf   87 -    90         -2.244944605920          3.368487400940          0.352062668187
      0.7868272350D+01 -0.1193324198D+00  0.6899906659D-01
      0.1881288540D+01 -0.1608541517D+00  0.3164239610D+00
      0.5442492580D+00  0.1143456438D+01  0.7443082909D+00
 Atom C11      Shell    33 SP   1    bf   91 -    94         -2.244944605920          3.368487400940          0.352062668187
      0.1687144782D+00  0.1000000000D+01  0.1000000000D+01
 Atom C11      Shell    34 D   1     bf   95 -   100         -2.244944605920          3.368487400940          0.352062668187
      0.8000000000D+00  0.1000000000D+01
 Atom H12      Shell    35 S   3     bf  101 -   101         -2.449869871483          5.227633739879         -0.555806911608
      0.1873113696D+02  0.3349460434D-01
      0.2825394365D+01  0.2347269535D+00
      0.6401216923D+00  0.8137573261D+00
 Atom H12      Shell    36 S   1     bf  102 -   102         -2.449869871483          5.227633739879         -0.555806911608
      0.1612777588D+00  0.1000000000D+01
 Atom H13      Shell    37 S   3     bf  103 -   103         -4.007375403885          2.339448600401          0.000000000000
      0.1873113696D+02  0.3349460434D-01
      0.2825394365D+01  0.2347269535D+00
      0.6401216923D+00  0.8137573261D+00
 Atom H13      Shell    38 S   1     bf  104 -   104         -4.007375403885          2.339448600401          0.000000000000
      0.1612777588D+00  0.1000000000D+01
 Atom C14      Shell    39 S   6     bf  105 -   105          4.933680244764          3.296509452189          3.849102638844
      0.3047524880D+04  0.1834737132D-02
      0.4573695180D+03  0.1403732281D-01
      0.1039486850D+03  0.6884262226D-01
      0.2921015530D+02  0.2321844432D+00
      0.9286662960D+01  0.4679413484D+00
      0.3163926960D+01  0.3623119853D+00
 Atom C14      Shell    40 SP   3    bf  106 -   109          4.933680244764          3.296509452189          3.849102638844
      0.7868272350D+01 -0.1193324198D+00  0.6899906659D-01
      0.1881288540D+01 -0.1608541517D+00  0.3164239610D+00
      0.5442492580D+00  0.1143456438D+01  0.7443082909D+00
 Atom C14      Shell    41 SP   1    bf  110 -   113          4.933680244764          3.296509452189          3.849102638844
      0.1687144782D+00  0.1000000000D+01  0.1000000000D+01
 Atom C14      Shell    42 D   1     bf  114 -   119          4.933680244764          3.296509452189          3.849102638844
      0.8000000000D+00  0.1000000000D+01
 Atom H15      Shell    43 S   3     bf  120 -   120          4.972243772575          3.767974598363          5.854917841710
      0.1873113696D+02  0.3349460434D-01
      0.2825394365D+01  0.2347269535D+00
      0.6401216923D+00  0.8137573261D+00
 Atom H15      Shell    44 S   1     bf  121 -   121          4.972243772575          3.767974598363          5.854917841710
      0.1612777588D+00  0.1000000000D+01
 Atom C16      Shell    45 S   6     bf  122 -   122          7.317165908028          2.129766988648          2.850688626631
      0.3047524880D+04  0.1834737132D-02
      0.4573695180D+03  0.1403732281D-01
      0.1039486850D+03  0.6884262226D-01
      0.2921015530D+02  0.2321844432D+00
      0.9286662960D+01  0.4679413484D+00
      0.3163926960D+01  0.3623119853D+00
 Atom C16      Shell    46 SP   3    bf  123 -   126          7.317165908028          2.129766988648          2.850688626631
      0.7868272350D+01 -0.1193324198D+00  0.6899906659D-01
      0.1881288540D+01 -0.1608541517D+00  0.3164239610D+00
      0.5442492580D+00  0.1143456438D+01  0.7443082909D+00
 Atom C16      Shell    47 SP   1    bf  127 -   130          7.317165908028          2.129766988648          2.850688626631
      0.1687144782D+00  0.1000000000D+01  0.1000000000D+01
 Atom C16      Shell    48 D   1     bf  131 -   136          7.317165908028          2.129766988648          2.850688626631
      0.8000000000D+00  0.1000000000D+01
 Atom H17      Shell    49 S   3     bf  137 -   137          7.610022133663          0.276748842586          3.755655076861
      0.1873113696D+02  0.3349460434D-01
      0.2825394365D+01  0.2347269535D+00
      0.6401216923D+00  0.8137573261D+00
 Atom H17      Shell    50 S   1     bf  138 -   138          7.610022133663          0.276748842586          3.755655076861
      0.1612777588D+00  0.1000000000D+01
 Atom C18      Shell    51 S   6     bf  139 -   139          7.395612899557          1.834877228721         -0.036332233679
      0.3047524880D+04  0.1834737132D-02
      0.4573695180D+03  0.1403732281D-01
      0.1039486850D+03  0.6884262226D-01
      0.2921015530D+02  0.2321844432D+00
      0.9286662960D+01  0.4679413484D+00
      0.3163926960D+01  0.3623119853D+00
 Atom C18      Shell    52 SP   3    bf  140 -   143          7.395612899557          1.834877228721         -0.036332233679
      0.7868272350D+01 -0.1193324198D+00  0.6899906659D-01
      0.1881288540D+01 -0.1608541517D+00  0.3164239610D+00
      0.5442492580D+00  0.1143456438D+01  0.7443082909D+00
 Atom C18      Shell    53 SP   1    bf  144 -   147          7.395612899557          1.834877228721         -0.036332233679
      0.1687144782D+00  0.1000000000D+01  0.1000000000D+01
 Atom C18      Shell    54 D   1     bf  148 -   153          7.395612899557          1.834877228721         -0.036332233679
      0.8000000000D+00  0.1000000000D+01
 Atom H19      Shell    55 S   3     bf  154 -   154          7.963684568405          3.670393203772         -0.806532449002
      0.1873113696D+02  0.3349460434D-01
      0.2825394365D+01  0.2347269535D+00
      0.6401216923D+00  0.8137573261D+00
 Atom H19      Shell    56 S   1     bf  155 -   155          7.963684568405          3.670393203772         -0.806532449002
      0.1612777588D+00  0.1000000000D+01
 Atom C20      Shell    57 S   6     bf  156 -   156          4.723681896014          1.136785296560         -1.035154747990
      0.3047524880D+04  0.1834737132D-02
      0.4573695180D+03  0.1403732281D-01
      0.1039486850D+03  0.6884262226D-01
      0.2921015530D+02  0.2321844432D+00
      0.9286662960D+01  0.4679413484D+00
      0.3163926960D+01  0.3623119853D+00
 Atom C20      Shell    58 SP   3    bf  157 -   160          4.723681896014          1.136785296560         -1.035154747990
      0.7868272350D+01 -0.1193324198D+00  0.6899906659D-01
      0.1881288540D+01 -0.1608541517D+00  0.3164239610D+00
      0.5442492580D+00  0.1143456438D+01  0.7443082909D+00
 Atom C20      Shell    59 SP   1    bf  161 -   164          4.723681896014          1.136785296560         -1.035154747990
      0.1687144782D+00  0.1000000000D+01  0.1000000000D+01
 Atom C20      Shell    60 D   1     bf  165 -   170          4.723681896014          1.136785296560         -1.035154747990
      0.8000000000D+00  0.1000000000D+01
 Atom H21      Shell    61 S   3     bf  171 -   171          4.181509963167         -0.614532229887         -0.044346316544
      0.1873113696D+02  0.3349460434D-01
      0.2825394365D+01  0.2347269535D+00
      0.6401216923D+00  0.8137573261D+00
 Atom H21      Shell    62 S   1     bf  172 -   172          4.181509963167         -0.614532229887         -0.044346316544
      0.1612777588D+00  0.1000000000D+01
 Atom C22      Shell    63 S   6     bf  173 -   173          4.785439771202          0.500535521372         -3.885075578893
      0.3047524880D+04  0.1834737132D-02
      0.4573695180D+03  0.1403732281D-01
      0.1039486850D+03  0.6884262226D-01
      0.2921015530D+02  0.2321844432D+00
      0.9286662960D+01  0.4679413484D+00
      0.3163926960D+01  0.3623119853D+00
 Atom C22      Shell    64 SP   3    bf  174 -   177          4.785439771202          0.500535521372         -3.885075578893
      0.7868272350D+01 -0.1193324198D+00  0.6899906659D-01
      0.1881288540D+01 -0.1608541517D+00  0.3164239610D+00
      0.5442492580D+00  0.1143456438D+01  0.7443082909D+00
 Atom C22      Shell    65 SP   1    bf  178 -   181          4.785439771202          0.500535521372         -3.885075578893
      0.1687144782D+00  0.1000000000D+01  0.1000000000D+01
 Atom C22      Shell    66 D   1     bf  182 -   187          4.785439771202          0.500535521372         -3.885075578893
      0.8000000000D+00  0.1000000000D+01
 Atom H23      Shell    67 S   3     bf  188 -   188          5.107583577157          2.227452639430         -4.980113933897
      0.1873113696D+02  0.3349460434D-01
      0.2825394365D+01  0.2347269535D+00
      0.6401216923D+00  0.8137573261D+00
 Atom H23      Shell    68 S   1     bf  189 -   189          5.107583577157          2.227452639430         -4.980113933897
      0.1612777588D+00  0.1000000000D+01
 Atom H24      Shell    69 S   3     bf  190 -   190          2.935536233957         -0.215141332907         -4.477943704934
      0.1873113696D+02  0.3349460434D-01
      0.2825394365D+01  0.2347269535D+00
      0.6401216923D+00  0.8137573261D+00
 Atom H24      Shell    70 S   1     bf  191 -   191          2.935536233957         -0.215141332907         -4.477943704934
      0.1612777588D+00  0.1000000000D+01
 Atom C25      Shell    71 S   6     bf  192 -   192          6.805701892559         -1.463436288315         -4.621349616542
      0.3047524880D+04  0.1834737132D-02
      0.4573695180D+03  0.1403732281D-01
      0.1039486850D+03  0.6884262226D-01
      0.2921015530D+02  0.2321844432D+00
      0.9286662960D+01  0.4679413484D+00
      0.3163926960D+01  0.3623119853D+00
 Atom C25      Shell    72 SP   3    bf  193 -   196          6.805701892559         -1.463436288315         -4.621349616542
      0.7868272350D+01 -0.1193324198D+00  0.6899906659D-01
      0.1881288540D+01 -0.1608541517D+00  0.3164239610D+00
      0.5442492580D+00  0.1143456438D+01  0.7443082909D+00
 Atom C25      Shell    73 SP   1    bf  197 -   200          6.805701892559         -1.463436288315         -4.621349616542
      0.1687144782D+00  0.1000000000D+01  0.1000000000D+01
 Atom C25      Shell    74 D   1     bf  201 -   206          6.805701892559         -1.463436288315         -4.621349616542
      0.8000000000D+00  0.1000000000D+01
 Atom H26      Shell    75 S   3     bf  207 -   207          6.338164882302         -3.291989529635         -3.751561174166
      0.1873113696D+02  0.3349460434D-01
      0.2825394365D+01  0.2347269535D+00
      0.6401216923D+00  0.8137573261D+00
 Atom H26      Shell    76 S   1     bf  208 -   208          6.338164882302         -3.291989529635         -3.751561174166
      0.1612777588D+00  0.1000000000D+01
 Atom H27      Shell    77 S   3     bf  209 -   209          6.723876826594         -1.749975575228         -6.667806743608
      0.1873113696D+02  0.3349460434D-01
      0.2825394365D+01  0.2347269535D+00
      0.6401216923D+00  0.8137573261D+00
 Atom H27      Shell    78 S   1     bf  210 -   210          6.723876826594         -1.749975575228         -6.667806743608
      0.1612777588D+00  0.1000000000D+01
 Atom C28      Shell    79 S   6     bf  211 -   211          9.468084336720         -0.668069834190         -3.745340271326
      0.3047524880D+04  0.1834737132D-02
      0.4573695180D+03  0.1403732281D-01
      0.1039486850D+03  0.6884262226D-01
      0.2921015530D+02  0.2321844432D+00
      0.9286662960D+01  0.4679413484D+00
      0.3163926960D+01  0.3623119853D+00
 Atom C28      Shell    80 SP   3    bf  212 -   215          9.468084336720         -0.668069834190         -3.745340271326
      0.7868272350D+01 -0.1193324198D+00  0.6899906659D-01
      0.1881288540D+01 -0.1608541517D+00  0.3164239610D+00
      0.5442492580D+00  0.1143456438D+01  0.7443082909D+00
 Atom C28      Shell    81 SP   1    bf  216 -   219          9.468084336720         -0.668069834190         -3.745340271326
      0.1687144782D+00  0.1000000000D+01  0.1000000000D+01
 Atom C28      Shell    82 D   1     bf  220 -   225          9.468084336720         -0.668069834190         -3.745340271326
      0.8000000000D+00  0.1000000000D+01
 Atom C29      Shell    83 S   6     bf  226 -   226          9.300212783376         -0.209032830977         -0.844716519804
      0.3047524880D+04  0.1834737132D-02
      0.4573695180D+03  0.1403732281D-01
      0.1039486850D+03  0.6884262226D-01
      0.2921015530D+02  0.2321844432D+00
      0.9286662960D+01  0.4679413484D+00
      0.3163926960D+01  0.3623119853D+00
 Atom C29      Shell    84 SP   3    bf  227 -   230          9.300212783376         -0.209032830977         -0.844716519804
      0.7868272350D+01 -0.1193324198D+00  0.6899906659D-01
      0.1881288540D+01 -0.1608541517D+00  0.3164239610D+00
      0.5442492580D+00  0.1143456438D+01  0.7443082909D+00
 Atom C29      Shell    85 SP   1    bf  231 -   234          9.300212783376         -0.209032830977         -0.844716519804
      0.1687144782D+00  0.1000000000D+01  0.1000000000D+01
 Atom C29      Shell    86 D   1     bf  235 -   240          9.300212783376         -0.209032830977         -0.844716519804
      0.8000000000D+00  0.1000000000D+01
 Atom H30      Shell    87 S   3     bf  241 -   241          8.574433831136         -1.999910111057         -0.055746240619
      0.1873113696D+02  0.3349460434D-01
      0.2825394365D+01  0.2347269535D+00
      0.6401216923D+00  0.8137573261D+00
 Atom H30      Shell    88 S   1     bf  242 -   242          8.574433831136         -1.999910111057         -0.055746240619
      0.1612777588D+00  0.1000000000D+01
 Atom C31      Shell    89 S   6     bf  243 -   243         12.071100864340          0.000000000000          0.000000000000
      0.3047524880D+04  0.1834737132D-02
      0.4573695180D+03  0.1403732281D-01
      0.1039486850D+03  0.6884262226D-01
      0.2921015530D+02  0.2321844432D+00
      0.9286662960D+01  0.4679413484D+00
      0.3163926960D+01  0.3623119853D+00
 Atom C31      Shell    90 SP   3    bf  244 -   247         12.071100864340          0.000000000000          0.000000000000
      0.7868272350D+01 -0.1193324198D+00  0.6899906659D-01
      0.1881288540D+01 -0.1608541517D+00  0.3164239610D+00
      0.5442492580D+00  0.1143456438D+01  0.7443082909D+00
 Atom C31      Shell    91 SP   1    bf  248 -   251         12.071100864340          0.000000000000          0.000000000000
      0.1687144782D+00  0.1000000000D+01  0.1000000000D+01
 Atom C31      Shell    92 D   1     bf  252 -   257         12.071100864340          0.000000000000          0.000000000000
      0.8000000000D+00  0.1000000000D+01
 Atom H32      Shell    93 S   3     bf  258 -   258         12.321434491431         -0.416285521039          2.007477160308
      0.1873113696D+02  0.3349460434D-01
      0.2825394365D+01  0.2347269535D+00
      0.6401216923D+00  0.8137573261D+00
 Atom H32      Shell    94 S   1     bf  259 -   259         12.321434491431         -0.416285521039          2.007477160308
      0.1612777588D+00  0.1000000000D+01
 Atom H33      Shell    95 S   3     bf  260 -   260         12.776938897303          1.924248481361         -0.281048101819
      0.1873113696D+02  0.3349460434D-01
      0.2825394365D+01  0.2347269535D+00
      0.6401216923D+00  0.8137573261D+00
 Atom H33      Shell    96 S   1     bf  261 -   261         12.776938897303          1.924248481361         -0.281048101819
      0.1612777588D+00  0.1000000000D+01
 Atom C34      Shell    97 S   6     bf  262 -   262         13.464314192565         -1.919319451997         -1.726268677432
      0.3047524880D+04  0.1834737132D-02
      0.4573695180D+03  0.1403732281D-01
      0.1039486850D+03  0.6884262226D-01
      0.2921015530D+02  0.2321844432D+00
      0.9286662960D+01  0.4679413484D+00
      0.3163926960D+01  0.3623119853D+00
 Atom C34      Shell    98 SP   3    bf  263 -   266         13.464314192565         -1.919319451997         -1.726268677432
      0.7868272350D+01 -0.1193324198D+00  0.6899906659D-01
      0.1881288540D+01 -0.1608541517D+00  0.3164239610D+00
      0.5442492580D+00  0.1143456438D+01  0.7443082909D+00
 Atom C34      Shell    99 SP   1    bf  267 -   270         13.464314192565         -1.919319451997         -1.726268677432
      0.1687144782D+00  0.1000000000D+01  0.1000000000D+01
 Atom C34      Shell   100 D   1     bf  271 -   276         13.464314192565         -1.919319451997         -1.726268677432
      0.8000000000D+00  0.1000000000D+01
 Atom H35      Shell   101 S   3     bf  277 -   277         15.140603298748         -1.055853541933         -2.586195035963
      0.1873113696D+02  0.3349460434D-01
      0.2825394365D+01  0.2347269535D+00
      0.6401216923D+00  0.8137573261D+00
 Atom H35      Shell   102 S   1     bf  278 -   278         15.140603298748         -1.055853541933         -2.586195035963
      0.1612777588D+00  0.1000000000D+01
 Atom H36      Shell   103 S   3     bf  279 -   279         14.140536002936         -3.542817584671         -0.638548286878
      0.1873113696D+02  0.3349460434D-01
      0.2825394365D+01  0.2347269535D+00
      0.6401216923D+00  0.8137573261D+00
 Atom H36      Shell   104 S   1     bf  280 -   280         14.140536002936         -3.542817584671         -0.638548286878
      0.1612777588D+00  0.1000000000D+01
 Atom C37      Shell   105 S   6     bf  281 -   281         11.553521128188         -2.774264057803         -3.820223220472
      0.3047524880D+04  0.1834737132D-02
      0.4573695180D+03  0.1403732281D-01
      0.1039486850D+03  0.6884262226D-01
      0.2921015530D+02  0.2321844432D+00
      0.9286662960D+01  0.4679413484D+00
      0.3163926960D+01  0.3623119853D+00
 Atom C37      Shell   106 SP   3    bf  282 -   285         11.553521128188         -2.774264057803         -3.820223220472
      0.7868272350D+01 -0.1193324198D+00  0.6899906659D-01
      0.1881288540D+01 -0.1608541517D+00  0.3164239610D+00
      0.5442492580D+00  0.1143456438D+01  0.7443082909D+00
[...]
 1662 Fit       0.001019
 1663 Fit      -0.000113
 1664 Fit       0.000793
 1665 Fit      -0.000838
 1666 Fit      -0.002435
 1667 Fit      -0.001609
 1668 Fit       0.000104
 1669 Fit       0.001394
 1670 Fit       0.000127
 1671 Fit      -0.000892
 1672 Fit      -0.002515
 1673 Fit      -0.004039
 1674 Fit       0.000735
 1675 Fit      -0.002015
 1676 Fit      -0.002691
 1677 Fit      -0.003905
 1678 Fit      -0.002023
 1679 Fit      -0.002669
 1680 Fit      -0.002868
 1681 Fit      -0.000751
 1682 Fit      -0.002992
 1683 Fit      -0.000451
 1684 Fit       0.001737
 1685 Fit      -0.001935
 1686 Fit       0.000956
 1687 Fit      -0.007437
 1688 Fit      -0.005799
 1689 Fit      -0.000965
 1690 Fit      -0.005636
 1691 Fit       0.000016
 1692 Fit       0.001932
 1693 Fit       0.000786
 1694 Fit      -0.011890
 1695 Fit      -0.002419
 1696 Fit       0.002253
 1697 Fit       0.004343
 1698 Fit       0.003361
 1699 Fit       0.001025
 1700 Fit       0.005084
 1701 Fit       0.011204
 1702 Fit       0.007894
 1703 Fit       0.006586
 1704 Fit       0.004293
 1705 Fit       0.002781
 1706 Fit       0.008123
 1707 Fit       0.005928
 1708 Fit       0.000455
 1709 Fit      -0.005110
 1710 Fit      -0.000950
 1711 Fit       0.004751
 1712 Fit       0.007562
 1713 Fit       0.003541
 1714 Fit      -0.004057
 1715 Fit       0.000546
 1716 Fit       0.008435
 1717 Fit       0.008751
 1718 Fit       0.009414
 1719 Fit       0.010563
 1720 Fit       0.013364
 1721 Fit       0.008663
 1722 Fit       0.011974
 1723 Fit       0.016016
 1724 Fit       0.024439
 1725 Fit       0.023417
 1726 Fit       0.005354
 1727 Fit       0.006171
 1728 Fit       0.005713
 1729 Fit       0.004953
 1730 Fit       0.005997
 1731 Fit       0.006414
 1732 Fit       0.006780
 1733 Fit       0.005544
 1734 Fit       0.006246
 1735 Fit       0.007103
 1736 Fit       0.005377
 1737 Fit       0.005888
 1738 Fit       0.006594
 1739 Fit       0.005821
 1740 Fit       0.006600
 1741 Fit       0.008665
 1742 Fit       0.007756
 1743 Fit       0.007325
 1744 Fit       0.007186
 1745 Fit       0.009079
 1746 Fit       0.008355
 1747 Fit       0.008408
 1748 Fit       0.008741
 1749 Fit       0.006859
 1750 Fit       0.005791
 1751 Fit       0.007264
 1752 Fit       0.016938
 1753 Fit       0.014816
 1754 Fit       0.009824
 1755 Fit       0.012181
 1756 Fit       0.010536
 1757 Fit       0.007432
 1758 Fit       0.009159
 1759 Fit       0.007443
 1760 Fit       0.008941
 1761 Fit      -0.004866
 1762 Fit      -0.005421
 1763 Fit      -0.002153
 1764 Fit       0.000831
 1765 Fit       0.003509
 1766 Fit       0.001423
 1767 Fit       0.001061
 1768 Fit       0.002246
 1769 Fit       0.003637
 1770 Fit       0.004914
 1771 Fit       0.003968
 1772 Fit       0.004229
 1773 Fit       0.005066
 1774 Fit       0.005881
 1775 Fit       0.005553
 1776 Fit       0.006385
 1777 Fit       0.001204
 1778 Fit       0.002163
 1779 Fit       0.003020
 1780 Fit       0.000064
 1781 Fit       0.002780
 1782 Fit       0.002897
 1783 Fit       0.006638
 1784 Fit       0.004671
 1785 Fit       0.008967
 1786 Fit       0.009016
 1787 Fit       0.006707
 1788 Fit       0.004675
 1789 Fit       0.004004
 1790 Fit       0.009547
 1791 Fit       0.014858
 1792 Fit       0.012023
 1793 Fit       0.002329
 1794 Fit       0.002674
 1795 Fit       0.002679
 1796 Fit      -0.001947
 1797 Fit       0.000684
 1798 Fit       0.003395
 1799 Fit       0.000861
 1800 Fit       0.004505
 1801 Fit       0.004793
 1802 Fit       0.002717
 1803 Fit      -0.002407
 1804 Fit       0.006082
 1805 Fit       0.006367
 1806 Fit       0.004916
 1807 Fit       0.004246
 1808 Fit       0.006736
 1809 Fit       0.006508
 1810 Fit       0.006522
 1811 Fit       0.006669
 1812 Fit       0.004236
 1813 Fit       0.003874
 1814 Fit       0.005374
 1815 Fit       0.004768
 1816 Fit       0.004187
 1817 Fit       0.005866
 1818 Fit       0.004880
 1819 Fit       0.007308
 1820 Fit       0.005591
 1821 Fit       0.003784
 1822 Fit       0.008630
 1823 Fit       0.008596
 1824 Fit       0.007063
 1825 Fit       0.005293
 1826 Fit       0.005620
 1827 Fit       0.004372
 1828 Fit       0.002300
 1829 Fit       0.000742
 1830 Fit       0.005492
 1831 Fit       0.004847
 1832 Fit       0.004915
 1833 Fit       0.004267
 1834 Fit       0.003923
 1835 Fit       0.003746
 1836 Fit       0.003520
 1837 Fit       0.002870
 1838 Fit       0.002708
 1839 Fit       0.004097
 1840 Fit       0.004049
 1841 Fit       0.003220
 1842 Fit       0.001658
 1843 Fit       0.004566
 1844 Fit       0.003741
 1845 Fit       0.006525
 1846 Fit       0.004377
 1847 Fit       0.002214
 1848 Fit       0.005934
 1849 Fit       0.004369
 1850 Fit       0.002708
 1851 Fit      -0.009752
 1852 Fit      -0.013916
 1853 Fit      -0.009969
 1854 Fit      -0.010855
 1855 Fit      -0.010128
 1856 Fit      -0.002529
 1857 Fit      -0.004908
 1858 Fit      -0.009404
 1859 Fit      -0.016526
 1860 Fit      -0.000447
 1861 Fit      -0.002551
 1862 Fit      -0.005310
 1863 Fit      -0.018943
 1864 Fit      -0.011355
 1865 Fit      -0.016096
 1866 Fit      -0.006586
 1867 Fit      -0.009472
 1868 Fit      -0.015075
 1869 Fit      -0.006570
 1870 Fit      -0.005631
 1871 Fit      -0.007760
 1872 Fit      -0.002327
 1873 Fit      -0.006935
 1874 Fit      -0.002874
 1875 Fit      -0.003312
 1876 Fit      -0.004465
 1877 Fit      -0.000560
 1878 Fit      -0.001288
 1879 Fit       0.001084
 1880 Fit      -0.003678
 1881 Fit      -0.000461
 1882 Fit      -0.001136
 1883 Fit      -0.003694
 1884 Fit       0.000797
 1885 Fit       0.000631
 1886 Fit       0.000269
 1887 Fit      -0.001051
 1888 Fit      -0.003388
 1889 Fit       0.000622
 1890 Fit       0.000689
 1891 Fit       0.000891
 1892 Fit      -0.000571
 1893 Fit       0.003553
 1894 Fit       0.002013
 1895 Fit       0.000622
 1896 Fit       0.003420
 1897 Fit       0.002282
 1898 Fit       0.003030
 1899 Fit       0.002460
 1900 Fit      -0.013598
 1901 Fit      -0.004191
 1902 Fit      -0.002819
 1903 Fit      -0.002785
 1904 Fit      -0.001180
 1905 Fit      -0.001625
 1906 Fit      -0.000585
 1907 Fit       0.001340
 1908 Fit      -0.004766
 1909 Fit      -0.001977
 1910 Fit       0.001390
 1911 Fit       0.000572
 1912 Fit       0.003513
 1913 Fit      -0.002424
 1914 Fit      -0.004867
 1915 Fit      -0.007507
 1916 Fit       0.000599
 1917 Fit      -0.001155
 1918 Fit      -0.002902
 1919 Fit      -0.004504
 1920 Fit      -0.001623
 1921 Fit      -0.000813
 1922 Fit      -0.000913
 1923 Fit      -0.000002
 1924 Fit       0.001724
 1925 Fit       0.003523
 1926 Fit       0.000884
 1927 Fit       0.001071
 1928 Fit       0.002180
 1929 Fit       0.004024
 1930 Fit       0.002565
 1931 Fit       0.001758
 1932 Fit       0.001015
 1933 Fit       0.000314
 1934 Fit       0.000012
 1935 Fit      -0.000215
 1936 Fit      -0.000698
 1937 Fit       0.000295
 1938 Fit      -0.000744
 1939 Fit       0.000337
 1940 Fit      -0.000327
 1941 Fit      -0.000961
 1942 Fit      -0.001144
 1943 Fit      -0.001035
 1944 Fit      -0.000628
 1945 Fit      -0.000963
 1946 Fit      -0.001268
 1947 Fit      -0.000429
 1948 Fit      -0.000753
 1949 Fit       0.002810
 1950 Fit       0.002492
 1951 Fit       0.001770
 1952 Fit       0.002229
 1953 Fit       0.001909
 1954 Fit       0.000352
 1955 Fit       0.000966
 1956 Fit       0.001177
 1957 Fit       0.000738
 1958 Fit      -0.000109
 1959 Fit      -0.000469
 1960 Fit      -0.000341
 1961 Fit      -0.000820
 1962 Fit      -0.000614
 1963 Fit      -0.000784
 1964 Fit       0.000477
 1965 Fit       0.001805
 1966 Fit       0.000525
 1967 Fit      -0.000157
 1968 Fit      -0.000227
 1969 Fit       0.000656
 1970 Fit       0.001975
 1971 Fit       0.001014
 1972 Fit       0.001403
 1973 Fit       0.003278
 1974 Fit       0.003861
 1975 Fit       0.003180
 1976 Fit       0.000872
 1977 Fit       0.000093
 1978 Fit       0.001556
 1979 Fit       0.000660
 1980 Fit       0.004797
 1981 Fit       0.004080
 1982 Fit       0.002574
 1983 Fit       0.004276
 1984 Fit       0.006483
 1985 Fit       0.008340
 1986 Fit       0.003307
 1987 Fit       0.003118
 1988 Fit       0.004380
 1989 Fit       0.004102
 1990 Fit       0.003855
 1991 Fit       0.005001
 1992 Fit       0.006535
 1993 Fit       0.007878
 1994 Fit       0.009309
 1995 Fit       0.005659
 1996 Fit       0.006558
 1997 Fit       0.007800
 1998 Fit       0.007733
 1999 Fit       0.007061
 2000 Fit       0.007995
 2001 Fit       0.012448
 2002 Fit       0.018068
 2003 Fit       0.005895
 2004 Fit       0.009306
 2005 Fit       0.012771
 2006 Fit       0.006346
 2007 Fit       0.008860
 2008 Fit       0.010410
 2009 Fit      -0.003142
 2010 Fit       0.001896
 2011 Fit      -0.004263
 2012 Fit      -0.000674
 2013 Fit       0.001766
 2014 Fit       0.001095
 2015 Fit       0.001688
 2016 Fit      -0.006873
 2017 Fit      -0.013411
 2018 Fit      -0.004406
 2019 Fit       0.004417
 2020 Fit      -0.004356
 2021 Fit      -0.011401
 2022 Fit      -0.018513
 2023 Fit      -0.013477
 2024 Fit      -0.011562
 2025 Fit      -0.017247
 2026 Fit      -0.022758
 2027 Fit      -0.021013
 2028 Fit      -0.020143
 2029 Fit      -0.026037
 2030 Fit      -0.015523
 2031 Fit      -0.003920
 2032 Fit      -0.022064
 2033 Fit      -0.014044
 2034 Fit      -0.003685
 2035 Fit      -0.024580
 2036 Fit      -0.019742
 2037 Fit      -0.012725
 2038 Fit      -0.004050
 2039 Fit       0.004327
 2040 Fit      -0.022832
 2041 Fit      -0.020508
 2042 Fit      -0.014853
 2043 Fit      -0.007828
 2044 Fit      -0.002039
 2045 Fit       0.000536
 2046 Fit      -0.018725
 2047 Fit      -0.014398
 2048 Fit      -0.009228
 2049 Fit      -0.013558
 2050 Fit       0.012097
 2051 Fit       0.004684
 2052 Fit       0.013775
 2053 Fit       0.018303
 2054 Fit       0.005510
 2055 Fit       0.013671
 2056 Fit       0.018471
 2057 Fit       0.019842
 2058 Fit       0.005521
 2059 Fit       0.012891
 2060 Fit       0.016845
 2061 Fit       0.017606
 2062 Fit       0.014537
 2063 Fit       0.006868
 2064 Fit       0.011420
 2065 Fit       0.011904
 2066 Fit      -0.020042
 2067 Fit      -0.014666
 2068 Fit      -0.018135
 2069 Fit      -0.022704
 2070 Fit      -0.022057
 2071 Fit      -0.016417
 2072 Fit      -0.006067
 2073 Fit      -0.007142
 2074 Fit      -0.010695
 2075 Fit      -0.016791
 2076 Fit      -0.022343
 2077 Fit      -0.024283
 2078 Fit      -0.021387
 2079 Fit      -0.007730
 2080 Fit      -0.016500
 2081 Fit      -0.022172
 2082 Fit      -0.023054
 2083 Fit      -0.018796
 2084 Fit      -0.001234
 2085 Fit      -0.011739
 2086 Fit      -0.018372
 2087 Fit      -0.020074
 2088 Fit      -0.016660
 2089 Fit      -0.004949
 2090 Fit      -0.012721
 2091 Fit      -0.013371
 2092 Fit      -0.002387
 2093 Fit       0.006674
 2094 Fit       0.006372
 2095 Fit       0.001268
 2096 Fit       0.016646
 2097 Fit       0.014906
 2098 Fit       0.010525
 2099 Fit       0.002633
 2100 Fit       0.022367
 2101 Fit       0.020025
 2102 Fit       0.015744
 2103 Fit       0.008681
 2104 Fit       0.025957
 2105 Fit       0.022740
 2106 Fit       0.017909
 2107 Fit       0.010282
 2108 Fit      -0.000129
 2109 Fit       0.001214
 2110 Fit       0.000458
 2111 Fit      -0.000518
 2112 Fit       0.002330
 2113 Fit       0.001727
 2114 Fit       0.001274
 2115 Fit       0.001407
 2116 Fit       0.001347
 2117 Fit      -0.000013
 2118 Fit      -0.001630
 2119 Fit      -0.001559
 2120 Fit      -0.000912
 2121 Fit      -0.000030
 2122 Fit      -0.000698
 2123 Fit       0.001200
 2124 Fit      -0.000057
 2125 Fit      -0.000327
 2126 Fit      -0.000290
 2127 Fit       0.001317
 2128 Fit       0.001402
 2129 Fit       0.000227
 2130 Fit       0.001021
 2131 Fit       0.001352
 2132 Fit      -0.000008
 2133 Fit       0.000431
 2134 Fit      -0.001338
 2135 Fit      -0.000955
 2136 Fit      -0.000508
 2137 Fit      -0.000820
 2138 Fit      -0.001534
 2139 Fit      -0.003010
 2140 Fit      -0.001465
 2141 Fit      -0.002310
 2142 Fit       0.001173
 2143 Fit       0.000687
 2144 Fit      -0.000624
 2145 Fit      -0.001980
 2146 Fit      -0.000826
 2147 Fit       0.000612
 2148 Fit       0.000628
 2149 Fit       0.000058
 2150 Fit      -0.000557
 2151 Fit      -0.000472
 2152 Fit      -0.000862
 2153 Fit      -0.000054
 2154 Fit      -0.000023
 2155 Fit       0.001113
 2156 Fit       0.001434
 2157 Fit       0.001397
 2158 Fit       0.001427
 2159 Fit       0.000736
 2160 Fit       0.000844
 2161 Fit       0.000364
 2162 Fit      -0.000929
 2163 Fit      -0.000187
 2164 Fit      -0.000221
 2165 Fit      -0.001025
 2166 Fit      -0.002645
 2167 Fit      -0.001672
 2168 Fit      -0.000230
 2169 Fit      -0.000586
 2170 Fit      -0.001061
 2171 Fit       0.000082
 2172 Fit       0.000627
 2173 Fit      -0.000150
 2174 Fit      -0.000797
 2175 Fit       0.000001
 2176 Fit      -0.000204
 2177 Fit      -0.000244
 2178 Fit      -0.001248
 2179 Fit      -0.001801
 2180 Fit      -0.001152
 2181 Fit      -0.001703
 2182 Fit      -0.002283
 2183 Fit      -0.002755
 2184 Fit      -0.002711
 2185 Fit      -0.003191
 2186 Fit      -0.003092
 2187 Fit      -0.003127
 2188 Fit      -0.003212
 2189 Fit      -0.003057
 2190 Fit      -0.002828
 2191 Fit      -0.002715
 2192 Fit      -0.002750
 2193 Fit      -0.001075
 2194 Fit      -0.001145
 2195 Fit      -0.002742
 2196 Fit      -0.001910
 2197 Fit      -0.001300
 2198 Fit       0.000308
 2199 Fit       0.000781
 2200 Fit      -0.002122
 2201 Fit      -0.001057
 2202 Fit      -0.000181
 2203 Fit       0.000871
 2204 Fit       0.001580
 2205 Fit      -0.001260
 2206 Fit      -0.000052
 2207 Fit       0.000585
 2208 Fit       0.000023
 2209 Fit       0.000637
 2210 Fit       0.000742
 2211 Fit      -0.000185
 2212 Fit      -0.001006
 2213 Fit      -0.001098
 2214 Fit      -0.000174
 2215 Fit       0.000353
 2216 Fit       0.000880
 2217 Fit      -0.002058
 2218 Fit      -0.001130
 2219 Fit      -0.000222
 2220 Fit      -0.000900
 2221 Fit      -0.000633
 2222 Fit      -0.002004
 2223 Fit      -0.001289
 2224 Fit      -0.002662
 2225 Fit      -0.001533
 2226 Fit       0.000097
 2227 Fit       0.000110
 2228 Fit      -0.000807
 2229 Fit      -0.002383
 2230 Fit       0.001251
 2231 Fit       0.000997
 2232 Fit       0.000090
 2233 Fit      -0.001427
 2234 Fit       0.001625
 2235 Fit       0.000969
 2236 Fit      -0.000018
 2237 Fit      -0.001551
 2238 Fit      -0.000129
 2239 Fit      -0.001180
 2240 Fit      -0.002508
 2241 Fit      -0.002827
 2242 Fit      -0.003591
 2243 Fit      -0.003117
 2244 Fit      -0.003548
 2245 Fit      -0.003571
 2246 Fit      -0.003560
 2247 Fit      -0.003101
 2248 Fit      -0.003458
 2249 Fit      -0.003290
 2250 Fit      -0.002852
 2251 Fit      -0.002564
 2252 Fit      -0.001225
 2253 Fit      -0.001654
 2254 Fit      -0.002335
 2255 Fit      -0.001050
 2256 Fit       0.000198
 2257 Fit      -0.000397
 2258 Fit      -0.001183
 2259 Fit      -0.001686
 2260 Fit       0.000681
 2261 Fit       0.000842
 2262 Fit      -0.000003
 2263 Fit      -0.000761
 2264 Fit       0.001474
 2265 Fit       0.000709
 2266 Fit      -0.000489
 2267 Fit       0.000196
 2268 Fit      -0.001070
 2269 Fit      -0.002166
 2270 Fit      -0.001438
 2271 Fit      -0.000141
 2272 Fit       0.000733
 2273 Fit      -0.000004
 2274 Fit      -0.000882
 2275 Fit      -0.002154
 2276 Fit      -0.003344
 2277 Fit       0.000651
 2278 Fit      -0.001137
 2279 Fit      -0.001736
 2280 Fit      -0.002702
 2281 Fit      -0.000885
 2282 Fit      -0.002764
 2283 Fit      -0.003167
 2284 Fit      -0.003109
 2285 Fit      -0.001856
 2286 Fit      -0.001602
 2287 Fit       0.000055
 2288 Fit      -0.001044
 2289 Fit       0.000804
 2290 Fit      -0.001807
 2291 Fit       0.000447
 -----------------------------------------------------------------
 Leave Link  602 at Thu Apr 27 16:40:25 2017, MaxMem=    33554432 cpu:         3.8
 (Enter /home/michal/g09/l9999.exe)

 Test job not archived.
 1\1\GINC-LINUX\SP\RHF\6-31G(d)\C27H46O3\MICHAL\27-Apr-2017\0\\#P HF/6-
 31G* SCF(Conver=6) NoSymm Test Pop=mk IOp(6/33=2) GFInput GFPrint\\MEP
  - Input generated by R.E.D.-III.x MOLECULE\\0,1\C,0,-1.00351073,1.981
 01957,1.68993661\H,0,-0.98798992,1.00162149,2.18357582\C,0,0.3255695,2
 .69962793,1.96239181\H,0,0.48177163,2.79382412,3.04167226\H,0,0.236510
 07,3.72379371,1.56491391\C,0,1.51231313,2.00986343,1.31706069\C,0,1.39
 877561,1.65319447,-0.16928034\C,0,-0.00325567,1.01530841,-0.42040023\H
 ,0,0.,0.,0.\H,0,-0.16381066,0.90378841,-1.49768599\C,0,-1.18797352,1.7
 8252676,0.18630354\H,0,-1.2964153,2.76634463,-0.29412035\H,0,-2.120611
 73,1.23798288,0.\C,0,2.61079114,1.74443767,2.03685739\H,0,2.63119808,1
 .99392628,3.09828908\C,0,3.87207743,1.12702415,1.50851945\H,0,4.027050
 27,0.14644918,1.98740707\C,0,3.91358979,0.97097521,-0.01922619\H,0,4.2
 1420037,1.94228843,-0.42679859\C,0,2.4996648,0.60156087,-0.5477803\H,0
 ,2.21275977,-0.32519645,-0.02346706\C,0,2.53234566,0.26487199,-2.05589
 345\H,0,2.70281682,1.17871717,-2.63536279\H,0,1.55341887,-0.11384789,-
 2.36962575\C,0,3.60142233,-0.77441713,-2.44551289\H,0,3.3540124,-1.742
 04583,-1.98524067\H,0,3.55812237,-0.92604719,-3.52845136\C,0,5.0102944
 4,-0.35352733,-1.98194871\C,0,4.92146064,-0.11061541,-0.44700473\H,0,4
 .53739496,-1.05830685,-0.02949964\C,0,6.38775146,0.,0.\H,0,6.52022231,
 -0.22028881,1.06231116\H,0,6.76126486,1.01826844,-0.14872425\C,0,7.125
 0082,-1.01566011,-0.91350204\H,0,8.01206219,-0.55873363,-1.36855547\H,
 0,7.48284937,-1.87477832,-0.3379052\C,0,6.11386006,-1.46807731,-2.0215
 7506\H,0,5.62387826,-2.39326809,-1.67773958\C,0,5.4874682,0.90194095,-
 2.74799025\H,0,4.84480306,1.76790006,-2.57043941\H,0,6.50279854,1.1926
 9706,-2.46347963\H,0,5.49093216,0.71803206,-3.82733797\C,0,6.8121997,-
 1.80765884,-3.36431381\H,0,7.36613617,-0.91343956,-3.68846245\C,0,5.82
 594239,-2.18999114,-4.48283346\H,0,5.16395171,-3.00265603,-4.15842296\
 H,0,6.35415332,-2.53265603,-5.37778152\H,0,5.19800746,-1.34967584,-4.7
 8766828\C,0,1.53607415,2.95750329,-0.99912098\H,0,1.32048437,2.7799259
 7,-2.05724781\H,0,0.83983503,3.72671868,-0.65374727\H,0,2.5442449,3.37
 36532,-0.91637304\O,0,5.03102296,1.82542872,2.03073605\O,0,5.05775087,
 3.17888645,1.48870561\H,0,4.72653678,3.68837598,2.24635766\O,0,-2.1070
 1129,2.65996463,2.29509552\H,0,-2.20079376,3.52954841,1.88130165\C,0,7
 .85097011,-2.94099446,-3.16128991\H,0,8.39945589,-2.76576698,-2.231006
 79\H,0,7.31189399,-3.89118657,-3.02192026\C,0,8.86966901,-3.09694647,-
 4.3024149\H,0,8.34534206,-3.22316625,-5.25734644\H,0,9.44408818,-2.165
 60064,-4.3993344\C,0,9.82829692,-4.29168463,-4.14049923\H,0,10.4475442
 ,-4.36867362,-5.04665475\H,0,9.2308723,-5.21423636,-4.10394258\C,0,10.
 77000015,-4.27337043,-2.91738467\H,0,10.15476095,-4.21641338,-2.008099
 51\C,0,11.57173792,-5.58305901,-2.8474627\H,0,12.21369652,-5.69629244,
 -3.73064259\H,0,12.21764924,-5.60797692,-1.96235448\H,0,10.90928859,-6
 .45528125,-2.80408919\C,0,11.71622418,-3.06234307,-2.92357814\H,0,12.3
 3995311,-3.06059426,-3.82707901\H,0,12.38722434,-3.08552121,-2.0573642
 \H,0,11.17253855,-2.11259389,-2.89263097\\Version=EM64L-G09RevD.01\HF=
 -1273.6832187\RMSD=5.133e-07\Dipole=-0.4744375,0.2941144,-0.4325368\Qu
 adrupole=-13.3468969,10.7342323,2.6126646,-2.0100725,3.1624253,-0.1705
 736\PG=C01 [X(C27H46O3)]\\@


 IT WAS A GAME, A VERY INTERESTING GAME ONE COULD
 PLAY.  WHENEVER ONE SOLVED ONE OF THE LITTLE PROBLEMS,
 ONE COULD WRITE A PAPER ABOUT IT.  IT WAS VERY EASY IN
 THOSE DAYS FOR ANY SECOND-RATE PHYSICIST TO DO
 FIRST-RATE WORK.  THERE HAS NOT BEEN SUCH A GLORIOUS
 TIME SINCE.  IT IS VERY DIFFICULT NOW FOR A FIRST-RATE
 PHYSICIST TO DO SECOND-RATE WORK.
     P.A.M. DIRAC, ON THE EARLY DAYS OF QUANTUM MECHANICS
                   DIRECTIONS IN PHYSICS, 1978, P. 7
 Job cpu time:       0 days  0 hours 11 minutes 53.8 seconds.
 File lengths (MBytes):  RWF=    159 Int=      0 D2E=      0 Chk=     11 Scr=      1
 Normal termination of Gaussian 09 at Thu Apr 27 16:40:25 2017.
