 Entering Gaussian System, Link 0=/home/michal/g09/g09
 Input=JOB2-gau_m1-3-1.com
 Output=JOB2-gau_m1-3-1.log
 Initial command:
 /home/michal/g09/l1.exe "/home/michal/gauss_scratch/Gau-27862.inp" -scrdir="/home/michal/gauss_scratch/"
 Entering Link 1 = /home/michal/g09/l1.exe PID=     27863.
  
 Copyright (c) 1988,1990,1992,1993,1995,1998,2003,2009,2013,
            Gaussian, Inc.  All Rights Reserved.
  
 This is part of the Gaussian(R) 09 program.  It is based on
 the Gaussian(R) 03 system (copyright 2003, Gaussian, Inc.),
 the Gaussian(R) 98 system (copyright 1998, Gaussian, Inc.),
 the Gaussian(R) 94 system (copyright 1995, Gaussian, Inc.),
 the Gaussian 92(TM) system (copyright 1992, Gaussian, Inc.),
 the Gaussian 90(TM) system (copyright 1990, Gaussian, Inc.),
 the Gaussian 88(TM) system (copyright 1988, Gaussian, Inc.),
 the Gaussian 86(TM) system (copyright 1986, Carnegie Mellon
 University), and the Gaussian 82(TM) system (copyright 1983,
 Carnegie Mellon University). Gaussian is a federally registered
 trademark of Gaussian, Inc.
  
 This software contains proprietary and confidential information,
 including trade secrets, belonging to Gaussian, Inc.
  
 This software is provided under written license and may be
 used, copied, transmitted, or stored only in accord with that
 written license.
  
 The following legend is applicable only to US Government
 contracts under FAR:
  
                    RESTRICTED RIGHTS LEGEND
  
 Use, reproduction and disclosure by the US Government is
 subject to restrictions as set forth in subparagraphs (a)
 and (c) of the Commercial Computer Software - Restricted
 Rights clause in FAR 52.227-19.
  
 Gaussian, Inc.
 340 Quinnipiac St., Bldg. 40, Wallingford CT 06492
  
  
 ---------------------------------------------------------------
 Warning -- This program may not be used in any manner that
 competes with the business of Gaussian, Inc. or will provide
 assistance to any competitor of Gaussian, Inc.  The licensee
 of this program is prohibited from giving any competitor of
 Gaussian, Inc. access to this program.  By using this program,
 the user acknowledges that Gaussian, Inc. is engaged in the
 business of creating and licensing software in the field of
 computational chemistry and represents and warrants to the
 licensee that it is not a competitor of Gaussian, Inc. and that
 it will not use this program in any manner prohibited above.
 ---------------------------------------------------------------
  

 Cite this work as:
 Gaussian 09, Revision D.01,
 M. J. Frisch, G. W. Trucks, H. B. Schlegel, G. E. Scuseria, 
 M. A. Robb, J. R. Cheeseman, G. Scalmani, V. Barone, B. Mennucci, 
 G. A. Petersson, H. Nakatsuji, M. Caricato, X. Li, H. P. Hratchian, 
 A. F. Izmaylov, J. Bloino, G. Zheng, J. L. Sonnenberg, M. Hada, 
 M. Ehara, K. Toyota, R. Fukuda, J. Hasegawa, M. Ishida, T. Nakajima, 
 Y. Honda, O. Kitao, H. Nakai, T. Vreven, J. A. Montgomery, Jr., 
 J. E. Peralta, F. Ogliaro, M. Bearpark, J. J. Heyd, E. Brothers, 
 K. N. Kudin, V. N. Staroverov, T. Keith, R. Kobayashi, J. Normand, 
 K. Raghavachari, A. Rendell, J. C. Burant, S. S. Iyengar, J. Tomasi, 
 M. Cossi, N. Rega, J. M. Millam, M. Klene, J. E. Knox, J. B. Cross, 
 V. Bakken, C. Adamo, J. Jaramillo, R. Gomperts, R. E. Stratmann, 
 O. Yazyev, A. J. Austin, R. Cammi, C. Pomelli, J. W. Ochterski, 
 R. L. Martin, K. Morokuma, V. G. Zakrzewski, G. A. Voth, 
 P. Salvador, J. J. Dannenberg, S. Dapprich, A. D. Daniels, 
 O. Farkas, J. B. Foresman, J. V. Ortiz, J. Cioslowski, 
 and D. J. Fox, Gaussian, Inc., Wallingford CT, 2013.
 
 ******************************************
 Gaussian 09:  EM64L-G09RevD.01 24-Apr-2013
                27-Apr-2017 
 ******************************************
 %Mem=256MB
 %NProc=12
 Will use up to   12 processors via shared memory.
 ----------------------------------------------------------------------
 #P HF/6-31G* SCF(Conver=6) NoSymm Test Pop=mk IOp(6/33=2) GFInput GFPr
 int
 ----------------------------------------------------------------------
 1/38=1/1;
 2/12=2,15=1,17=6,18=5,40=1/2;
 3/5=1,6=6,7=1,11=9,16=1,24=110,25=1,30=1/1,2,3;
 4//1;
 5/5=2,6=6,38=5/2;
 6/7=2,8=2,9=2,10=2,15=8,20=1,28=1,33=2/1,2;
 99/5=1,9=1/99;
 Leave Link    1 at Thu Apr 27 15:02:31 2017, MaxMem=    33554432 cpu:         0.6
 (Enter /home/michal/g09/l101.exe)
 ----------------------------------------------
 MEP - Input generated by R.E.D.-III.x MOLECULE
 ----------------------------------------------
 Symbolic Z-matrix:
 Charge =  0 Multiplicity = 1
 C                     1.75982  -1.24696  -0.07615 
 H                     1.87293  -1.1181   -1.1596 
 C                     3.15151  -1.31207   0.56789 
 H                     3.72998  -2.12673   0.12171 
 H                     3.01488  -1.56772   1.63143 
 C                     3.91359  -0.00507   0.454 
 C                     3.18782   1.2702    0.89442 
 C                     1.74686   1.25366   0.29552 
 H                     1.82024   1.45237  -0.78281 
 H                     1.16325   2.07553   0.72366 
 C                     0.97805  -0.06226   0.49055 
 H                     0.78339  -0.23984   1.55864 
 H                     0.        0.        0. 
 C                     5.1738    0.        0. 
 H                     5.64009  -0.93317  -0.30808 
 C                     6.05997   1.20704  -0.09255 
 H                     6.31846   1.4067   -1.1441 
 C                     5.48133   2.47402   0.55875 
 H                     5.69664   2.40517   1.63321 
 C                     3.94313   2.52666   0.34101 
 H                     3.79453   2.50269  -0.75088 
 C                     3.35626   3.86553   0.84261 
 H                     3.38722   3.89515   1.93721 
 H                     2.29739   3.92626   0.569 
 C                     4.07099   5.11484   0.29255 
 H                     3.91618   5.17469  -0.7945 
 H                     3.59595   6.00196   0.72248 
 C                     5.58704   5.08403   0.57366 
 C                     6.12127   3.74873  -0.0221 
 H                     5.82193   3.77054  -1.08413 
 C                     7.64901   3.91123   0. 
 H                     8.1449    3.27078  -0.73603 
 H                     8.05502   3.63326   0.97778 
 C                     7.86334   5.41974  -0.29687 
 H                     8.54496   5.86569   0.43723 
 H                     8.32562   5.57028  -1.27708 
 C                     6.46011   6.11189  -0.2284 
 H                     6.04239   6.13331  -1.24775 
 C                     5.86693   5.20684   2.08902 
 H                     5.43287   4.38298   2.66116 
 H                     6.93881   5.22045   2.30777 
 H                     5.44142   6.13425   2.4861 
 C                     6.54719   7.58649   0.24695 
 H                     7.01729   7.58558   1.2408 
 C                     5.17443   8.26898   0.37313 
 H                     4.6282    8.23339  -0.57804 
 H                     5.27864   9.3211    0.65433 
 H                     4.54893   7.79855   1.13467 
 C                     3.10768   1.28278   2.44447 
 H                     2.46759   2.09425   2.80471 
 H                     2.69127   0.34874   2.83064 
 H                     4.09922   1.40035   2.89158 
 O                     7.3028    0.95898   0.61236 
 O                     8.03788  -0.06309  -0.12611 
 H                     8.80428   0.45539  -0.42162 
 O                     1.053    -2.48339   0.05665 
 H                     0.92247  -2.66567   0.99789 
 C                     7.4648    8.38946  -0.71082 
 H                     8.42093   7.86581  -0.81438 
 H                     7.00817   8.37717  -1.71189 
 C                     7.75234   9.85691  -0.3344 
 H                     8.38893   10.28481  -1.11935 
 H                     6.82396   10.43992  -0.36944 
 C                     8.41152   10.08701   1.03887 
 H                     7.72676   9.75217   1.82989 
 H                     8.5289    11.17079   1.18686 
 C                     9.78381   9.41892   1.26876 
 H                     9.66622   8.33402   1.13333 
 C                     10.84817   9.90398   0.27156 
 H                     10.98744   10.99018   0.34904 
 H                     11.81613   9.43057   0.47158 
 H                     10.57859   9.67601  -0.76473 
 C                     10.2529   9.65358   2.71373 
 H                     10.3944   10.72426   2.90964 
 H                     11.20725   9.15151   2.90956 
 H                     9.52112   9.27733   3.43793 
 
 NAtoms=     76 NQM=       76 NQMF=       0 NMMI=      0 NMMIF=      0
                NMic=       0 NMicF=      0.
                    Isotopes and Nuclear Properties:
 (Nuclear quadrupole moments (NQMom) in fm**2, nuclear magnetic moments (NMagM)
  in nuclear magnetons)

  Atom         1           2           3           4           5           6           7           8           9          10
 IAtWgt=          12           1          12           1           1          12          12          12           1           1
 AtmWgt=  12.0000000   1.0078250  12.0000000   1.0078250   1.0078250  12.0000000  12.0000000  12.0000000   1.0078250   1.0078250
 NucSpn=           0           1           0           1           1           0           0           0           1           1
 AtZEff=   0.0000000   0.0000000   0.0000000   0.0000000   0.0000000   0.0000000   0.0000000   0.0000000   0.0000000   0.0000000
 NQMom=    0.0000000   0.0000000   0.0000000   0.0000000   0.0000000   0.0000000   0.0000000   0.0000000   0.0000000   0.0000000
 NMagM=    0.0000000   2.7928460   0.0000000   2.7928460   2.7928460   0.0000000   0.0000000   0.0000000   2.7928460   2.7928460
 AtZNuc=   6.0000000   1.0000000   6.0000000   1.0000000   1.0000000   6.0000000   6.0000000   6.0000000   1.0000000   1.0000000

  Atom        11          12          13          14          15          16          17          18          19          20
 IAtWgt=          12           1           1          12           1          12           1          12           1          12
 AtmWgt=  12.0000000   1.0078250   1.0078250  12.0000000   1.0078250  12.0000000   1.0078250  12.0000000   1.0078250  12.0000000
 NucSpn=           0           1           1           0           1           0           1           0           1           0
 AtZEff=   0.0000000   0.0000000   0.0000000   0.0000000   0.0000000   0.0000000   0.0000000   0.0000000   0.0000000   0.0000000
 NQMom=    0.0000000   0.0000000   0.0000000   0.0000000   0.0000000   0.0000000   0.0000000   0.0000000   0.0000000   0.0000000
 NMagM=    0.0000000   2.7928460   2.7928460   0.0000000   2.7928460   0.0000000   2.7928460   0.0000000   2.7928460   0.0000000
 AtZNuc=   6.0000000   1.0000000   1.0000000   6.0000000   1.0000000   6.0000000   1.0000000   6.0000000   1.0000000   6.0000000

  Atom        21          22          23          24          25          26          27          28          29          30
 IAtWgt=           1          12           1           1          12           1           1          12          12           1
 AtmWgt=   1.0078250  12.0000000   1.0078250   1.0078250  12.0000000   1.0078250   1.0078250  12.0000000  12.0000000   1.0078250
 NucSpn=           1           0           1           1           0           1           1           0           0           1
 AtZEff=   0.0000000   0.0000000   0.0000000   0.0000000   0.0000000   0.0000000   0.0000000   0.0000000   0.0000000   0.0000000
 NQMom=    0.0000000   0.0000000   0.0000000   0.0000000   0.0000000   0.0000000   0.0000000   0.0000000   0.0000000   0.0000000
 NMagM=    2.7928460   0.0000000   2.7928460   2.7928460   0.0000000   2.7928460   2.7928460   0.0000000   0.0000000   2.7928460
 AtZNuc=   1.0000000   6.0000000   1.0000000   1.0000000   6.0000000   1.0000000   1.0000000   6.0000000   6.0000000   1.0000000

  Atom        31          32          33          34          35          36          37          38          39          40
 IAtWgt=          12           1           1          12           1           1          12           1          12           1
 AtmWgt=  12.0000000   1.0078250   1.0078250  12.0000000   1.0078250   1.0078250  12.0000000   1.0078250  12.0000000   1.0078250
 NucSpn=           0           1           1           0           1           1           0           1           0           1
 AtZEff=   0.0000000   0.0000000   0.0000000   0.0000000   0.0000000   0.0000000   0.0000000   0.0000000   0.0000000   0.0000000
 NQMom=    0.0000000   0.0000000   0.0000000   0.0000000   0.0000000   0.0000000   0.0000000   0.0000000   0.0000000   0.0000000
 NMagM=    0.0000000   2.7928460   2.7928460   0.0000000   2.7928460   2.7928460   0.0000000   2.7928460   0.0000000   2.7928460
 AtZNuc=   6.0000000   1.0000000   1.0000000   6.0000000   1.0000000   1.0000000   6.0000000   1.0000000   6.0000000   1.0000000

  Atom        41          42          43          44          45          46          47          48          49          50
 IAtWgt=           1           1          12           1          12           1           1           1          12           1
 AtmWgt=   1.0078250   1.0078250  12.0000000   1.0078250  12.0000000   1.0078250   1.0078250   1.0078250  12.0000000   1.0078250
 NucSpn=           1           1           0           1           0           1           1           1           0           1
 AtZEff=   0.0000000   0.0000000   0.0000000   0.0000000   0.0000000   0.0000000   0.0000000   0.0000000   0.0000000   0.0000000
 NQMom=    0.0000000   0.0000000   0.0000000   0.0000000   0.0000000   0.0000000   0.0000000   0.0000000   0.0000000   0.0000000
 NMagM=    2.7928460   2.7928460   0.0000000   2.7928460   0.0000000   2.7928460   2.7928460   2.7928460   0.0000000   2.7928460
 AtZNuc=   1.0000000   1.0000000   6.0000000   1.0000000   6.0000000   1.0000000   1.0000000   1.0000000   6.0000000   1.0000000

  Atom        51          52          53          54          55          56          57          58          59          60
 IAtWgt=           1           1          16          16           1          16           1          12           1           1
 AtmWgt=   1.0078250   1.0078250  15.9949146  15.9949146   1.0078250  15.9949146   1.0078250  12.0000000   1.0078250   1.0078250
 NucSpn=           1           1           0           0           1           0           1           0           1           1
 AtZEff=   0.0000000   0.0000000   0.0000000   0.0000000   0.0000000   0.0000000   0.0000000   0.0000000   0.0000000   0.0000000
 NQMom=    0.0000000   0.0000000   0.0000000   0.0000000   0.0000000   0.0000000   0.0000000   0.0000000   0.0000000   0.0000000
 NMagM=    2.7928460   2.7928460   0.0000000   0.0000000   2.7928460   0.0000000   2.7928460   0.0000000   2.7928460   2.7928460
 AtZNuc=   1.0000000   1.0000000   8.0000000   8.0000000   1.0000000   8.0000000   1.0000000   6.0000000   1.0000000   1.0000000

  Atom        61          62          63          64          65          66          67          68          69          70
 IAtWgt=          12           1           1          12           1           1          12           1          12           1
 AtmWgt=  12.0000000   1.0078250   1.0078250  12.0000000   1.0078250   1.0078250  12.0000000   1.0078250  12.0000000   1.0078250
 NucSpn=           0           1           1           0           1           1           0           1           0           1
 AtZEff=   0.0000000   0.0000000   0.0000000   0.0000000   0.0000000   0.0000000   0.0000000   0.0000000   0.0000000   0.0000000
 NQMom=    0.0000000   0.0000000   0.0000000   0.0000000   0.0000000   0.0000000   0.0000000   0.0000000   0.0000000   0.0000000
 NMagM=    0.0000000   2.7928460   2.7928460   0.0000000   2.7928460   2.7928460   0.0000000   2.7928460   0.0000000   2.7928460
 AtZNuc=   6.0000000   1.0000000   1.0000000   6.0000000   1.0000000   1.0000000   6.0000000   1.0000000   6.0000000   1.0000000

  Atom        71          72          73          74          75          76
 IAtWgt=           1           1          12           1           1           1
 AtmWgt=   1.0078250   1.0078250  12.0000000   1.0078250   1.0078250   1.0078250
 NucSpn=           1           1           0           1           1           1
 AtZEff=   0.0000000   0.0000000   0.0000000   0.0000000   0.0000000   0.0000000
 NQMom=    0.0000000   0.0000000   0.0000000   0.0000000   0.0000000   0.0000000
 NMagM=    2.7928460   2.7928460   0.0000000   2.7928460   2.7928460   2.7928460
 AtZNuc=   1.0000000   1.0000000   6.0000000   1.0000000   1.0000000   1.0000000
 Leave Link  101 at Thu Apr 27 15:02:31 2017, MaxMem=    33554432 cpu:         1.0
 (Enter /home/michal/g09/l202.exe)
 Symmetry turned off by external request.
 Stoichiometry    C27H46O3
 Framework group  C1[X(C27H46O3)]
 Deg. of freedom   222
 Full point group                 C1      NOp   1
                          Input orientation:                          
 ---------------------------------------------------------------------
 Center     Atomic      Atomic             Coordinates (Angstroms)
 Number     Number       Type             X           Y           Z
 ---------------------------------------------------------------------
      1          6           0        1.759819   -1.246957   -0.076154
      2          1           0        1.872931   -1.118099   -1.159598
      3          6           0        3.151507   -1.312070    0.567890
      4          1           0        3.729978   -2.126734    0.121710
      5          1           0        3.014885   -1.567720    1.631433
      6          6           0        3.913587   -0.005074    0.454005
      7          6           0        3.187824    1.270204    0.894418
      8          6           0        1.746856    1.253665    0.295521
      9          1           0        1.820235    1.452365   -0.782814
     10          1           0        1.163249    2.075528    0.723660
     11          6           0        0.978050   -0.062265    0.490554
     12          1           0        0.783394   -0.239841    1.558636
     13          1           0        0.000000    0.000000    0.000000
     14          6           0        5.173802    0.000000    0.000000
     15          1           0        5.640087   -0.933165   -0.308083
     16          6           0        6.059966    1.207037   -0.092550
     17          1           0        6.318456    1.406701   -1.144100
     18          6           0        5.481330    2.474016    0.558746
     19          1           0        5.696644    2.405168    1.633212
     20          6           0        3.943132    2.526656    0.341014
     21          1           0        3.794530    2.502690   -0.750882
     22          6           0        3.356256    3.865527    0.842613
     23          1           0        3.387216    3.895153    1.937207
     24          1           0        2.297395    3.926260    0.568998
     25          6           0        4.070994    5.114835    0.292548
     26          1           0        3.916176    5.174693   -0.794501
     27          1           0        3.595949    6.001959    0.722481
     28          6           0        5.587037    5.084029    0.573661
     29          6           0        6.121270    3.748730   -0.022103
     30          1           0        5.821927    3.770544   -1.084133
     31          6           0        7.649010    3.911231    0.000000
     32          1           0        8.144897    3.270776   -0.736027
     33          1           0        8.055017    3.633265    0.977782
     34          6           0        7.863339    5.419741   -0.296868
     35          1           0        8.544959    5.865689    0.437228
     36          1           0        8.325615    5.570280   -1.277079
     37          6           0        6.460108    6.111887   -0.228397
     38          1           0        6.042389    6.133312   -1.247748
     39          6           0        5.866927    5.206842    2.089017
     40          1           0        5.432866    4.382982    2.661161
     41          1           0        6.938813    5.220446    2.307769
     42          1           0        5.441419    6.134251    2.486099
     43          6           0        6.547195    7.586493    0.246952
     44          1           0        7.017290    7.585583    1.240798
     45          6           0        5.174425    8.268983    0.373129
     46          1           0        4.628205    8.233388   -0.578040
     47          1           0        5.278644    9.321097    0.654334
     48          1           0        4.548932    7.798550    1.134674
     49          6           0        3.107681    1.282775    2.444467
     50          1           0        2.467594    2.094250    2.804707
     51          1           0        2.691267    0.348740    2.830636
     52          1           0        4.099219    1.400352    2.891582
     53          8           0        7.302796    0.958982    0.612361
     54          8           0        8.037880   -0.063086   -0.126112
     55          1           0        8.804284    0.455390   -0.421618
     56          8           0        1.053003   -2.483391    0.056654
     57          1           0        0.922472   -2.665665    0.997886
     58          6           0        7.464795    8.389455   -0.710820
     59          1           0        8.420934    7.865811   -0.814375
     60          1           0        7.008168    8.377166   -1.711888
     61          6           0        7.752342    9.856906   -0.334400
     62          1           0        8.388928   10.284809   -1.119349
     63          1           0        6.823959   10.439915   -0.369435
     64          6           0        8.411522   10.087006    1.038866
     65          1           0        7.726759    9.752174    1.829889
     66          1           0        8.528902   11.170795    1.186865
     67          6           0        9.783811    9.418919    1.268762
     68          1           0        9.666218    8.334023    1.133326
     69          6           0       10.848166    9.903978    0.271559
     70          1           0       10.987442   10.990182    0.349039
     71          1           0       11.816134    9.430575    0.471580
     72          1           0       10.578593    9.676010   -0.764729
     73          6           0       10.252903    9.653581    2.713731
     74          1           0       10.394395   10.724257    2.909638
     75          1           0       11.207246    9.151508    2.909556
     76          1           0        9.521123    9.277333    3.437930
 ---------------------------------------------------------------------
 Rotational constants (GHZ):      0.3585108      0.0593568      0.0542656
 Leave Link  202 at Thu Apr 27 15:02:31 2017, MaxMem=    33554432 cpu:         0.6
 (Enter /home/michal/g09/l301.exe)
 Standard basis: 6-31G(d) (6D, 7F)
 Ernie: Thresh=  0.10000D-02 Tol=  0.10000D-05 Strict=F.
 AO basis set in the form of general basis input (Overlap normalization):
      1 0
 S   6 1.00       0.000000000000
      0.3047524880D+04  0.1834737132D-02
      0.4573695180D+03  0.1403732281D-01
      0.1039486850D+03  0.6884262226D-01
      0.2921015530D+02  0.2321844432D+00
      0.9286662960D+01  0.4679413484D+00
      0.3163926960D+01  0.3623119853D+00
 SP   3 1.00       0.000000000000
      0.7868272350D+01 -0.1193324198D+00  0.6899906659D-01
      0.1881288540D+01 -0.1608541517D+00  0.3164239610D+00
      0.5442492580D+00  0.1143456438D+01  0.7443082909D+00
 SP   1 1.00       0.000000000000
      0.1687144782D+00  0.1000000000D+01  0.1000000000D+01
 D   1 1.00       0.000000000000
      0.8000000000D+00  0.1000000000D+01
 ****
      2 0
 S   3 1.00       0.000000000000
      0.1873113696D+02  0.3349460434D-01
      0.2825394365D+01  0.2347269535D+00
      0.6401216923D+00  0.8137573261D+00
 S   1 1.00       0.000000000000
      0.1612777588D+00  0.1000000000D+01
 ****
      3 0
 S   6 1.00       0.000000000000
      0.3047524880D+04  0.1834737132D-02
      0.4573695180D+03  0.1403732281D-01
      0.1039486850D+03  0.6884262226D-01
      0.2921015530D+02  0.2321844432D+00
      0.9286662960D+01  0.4679413484D+00
      0.3163926960D+01  0.3623119853D+00
 SP   3 1.00       0.000000000000
      0.7868272350D+01 -0.1193324198D+00  0.6899906659D-01
      0.1881288540D+01 -0.1608541517D+00  0.3164239610D+00
      0.5442492580D+00  0.1143456438D+01  0.7443082909D+00
 SP   1 1.00       0.000000000000
      0.1687144782D+00  0.1000000000D+01  0.1000000000D+01
 D   1 1.00       0.000000000000
      0.8000000000D+00  0.1000000000D+01
 ****
      4 0
 S   3 1.00       0.000000000000
      0.1873113696D+02  0.3349460434D-01
      0.2825394365D+01  0.2347269535D+00
      0.6401216923D+00  0.8137573261D+00
 S   1 1.00       0.000000000000
      0.1612777588D+00  0.1000000000D+01
 ****
      5 0
 S   3 1.00       0.000000000000
      0.1873113696D+02  0.3349460434D-01
      0.2825394365D+01  0.2347269535D+00
      0.6401216923D+00  0.8137573261D+00
 S   1 1.00       0.000000000000
      0.1612777588D+00  0.1000000000D+01
 ****
      6 0
 S   6 1.00       0.000000000000
      0.3047524880D+04  0.1834737132D-02
      0.4573695180D+03  0.1403732281D-01
      0.1039486850D+03  0.6884262226D-01
      0.2921015530D+02  0.2321844432D+00
      0.9286662960D+01  0.4679413484D+00
      0.3163926960D+01  0.3623119853D+00
 SP   3 1.00       0.000000000000
      0.7868272350D+01 -0.1193324198D+00  0.6899906659D-01
      0.1881288540D+01 -0.1608541517D+00  0.3164239610D+00
      0.5442492580D+00  0.1143456438D+01  0.7443082909D+00
 SP   1 1.00       0.000000000000
      0.1687144782D+00  0.1000000000D+01  0.1000000000D+01
 D   1 1.00       0.000000000000
      0.8000000000D+00  0.1000000000D+01
 ****
      7 0
 S   6 1.00       0.000000000000
      0.3047524880D+04  0.1834737132D-02
      0.4573695180D+03  0.1403732281D-01
      0.1039486850D+03  0.6884262226D-01
      0.2921015530D+02  0.2321844432D+00
      0.9286662960D+01  0.4679413484D+00
      0.3163926960D+01  0.3623119853D+00
 SP   3 1.00       0.000000000000
      0.7868272350D+01 -0.1193324198D+00  0.6899906659D-01
      0.1881288540D+01 -0.1608541517D+00  0.3164239610D+00
      0.5442492580D+00  0.1143456438D+01  0.7443082909D+00
 SP   1 1.00       0.000000000000
      0.1687144782D+00  0.1000000000D+01  0.1000000000D+01
 D   1 1.00       0.000000000000
      0.8000000000D+00  0.1000000000D+01
 ****
      8 0
 S   6 1.00       0.000000000000
      0.3047524880D+04  0.1834737132D-02
      0.4573695180D+03  0.1403732281D-01
      0.1039486850D+03  0.6884262226D-01
      0.2921015530D+02  0.2321844432D+00
      0.9286662960D+01  0.4679413484D+00
      0.3163926960D+01  0.3623119853D+00
 SP   3 1.00       0.000000000000
      0.7868272350D+01 -0.1193324198D+00  0.6899906659D-01
      0.1881288540D+01 -0.1608541517D+00  0.3164239610D+00
      0.5442492580D+00  0.1143456438D+01  0.7443082909D+00
 SP   1 1.00       0.000000000000
      0.1687144782D+00  0.1000000000D+01  0.1000000000D+01
 D   1 1.00       0.000000000000
      0.8000000000D+00  0.1000000000D+01
 ****
      9 0
 S   3 1.00       0.000000000000
      0.1873113696D+02  0.3349460434D-01
      0.2825394365D+01  0.2347269535D+00
      0.6401216923D+00  0.8137573261D+00
 S   1 1.00       0.000000000000
      0.1612777588D+00  0.1000000000D+01
 ****
     10 0
 S   3 1.00       0.000000000000
      0.1873113696D+02  0.3349460434D-01
      0.2825394365D+01  0.2347269535D+00
      0.6401216923D+00  0.8137573261D+00
 S   1 1.00       0.000000000000
      0.1612777588D+00  0.1000000000D+01
 ****
     11 0
 S   6 1.00       0.000000000000
      0.3047524880D+04  0.1834737132D-02
      0.4573695180D+03  0.1403732281D-01
      0.1039486850D+03  0.6884262226D-01
      0.2921015530D+02  0.2321844432D+00
      0.9286662960D+01  0.4679413484D+00
      0.3163926960D+01  0.3623119853D+00
 SP   3 1.00       0.000000000000
      0.7868272350D+01 -0.1193324198D+00  0.6899906659D-01
      0.1881288540D+01 -0.1608541517D+00  0.3164239610D+00
      0.5442492580D+00  0.1143456438D+01  0.7443082909D+00
 SP   1 1.00       0.000000000000
      0.1687144782D+00  0.1000000000D+01  0.1000000000D+01
 D   1 1.00       0.000000000000
      0.8000000000D+00  0.1000000000D+01
 ****
     12 0
 S   3 1.00       0.000000000000
      0.1873113696D+02  0.3349460434D-01
      0.2825394365D+01  0.2347269535D+00
      0.6401216923D+00  0.8137573261D+00
 S   1 1.00       0.000000000000
      0.1612777588D+00  0.1000000000D+01
 ****
     13 0
 S   3 1.00       0.000000000000
      0.1873113696D+02  0.3349460434D-01
      0.2825394365D+01  0.2347269535D+00
      0.6401216923D+00  0.8137573261D+00
 S   1 1.00       0.000000000000
      0.1612777588D+00  0.1000000000D+01
 ****
     14 0
 S   6 1.00       0.000000000000
      0.3047524880D+04  0.1834737132D-02
      0.4573695180D+03  0.1403732281D-01
      0.1039486850D+03  0.6884262226D-01
      0.2921015530D+02  0.2321844432D+00
      0.9286662960D+01  0.4679413484D+00
      0.3163926960D+01  0.3623119853D+00
 SP   3 1.00       0.000000000000
      0.7868272350D+01 -0.1193324198D+00  0.6899906659D-01
      0.1881288540D+01 -0.1608541517D+00  0.3164239610D+00
      0.5442492580D+00  0.1143456438D+01  0.7443082909D+00
 SP   1 1.00       0.000000000000
      0.1687144782D+00  0.1000000000D+01  0.1000000000D+01
 D   1 1.00       0.000000000000
      0.8000000000D+00  0.1000000000D+01
 ****
     15 0
 S   3 1.00       0.000000000000
      0.1873113696D+02  0.3349460434D-01
      0.2825394365D+01  0.2347269535D+00
      0.6401216923D+00  0.8137573261D+00
 S   1 1.00       0.000000000000
      0.1612777588D+00  0.1000000000D+01
 ****
     16 0
 S   6 1.00       0.000000000000
      0.3047524880D+04  0.1834737132D-02
      0.4573695180D+03  0.1403732281D-01
      0.1039486850D+03  0.6884262226D-01
      0.2921015530D+02  0.2321844432D+00
      0.9286662960D+01  0.4679413484D+00
      0.3163926960D+01  0.3623119853D+00
 SP   3 1.00       0.000000000000
      0.7868272350D+01 -0.1193324198D+00  0.6899906659D-01
      0.1881288540D+01 -0.1608541517D+00  0.3164239610D+00
      0.5442492580D+00  0.1143456438D+01  0.7443082909D+00
 SP   1 1.00       0.000000000000
      0.1687144782D+00  0.1000000000D+01  0.1000000000D+01
 D   1 1.00       0.000000000000
      0.8000000000D+00  0.1000000000D+01
 ****
     17 0
 S   3 1.00       0.000000000000
      0.1873113696D+02  0.3349460434D-01
      0.2825394365D+01  0.2347269535D+00
      0.6401216923D+00  0.8137573261D+00
 S   1 1.00       0.000000000000
      0.1612777588D+00  0.1000000000D+01
 ****
     18 0
 S   6 1.00       0.000000000000
      0.3047524880D+04  0.1834737132D-02
      0.4573695180D+03  0.1403732281D-01
      0.1039486850D+03  0.6884262226D-01
      0.2921015530D+02  0.2321844432D+00
      0.9286662960D+01  0.4679413484D+00
      0.3163926960D+01  0.3623119853D+00
 SP   3 1.00       0.000000000000
      0.7868272350D+01 -0.1193324198D+00  0.6899906659D-01
      0.1881288540D+01 -0.1608541517D+00  0.3164239610D+00
      0.5442492580D+00  0.1143456438D+01  0.7443082909D+00
 SP   1 1.00       0.000000000000
      0.1687144782D+00  0.1000000000D+01  0.1000000000D+01
 D   1 1.00       0.000000000000
      0.8000000000D+00  0.1000000000D+01
 ****
     19 0
 S   3 1.00       0.000000000000
      0.1873113696D+02  0.3349460434D-01
      0.2825394365D+01  0.2347269535D+00
      0.6401216923D+00  0.8137573261D+00
 S   1 1.00       0.000000000000
      0.1612777588D+00  0.1000000000D+01
 ****
     20 0
 S   6 1.00       0.000000000000
      0.3047524880D+04  0.1834737132D-02
      0.4573695180D+03  0.1403732281D-01
      0.1039486850D+03  0.6884262226D-01
      0.2921015530D+02  0.2321844432D+00
      0.9286662960D+01  0.4679413484D+00
      0.3163926960D+01  0.3623119853D+00
 SP   3 1.00       0.000000000000
      0.7868272350D+01 -0.1193324198D+00  0.6899906659D-01
      0.1881288540D+01 -0.1608541517D+00  0.3164239610D+00
      0.5442492580D+00  0.1143456438D+01  0.7443082909D+00
 SP   1 1.00       0.000000000000
      0.1687144782D+00  0.1000000000D+01  0.1000000000D+01
 D   1 1.00       0.000000000000
      0.8000000000D+00  0.1000000000D+01
 ****
     21 0
 S   3 1.00       0.000000000000
      0.1873113696D+02  0.3349460434D-01
      0.2825394365D+01  0.2347269535D+00
      0.6401216923D+00  0.8137573261D+00
 S   1 1.00       0.000000000000
      0.1612777588D+00  0.1000000000D+01
 ****
     22 0
 S   6 1.00       0.000000000000
      0.3047524880D+04  0.1834737132D-02
      0.4573695180D+03  0.1403732281D-01
      0.1039486850D+03  0.6884262226D-01
      0.2921015530D+02  0.2321844432D+00
      0.9286662960D+01  0.4679413484D+00
      0.3163926960D+01  0.3623119853D+00
 SP   3 1.00       0.000000000000
      0.7868272350D+01 -0.1193324198D+00  0.6899906659D-01
      0.1881288540D+01 -0.1608541517D+00  0.3164239610D+00
      0.5442492580D+00  0.1143456438D+01  0.7443082909D+00
 SP   1 1.00       0.000000000000
      0.1687144782D+00  0.1000000000D+01  0.1000000000D+01
 D   1 1.00       0.000000000000
      0.8000000000D+00  0.1000000000D+01
 ****
     23 0
 S   3 1.00       0.000000000000
      0.1873113696D+02  0.3349460434D-01
      0.2825394365D+01  0.2347269535D+00
      0.6401216923D+00  0.8137573261D+00
 S   1 1.00       0.000000000000
      0.1612777588D+00  0.1000000000D+01
 ****
     24 0
 S   3 1.00       0.000000000000
      0.1873113696D+02  0.3349460434D-01
      0.2825394365D+01  0.2347269535D+00
      0.6401216923D+00  0.8137573261D+00
 S   1 1.00       0.000000000000
      0.1612777588D+00  0.1000000000D+01
 ****
     25 0
 S   6 1.00       0.000000000000
      0.3047524880D+04  0.1834737132D-02
      0.4573695180D+03  0.1403732281D-01
      0.1039486850D+03  0.6884262226D-01
      0.2921015530D+02  0.2321844432D+00
      0.9286662960D+01  0.4679413484D+00
      0.3163926960D+01  0.3623119853D+00
 SP   3 1.00       0.000000000000
      0.7868272350D+01 -0.1193324198D+00  0.6899906659D-01
      0.1881288540D+01 -0.1608541517D+00  0.3164239610D+00
      0.5442492580D+00  0.1143456438D+01  0.7443082909D+00
 SP   1 1.00       0.000000000000
      0.1687144782D+00  0.1000000000D+01  0.1000000000D+01
 D   1 1.00       0.000000000000
      0.8000000000D+00  0.1000000000D+01
 ****
     26 0
 S   3 1.00       0.000000000000
      0.1873113696D+02  0.3349460434D-01
      0.2825394365D+01  0.2347269535D+00
      0.6401216923D+00  0.8137573261D+00
 S   1 1.00       0.000000000000
      0.1612777588D+00  0.1000000000D+01
 ****
     27 0
 S   3 1.00       0.000000000000
      0.1873113696D+02  0.3349460434D-01
      0.2825394365D+01  0.2347269535D+00
      0.6401216923D+00  0.8137573261D+00
 S   1 1.00       0.000000000000
      0.1612777588D+00  0.1000000000D+01
 ****
     28 0
 S   6 1.00       0.000000000000
      0.3047524880D+04  0.1834737132D-02
      0.4573695180D+03  0.1403732281D-01
      0.1039486850D+03  0.6884262226D-01
      0.2921015530D+02  0.2321844432D+00
      0.9286662960D+01  0.4679413484D+00
      0.3163926960D+01  0.3623119853D+00
 SP   3 1.00       0.000000000000
      0.7868272350D+01 -0.1193324198D+00  0.6899906659D-01
      0.1881288540D+01 -0.1608541517D+00  0.3164239610D+00
      0.5442492580D+00  0.1143456438D+01  0.7443082909D+00
 SP   1 1.00       0.000000000000
      0.1687144782D+00  0.1000000000D+01  0.1000000000D+01
 D   1 1.00       0.000000000000
      0.8000000000D+00  0.1000000000D+01
 ****
     29 0
 S   6 1.00       0.000000000000
      0.3047524880D+04  0.1834737132D-02
      0.4573695180D+03  0.1403732281D-01
      0.1039486850D+03  0.6884262226D-01
      0.2921015530D+02  0.2321844432D+00
      0.9286662960D+01  0.4679413484D+00
      0.3163926960D+01  0.3623119853D+00
 SP   3 1.00       0.000000000000
      0.7868272350D+01 -0.1193324198D+00  0.6899906659D-01
      0.1881288540D+01 -0.1608541517D+00  0.3164239610D+00
      0.5442492580D+00  0.1143456438D+01  0.7443082909D+00
 SP   1 1.00       0.000000000000
      0.1687144782D+00  0.1000000000D+01  0.1000000000D+01
 D   1 1.00       0.000000000000
      0.8000000000D+00  0.1000000000D+01
 ****
     30 0
 S   3 1.00       0.000000000000
      0.1873113696D+02  0.3349460434D-01
      0.2825394365D+01  0.2347269535D+00
      0.6401216923D+00  0.8137573261D+00
 S   1 1.00       0.000000000000
      0.1612777588D+00  0.1000000000D+01
 ****
     31 0
 S   6 1.00       0.000000000000
      0.3047524880D+04  0.1834737132D-02
      0.4573695180D+03  0.1403732281D-01
      0.1039486850D+03  0.6884262226D-01
      0.2921015530D+02  0.2321844432D+00
      0.9286662960D+01  0.4679413484D+00
      0.3163926960D+01  0.3623119853D+00
 SP   3 1.00       0.000000000000
      0.7868272350D+01 -0.1193324198D+00  0.6899906659D-01
      0.1881288540D+01 -0.1608541517D+00  0.3164239610D+00
      0.5442492580D+00  0.1143456438D+01  0.7443082909D+00
 SP   1 1.00       0.000000000000
      0.1687144782D+00  0.1000000000D+01  0.1000000000D+01
 D   1 1.00       0.000000000000
      0.8000000000D+00  0.1000000000D+01
 ****
     32 0
 S   3 1.00       0.000000000000
      0.1873113696D+02  0.3349460434D-01
      0.2825394365D+01  0.2347269535D+00
      0.6401216923D+00  0.8137573261D+00
 S   1 1.00       0.000000000000
      0.1612777588D+00  0.1000000000D+01
 ****
     33 0
 S   3 1.00       0.000000000000
      0.1873113696D+02  0.3349460434D-01
      0.2825394365D+01  0.2347269535D+00
      0.6401216923D+00  0.8137573261D+00
 S   1 1.00       0.000000000000
      0.1612777588D+00  0.1000000000D+01
 ****
     34 0
 S   6 1.00       0.000000000000
      0.3047524880D+04  0.1834737132D-02
      0.4573695180D+03  0.1403732281D-01
      0.1039486850D+03  0.6884262226D-01
      0.2921015530D+02  0.2321844432D+00
      0.9286662960D+01  0.4679413484D+00
      0.3163926960D+01  0.3623119853D+00
 SP   3 1.00       0.000000000000
      0.7868272350D+01 -0.1193324198D+00  0.6899906659D-01
      0.1881288540D+01 -0.1608541517D+00  0.3164239610D+00
      0.5442492580D+00  0.1143456438D+01  0.7443082909D+00
 SP   1 1.00       0.000000000000
      0.1687144782D+00  0.1000000000D+01  0.1000000000D+01
 D   1 1.00       0.000000000000
      0.8000000000D+00  0.1000000000D+01
 ****
     35 0
 S   3 1.00       0.000000000000
      0.1873113696D+02  0.3349460434D-01
      0.2825394365D+01  0.2347269535D+00
      0.6401216923D+00  0.8137573261D+00
 S   1 1.00       0.000000000000
      0.1612777588D+00  0.1000000000D+01
 ****
     36 0
 S   3 1.00       0.000000000000
      0.1873113696D+02  0.3349460434D-01
      0.2825394365D+01  0.2347269535D+00
      0.6401216923D+00  0.8137573261D+00
 S   1 1.00       0.000000000000
      0.1612777588D+00  0.1000000000D+01
 ****
     37 0
 S   6 1.00       0.000000000000
      0.3047524880D+04  0.1834737132D-02
      0.4573695180D+03  0.1403732281D-01
      0.1039486850D+03  0.6884262226D-01
      0.2921015530D+02  0.2321844432D+00
      0.9286662960D+01  0.4679413484D+00
      0.3163926960D+01  0.3623119853D+00
 SP   3 1.00       0.000000000000
      0.7868272350D+01 -0.1193324198D+00  0.6899906659D-01
      0.1881288540D+01 -0.1608541517D+00  0.3164239610D+00
      0.5442492580D+00  0.1143456438D+01  0.7443082909D+00
 SP   1 1.00       0.000000000000
      0.1687144782D+00  0.1000000000D+01  0.1000000000D+01
 D   1 1.00       0.000000000000
      0.8000000000D+00  0.1000000000D+01
 ****
     38 0
 S   3 1.00       0.000000000000
      0.1873113696D+02  0.3349460434D-01
      0.2825394365D+01  0.2347269535D+00
      0.6401216923D+00  0.8137573261D+00
 S   1 1.00       0.000000000000
      0.1612777588D+00  0.1000000000D+01
 ****
     39 0
 S   6 1.00       0.000000000000
      0.3047524880D+04  0.1834737132D-02
      0.4573695180D+03  0.1403732281D-01
      0.1039486850D+03  0.6884262226D-01
      0.2921015530D+02  0.2321844432D+00
      0.9286662960D+01  0.4679413484D+00
      0.3163926960D+01  0.3623119853D+00
 SP   3 1.00       0.000000000000
      0.7868272350D+01 -0.1193324198D+00  0.6899906659D-01
      0.1881288540D+01 -0.1608541517D+00  0.3164239610D+00
      0.5442492580D+00  0.1143456438D+01  0.7443082909D+00
 SP   1 1.00       0.000000000000
      0.1687144782D+00  0.1000000000D+01  0.1000000000D+01
 D   1 1.00       0.000000000000
      0.8000000000D+00  0.1000000000D+01
 ****
     40 0
 S   3 1.00       0.000000000000
      0.1873113696D+02  0.3349460434D-01
      0.2825394365D+01  0.2347269535D+00
      0.6401216923D+00  0.8137573261D+00
 S   1 1.00       0.000000000000
      0.1612777588D+00  0.1000000000D+01
 ****
     41 0
 S   3 1.00       0.000000000000
      0.1873113696D+02  0.3349460434D-01
      0.2825394365D+01  0.2347269535D+00
      0.6401216923D+00  0.8137573261D+00
 S   1 1.00       0.000000000000
      0.1612777588D+00  0.1000000000D+01
 ****
     42 0
 S   3 1.00       0.000000000000
      0.1873113696D+02  0.3349460434D-01
      0.2825394365D+01  0.2347269535D+00
      0.6401216923D+00  0.8137573261D+00
 S   1 1.00       0.000000000000
      0.1612777588D+00  0.1000000000D+01
 ****
     43 0
 S   6 1.00       0.000000000000
      0.3047524880D+04  0.1834737132D-02
      0.4573695180D+03  0.1403732281D-01
      0.1039486850D+03  0.6884262226D-01
      0.2921015530D+02  0.2321844432D+00
      0.9286662960D+01  0.4679413484D+00
      0.3163926960D+01  0.3623119853D+00
 SP   3 1.00       0.000000000000
      0.7868272350D+01 -0.1193324198D+00  0.6899906659D-01
      0.1881288540D+01 -0.1608541517D+00  0.3164239610D+00
      0.5442492580D+00  0.1143456438D+01  0.7443082909D+00
 SP   1 1.00       0.000000000000
      0.1687144782D+00  0.1000000000D+01  0.1000000000D+01
 D   1 1.00       0.000000000000
      0.8000000000D+00  0.1000000000D+01
 ****
     44 0
 S   3 1.00       0.000000000000
      0.1873113696D+02  0.3349460434D-01
      0.2825394365D+01  0.2347269535D+00
      0.6401216923D+00  0.8137573261D+00
 S   1 1.00       0.000000000000
      0.1612777588D+00  0.1000000000D+01
 ****
     45 0
 S   6 1.00       0.000000000000
      0.3047524880D+04  0.1834737132D-02
      0.4573695180D+03  0.1403732281D-01
      0.1039486850D+03  0.6884262226D-01
      0.2921015530D+02  0.2321844432D+00
      0.9286662960D+01  0.4679413484D+00
      0.3163926960D+01  0.3623119853D+00
 SP   3 1.00       0.000000000000
      0.7868272350D+01 -0.1193324198D+00  0.6899906659D-01
      0.1881288540D+01 -0.1608541517D+00  0.3164239610D+00
      0.5442492580D+00  0.1143456438D+01  0.7443082909D+00
 SP   1 1.00       0.000000000000
      0.1687144782D+00  0.1000000000D+01  0.1000000000D+01
 D   1 1.00       0.000000000000
      0.8000000000D+00  0.1000000000D+01
 ****
     46 0
 S   3 1.00       0.000000000000
      0.1873113696D+02  0.3349460434D-01
      0.2825394365D+01  0.2347269535D+00
      0.6401216923D+00  0.8137573261D+00
 S   1 1.00       0.000000000000
      0.1612777588D+00  0.1000000000D+01
 ****
     47 0
 S   3 1.00       0.000000000000
      0.1873113696D+02  0.3349460434D-01
      0.2825394365D+01  0.2347269535D+00
      0.6401216923D+00  0.8137573261D+00
 S   1 1.00       0.000000000000
      0.1612777588D+00  0.1000000000D+01
 ****
     48 0
 S   3 1.00       0.000000000000
      0.1873113696D+02  0.3349460434D-01
      0.2825394365D+01  0.2347269535D+00
      0.6401216923D+00  0.8137573261D+00
 S   1 1.00       0.000000000000
      0.1612777588D+00  0.1000000000D+01
 ****
     49 0
 S   6 1.00       0.000000000000
      0.3047524880D+04  0.1834737132D-02
      0.4573695180D+03  0.1403732281D-01
      0.1039486850D+03  0.6884262226D-01
      0.2921015530D+02  0.2321844432D+00
      0.9286662960D+01  0.4679413484D+00
      0.3163926960D+01  0.3623119853D+00
 SP   3 1.00       0.000000000000
      0.7868272350D+01 -0.1193324198D+00  0.6899906659D-01
      0.1881288540D+01 -0.1608541517D+00  0.3164239610D+00
      0.5442492580D+00  0.1143456438D+01  0.7443082909D+00
 SP   1 1.00       0.000000000000
      0.1687144782D+00  0.1000000000D+01  0.1000000000D+01
 D   1 1.00       0.000000000000
      0.8000000000D+00  0.1000000000D+01
 ****
     50 0
 S   3 1.00       0.000000000000
      0.1873113696D+02  0.3349460434D-01
      0.2825394365D+01  0.2347269535D+00
      0.6401216923D+00  0.8137573261D+00
 S   1 1.00       0.000000000000
      0.1612777588D+00  0.1000000000D+01
 ****
     51 0
 S   3 1.00       0.000000000000
      0.1873113696D+02  0.3349460434D-01
      0.2825394365D+01  0.2347269535D+00
      0.6401216923D+00  0.8137573261D+00
 S   1 1.00       0.000000000000
      0.1612777588D+00  0.1000000000D+01
 ****
     52 0
 S   3 1.00       0.000000000000
      0.1873113696D+02  0.3349460434D-01
      0.2825394365D+01  0.2347269535D+00
      0.6401216923D+00  0.8137573261D+00
 S   1 1.00       0.000000000000
      0.1612777588D+00  0.1000000000D+01
 ****
     53 0
 S   6 1.00       0.000000000000
      0.5484671660D+04  0.1831074430D-02
      0.8252349460D+03  0.1395017220D-01
      0.1880469580D+03  0.6844507810D-01
      0.5296450000D+02  0.2327143360D+00
      0.1689757040D+02  0.4701928980D+00
      0.5799635340D+01  0.3585208530D+00
 SP   3 1.00       0.000000000000
      0.1553961625D+02 -0.1107775495D+00  0.7087426823D-01
      0.3599933586D+01 -0.1480262627D+00  0.3397528391D+00
      0.1013761750D+01  0.1130767015D+01  0.7271585773D+00
 SP   1 1.00       0.000000000000
      0.2700058226D+00  0.1000000000D+01  0.1000000000D+01
 D   1 1.00       0.000000000000
      0.8000000000D+00  0.1000000000D+01
 ****
     54 0
 S   6 1.00       0.000000000000
      0.5484671660D+04  0.1831074430D-02
      0.8252349460D+03  0.1395017220D-01
      0.1880469580D+03  0.6844507810D-01
      0.5296450000D+02  0.2327143360D+00
      0.1689757040D+02  0.4701928980D+00
      0.5799635340D+01  0.3585208530D+00
 SP   3 1.00       0.000000000000
      0.1553961625D+02 -0.1107775495D+00  0.7087426823D-01
      0.3599933586D+01 -0.1480262627D+00  0.3397528391D+00
      0.1013761750D+01  0.1130767015D+01  0.7271585773D+00
 SP   1 1.00       0.000000000000
      0.2700058226D+00  0.1000000000D+01  0.1000000000D+01
 D   1 1.00       0.000000000000
      0.8000000000D+00  0.1000000000D+01
 ****
     55 0
 S   3 1.00       0.000000000000
      0.1873113696D+02  0.3349460434D-01
      0.2825394365D+01  0.2347269535D+00
      0.6401216923D+00  0.8137573261D+00
 S   1 1.00       0.000000000000
      0.1612777588D+00  0.1000000000D+01
 ****
     56 0
 S   6 1.00       0.000000000000
      0.5484671660D+04  0.1831074430D-02
      0.8252349460D+03  0.1395017220D-01
      0.1880469580D+03  0.6844507810D-01
      0.5296450000D+02  0.2327143360D+00
      0.1689757040D+02  0.4701928980D+00
      0.5799635340D+01  0.3585208530D+00
 SP   3 1.00       0.000000000000
      0.1553961625D+02 -0.1107775495D+00  0.7087426823D-01
      0.3599933586D+01 -0.1480262627D+00  0.3397528391D+00
      0.1013761750D+01  0.1130767015D+01  0.7271585773D+00
 SP   1 1.00       0.000000000000
      0.2700058226D+00  0.1000000000D+01  0.1000000000D+01
 D   1 1.00       0.000000000000
      0.8000000000D+00  0.1000000000D+01
 ****
     57 0
 S   3 1.00       0.000000000000
      0.1873113696D+02  0.3349460434D-01
      0.2825394365D+01  0.2347269535D+00
      0.6401216923D+00  0.8137573261D+00
 S   1 1.00       0.000000000000
      0.1612777588D+00  0.1000000000D+01
 ****
     58 0
 S   6 1.00       0.000000000000
      0.3047524880D+04  0.1834737132D-02
      0.4573695180D+03  0.1403732281D-01
      0.1039486850D+03  0.6884262226D-01
      0.2921015530D+02  0.2321844432D+00
      0.9286662960D+01  0.4679413484D+00
      0.3163926960D+01  0.3623119853D+00
 SP   3 1.00       0.000000000000
      0.7868272350D+01 -0.1193324198D+00  0.6899906659D-01
      0.1881288540D+01 -0.1608541517D+00  0.3164239610D+00
      0.5442492580D+00  0.1143456438D+01  0.7443082909D+00
 SP   1 1.00       0.000000000000
      0.1687144782D+00  0.1000000000D+01  0.1000000000D+01
 D   1 1.00       0.000000000000
      0.8000000000D+00  0.1000000000D+01
 ****
     59 0
 S   3 1.00       0.000000000000
      0.1873113696D+02  0.3349460434D-01
      0.2825394365D+01  0.2347269535D+00
      0.6401216923D+00  0.8137573261D+00
 S   1 1.00       0.000000000000
      0.1612777588D+00  0.1000000000D+01
 ****
     60 0
 S   3 1.00       0.000000000000
      0.1873113696D+02  0.3349460434D-01
      0.2825394365D+01  0.2347269535D+00
      0.6401216923D+00  0.8137573261D+00
 S   1 1.00       0.000000000000
      0.1612777588D+00  0.1000000000D+01
 ****
     61 0
 S   6 1.00       0.000000000000
      0.3047524880D+04  0.1834737132D-02
      0.4573695180D+03  0.1403732281D-01
      0.1039486850D+03  0.6884262226D-01
      0.2921015530D+02  0.2321844432D+00
      0.9286662960D+01  0.4679413484D+00
      0.3163926960D+01  0.3623119853D+00
 SP   3 1.00       0.000000000000
      0.7868272350D+01 -0.1193324198D+00  0.6899906659D-01
      0.1881288540D+01 -0.1608541517D+00  0.3164239610D+00
      0.5442492580D+00  0.1143456438D+01  0.7443082909D+00
 SP   1 1.00       0.000000000000
      0.1687144782D+00  0.1000000000D+01  0.1000000000D+01
 D   1 1.00       0.000000000000
      0.8000000000D+00  0.1000000000D+01
 ****
     62 0
 S   3 1.00       0.000000000000
      0.1873113696D+02  0.3349460434D-01
      0.2825394365D+01  0.2347269535D+00
      0.6401216923D+00  0.8137573261D+00
 S   1 1.00       0.000000000000
      0.1612777588D+00  0.1000000000D+01
 ****
     63 0
 S   3 1.00       0.000000000000
      0.1873113696D+02  0.3349460434D-01
      0.2825394365D+01  0.2347269535D+00
      0.6401216923D+00  0.8137573261D+00
 S   1 1.00       0.000000000000
      0.1612777588D+00  0.1000000000D+01
 ****
     64 0
 S   6 1.00       0.000000000000
      0.3047524880D+04  0.1834737132D-02
      0.4573695180D+03  0.1403732281D-01
      0.1039486850D+03  0.6884262226D-01
      0.2921015530D+02  0.2321844432D+00
      0.9286662960D+01  0.4679413484D+00
      0.3163926960D+01  0.3623119853D+00
 SP   3 1.00       0.000000000000
      0.7868272350D+01 -0.1193324198D+00  0.6899906659D-01
      0.1881288540D+01 -0.1608541517D+00  0.3164239610D+00
      0.5442492580D+00  0.1143456438D+01  0.7443082909D+00
 SP   1 1.00       0.000000000000
      0.1687144782D+00  0.1000000000D+01  0.1000000000D+01
 D   1 1.00       0.000000000000
      0.8000000000D+00  0.1000000000D+01
 ****
     65 0
 S   3 1.00       0.000000000000
      0.1873113696D+02  0.3349460434D-01
      0.2825394365D+01  0.2347269535D+00
      0.6401216923D+00  0.8137573261D+00
 S   1 1.00       0.000000000000
      0.1612777588D+00  0.1000000000D+01
 ****
     66 0
 S   3 1.00       0.000000000000
      0.1873113696D+02  0.3349460434D-01
      0.2825394365D+01  0.2347269535D+00
      0.6401216923D+00  0.8137573261D+00
 S   1 1.00       0.000000000000
      0.1612777588D+00  0.1000000000D+01
 ****
     67 0
 S   6 1.00       0.000000000000
      0.3047524880D+04  0.1834737132D-02
      0.4573695180D+03  0.1403732281D-01
      0.1039486850D+03  0.6884262226D-01
      0.2921015530D+02  0.2321844432D+00
      0.9286662960D+01  0.4679413484D+00
      0.3163926960D+01  0.3623119853D+00
 SP   3 1.00       0.000000000000
      0.7868272350D+01 -0.1193324198D+00  0.6899906659D-01
      0.1881288540D+01 -0.1608541517D+00  0.3164239610D+00
      0.5442492580D+00  0.1143456438D+01  0.7443082909D+00
 SP   1 1.00       0.000000000000
      0.1687144782D+00  0.1000000000D+01  0.1000000000D+01
 D   1 1.00       0.000000000000
      0.8000000000D+00  0.1000000000D+01
 ****
     68 0
 S   3 1.00       0.000000000000
      0.1873113696D+02  0.3349460434D-01
      0.2825394365D+01  0.2347269535D+00
      0.6401216923D+00  0.8137573261D+00
 S   1 1.00       0.000000000000
      0.1612777588D+00  0.1000000000D+01
 ****
     69 0
 S   6 1.00       0.000000000000
      0.3047524880D+04  0.1834737132D-02
      0.4573695180D+03  0.1403732281D-01
      0.1039486850D+03  0.6884262226D-01
      0.2921015530D+02  0.2321844432D+00
      0.9286662960D+01  0.4679413484D+00
      0.3163926960D+01  0.3623119853D+00
 SP   3 1.00       0.000000000000
      0.7868272350D+01 -0.1193324198D+00  0.6899906659D-01
      0.1881288540D+01 -0.1608541517D+00  0.3164239610D+00
      0.5442492580D+00  0.1143456438D+01  0.7443082909D+00
 SP   1 1.00       0.000000000000
      0.1687144782D+00  0.1000000000D+01  0.1000000000D+01
 D   1 1.00       0.000000000000
      0.8000000000D+00  0.1000000000D+01
 ****
     70 0
 S   3 1.00       0.000000000000
      0.1873113696D+02  0.3349460434D-01
      0.2825394365D+01  0.2347269535D+00
      0.6401216923D+00  0.8137573261D+00
 S   1 1.00       0.000000000000
      0.1612777588D+00  0.1000000000D+01
 ****
     71 0
 S   3 1.00       0.000000000000
      0.1873113696D+02  0.3349460434D-01
      0.2825394365D+01  0.2347269535D+00
      0.6401216923D+00  0.8137573261D+00
 S   1 1.00       0.000000000000
      0.1612777588D+00  0.1000000000D+01
 ****
     72 0
 S   3 1.00       0.000000000000
      0.1873113696D+02  0.3349460434D-01
      0.2825394365D+01  0.2347269535D+00
      0.6401216923D+00  0.8137573261D+00
 S   1 1.00       0.000000000000
      0.1612777588D+00  0.1000000000D+01
 ****
     73 0
 S   6 1.00       0.000000000000
      0.3047524880D+04  0.1834737132D-02
      0.4573695180D+03  0.1403732281D-01
      0.1039486850D+03  0.6884262226D-01
      0.2921015530D+02  0.2321844432D+00
      0.9286662960D+01  0.4679413484D+00
      0.3163926960D+01  0.3623119853D+00
 SP   3 1.00       0.000000000000
      0.7868272350D+01 -0.1193324198D+00  0.6899906659D-01
      0.1881288540D+01 -0.1608541517D+00  0.3164239610D+00
      0.5442492580D+00  0.1143456438D+01  0.7443082909D+00
 SP   1 1.00       0.000000000000
      0.1687144782D+00  0.1000000000D+01  0.1000000000D+01
 D   1 1.00       0.000000000000
      0.8000000000D+00  0.1000000000D+01
 ****
     74 0
 S   3 1.00       0.000000000000
      0.1873113696D+02  0.3349460434D-01
      0.2825394365D+01  0.2347269535D+00
      0.6401216923D+00  0.8137573261D+00
 S   1 1.00       0.000000000000
      0.1612777588D+00  0.1000000000D+01
 ****
     75 0
 S   3 1.00       0.000000000000
      0.1873113696D+02  0.3349460434D-01
      0.2825394365D+01  0.2347269535D+00
      0.6401216923D+00  0.8137573261D+00
 S   1 1.00       0.000000000000
      0.1612777588D+00  0.1000000000D+01
 ****
     76 0
 S   3 1.00       0.000000000000
      0.1873113696D+02  0.3349460434D-01
      0.2825394365D+01  0.2347269535D+00
      0.6401216923D+00  0.8137573261D+00
 S   1 1.00       0.000000000000
      0.1612777588D+00  0.1000000000D+01
 ****

 AO basis set (Overlap normalization):
 Atom C1       Shell     1 S   6     bf    1 -     1          3.325576501469         -2.356408136553         -0.143909977157
      0.3047524880D+04  0.1834737132D-02
      0.4573695180D+03  0.1403732281D-01
      0.1039486850D+03  0.6884262226D-01
      0.2921015530D+02  0.2321844432D+00
      0.9286662960D+01  0.4679413484D+00
      0.3163926960D+01  0.3623119853D+00
 Atom C1       Shell     2 SP   3    bf    2 -     5          3.325576501469         -2.356408136553         -0.143909977157
      0.7868272350D+01 -0.1193324198D+00  0.6899906659D-01
      0.1881288540D+01 -0.1608541517D+00  0.3164239610D+00
      0.5442492580D+00  0.1143456438D+01  0.7443082909D+00
 Atom C1       Shell     3 SP   1    bf    6 -     9          3.325576501469         -2.356408136553         -0.143909977157
      0.1687144782D+00  0.1000000000D+01  0.1000000000D+01
 Atom C1       Shell     4 D   1     bf   10 -    15          3.325576501469         -2.356408136553         -0.143909977157
      0.8000000000D+00  0.1000000000D+01
 Atom H2       Shell     5 S   3     bf   16 -    16          3.539326107771         -2.112901466371         -2.191323400132
      0.1873113696D+02  0.3349460434D-01
      0.2825394365D+01  0.2347269535D+00
      0.6401216923D+00  0.8137573261D+00
 Atom H2       Shell     6 S   1     bf   17 -    17          3.539326107771         -2.112901466371         -2.191323400132
      0.1612777588D+00  0.1000000000D+01
 Atom C3       Shell     7 S   6     bf   18 -    18          5.955484984694         -2.479453364018          1.073155628741
      0.3047524880D+04  0.1834737132D-02
      0.4573695180D+03  0.1403732281D-01
      0.1039486850D+03  0.6884262226D-01
      0.2921015530D+02  0.2321844432D+00
      0.9286662960D+01  0.4679413484D+00
      0.3163926960D+01  0.3623119853D+00
 Atom C3       Shell     8 SP   3    bf   19 -    22          5.955484984694         -2.479453364018          1.073155628741
      0.7868272350D+01 -0.1193324198D+00  0.6899906659D-01
      0.1881288540D+01 -0.1608541517D+00  0.3164239610D+00
      0.5442492580D+00  0.1143456438D+01  0.7443082909D+00
 Atom C3       Shell     9 SP   1    bf   23 -    26          5.955484984694         -2.479453364018          1.073155628741
      0.1687144782D+00  0.1000000000D+01  0.1000000000D+01
 Atom C3       Shell    10 D   1     bf   27 -    32          5.955484984694         -2.479453364018          1.073155628741
      0.8000000000D+00  0.1000000000D+01
 Atom H4       Shell    11 S   3     bf   33 -    33          7.048635994620         -4.018945535592          0.229997660565
      0.1873113696D+02  0.3349460434D-01
      0.2825394365D+01  0.2347269535D+00
      0.6401216923D+00  0.8137573261D+00
 Atom H4       Shell    12 S   1     bf   34 -    34          7.048635994620         -4.018945535592          0.229997660565
      0.1612777588D+00  0.1000000000D+01
 Atom H5       Shell    13 S   3     bf   35 -    35          5.697306272946         -2.962560753849          3.082961177310
      0.1873113696D+02  0.3349460434D-01
      0.2825394365D+01  0.2347269535D+00
      0.6401216923D+00  0.8137573261D+00
 Atom H5       Shell    14 S   1     bf   36 -    36          5.697306272946         -2.962560753849          3.082961177310
      0.1612777588D+00  0.1000000000D+01
 Atom C6       Shell    15 S   6     bf   37 -    37          7.395607589427         -0.009587979069          0.857944961783
      0.3047524880D+04  0.1834737132D-02
      0.4573695180D+03  0.1403732281D-01
      0.1039486850D+03  0.6884262226D-01
      0.2921015530D+02  0.2321844432D+00
      0.9286662960D+01  0.4679413484D+00
      0.3163926960D+01  0.3623119853D+00
 Atom C6       Shell    16 SP   3    bf   38 -    41          7.395607589427         -0.009587979069          0.857944961783
      0.7868272350D+01 -0.1193324198D+00  0.6899906659D-01
      0.1881288540D+01 -0.1608541517D+00  0.3164239610D+00
      0.5442492580D+00  0.1143456438D+01  0.7443082909D+00
 Atom C6       Shell    17 SP   1    bf   42 -    45          7.395607589427         -0.009587979069          0.857944961783
      0.1687144782D+00  0.1000000000D+01  0.1000000000D+01
 Atom C6       Shell    18 D   1     bf   46 -    51          7.395607589427         -0.009587979069          0.857944961783
      0.8000000000D+00  0.1000000000D+01
 Atom C7       Shell    19 S   6     bf   52 -    52          6.024115056833          2.400336748033          1.690205087221
      0.3047524880D+04  0.1834737132D-02
      0.4573695180D+03  0.1403732281D-01
      0.1039486850D+03  0.6884262226D-01
      0.2921015530D+02  0.2321844432D+00
      0.9286662960D+01  0.4679413484D+00
      0.3163926960D+01  0.3623119853D+00
 Atom C7       Shell    20 SP   3    bf   53 -    56          6.024115056833          2.400336748033          1.690205087221
      0.7868272350D+01 -0.1193324198D+00  0.6899906659D-01
      0.1881288540D+01 -0.1608541517D+00  0.3164239610D+00
      0.5442492580D+00  0.1143456438D+01  0.7443082909D+00
 Atom C7       Shell    21 SP   1    bf   57 -    60          6.024115056833          2.400336748033          1.690205087221
      0.1687144782D+00  0.1000000000D+01  0.1000000000D+01
 Atom C7       Shell    22 D   1     bf   61 -    66          6.024115056833          2.400336748033          1.690205087221
      0.8000000000D+00  0.1000000000D+01
 Atom C8       Shell    23 S   6     bf   67 -    67          3.301078602109          2.369083191131          0.558454285640
      0.3047524880D+04  0.1834737132D-02
      0.4573695180D+03  0.1403732281D-01
      0.1039486850D+03  0.6884262226D-01
      0.2921015530D+02  0.2321844432D+00
      0.9286662960D+01  0.4679413484D+00
      0.3163926960D+01  0.3623119853D+00
 Atom C8       Shell    24 SP   3    bf   68 -    71          3.301078602109          2.369083191131          0.558454285640
      0.7868272350D+01 -0.1193324198D+00  0.6899906659D-01
      0.1881288540D+01 -0.1608541517D+00  0.3164239610D+00
      0.5442492580D+00  0.1143456438D+01  0.7443082909D+00
 Atom C8       Shell    25 SP   1    bf   72 -    75          3.301078602109          2.369083191131          0.558454285640
      0.1687144782D+00  0.1000000000D+01  0.1000000000D+01
 Atom C8       Shell    26 D   1     bf   76 -    81          3.301078602109          2.369083191131          0.558454285640
      0.8000000000D+00  0.1000000000D+01
 Atom H9       Shell    27 S   3     bf   82 -    82          3.439745779774          2.744572208372         -1.479304961160
      0.1873113696D+02  0.3349460434D-01
      0.2825394365D+01  0.2347269535D+00
      0.6401216923D+00  0.8137573261D+00
 Atom H9       Shell    28 S   1     bf   83 -    83          3.439745779774          2.744572208372         -1.479304961160
      0.1612777588D+00  0.1000000000D+01
 Atom H10      Shell    29 S   3     bf   84 -    84          2.198222601271          3.922179463341          1.367518646406
      0.1873113696D+02  0.3349460434D-01
      0.2825394365D+01  0.2347269535D+00
      0.6401216923D+00  0.8137573261D+00
 Atom H10      Shell    30 S   1     bf   85 -    85          2.198222601271          3.922179463341          1.367518646406
      0.1612777588D+00  0.1000000000D+01
 Atom C11      Shell    31 S   6     bf   86 -    86          1.848246474193         -0.117662947287          0.927012222063
      0.3047524880D+04  0.1834737132D-02
      0.4573695180D+03  0.1403732281D-01
      0.1039486850D+03  0.6884262226D-01
      0.2921015530D+02  0.2321844432D+00
      0.9286662960D+01  0.4679413484D+00
      0.3163926960D+01  0.3623119853D+00
 Atom C11      Shell    32 SP   3    bf   87 -    90          1.848246474193         -0.117662947287          0.927012222063
      0.7868272350D+01 -0.1193324198D+00  0.6899906659D-01
      0.1881288540D+01 -0.1608541517D+00  0.3164239610D+00
      0.5442492580D+00  0.1143456438D+01  0.7443082909D+00
 Atom C11      Shell    33 SP   1    bf   91 -    94          1.848246474193         -0.117662947287          0.927012222063
      0.1687144782D+00  0.1000000000D+01  0.1000000000D+01
 Atom C11      Shell    34 D   1     bf   95 -   100          1.848246474193         -0.117662947287          0.927012222063
      0.8000000000D+00  0.1000000000D+01
 Atom H12      Shell    35 S   3     bf  101 -   101          1.480399509433         -0.453233181828          2.945394991884
      0.1873113696D+02  0.3349460434D-01
      0.2825394365D+01  0.2347269535D+00
      0.6401216923D+00  0.8137573261D+00
 Atom H12      Shell    36 S   1     bf  102 -   102          1.480399509433         -0.453233181828          2.945394991884
      0.1612777588D+00  0.1000000000D+01
 Atom H13      Shell    37 S   3     bf  103 -   103          0.000000000000          0.000000000000          0.000000000000
      0.1873113696D+02  0.3349460434D-01
      0.2825394365D+01  0.2347269535D+00
      0.6401216923D+00  0.8137573261D+00
 Atom H13      Shell    38 S   1     bf  104 -   104          0.000000000000          0.000000000000          0.000000000000
      0.1612777588D+00  0.1000000000D+01
 Atom C14      Shell    39 S   6     bf  105 -   105          9.777068127680          0.000000000000          0.000000000000
      0.3047524880D+04  0.1834737132D-02
      0.4573695180D+03  0.1403732281D-01
      0.1039486850D+03  0.6884262226D-01
      0.2921015530D+02  0.2321844432D+00
      0.9286662960D+01  0.4679413484D+00
      0.3163926960D+01  0.3623119853D+00
 Atom C14      Shell    40 SP   3    bf  106 -   109          9.777068127680          0.000000000000          0.000000000000
      0.7868272350D+01 -0.1193324198D+00  0.6899906659D-01
      0.1881288540D+01 -0.1608541517D+00  0.3164239610D+00
      0.5442492580D+00  0.1143456438D+01  0.7443082909D+00
 Atom C14      Shell    41 SP   1    bf  110 -   113          9.777068127680          0.000000000000          0.000000000000
      0.1687144782D+00  0.1000000000D+01  0.1000000000D+01
 Atom C14      Shell    42 D   1     bf  114 -   119          9.777068127680          0.000000000000          0.000000000000
      0.8000000000D+00  0.1000000000D+01
 Atom H15      Shell    43 S   3     bf  120 -   120         10.658220513745         -1.763427061582         -0.582191834794
      0.1873113696D+02  0.3349460434D-01
      0.2825394365D+01  0.2347269535D+00
      0.6401216923D+00  0.8137573261D+00
 Atom H15      Shell    44 S   1     bf  121 -   121         10.658220513745         -1.763427061582         -0.582191834794
      0.1612777588D+00  0.1000000000D+01
 Atom C16      Shell    45 S   6     bf  122 -   122         11.451676870489          2.280968946520         -0.174894040215
      0.3047524880D+04  0.1834737132D-02
      0.4573695180D+03  0.1403732281D-01
      0.1039486850D+03  0.6884262226D-01
      0.2921015530D+02  0.2321844432D+00
      0.9286662960D+01  0.4679413484D+00
      0.3163926960D+01  0.3623119853D+00
 Atom C16      Shell    46 SP   3    bf  123 -   126         11.451676870489          2.280968946520         -0.174894040215
      0.7868272350D+01 -0.1193324198D+00  0.6899906659D-01
      0.1881288540D+01 -0.1608541517D+00  0.3164239610D+00
      0.5442492580D+00  0.1143456438D+01  0.7443082909D+00
 Atom C16      Shell    47 SP   1    bf  127 -   130         11.451676870489          2.280968946520         -0.174894040215
      0.1687144782D+00  0.1000000000D+01  0.1000000000D+01
 Atom C16      Shell    48 D   1     bf  131 -   136         11.451676870489          2.280968946520         -0.174894040215
      0.8000000000D+00  0.1000000000D+01
 Atom H17      Shell    49 S   3     bf  137 -   137         11.940151725044          2.658280453439         -2.162035952093
      0.1873113696D+02  0.3349460434D-01
      0.2825394365D+01  0.2347269535D+00
      0.6401216923D+00  0.8137573261D+00
 Atom H17      Shell    50 S   1     bf  138 -   138         11.940151725044          2.658280453439         -2.162035952093
      0.1612777588D+00  0.1000000000D+01
 Atom C18      Shell    51 S   6     bf  139 -   139         10.358212449484          4.675212310432          1.055877201304
      0.3047524880D+04  0.1834737132D-02
      0.4573695180D+03  0.1403732281D-01
      0.1039486850D+03  0.6884262226D-01
      0.2921015530D+02  0.2321844432D+00
      0.9286662960D+01  0.4679413484D+00
      0.3163926960D+01  0.3623119853D+00
 Atom C18      Shell    52 SP   3    bf  140 -   143         10.358212449484          4.675212310432          1.055877201304
      0.7868272350D+01 -0.1193324198D+00  0.6899906659D-01
      0.1881288540D+01 -0.1608541517D+00  0.3164239610D+00
      0.5442492580D+00  0.1143456438D+01  0.7443082909D+00
 Atom C18      Shell    53 SP   1    bf  144 -   147         10.358212449484          4.675212310432          1.055877201304
      0.1687144782D+00  0.1000000000D+01  0.1000000000D+01
 Atom C18      Shell    54 D   1     bf  148 -   153         10.358212449484          4.675212310432          1.055877201304
      0.8000000000D+00  0.1000000000D+01
 Atom H19      Shell    55 S   3     bf  154 -   154         10.765097055443          4.545108275560          3.086323453634
      0.1873113696D+02  0.3349460434D-01
      0.2825394365D+01  0.2347269535D+00
      0.6401216923D+00  0.8137573261D+00
 Atom H19      Shell    56 S   1     bf  155 -   155         10.765097055443          4.545108275560          3.086323453634
      0.1612777588D+00  0.1000000000D+01
 Atom C20      Shell    57 S   6     bf  156 -   156          7.451439037797          4.774688363341          0.644423237555
      0.3047524880D+04  0.1834737132D-02
      0.4573695180D+03  0.1403732281D-01
      0.1039486850D+03  0.6884262226D-01
      0.2921015530D+02  0.2321844432D+00
      0.9286662960D+01  0.4679413484D+00
      0.3163926960D+01  0.3623119853D+00
 Atom C20      Shell    58 SP   3    bf  157 -   160          7.451439037797          4.774688363341          0.644423237555
      0.7868272350D+01 -0.1193324198D+00  0.6899906659D-01
      0.1881288540D+01 -0.1608541517D+00  0.3164239610D+00
      0.5442492580D+00  0.1143456438D+01  0.7443082909D+00
 Atom C20      Shell    59 SP   1    bf  161 -   164          7.451439037797          4.774688363341          0.644423237555
      0.1687144782D+00  0.1000000000D+01  0.1000000000D+01
 Atom C20      Shell    60 D   1     bf  165 -   170          7.451439037797          4.774688363341          0.644423237555
      0.8000000000D+00  0.1000000000D+01
 Atom H21      Shell    61 S   3     bf  171 -   171          7.170622559710          4.729398128594         -1.418961300319
      0.1873113696D+02  0.3349460434D-01
      0.2825394365D+01  0.2347269535D+00
      0.6401216923D+00  0.8137573261D+00
 Atom H21      Shell    62 S   1     bf  172 -   172          7.170622559710          4.729398128594         -1.418961300319
      0.1612777588D+00  0.1000000000D+01
 Atom C22      Shell    63 S   6     bf  173 -   173          6.342405087594          7.304787729426          1.592308467413
      0.3047524880D+04  0.1834737132D-02
      0.4573695180D+03  0.1403732281D-01
      0.1039486850D+03  0.6884262226D-01
      0.2921015530D+02  0.2321844432D+00
      0.9286662960D+01  0.4679413484D+00
      0.3163926960D+01  0.3623119853D+00
 Atom C22      Shell    64 SP   3    bf  174 -   177          6.342405087594          7.304787729426          1.592308467413
      0.7868272350D+01 -0.1193324198D+00  0.6899906659D-01
      0.1881288540D+01 -0.1608541517D+00  0.3164239610D+00
      0.5442492580D+00  0.1143456438D+01  0.7443082909D+00
 Atom C22      Shell    65 SP   1    bf  178 -   181          6.342405087594          7.304787729426          1.592308467413
      0.1687144782D+00  0.1000000000D+01  0.1000000000D+01
 Atom C22      Shell    66 D   1     bf  182 -   187          6.342405087594          7.304787729426          1.592308467413
      0.8000000000D+00  0.1000000000D+01
 Atom H23      Shell    67 S   3     bf  188 -   188          6.400910630723          7.360772302304          3.660790541531
      0.1873113696D+02  0.3349460434D-01
      0.2825394365D+01  0.2347269535D+00
      0.6401216923D+00  0.8137573261D+00
 Atom H23      Shell    68 S   1     bf  189 -   189          6.400910630723          7.360772302304          3.660790541531
      0.1612777588D+00  0.1000000000D+01
 Atom H24      Shell    69 S   3     bf  190 -   190          4.341446991116          7.419555597380          1.075249709858
      0.1873113696D+02  0.3349460434D-01
      0.2825394365D+01  0.2347269535D+00
      0.6401216923D+00  0.8137573261D+00
 Atom H24      Shell    70 S   1     bf  191 -   191          4.341446991116          7.419555597380          1.075249709858
      0.1612777588D+00  0.1000000000D+01
 Atom C25      Shell    71 S   6     bf  192 -   192          7.693064050977          9.665638196378          0.552834882627
      0.3047524880D+04  0.1834737132D-02
      0.4573695180D+03  0.1403732281D-01
      0.1039486850D+03  0.6884262226D-01
      0.2921015530D+02  0.2321844432D+00
      0.9286662960D+01  0.4679413484D+00
      0.3163926960D+01  0.3623119853D+00
 Atom C25      Shell    72 SP   3    bf  193 -   196          7.693064050977          9.665638196378          0.552834882627
      0.7868272350D+01 -0.1193324198D+00  0.6899906659D-01
      0.1881288540D+01 -0.1608541517D+00  0.3164239610D+00
      0.5442492580D+00  0.1143456438D+01  0.7443082909D+00
 Atom C25      Shell    73 SP   1    bf  197 -   200          7.693064050977          9.665638196378          0.552834882627
      0.1687144782D+00  0.1000000000D+01  0.1000000000D+01
 Atom C25      Shell    74 D   1     bf  201 -   206          7.693064050977          9.665638196378          0.552834882627
      0.8000000000D+00  0.1000000000D+01
 Atom H26      Shell    75 S   3     bf  207 -   207          7.400499428981          9.778753442137         -1.501389302304
      0.1873113696D+02  0.3349460434D-01
      0.2825394365D+01  0.2347269535D+00
      0.6401216923D+00  0.8137573261D+00
 Atom H26      Shell    76 S   1     bf  208 -   208          7.400499428981          9.778753442137         -1.501389302304
      0.1612777588D+00  0.1000000000D+01
 Atom H27      Shell    77 S   3     bf  209 -   209          6.795359383639         11.342057977123          1.365291245111
      0.1873113696D+02  0.3349460434D-01
      0.2825394365D+01  0.2347269535D+00
      0.6401216923D+00  0.8137573261D+00
 Atom H27      Shell    78 S   1     bf  210 -   210          6.795359383639         11.342057977123          1.365291245111
      0.1612777588D+00  0.1000000000D+01
 Atom C28      Shell    79 S   6     bf  211 -   211         10.557969370765          9.607423330922          1.084062901213
      0.3047524880D+04  0.1834737132D-02
      0.4573695180D+03  0.1403732281D-01
      0.1039486850D+03  0.6884262226D-01
      0.2921015530D+02  0.2321844432D+00
      0.9286662960D+01  0.4679413484D+00
      0.3163926960D+01  0.3623119853D+00
 Atom C28      Shell    80 SP   3    bf  212 -   215         10.557969370765          9.607423330922          1.084062901213
      0.7868272350D+01 -0.1193324198D+00  0.6899906659D-01
      0.1881288540D+01 -0.1608541517D+00  0.3164239610D+00
      0.5442492580D+00  0.1143456438D+01  0.7443082909D+00
 Atom C28      Shell    81 SP   1    bf  216 -   219         10.557969370765          9.607423330922          1.084062901213
      0.1687144782D+00  0.1000000000D+01  0.1000000000D+01
 Atom C28      Shell    82 D   1     bf  220 -   225         10.557969370765          9.607423330922          1.084062901213
      0.8000000000D+00  0.1000000000D+01
 Atom C29      Shell    83 S   6     bf  226 -   226         11.567523375223          7.084073858715         -0.041768257667
      0.3047524880D+04  0.1834737132D-02
      0.4573695180D+03  0.1403732281D-01
      0.1039486850D+03  0.6884262226D-01
      0.2921015530D+02  0.2321844432D+00
      0.9286662960D+01  0.4679413484D+00
      0.3163926960D+01  0.3623119853D+00
 Atom C29      Shell    84 SP   3    bf  227 -   230         11.567523375223          7.084073858715         -0.041768257667
      0.7868272350D+01 -0.1193324198D+00  0.6899906659D-01
      0.1881288540D+01 -0.1608541517D+00  0.3164239610D+00
      0.5442492580D+00  0.1143456438D+01  0.7443082909D+00
 Atom C29      Shell    85 SP   1    bf  231 -   234         11.567523375223          7.084073858715         -0.041768257667
      0.1687144782D+00  0.1000000000D+01  0.1000000000D+01
 Atom C29      Shell    86 D   1     bf  235 -   240         11.567523375223          7.084073858715         -0.041768257667
      0.8000000000D+00  0.1000000000D+01
 Atom H30      Shell    87 S   3     bf  241 -   241         11.001846839762          7.125296080016         -2.048714877363
      0.1873113696D+02  0.3349460434D-01
      0.2825394365D+01  0.2347269535D+00
      0.6401216923D+00  0.8137573261D+00
 Atom H30      Shell    88 S   1     bf  242 -   242         11.001846839762          7.125296080016         -2.048714877363
      0.1612777588D+00  0.1000000000D+01
 Atom C31      Shell    89 S   6     bf  243 -   243         14.454533256224          7.391154903329          0.000000000000
      0.3047524880D+04  0.1834737132D-02
      0.4573695180D+03  0.1403732281D-01
      0.1039486850D+03  0.6884262226D-01
      0.2921015530D+02  0.2321844432D+00
      0.9286662960D+01  0.4679413484D+00
      0.3163926960D+01  0.3623119853D+00
 Atom C31      Shell    90 SP   3    bf  244 -   247         14.454533256224          7.391154903329          0.000000000000
      0.7868272350D+01 -0.1193324198D+00  0.6899906659D-01
      0.1881288540D+01 -0.1608541517D+00  0.3164239610D+00
      0.5442492580D+00  0.1143456438D+01  0.7443082909D+00
 Atom C31      Shell    91 SP   1    bf  248 -   251         14.454533256224          7.391154903329          0.000000000000
      0.1687144782D+00  0.1000000000D+01  0.1000000000D+01
 Atom C31      Shell    92 D   1     bf  252 -   257         14.454533256224          7.391154903329          0.000000000000
      0.8000000000D+00  0.1000000000D+01
 Atom H32      Shell    93 S   3     bf  258 -   258         15.391625523144          6.180870938707         -1.390888946183
      0.1873113696D+02  0.3349460434D-01
      0.2825394365D+01  0.2347269535D+00
      0.6401216923D+00  0.8137573261D+00
 Atom H32      Shell    94 S   1     bf  259 -   259         15.391625523144          6.180870938707         -1.390888946183
      0.1612777588D+00  0.1000000000D+01
 Atom H33      Shell    95 S   3     bf  260 -   260         15.221776711553          6.865875024514          1.847739271699
      0.1873113696D+02  0.3349460434D-01
      0.2825394365D+01  0.2347269535D+00
      0.6401216923D+00  0.8137573261D+00
 Atom H33      Shell    96 S   1     bf  261 -   261         15.221776711553          6.865875024514          1.847739271699
      0.1612777588D+00  0.1000000000D+01
 Atom C34      Shell    97 S   6     bf  262 -   262         14.859558050416         10.241826579117         -0.560998423933
      0.3047524880D+04  0.1834737132D-02
      0.4573695180D+03  0.1403732281D-01
      0.1039486850D+03  0.6884262226D-01
      0.2921015530D+02  0.2321844432D+00
      0.9286662960D+01  0.4679413484D+00
      0.3163926960D+01  0.3623119853D+00
 Atom C34      Shell    98 SP   3    bf  263 -   266         14.859558050416         10.241826579117         -0.560998423933
      0.7868272350D+01 -0.1193324198D+00  0.6899906659D-01
      0.1881288540D+01 -0.1608541517D+00  0.3164239610D+00
      0.5442492580D+00  0.1143456438D+01  0.7443082909D+00
 Atom C34      Shell    99 SP   1    bf  267 -   270         14.859558050416         10.241826579117         -0.560998423933
      0.1687144782D+00  0.1000000000D+01  0.1000000000D+01
 Atom C34      Shell   100 D   1     bf  271 -   276         14.859558050416         10.241826579117         -0.560998423933
      0.8000000000D+00  0.1000000000D+01
 Atom H35      Shell   101 S   3     bf  277 -   277         16.147631438565         11.084546244214          0.826242065801
      0.1873113696D+02  0.3349460434D-01
      0.2825394365D+01  0.2347269535D+00
      0.6401216923D+00  0.8137573261D+00
 Atom H35      Shell   102 S   1     bf  278 -   278         16.147631438565         11.084546244214          0.826242065801
      0.1612777588D+00  0.1000000000D+01
 Atom H36      Shell   103 S   3     bf  279 -   279         15.733132804763         10.526304099230         -2.413330032491
      0.1873113696D+02  0.3349460434D-01
      0.2825394365D+01  0.2347269535D+00
      0.6401216923D+00  0.8137573261D+00
 Atom H36      Shell   104 S   1     bf  280 -   280         15.733132804763         10.526304099230         -2.413330032491
      0.1612777588D+00  0.1000000000D+01
 Atom C37      Shell   105 S   6     bf  281 -   281         12.207835286809         11.549792339480         -0.431607458319
      0.3047524880D+04  0.1834737132D-02
      0.4573695180D+03  0.1403732281D-01
      0.1039486850D+03  0.6884262226D-01
      0.2921015530D+02  0.2321844432D+00
      0.9286662960D+01  0.4679413484D+00
      0.3163926960D+01  0.3623119853D+00
 Atom C37      Shell   106 SP   3    bf  282 -   285         12.207835286809         11.549792339480         -0.431607458319
      0.7868272350D+01 -0.1193324198D+00  0.6899906659D-01
      0.1881288540D+01 -0.1608541517D+00  0.3164239610D+00
      0.5442492580D+00  0.1143456438D+01  0.7443082909D+00
[...]
 1595 Fit       0.000930
 1596 Fit      -0.001131
 1597 Fit       0.001529
 1598 Fit       0.001871
 1599 Fit       0.000727
 1600 Fit       0.002052
 1601 Fit       0.000294
 1602 Fit       0.001836
 1603 Fit       0.001821
 1604 Fit       0.003930
 1605 Fit       0.004381
 1606 Fit       0.003302
 1607 Fit       0.003934
 1608 Fit      -0.002195
 1609 Fit      -0.002266
 1610 Fit      -0.001717
 1611 Fit      -0.001654
 1612 Fit      -0.002096
 1613 Fit      -0.001498
 1614 Fit      -0.001724
 1615 Fit      -0.001504
 1616 Fit       0.001959
 1617 Fit      -0.000271
 1618 Fit      -0.000486
 1619 Fit      -0.000021
 1620 Fit       0.001714
 1621 Fit       0.001958
 1622 Fit       0.000521
 1623 Fit      -0.000117
 1624 Fit       0.002136
 1625 Fit       0.003247
 1626 Fit       0.002963
 1627 Fit       0.004403
 1628 Fit      -0.000105
 1629 Fit      -0.000014
 1630 Fit       0.001636
 1631 Fit      -0.000551
 1632 Fit      -0.000136
 1633 Fit       0.001640
 1634 Fit       0.002446
 1635 Fit       0.002576
 1636 Fit       0.000155
 1637 Fit       0.001968
 1638 Fit       0.003225
 1639 Fit       0.003632
 1640 Fit       0.003412
 1641 Fit       0.000540
 1642 Fit       0.000179
 1643 Fit       0.002543
 1644 Fit       0.002389
 1645 Fit       0.000030
 1646 Fit      -0.000097
 1647 Fit       0.002738
 1648 Fit       0.004315
 1649 Fit       0.003866
 1650 Fit       0.002052
 1651 Fit      -0.000441
 1652 Fit       0.005247
 1653 Fit       0.003676
 1654 Fit      -0.003428
 1655 Fit      -0.001247
 1656 Fit       0.002911
 1657 Fit      -0.003018
 1658 Fit      -0.011986
 1659 Fit      -0.018133
 1660 Fit      -0.010647
 1661 Fit      -0.004796
 1662 Fit      -0.001288
 1663 Fit       0.001717
 1664 Fit       0.001312
 1665 Fit      -0.003729
 1666 Fit      -0.007792
 1667 Fit      -0.005164
 1668 Fit      -0.001649
 1669 Fit      -0.001417
 1670 Fit      -0.005112
 1671 Fit      -0.011561
 1672 Fit      -0.003783
 1673 Fit      -0.007035
 1674 Fit      -0.009194
 1675 Fit      -0.005140
 1676 Fit      -0.004672
 1677 Fit      -0.007079
 1678 Fit      -0.014674
 1679 Fit      -0.006466
 1680 Fit      -0.004036
 1681 Fit      -0.012062
 1682 Fit      -0.005227
 1683 Fit      -0.002767
 1684 Fit      -0.010363
 1685 Fit      -0.005005
 1686 Fit       0.001458
 1687 Fit       0.011355
 1688 Fit       0.004927
 1689 Fit      -0.006719
 1690 Fit       0.008948
 1691 Fit       0.002302
 1692 Fit      -0.002436
 1693 Fit       0.000563
 1694 Fit       0.005581
 1695 Fit       0.004493
 1696 Fit       0.006196
 1697 Fit       0.004992
 1698 Fit       0.004158
 1699 Fit       0.003460
 1700 Fit       0.005470
 1701 Fit       0.006672
 1702 Fit       0.005535
 1703 Fit       0.004412
 1704 Fit       0.004204
 1705 Fit       0.004335
 1706 Fit       0.005182
 1707 Fit       0.008343
 1708 Fit       0.007325
 1709 Fit       0.008112
 1710 Fit       0.006963
 1711 Fit       0.005828
 1712 Fit       0.007406
 1713 Fit       0.006074
 1714 Fit       0.005819
 1715 Fit       0.005261
 1716 Fit       0.003740
 1717 Fit       0.003487
 1718 Fit      -0.003457
 1719 Fit       0.008002
 1720 Fit       0.009337
 1721 Fit       0.013472
 1722 Fit       0.006818
 1723 Fit       0.006482
 1724 Fit       0.008167
 1725 Fit       0.014281
 1726 Fit       0.003757
 1727 Fit       0.005338
 1728 Fit       0.002998
 1729 Fit       0.004847
 1730 Fit       0.003164
 1731 Fit       0.001068
 1732 Fit      -0.002592
 1733 Fit       0.004289
 1734 Fit       0.002817
 1735 Fit       0.000214
 1736 Fit      -0.005052
 1737 Fit       0.003370
 1738 Fit       0.001255
 1739 Fit      -0.003284
 1740 Fit      -0.013156
 1741 Fit       0.002610
 1742 Fit      -0.000958
 1743 Fit      -0.007262
 1744 Fit       0.000362
 1745 Fit      -0.017550
 1746 Fit      -0.018004
 1747 Fit       0.001970
 1748 Fit      -0.002822
 1749 Fit      -0.004501
 1750 Fit      -0.004004
 1751 Fit      -0.001380
 1752 Fit      -0.014714
 1753 Fit      -0.007571
 1754 Fit      -0.017020
 1755 Fit      -0.005508
 1756 Fit      -0.012801
 1757 Fit      -0.003222
 1758 Fit      -0.006269
 1759 Fit      -0.007588
 1760 Fit      -0.004309
 1761 Fit      -0.005410
 1762 Fit       0.012691
 1763 Fit       0.007609
 1764 Fit       0.008739
 1765 Fit       0.008247
 1766 Fit       0.005504
 1767 Fit       0.002384
 1768 Fit       0.003022
 1769 Fit       0.006216
 1770 Fit      -0.002535
 1771 Fit      -0.009550
 1772 Fit       0.008666
 1773 Fit       0.007313
 1774 Fit       0.007002
 1775 Fit       0.005465
 1776 Fit       0.005353
 1777 Fit       0.006875
 1778 Fit       0.005301
 1779 Fit       0.006274
 1780 Fit       0.006031
 1781 Fit       0.005434
 1782 Fit       0.005739
 1783 Fit       0.006935
 1784 Fit       0.007147
 1785 Fit       0.005462
 1786 Fit       0.006756
 1787 Fit       0.005176
 1788 Fit       0.006524
 1789 Fit       0.005068
 1790 Fit       0.006189
 1791 Fit       0.005983
 1792 Fit       0.002616
 1793 Fit       0.004077
 1794 Fit       0.004034
 1795 Fit       0.004550
 1796 Fit       0.005688
 1797 Fit       0.005487
 1798 Fit       0.005844
 1799 Fit       0.007044
 1800 Fit       0.006639
 1801 Fit       0.007118
 1802 Fit       0.005877
 1803 Fit       0.006266
 1804 Fit       0.005645
 1805 Fit       0.004497
 1806 Fit       0.004883
 1807 Fit       0.005253
 1808 Fit       0.002560
 1809 Fit       0.003653
 1810 Fit       0.001950
 1811 Fit       0.007379
 1812 Fit       0.006738
 1813 Fit       0.007311
 1814 Fit       0.007748
 1815 Fit       0.008215
 1816 Fit       0.008612
 1817 Fit       0.007396
 1818 Fit       0.002020
 1819 Fit       0.004115
 1820 Fit       0.003773
 1821 Fit       0.007129
 1822 Fit       0.008249
 1823 Fit       0.018123
 1824 Fit       0.009258
 1825 Fit       0.015972
 1826 Fit       0.008977
 1827 Fit       0.011645
 1828 Fit       0.008322
 1829 Fit      -0.000525
 1830 Fit      -0.006518
 1831 Fit       0.000001
 1832 Fit       0.002903
 1833 Fit      -0.004903
 1834 Fit       0.000858
 1835 Fit      -0.000874
 1836 Fit       0.001926
 1837 Fit       0.002257
 1838 Fit       0.002646
 1839 Fit       0.003206
 1840 Fit       0.004475
 1841 Fit       0.003765
 1842 Fit       0.002761
 1843 Fit       0.003201
 1844 Fit       0.002181
 1845 Fit       0.002344
 1846 Fit       0.003570
 1847 Fit       0.003671
 1848 Fit       0.004578
 1849 Fit       0.004859
 1850 Fit       0.004378
 1851 Fit       0.005941
 1852 Fit       0.005391
 1853 Fit       0.004422
 1854 Fit       0.004108
 1855 Fit       0.005259
 1856 Fit       0.006091
 1857 Fit       0.006193
 1858 Fit       0.005340
 1859 Fit       0.005716
 1860 Fit       0.004702
 1861 Fit       0.005265
 1862 Fit       0.005939
 1863 Fit       0.006544
 1864 Fit       0.005874
 1865 Fit       0.005364
 1866 Fit       0.000604
 1867 Fit       0.000063
 1868 Fit       0.000728
 1869 Fit       0.001532
 1870 Fit       0.001936
 1871 Fit       0.000226
 1872 Fit       0.001944
 1873 Fit       0.003332
 1874 Fit       0.003539
 1875 Fit       0.005078
 1876 Fit      -0.002710
 1877 Fit       0.001761
 1878 Fit       0.003730
 1879 Fit       0.003791
 1880 Fit       0.001548
 1881 Fit       0.005085
 1882 Fit       0.001168
 1883 Fit       0.001121
 1884 Fit       0.001251
 1885 Fit       0.002619
 1886 Fit       0.003193
 1887 Fit       0.003055
 1888 Fit      -0.001836
 1889 Fit       0.000670
 1890 Fit       0.004227
 1891 Fit       0.005020
 1892 Fit       0.002392
 1893 Fit       0.003388
 1894 Fit       0.002911
 1895 Fit       0.003796
 1896 Fit       0.004418
 1897 Fit       0.005069
 1898 Fit       0.004866
 1899 Fit       0.003849
 1900 Fit       0.003314
 1901 Fit       0.002612
 1902 Fit       0.001758
 1903 Fit       0.001232
 1904 Fit       0.000678
 1905 Fit       0.001673
 1906 Fit       0.000821
 1907 Fit       0.000487
 1908 Fit       0.001134
 1909 Fit       0.000973
 1910 Fit       0.001039
 1911 Fit       0.001700
 1912 Fit       0.002300
 1913 Fit       0.001814
 1914 Fit       0.002417
 1915 Fit       0.003152
 1916 Fit       0.003678
 1917 Fit       0.003446
 1918 Fit       0.004258
 1919 Fit       0.005163
 1920 Fit       0.004622
 1921 Fit       0.002296
 1922 Fit       0.002951
 1923 Fit       0.002240
 1924 Fit       0.003420
 1925 Fit       0.002330
 1926 Fit       0.003629
 1927 Fit       0.001969
 1928 Fit       0.003707
 1929 Fit       0.005802
 1930 Fit       0.002444
 1931 Fit       0.004498
 1932 Fit       0.006828
 1933 Fit       0.002566
 1934 Fit       0.005117
 1935 Fit       0.001856
 1936 Fit       0.002208
 1937 Fit       0.003050
 1938 Fit       0.003247
 1939 Fit       0.003178
 1940 Fit       0.001147
 1941 Fit       0.004034
 1942 Fit       0.005404
 1943 Fit       0.000823
 1944 Fit       0.007364
 1945 Fit      -0.004434
 1946 Fit       0.004068
 1947 Fit       0.005075
 1948 Fit       0.004659
 1949 Fit       0.006718
 1950 Fit       0.006706
 1951 Fit       0.006325
 1952 Fit       0.005799
 1953 Fit       0.007658
 1954 Fit       0.007760
 1955 Fit       0.007213
 1956 Fit       0.005306
 1957 Fit       0.006291
 1958 Fit       0.003314
 1959 Fit       0.009161
 1960 Fit       0.011320
 1961 Fit       0.009654
 1962 Fit       0.004444
 1963 Fit       0.001213
 1964 Fit       0.000505
 1965 Fit       0.002505
 1966 Fit      -0.000398
 1967 Fit      -0.001825
 1968 Fit       0.002610
 1969 Fit      -0.003040
 1970 Fit      -0.004325
 1971 Fit      -0.011128
 1972 Fit      -0.013131
 1973 Fit      -0.018335
 1974 Fit      -0.020292
 1975 Fit      -0.014890
 1976 Fit      -0.021696
 1977 Fit      -0.024214
 1978 Fit      -0.017188
 1979 Fit      -0.013902
 1980 Fit      -0.028336
 1981 Fit      -0.028615
 1982 Fit      -0.023175
 1983 Fit      -0.026888
 1984 Fit      -0.011709
 1985 Fit      -0.026929
 1986 Fit      -0.026078
 1987 Fit      -0.023313
 1988 Fit      -0.017782
 1989 Fit      -0.022758
 1990 Fit      -0.021324
 1991 Fit      -0.016065
 1992 Fit      -0.007787
 1993 Fit      -0.017342
 1994 Fit      -0.018519
 1995 Fit      -0.014840
 1996 Fit      -0.007624
 1997 Fit       0.002582
 1998 Fit      -0.014792
 1999 Fit      -0.011906
 2000 Fit      -0.004253
 2001 Fit      -0.010808
 2002 Fit      -0.010454
 2003 Fit      -0.004456
 2004 Fit       0.005958
 2005 Fit      -0.006945
 2006 Fit      -0.001559
 2007 Fit       0.001264
 2008 Fit       0.003419
 2009 Fit       0.004826
 2010 Fit       0.012152
 2011 Fit       0.014144
 2012 Fit       0.011497
 2013 Fit       0.006094
 2014 Fit       0.016827
 2015 Fit       0.018892
 2016 Fit       0.011644
 2017 Fit       0.018026
 2018 Fit       0.020198
 2019 Fit       0.012441
 2020 Fit       0.015942
 2021 Fit       0.017560
 2022 Fit       0.013477
 2023 Fit       0.008247
 2024 Fit       0.010625
 2025 Fit      -0.002922
 2026 Fit      -0.003460
 2027 Fit      -0.006007
 2028 Fit      -0.006264
 2029 Fit      -0.012852
 2030 Fit      -0.015245
 2031 Fit      -0.015723
 2032 Fit      -0.015842
 2033 Fit      -0.016427
 2034 Fit      -0.017262
 2035 Fit      -0.017159
 2036 Fit      -0.018042
 2037 Fit      -0.022212
 2038 Fit      -0.023659
 2039 Fit      -0.024191
 2040 Fit      -0.024490
 2041 Fit      -0.023836
 2042 Fit      -0.020375
 2043 Fit      -0.015160
 2044 Fit      -0.022448
 2045 Fit      -0.025956
 2046 Fit      -0.027103
 2047 Fit      -0.026684
 2048 Fit      -0.023890
 2049 Fit      -0.017334
 2050 Fit      -0.020647
 2051 Fit      -0.024456
 2052 Fit      -0.021462
 2053 Fit       0.020314
 2054 Fit       0.017860
 2055 Fit       0.016759
 2056 Fit       0.016703
 2057 Fit       0.012547
 2058 Fit       0.011583
 2059 Fit       0.011149
 2060 Fit       0.010525
 2061 Fit       0.009907
 2062 Fit       0.001813
 2063 Fit       0.001824
 2064 Fit       0.001805
 2065 Fit       0.001100
 2066 Fit      -0.000157
 2067 Fit      -0.001001
 2068 Fit       0.002576
 2069 Fit       0.003369
 2070 Fit       0.002738
 2071 Fit       0.001374
 2072 Fit       0.002405
 2073 Fit       0.003728
 2074 Fit       0.004914
 2075 Fit       0.002360
 2076 Fit       0.002361
 2077 Fit       0.002929
 2078 Fit       0.003951
 2079 Fit       0.004183
 2080 Fit       0.003198
 2081 Fit       0.003263
 2082 Fit       0.000469
 2083 Fit      -0.000057
 2084 Fit       0.000289
 2085 Fit       0.001188
 2086 Fit       0.001131
 2087 Fit       0.001065
 2088 Fit       0.000145
 2089 Fit       0.002518
 2090 Fit       0.001915
 2091 Fit       0.000990
 2092 Fit       0.003244
 2093 Fit       0.002412
 2094 Fit       0.001395
 2095 Fit       0.001330
 2096 Fit       0.002573
 2097 Fit       0.002240
 2098 Fit       0.003165
 2099 Fit       0.001894
 2100 Fit       0.002984
 2101 Fit       0.001385
 2102 Fit       0.002388
 2103 Fit       0.002624
 2104 Fit       0.000465
 2105 Fit       0.001543
 2106 Fit       0.001767
 2107 Fit       0.000434
 2108 Fit       0.001210
 2109 Fit      -0.000174
 2110 Fit       0.000791
 2111 Fit       0.002469
 2112 Fit       0.001214
 2113 Fit       0.003150
 2114 Fit       0.004518
 2115 Fit       0.001049
 2116 Fit       0.002655
 2117 Fit       0.003664
 2118 Fit      -0.000192
 2119 Fit       0.002665
 2120 Fit       0.001631
 2121 Fit       0.000663
 2122 Fit       0.003608
 2123 Fit       0.002819
 2124 Fit       0.002159
 2125 Fit       0.001448
 2126 Fit       0.002627
 2127 Fit       0.002082
 2128 Fit       0.001598
 2129 Fit       0.001836
 2130 Fit       0.001300
 2131 Fit       0.004624
 2132 Fit       0.002465
 2133 Fit       0.003067
 2134 Fit       0.003081
 2135 Fit      -0.000812
 2136 Fit      -0.000866
 2137 Fit       0.002363
 2138 Fit      -0.000423
 2139 Fit      -0.001079
 2140 Fit       0.001475
 2141 Fit      -0.000430
 2142 Fit      -0.000721
 2143 Fit      -0.000300
 2144 Fit       0.000624
 2145 Fit       0.000366
 2146 Fit       0.000169
 2147 Fit       0.002149
 2148 Fit      -0.000122
 2149 Fit       0.001451
 2150 Fit       0.002615
 2151 Fit       0.003216
 2152 Fit      -0.000312
 2153 Fit       0.001140
 2154 Fit       0.002119
 2155 Fit       0.002424
 2156 Fit      -0.000407
 2157 Fit       0.000830
 2158 Fit       0.001309
 2159 Fit       0.001073
 2160 Fit       0.002123
 2161 Fit      -0.000005
 2162 Fit       0.003562
 2163 Fit       0.002006
 2164 Fit       0.000429
 2165 Fit       0.002939
 2166 Fit       0.003243
 2167 Fit       0.002994
 2168 Fit       0.001471
 2169 Fit       0.000022
 2170 Fit       0.002164
 2171 Fit       0.002499
 2172 Fit       0.002337
 2173 Fit       0.000456
 2174 Fit       0.001208
 2175 Fit       0.001222
 2176 Fit       0.000105
 2177 Fit       0.001454
 2178 Fit       0.002465
 2179 Fit       0.001090
 2180 Fit       0.001937
 2181 Fit       0.001936
 2182 Fit       0.003385
 2183 Fit       0.003760
 2184 Fit       0.003029
 2185 Fit       0.003348
 2186 Fit      -0.000990
 2187 Fit      -0.001494
 2188 Fit      -0.001530
 2189 Fit      -0.001016
 2190 Fit      -0.001005
 2191 Fit      -0.001454
 2192 Fit      -0.000759
 2193 Fit      -0.000599
 2194 Fit      -0.001082
 2195 Fit      -0.000545
 2196 Fit      -0.000752
 2197 Fit       0.002718
 2198 Fit       0.001328
 2199 Fit      -0.000979
 2200 Fit      -0.000465
 2201 Fit      -0.000529
 2202 Fit      -0.000198
 2203 Fit       0.000985
 2204 Fit       0.001171
 2205 Fit       0.000246
 2206 Fit      -0.000185
 2207 Fit       0.001327
 2208 Fit       0.002237
 2209 Fit       0.002229
 2210 Fit       0.001205
 2211 Fit      -0.000272
 2212 Fit       0.001747
 2213 Fit       0.002945
 2214 Fit       0.003235
 2215 Fit      -0.000348
 2216 Fit      -0.000224
 2217 Fit       0.000937
 2218 Fit      -0.000540
 2219 Fit       0.000988
 2220 Fit       0.001510
 2221 Fit       0.001820
 2222 Fit       0.000251
 2223 Fit       0.001628
 2224 Fit       0.002433
 2225 Fit       0.002596
 2226 Fit       0.002498
 2227 Fit       0.000386
 2228 Fit       0.002504
 2229 Fit       0.003166
 2230 Fit       0.003389
 2231 Fit       0.000437
 2232 Fit       0.000284
 2233 Fit       0.001904
 2234 Fit       0.001777
 2235 Fit       0.000153
 2236 Fit       0.000316
 2237 Fit       0.002264
 2238 Fit       0.003362
 2239 Fit       0.003019
 2240 Fit       0.001703
 2241 Fit      -0.000022
 2242 Fit       0.004580
 2243 Fit       0.003790
 2244 Fit       0.002587
 -----------------------------------------------------------------
 Leave Link  602 at Thu Apr 27 15:03:37 2017, MaxMem=    33554432 cpu:         3.8
 (Enter /home/michal/g09/l9999.exe)

 Test job not archived.
 1\1\GINC-LINUX\SP\RHF\6-31G(d)\C27H46O3\MICHAL\27-Apr-2017\0\\#P HF/6-
 31G* SCF(Conver=6) NoSymm Test Pop=mk IOp(6/33=2) GFInput GFPrint\\MEP
  - Input generated by R.E.D.-III.x MOLECULE\\0,1\C,0,1.75981929,-1.246
 95748,-0.07615388\H,0,1.87293071,-1.1180993,-1.1595984\C,0,3.15150692,
 -1.31207021,0.5678895\H,0,3.72997752,-2.12673438,0.12170952\H,0,3.0148
 8463,-1.56771963,1.63143279\C,0,3.91358698,-0.00507374,0.45400492\C,0,
 3.18782439,1.2702035,0.89441801\C,0,1.74685556,1.25366483,0.29552128\H
 ,0,1.82023507,1.45236506,-0.78281447\H,0,1.1632493,2.07552798,0.723659
 7\C,0,0.97804991,-0.06226455,0.49055374\H,0,0.78339368,-0.23984067,1.5
 586359\H,0,0.,0.,0.\C,0,5.17380162,0.,0.\H,0,5.64008738,-0.93316541,-0
 .30808265\C,0,6.0599664,1.20703678,-0.09254994\H,0,6.31845616,1.406701
 43,-1.14410015\C,0,5.48132995,2.4740158,0.55874615\H,0,5.69664401,2.40
 516771,1.63321203\C,0,3.94313171,2.52665626,0.34101409\H,0,3.79453003,
 2.5026897,-0.75088198\C,0,3.35625622,3.86552718,0.84261335\H,0,3.38721
 602,3.89515294,1.93720692\H,0,2.2973948,3.92625972,0.56899764\C,0,4.07
 099416,5.11483544,0.29254762\H,0,3.91617563,5.17469345,-0.794501\H,0,3
 .59594931,6.00195858,0.72248101\C,0,5.58703676,5.08402946,0.57366138\C
 ,0,6.12126973,3.74873043,-0.02210281\H,0,5.8219266,3.77054429,-1.08413
 322\C,0,7.64900956,3.91123072,0.\H,0,8.14489743,3.27077603,-0.73602673
 \H,0,8.05501731,3.63326458,0.97778151\C,0,7.86333945,5.4197412,-0.2968
 6758\H,0,8.54495853,5.86568924,0.43722847\H,0,8.3256153,5.57028022,-1.
 27707925\C,0,6.4601082,6.11188687,-0.22839683\H,0,6.04238916,6.1333120
 2,-1.24774781\C,0,5.86692728,5.20684176,2.08901729\H,0,5.43286626,4.38
 298217,2.66116149\H,0,6.93881281,5.22044575,2.30776887\H,0,5.44141862,
 6.13425095,2.4860991\C,0,6.54719481,7.58649287,0.24695163\H,0,7.017290
 12,7.58558324,1.24079818\C,0,5.17442544,8.2689828,0.37312932\H,0,4.628
 20476,8.23338845,-0.57804025\H,0,5.27864441,9.32109733,0.65433445\H,0,
 4.54893189,7.79855034,1.13467381\C,0,3.10768116,1.28277518,2.44446719\
 H,0,2.46759438,2.09424974,2.80470724\H,0,2.69126718,0.34873994,2.83063
 626\H,0,4.09921866,1.40035235,2.89158227\O,0,7.30279567,0.95898229,0.6
 1236082\O,0,8.03787967,-0.06308594,-0.12611236\H,0,8.80428353,0.455390
 2,-0.42161793\O,0,1.05300336,-2.48339055,0.05665394\H,0,0.92247182,-2.
 66566548,0.9978861\C,0,7.46479534,8.38945541,-0.71081975\H,0,8.4209335
 ,7.86581113,-0.81437504\H,0,7.00816815,8.37716596,-1.71188782\C,0,7.75
 234151,9.85690559,-0.33439963\H,0,8.38892792,10.28480913,-1.11934861\H
 ,0,6.82395862,10.43991525,-0.36943511\C,0,8.41152198,10.08700617,1.038
 86623\H,0,7.72675924,9.75217429,1.82988897\H,0,8.5289024,11.1707946,1.
 18686457\C,0,9.7838113,9.41891876,1.26876161\H,0,9.66621847,8.33402323
 ,1.13332574\C,0,10.84816644,9.90397753,0.27155931\H,0,10.98744151,10.9
 901816,0.34903854\H,0,11.81613413,9.4305745,0.47157979\H,0,10.57859321
 ,9.67600957,-0.76472903\C,0,10.25290336,9.65358141,2.71373098\H,0,10.3
 9439516,10.72425706,2.90963779\H,0,11.20724564,9.15150801,2.90955611\H
 ,0,9.5211228,9.27733283,3.43792953\\Version=EM64L-G09RevD.01\HF=-1273.
 6818147\RMSD=5.538e-07\Dipole=0.0045528,1.0466471,0.0807153\Quadrupole
 =0.3347968,-1.4725343,1.1377375,7.4609191,-7.6427894,-3.3766234\PG=C01
  [X(C27H46O3)]\\@


 THE CAUTIOUS SELDOM ERR...CONFUCIUS                   
 Job cpu time:       0 days  0 hours 12 minutes 18.1 seconds.
 File lengths (MBytes):  RWF=    159 Int=      0 D2E=      0 Chk=     11 Scr=      1
 Normal termination of Gaussian 09 at Thu Apr 27 15:03:37 2017.
