 Entering Gaussian System, Link 0=/home/michal/g09/g09
 Input=JOB2-gau_m1-21-3.com
 Output=JOB2-gau_m1-21-3.log
 Initial command:
 /home/michal/g09/l1.exe "/home/michal/gauss_scratch/Gau-4950.inp" -scrdir="/home/michal/gauss_scratch/"
 Entering Link 1 = /home/michal/g09/l1.exe PID=      4951.
  
 Copyright (c) 1988,1990,1992,1993,1995,1998,2003,2009,2013,
            Gaussian, Inc.  All Rights Reserved.
  
 This is part of the Gaussian(R) 09 program.  It is based on
 the Gaussian(R) 03 system (copyright 2003, Gaussian, Inc.),
 the Gaussian(R) 98 system (copyright 1998, Gaussian, Inc.),
 the Gaussian(R) 94 system (copyright 1995, Gaussian, Inc.),
 the Gaussian 92(TM) system (copyright 1992, Gaussian, Inc.),
 the Gaussian 90(TM) system (copyright 1990, Gaussian, Inc.),
 the Gaussian 88(TM) system (copyright 1988, Gaussian, Inc.),
 the Gaussian 86(TM) system (copyright 1986, Carnegie Mellon
 University), and the Gaussian 82(TM) system (copyright 1983,
 Carnegie Mellon University). Gaussian is a federally registered
 trademark of Gaussian, Inc.
  
 This software contains proprietary and confidential information,
 including trade secrets, belonging to Gaussian, Inc.
  
 This software is provided under written license and may be
 used, copied, transmitted, or stored only in accord with that
 written license.
  
 The following legend is applicable only to US Government
 contracts under FAR:
  
                    RESTRICTED RIGHTS LEGEND
  
 Use, reproduction and disclosure by the US Government is
 subject to restrictions as set forth in subparagraphs (a)
 and (c) of the Commercial Computer Software - Restricted
 Rights clause in FAR 52.227-19.
  
 Gaussian, Inc.
 340 Quinnipiac St., Bldg. 40, Wallingford CT 06492
  
  
 ---------------------------------------------------------------
 Warning -- This program may not be used in any manner that
 competes with the business of Gaussian, Inc. or will provide
 assistance to any competitor of Gaussian, Inc.  The licensee
 of this program is prohibited from giving any competitor of
 Gaussian, Inc. access to this program.  By using this program,
 the user acknowledges that Gaussian, Inc. is engaged in the
 business of creating and licensing software in the field of
 computational chemistry and represents and warrants to the
 licensee that it is not a competitor of Gaussian, Inc. and that
 it will not use this program in any manner prohibited above.
 ---------------------------------------------------------------
  

 Cite this work as:
 Gaussian 09, Revision D.01,
 M. J. Frisch, G. W. Trucks, H. B. Schlegel, G. E. Scuseria, 
 M. A. Robb, J. R. Cheeseman, G. Scalmani, V. Barone, B. Mennucci, 
 G. A. Petersson, H. Nakatsuji, M. Caricato, X. Li, H. P. Hratchian, 
 A. F. Izmaylov, J. Bloino, G. Zheng, J. L. Sonnenberg, M. Hada, 
 M. Ehara, K. Toyota, R. Fukuda, J. Hasegawa, M. Ishida, T. Nakajima, 
 Y. Honda, O. Kitao, H. Nakai, T. Vreven, J. A. Montgomery, Jr., 
 J. E. Peralta, F. Ogliaro, M. Bearpark, J. J. Heyd, E. Brothers, 
 K. N. Kudin, V. N. Staroverov, T. Keith, R. Kobayashi, J. Normand, 
 K. Raghavachari, A. Rendell, J. C. Burant, S. S. Iyengar, J. Tomasi, 
 M. Cossi, N. Rega, J. M. Millam, M. Klene, J. E. Knox, J. B. Cross, 
 V. Bakken, C. Adamo, J. Jaramillo, R. Gomperts, R. E. Stratmann, 
 O. Yazyev, A. J. Austin, R. Cammi, C. Pomelli, J. W. Ochterski, 
 R. L. Martin, K. Morokuma, V. G. Zakrzewski, G. A. Voth, 
 P. Salvador, J. J. Dannenberg, S. Dapprich, A. D. Daniels, 
 O. Farkas, J. B. Foresman, J. V. Ortiz, J. Cioslowski, 
 and D. J. Fox, Gaussian, Inc., Wallingford CT, 2013.
 
 ******************************************
 Gaussian 09:  EM64L-G09RevD.01 24-Apr-2013
                27-Apr-2017 
 ******************************************
 %Mem=256MB
 %NProc=12
 Will use up to   12 processors via shared memory.
 ----------------------------------------------------------------------
 #P HF/6-31G* SCF(Conver=6) NoSymm Test Pop=mk IOp(6/33=2) GFInput GFPr
 int
 ----------------------------------------------------------------------
 1/38=1/1;
 2/12=2,15=1,17=6,18=5,40=1/2;
 3/5=1,6=6,7=1,11=9,16=1,24=110,25=1,30=1/1,2,3;
 4//1;
 5/5=2,6=6,38=5/2;
 6/7=2,8=2,9=2,10=2,15=8,20=1,28=1,33=2/1,2;
 99/5=1,9=1/99;
 Leave Link    1 at Thu Apr 27 16:22:19 2017, MaxMem=    33554432 cpu:         0.9
 (Enter /home/michal/g09/l101.exe)
 ----------------------------------------------
 MEP - Input generated by R.E.D.-III.x MOLECULE
 ----------------------------------------------
 Symbolic Z-matrix:
 Charge =  0 Multiplicity = 1
 C                    -1.01185   1.98249   1.68448 
 H                    -0.99344   1.00508   2.18205 
 C                     0.31537   2.70532   1.95298 
 H                     0.47432   2.80237   3.03126 
 H                     0.2242    3.72884   1.55401 
 C                     1.50199   2.01336   1.30859 
 C                     1.38546   1.66278  -0.17809 
 C                    -0.01164   1.01306  -0.42571 
 H                     0.        0.        0. 
 H                    -0.17504   0.8955   -1.50223 
 C                    -1.19886   1.77638   0.18161 
 H                    -1.31395   2.75741  -0.30268 
 H                    -2.12922   1.22633   0. 
 C                     2.59821   1.74791   2.03111 
 H                     2.62544   2.00965   3.0865 
 C                     3.86208   1.13768   1.50092 
 H                     4.04042   0.16151   1.97818 
 C                     3.90588   0.99289  -0.02915 
 H                     4.20844   1.96848  -0.4319 
 C                     2.49385   0.62523  -0.56644 
 H                     2.21413  -0.31041  -0.0553 
 C                     2.53625   0.31213  -2.07976 
 H                     2.70876   1.23563  -2.64294 
 H                     1.55826  -0.06016  -2.40333 
 C                     3.6063   -0.72092  -2.48231 
 H                     3.3549   -1.69689  -2.04243 
 H                     3.57169  -0.85148  -3.56858 
 C                     5.01232  -0.31018  -2.00234 
 C                     4.9126   -0.08777  -0.46528 
 H                     4.51603  -1.03691  -0.0657 
 C                     6.37574   0.        0. 
 H                     6.49082  -0.27054   1.05427 
 H                     6.75557   1.02147  -0.1019 
 C                     7.1251   -0.98033  -0.94353 
 H                     7.98998  -0.48735  -1.40286 
 H                     7.51886  -1.84357  -0.39778 
 C                     6.10907  -1.43032  -2.04314 
 H                     5.61055  -2.34588  -1.69164 
 C                     5.49909   0.9507   -2.7521 
 H                     4.85135   1.81401  -2.58027 
 H                     6.50972   1.24247  -2.45136 
 H                     5.51834   0.77279  -3.83244 
 C                     6.80265  -1.77065  -3.38575 
 H                     7.31331  -0.85933  -3.72972 
 C                     5.82827  -2.19434  -4.50115 
 H                     5.15158  -2.99215  -4.17561 
 H                     6.38204  -2.56411  -5.37223 
 H                     5.21008  -1.35997  -4.84191 
 C                     1.50622   2.97063  -1.0053 
 H                     1.27533   2.79818  -2.06118 
 H                     0.81418   3.73641  -0.64543 
 H                     2.51375   3.39145  -0.93622 
 O                     4.99186   1.98556   1.8287 
 O                     5.1735    1.94652   3.27634 
 H                     6.03461   1.50026   3.3302 
 O                    -2.11868   2.65991   2.28612 
 H                    -2.19142   3.5419    1.89497 
 C                     7.92385  -2.83208  -3.21332 
 H                     8.41687  -2.95159  -4.18912 
 H                     8.69143  -2.43491  -2.53968 
 C                     7.48032  -4.22067  -2.72197 
 H                     7.08364  -4.15087  -1.70145 
 H                     6.64866  -4.57836  -3.34178 
 C                     8.59076  -5.28755  -2.77498 
 H                     8.93304  -5.37971  -3.81596 
 H                     8.15397  -6.26271  -2.51286 
 C                     9.82448  -5.05831  -1.87593 
 H                     10.26614  -4.08572  -2.13599 
 C                     9.46379  -5.02892  -0.38218 
 H                     9.00096  -5.97587  -0.07498 
 H                     10.35815  -4.88168   0.23391 
 H                     8.76304  -4.22278  -0.14206 
 C                     10.88748  -6.13409  -2.15108 
 H                     10.50433  -7.13365  -1.90822 
 H                     11.78756  -5.96823  -1.54811 
 H                     11.18642  -6.13991  -3.20557 
 
 NAtoms=     76 NQM=       76 NQMF=       0 NMMI=      0 NMMIF=      0
                NMic=       0 NMicF=      0.
                    Isotopes and Nuclear Properties:
 (Nuclear quadrupole moments (NQMom) in fm**2, nuclear magnetic moments (NMagM)
  in nuclear magnetons)

  Atom         1           2           3           4           5           6           7           8           9          10
 IAtWgt=          12           1          12           1           1          12          12          12           1           1
 AtmWgt=  12.0000000   1.0078250  12.0000000   1.0078250   1.0078250  12.0000000  12.0000000  12.0000000   1.0078250   1.0078250
 NucSpn=           0           1           0           1           1           0           0           0           1           1
 AtZEff=   0.0000000   0.0000000   0.0000000   0.0000000   0.0000000   0.0000000   0.0000000   0.0000000   0.0000000   0.0000000
 NQMom=    0.0000000   0.0000000   0.0000000   0.0000000   0.0000000   0.0000000   0.0000000   0.0000000   0.0000000   0.0000000
 NMagM=    0.0000000   2.7928460   0.0000000   2.7928460   2.7928460   0.0000000   0.0000000   0.0000000   2.7928460   2.7928460
 AtZNuc=   6.0000000   1.0000000   6.0000000   1.0000000   1.0000000   6.0000000   6.0000000   6.0000000   1.0000000   1.0000000

  Atom        11          12          13          14          15          16          17          18          19          20
 IAtWgt=          12           1           1          12           1          12           1          12           1          12
 AtmWgt=  12.0000000   1.0078250   1.0078250  12.0000000   1.0078250  12.0000000   1.0078250  12.0000000   1.0078250  12.0000000
 NucSpn=           0           1           1           0           1           0           1           0           1           0
 AtZEff=   0.0000000   0.0000000   0.0000000   0.0000000   0.0000000   0.0000000   0.0000000   0.0000000   0.0000000   0.0000000
 NQMom=    0.0000000   0.0000000   0.0000000   0.0000000   0.0000000   0.0000000   0.0000000   0.0000000   0.0000000   0.0000000
 NMagM=    0.0000000   2.7928460   2.7928460   0.0000000   2.7928460   0.0000000   2.7928460   0.0000000   2.7928460   0.0000000
 AtZNuc=   6.0000000   1.0000000   1.0000000   6.0000000   1.0000000   6.0000000   1.0000000   6.0000000   1.0000000   6.0000000

  Atom        21          22          23          24          25          26          27          28          29          30
 IAtWgt=           1          12           1           1          12           1           1          12          12           1
 AtmWgt=   1.0078250  12.0000000   1.0078250   1.0078250  12.0000000   1.0078250   1.0078250  12.0000000  12.0000000   1.0078250
 NucSpn=           1           0           1           1           0           1           1           0           0           1
 AtZEff=   0.0000000   0.0000000   0.0000000   0.0000000   0.0000000   0.0000000   0.0000000   0.0000000   0.0000000   0.0000000
 NQMom=    0.0000000   0.0000000   0.0000000   0.0000000   0.0000000   0.0000000   0.0000000   0.0000000   0.0000000   0.0000000
 NMagM=    2.7928460   0.0000000   2.7928460   2.7928460   0.0000000   2.7928460   2.7928460   0.0000000   0.0000000   2.7928460
 AtZNuc=   1.0000000   6.0000000   1.0000000   1.0000000   6.0000000   1.0000000   1.0000000   6.0000000   6.0000000   1.0000000

  Atom        31          32          33          34          35          36          37          38          39          40
 IAtWgt=          12           1           1          12           1           1          12           1          12           1
 AtmWgt=  12.0000000   1.0078250   1.0078250  12.0000000   1.0078250   1.0078250  12.0000000   1.0078250  12.0000000   1.0078250
 NucSpn=           0           1           1           0           1           1           0           1           0           1
 AtZEff=   0.0000000   0.0000000   0.0000000   0.0000000   0.0000000   0.0000000   0.0000000   0.0000000   0.0000000   0.0000000
 NQMom=    0.0000000   0.0000000   0.0000000   0.0000000   0.0000000   0.0000000   0.0000000   0.0000000   0.0000000   0.0000000
 NMagM=    0.0000000   2.7928460   2.7928460   0.0000000   2.7928460   2.7928460   0.0000000   2.7928460   0.0000000   2.7928460
 AtZNuc=   6.0000000   1.0000000   1.0000000   6.0000000   1.0000000   1.0000000   6.0000000   1.0000000   6.0000000   1.0000000

  Atom        41          42          43          44          45          46          47          48          49          50
 IAtWgt=           1           1          12           1          12           1           1           1          12           1
 AtmWgt=   1.0078250   1.0078250  12.0000000   1.0078250  12.0000000   1.0078250   1.0078250   1.0078250  12.0000000   1.0078250
 NucSpn=           1           1           0           1           0           1           1           1           0           1
 AtZEff=   0.0000000   0.0000000   0.0000000   0.0000000   0.0000000   0.0000000   0.0000000   0.0000000   0.0000000   0.0000000
 NQMom=    0.0000000   0.0000000   0.0000000   0.0000000   0.0000000   0.0000000   0.0000000   0.0000000   0.0000000   0.0000000
 NMagM=    2.7928460   2.7928460   0.0000000   2.7928460   0.0000000   2.7928460   2.7928460   2.7928460   0.0000000   2.7928460
 AtZNuc=   1.0000000   1.0000000   6.0000000   1.0000000   6.0000000   1.0000000   1.0000000   1.0000000   6.0000000   1.0000000

  Atom        51          52          53          54          55          56          57          58          59          60
 IAtWgt=           1           1          16          16           1          16           1          12           1           1
 AtmWgt=   1.0078250   1.0078250  15.9949146  15.9949146   1.0078250  15.9949146   1.0078250  12.0000000   1.0078250   1.0078250
 NucSpn=           1           1           0           0           1           0           1           0           1           1
 AtZEff=   0.0000000   0.0000000   0.0000000   0.0000000   0.0000000   0.0000000   0.0000000   0.0000000   0.0000000   0.0000000
 NQMom=    0.0000000   0.0000000   0.0000000   0.0000000   0.0000000   0.0000000   0.0000000   0.0000000   0.0000000   0.0000000
 NMagM=    2.7928460   2.7928460   0.0000000   0.0000000   2.7928460   0.0000000   2.7928460   0.0000000   2.7928460   2.7928460
 AtZNuc=   1.0000000   1.0000000   8.0000000   8.0000000   1.0000000   8.0000000   1.0000000   6.0000000   1.0000000   1.0000000

  Atom        61          62          63          64          65          66          67          68          69          70
 IAtWgt=          12           1           1          12           1           1          12           1          12           1
 AtmWgt=  12.0000000   1.0078250   1.0078250  12.0000000   1.0078250   1.0078250  12.0000000   1.0078250  12.0000000   1.0078250
 NucSpn=           0           1           1           0           1           1           0           1           0           1
 AtZEff=   0.0000000   0.0000000   0.0000000   0.0000000   0.0000000   0.0000000   0.0000000   0.0000000   0.0000000   0.0000000
 NQMom=    0.0000000   0.0000000   0.0000000   0.0000000   0.0000000   0.0000000   0.0000000   0.0000000   0.0000000   0.0000000
 NMagM=    0.0000000   2.7928460   2.7928460   0.0000000   2.7928460   2.7928460   0.0000000   2.7928460   0.0000000   2.7928460
 AtZNuc=   6.0000000   1.0000000   1.0000000   6.0000000   1.0000000   1.0000000   6.0000000   1.0000000   6.0000000   1.0000000

  Atom        71          72          73          74          75          76
 IAtWgt=           1           1          12           1           1           1
 AtmWgt=   1.0078250   1.0078250  12.0000000   1.0078250   1.0078250   1.0078250
 NucSpn=           1           1           0           1           1           1
 AtZEff=   0.0000000   0.0000000   0.0000000   0.0000000   0.0000000   0.0000000
 NQMom=    0.0000000   0.0000000   0.0000000   0.0000000   0.0000000   0.0000000
 NMagM=    2.7928460   2.7928460   0.0000000   2.7928460   2.7928460   2.7928460
 AtZNuc=   1.0000000   1.0000000   6.0000000   1.0000000   1.0000000   1.0000000
 Leave Link  101 at Thu Apr 27 16:22:19 2017, MaxMem=    33554432 cpu:         0.9
 (Enter /home/michal/g09/l202.exe)
 Symmetry turned off by external request.
 Stoichiometry    C27H46O3
 Framework group  C1[X(C27H46O3)]
 Deg. of freedom   222
 Full point group                 C1      NOp   1
                          Input orientation:                          
 ---------------------------------------------------------------------
 Center     Atomic      Atomic             Coordinates (Angstroms)
 Number     Number       Type             X           Y           Z
 ---------------------------------------------------------------------
      1          6           0       -1.011850    1.982487    1.684478
      2          1           0       -0.993439    1.005083    2.182053
      3          6           0        0.315371    2.705321    1.952976
      4          1           0        0.474316    2.802370    3.031257
      5          1           0        0.224203    3.728838    1.554010
      6          6           0        1.501986    2.013358    1.308587
      7          6           0        1.385456    1.662778   -0.178088
      8          6           0       -0.011645    1.013062   -0.425710
      9          1           0        0.000000    0.000000    0.000000
     10          1           0       -0.175037    0.895503   -1.502228
     11          6           0       -1.198863    1.776380    0.181611
     12          1           0       -1.313953    2.757410   -0.302676
     13          1           0       -2.129217    1.226331    0.000000
     14          6           0        2.598206    1.747907    2.031107
     15          1           0        2.625442    2.009648    3.086502
     16          6           0        3.862076    1.137682    1.500921
     17          1           0        4.040424    0.161510    1.978184
     18          6           0        3.905882    0.992892   -0.029145
     19          1           0        4.208443    1.968484   -0.431896
     20          6           0        2.493847    0.625233   -0.566438
     21          1           0        2.214131   -0.310414   -0.055297
     22          6           0        2.536255    0.312135   -2.079760
     23          1           0        2.708757    1.235634   -2.642943
     24          1           0        1.558264   -0.060163   -2.403330
     25          6           0        3.606299   -0.720924   -2.482307
     26          1           0        3.354899   -1.696894   -2.042428
     27          1           0        3.571694   -0.851479   -3.568576
     28          6           0        5.012322   -0.310183   -2.002342
     29          6           0        4.912598   -0.087767   -0.465280
     30          1           0        4.516028   -1.036906   -0.065701
     31          6           0        6.375738    0.000000    0.000000
     32          1           0        6.490820   -0.270535    1.054271
     33          1           0        6.755567    1.021473   -0.101897
     34          6           0        7.125104   -0.980325   -0.943529
     35          1           0        7.989981   -0.487354   -1.402861
     36          1           0        7.518864   -1.843574   -0.397781
     37          6           0        6.109068   -1.430324   -2.043141
     38          1           0        5.610546   -2.345880   -1.691639
     39          6           0        5.499088    0.950698   -2.752096
     40          1           0        4.851355    1.814006   -2.580273
     41          1           0        6.509720    1.242469   -2.451363
     42          1           0        5.518344    0.772789   -3.832436
     43          6           0        6.802653   -1.770648   -3.385751
     44          1           0        7.313315   -0.859328   -3.729717
     45          6           0        5.828272   -2.194336   -4.501154
     46          1           0        5.151582   -2.992146   -4.175612
     47          1           0        6.382035   -2.564114   -5.372234
     48          1           0        5.210076   -1.359966   -4.841907
     49          6           0        1.506215    2.970628   -1.005300
     50          1           0        1.275331    2.798181   -2.061178
     51          1           0        0.814181    3.736407   -0.645435
     52          1           0        2.513748    3.391448   -0.936216
     53          8           0        4.991864    1.985562    1.828702
     54          8           0        5.173502    1.946522    3.276340
     55          1           0        6.034606    1.500263    3.330198
     56          8           0       -2.118684    2.659915    2.286118
     57          1           0       -2.191424    3.541897    1.894965
     58          6           0        7.923848   -2.832081   -3.213322
     59          1           0        8.416866   -2.951591   -4.189125
     60          1           0        8.691433   -2.434912   -2.539682
     61          6           0        7.480316   -4.220667   -2.721970
     62          1           0        7.083638   -4.150870   -1.701446
     63          1           0        6.648662   -4.578363   -3.341784
     64          6           0        8.590764   -5.287547   -2.774981
     65          1           0        8.933041   -5.379708   -3.815956
     66          1           0        8.153969   -6.262714   -2.512857
     67          6           0        9.824485   -5.058307   -1.875929
     68          1           0       10.266140   -4.085720   -2.135988
     69          6           0        9.463788   -5.028917   -0.382177
     70          1           0        9.000956   -5.975873   -0.074983
     71          1           0       10.358149   -4.881677    0.233914
     72          1           0        8.763038   -4.222780   -0.142060
     73          6           0       10.887482   -6.134087   -2.151082
     74          1           0       10.504332   -7.133651   -1.908220
     75          1           0       11.787560   -5.968233   -1.548109
     76          1           0       11.186422   -6.139915   -3.205570
 ---------------------------------------------------------------------
 Rotational constants (GHZ):      0.3145866      0.0598288      0.0554075
 Leave Link  202 at Thu Apr 27 16:22:19 2017, MaxMem=    33554432 cpu:         0.6
 (Enter /home/michal/g09/l301.exe)
 Standard basis: 6-31G(d) (6D, 7F)
 Ernie: Thresh=  0.10000D-02 Tol=  0.10000D-05 Strict=F.
 AO basis set in the form of general basis input (Overlap normalization):
      1 0
 S   6 1.00       0.000000000000
      0.3047524880D+04  0.1834737132D-02
      0.4573695180D+03  0.1403732281D-01
      0.1039486850D+03  0.6884262226D-01
      0.2921015530D+02  0.2321844432D+00
      0.9286662960D+01  0.4679413484D+00
      0.3163926960D+01  0.3623119853D+00
 SP   3 1.00       0.000000000000
      0.7868272350D+01 -0.1193324198D+00  0.6899906659D-01
      0.1881288540D+01 -0.1608541517D+00  0.3164239610D+00
      0.5442492580D+00  0.1143456438D+01  0.7443082909D+00
 SP   1 1.00       0.000000000000
      0.1687144782D+00  0.1000000000D+01  0.1000000000D+01
 D   1 1.00       0.000000000000
      0.8000000000D+00  0.1000000000D+01
 ****
      2 0
 S   3 1.00       0.000000000000
      0.1873113696D+02  0.3349460434D-01
      0.2825394365D+01  0.2347269535D+00
      0.6401216923D+00  0.8137573261D+00
 S   1 1.00       0.000000000000
      0.1612777588D+00  0.1000000000D+01
 ****
      3 0
 S   6 1.00       0.000000000000
      0.3047524880D+04  0.1834737132D-02
      0.4573695180D+03  0.1403732281D-01
      0.1039486850D+03  0.6884262226D-01
      0.2921015530D+02  0.2321844432D+00
      0.9286662960D+01  0.4679413484D+00
      0.3163926960D+01  0.3623119853D+00
 SP   3 1.00       0.000000000000
      0.7868272350D+01 -0.1193324198D+00  0.6899906659D-01
      0.1881288540D+01 -0.1608541517D+00  0.3164239610D+00
      0.5442492580D+00  0.1143456438D+01  0.7443082909D+00
 SP   1 1.00       0.000000000000
      0.1687144782D+00  0.1000000000D+01  0.1000000000D+01
 D   1 1.00       0.000000000000
      0.8000000000D+00  0.1000000000D+01
 ****
      4 0
 S   3 1.00       0.000000000000
      0.1873113696D+02  0.3349460434D-01
      0.2825394365D+01  0.2347269535D+00
      0.6401216923D+00  0.8137573261D+00
 S   1 1.00       0.000000000000
      0.1612777588D+00  0.1000000000D+01
 ****
      5 0
 S   3 1.00       0.000000000000
      0.1873113696D+02  0.3349460434D-01
      0.2825394365D+01  0.2347269535D+00
      0.6401216923D+00  0.8137573261D+00
 S   1 1.00       0.000000000000
      0.1612777588D+00  0.1000000000D+01
 ****
      6 0
 S   6 1.00       0.000000000000
      0.3047524880D+04  0.1834737132D-02
      0.4573695180D+03  0.1403732281D-01
      0.1039486850D+03  0.6884262226D-01
      0.2921015530D+02  0.2321844432D+00
      0.9286662960D+01  0.4679413484D+00
      0.3163926960D+01  0.3623119853D+00
 SP   3 1.00       0.000000000000
      0.7868272350D+01 -0.1193324198D+00  0.6899906659D-01
      0.1881288540D+01 -0.1608541517D+00  0.3164239610D+00
      0.5442492580D+00  0.1143456438D+01  0.7443082909D+00
 SP   1 1.00       0.000000000000
      0.1687144782D+00  0.1000000000D+01  0.1000000000D+01
 D   1 1.00       0.000000000000
      0.8000000000D+00  0.1000000000D+01
 ****
      7 0
 S   6 1.00       0.000000000000
      0.3047524880D+04  0.1834737132D-02
      0.4573695180D+03  0.1403732281D-01
      0.1039486850D+03  0.6884262226D-01
      0.2921015530D+02  0.2321844432D+00
      0.9286662960D+01  0.4679413484D+00
      0.3163926960D+01  0.3623119853D+00
 SP   3 1.00       0.000000000000
      0.7868272350D+01 -0.1193324198D+00  0.6899906659D-01
      0.1881288540D+01 -0.1608541517D+00  0.3164239610D+00
      0.5442492580D+00  0.1143456438D+01  0.7443082909D+00
 SP   1 1.00       0.000000000000
      0.1687144782D+00  0.1000000000D+01  0.1000000000D+01
 D   1 1.00       0.000000000000
      0.8000000000D+00  0.1000000000D+01
 ****
      8 0
 S   6 1.00       0.000000000000
      0.3047524880D+04  0.1834737132D-02
      0.4573695180D+03  0.1403732281D-01
      0.1039486850D+03  0.6884262226D-01
      0.2921015530D+02  0.2321844432D+00
      0.9286662960D+01  0.4679413484D+00
      0.3163926960D+01  0.3623119853D+00
 SP   3 1.00       0.000000000000
      0.7868272350D+01 -0.1193324198D+00  0.6899906659D-01
      0.1881288540D+01 -0.1608541517D+00  0.3164239610D+00
      0.5442492580D+00  0.1143456438D+01  0.7443082909D+00
 SP   1 1.00       0.000000000000
      0.1687144782D+00  0.1000000000D+01  0.1000000000D+01
 D   1 1.00       0.000000000000
      0.8000000000D+00  0.1000000000D+01
 ****
      9 0
 S   3 1.00       0.000000000000
      0.1873113696D+02  0.3349460434D-01
      0.2825394365D+01  0.2347269535D+00
      0.6401216923D+00  0.8137573261D+00
 S   1 1.00       0.000000000000
      0.1612777588D+00  0.1000000000D+01
 ****
     10 0
 S   3 1.00       0.000000000000
      0.1873113696D+02  0.3349460434D-01
      0.2825394365D+01  0.2347269535D+00
      0.6401216923D+00  0.8137573261D+00
 S   1 1.00       0.000000000000
      0.1612777588D+00  0.1000000000D+01
 ****
     11 0
 S   6 1.00       0.000000000000
      0.3047524880D+04  0.1834737132D-02
      0.4573695180D+03  0.1403732281D-01
      0.1039486850D+03  0.6884262226D-01
      0.2921015530D+02  0.2321844432D+00
      0.9286662960D+01  0.4679413484D+00
      0.3163926960D+01  0.3623119853D+00
 SP   3 1.00       0.000000000000
      0.7868272350D+01 -0.1193324198D+00  0.6899906659D-01
      0.1881288540D+01 -0.1608541517D+00  0.3164239610D+00
      0.5442492580D+00  0.1143456438D+01  0.7443082909D+00
 SP   1 1.00       0.000000000000
      0.1687144782D+00  0.1000000000D+01  0.1000000000D+01
 D   1 1.00       0.000000000000
      0.8000000000D+00  0.1000000000D+01
 ****
     12 0
 S   3 1.00       0.000000000000
      0.1873113696D+02  0.3349460434D-01
      0.2825394365D+01  0.2347269535D+00
      0.6401216923D+00  0.8137573261D+00
 S   1 1.00       0.000000000000
      0.1612777588D+00  0.1000000000D+01
 ****
     13 0
 S   3 1.00       0.000000000000
      0.1873113696D+02  0.3349460434D-01
      0.2825394365D+01  0.2347269535D+00
      0.6401216923D+00  0.8137573261D+00
 S   1 1.00       0.000000000000
      0.1612777588D+00  0.1000000000D+01
 ****
     14 0
 S   6 1.00       0.000000000000
      0.3047524880D+04  0.1834737132D-02
      0.4573695180D+03  0.1403732281D-01
      0.1039486850D+03  0.6884262226D-01
      0.2921015530D+02  0.2321844432D+00
      0.9286662960D+01  0.4679413484D+00
      0.3163926960D+01  0.3623119853D+00
 SP   3 1.00       0.000000000000
      0.7868272350D+01 -0.1193324198D+00  0.6899906659D-01
      0.1881288540D+01 -0.1608541517D+00  0.3164239610D+00
      0.5442492580D+00  0.1143456438D+01  0.7443082909D+00
 SP   1 1.00       0.000000000000
      0.1687144782D+00  0.1000000000D+01  0.1000000000D+01
 D   1 1.00       0.000000000000
      0.8000000000D+00  0.1000000000D+01
 ****
     15 0
 S   3 1.00       0.000000000000
      0.1873113696D+02  0.3349460434D-01
      0.2825394365D+01  0.2347269535D+00
      0.6401216923D+00  0.8137573261D+00
 S   1 1.00       0.000000000000
      0.1612777588D+00  0.1000000000D+01
 ****
     16 0
 S   6 1.00       0.000000000000
      0.3047524880D+04  0.1834737132D-02
      0.4573695180D+03  0.1403732281D-01
      0.1039486850D+03  0.6884262226D-01
      0.2921015530D+02  0.2321844432D+00
      0.9286662960D+01  0.4679413484D+00
      0.3163926960D+01  0.3623119853D+00
 SP   3 1.00       0.000000000000
      0.7868272350D+01 -0.1193324198D+00  0.6899906659D-01
      0.1881288540D+01 -0.1608541517D+00  0.3164239610D+00
      0.5442492580D+00  0.1143456438D+01  0.7443082909D+00
 SP   1 1.00       0.000000000000
      0.1687144782D+00  0.1000000000D+01  0.1000000000D+01
 D   1 1.00       0.000000000000
      0.8000000000D+00  0.1000000000D+01
 ****
     17 0
 S   3 1.00       0.000000000000
      0.1873113696D+02  0.3349460434D-01
      0.2825394365D+01  0.2347269535D+00
      0.6401216923D+00  0.8137573261D+00
 S   1 1.00       0.000000000000
      0.1612777588D+00  0.1000000000D+01
 ****
     18 0
 S   6 1.00       0.000000000000
      0.3047524880D+04  0.1834737132D-02
      0.4573695180D+03  0.1403732281D-01
      0.1039486850D+03  0.6884262226D-01
      0.2921015530D+02  0.2321844432D+00
      0.9286662960D+01  0.4679413484D+00
      0.3163926960D+01  0.3623119853D+00
 SP   3 1.00       0.000000000000
      0.7868272350D+01 -0.1193324198D+00  0.6899906659D-01
      0.1881288540D+01 -0.1608541517D+00  0.3164239610D+00
      0.5442492580D+00  0.1143456438D+01  0.7443082909D+00
 SP   1 1.00       0.000000000000
      0.1687144782D+00  0.1000000000D+01  0.1000000000D+01
 D   1 1.00       0.000000000000
      0.8000000000D+00  0.1000000000D+01
 ****
     19 0
 S   3 1.00       0.000000000000
      0.1873113696D+02  0.3349460434D-01
      0.2825394365D+01  0.2347269535D+00
      0.6401216923D+00  0.8137573261D+00
 S   1 1.00       0.000000000000
      0.1612777588D+00  0.1000000000D+01
 ****
     20 0
 S   6 1.00       0.000000000000
      0.3047524880D+04  0.1834737132D-02
      0.4573695180D+03  0.1403732281D-01
      0.1039486850D+03  0.6884262226D-01
      0.2921015530D+02  0.2321844432D+00
      0.9286662960D+01  0.4679413484D+00
      0.3163926960D+01  0.3623119853D+00
 SP   3 1.00       0.000000000000
      0.7868272350D+01 -0.1193324198D+00  0.6899906659D-01
      0.1881288540D+01 -0.1608541517D+00  0.3164239610D+00
      0.5442492580D+00  0.1143456438D+01  0.7443082909D+00
 SP   1 1.00       0.000000000000
      0.1687144782D+00  0.1000000000D+01  0.1000000000D+01
 D   1 1.00       0.000000000000
      0.8000000000D+00  0.1000000000D+01
 ****
     21 0
 S   3 1.00       0.000000000000
      0.1873113696D+02  0.3349460434D-01
      0.2825394365D+01  0.2347269535D+00
      0.6401216923D+00  0.8137573261D+00
 S   1 1.00       0.000000000000
      0.1612777588D+00  0.1000000000D+01
 ****
     22 0
 S   6 1.00       0.000000000000
      0.3047524880D+04  0.1834737132D-02
      0.4573695180D+03  0.1403732281D-01
      0.1039486850D+03  0.6884262226D-01
      0.2921015530D+02  0.2321844432D+00
      0.9286662960D+01  0.4679413484D+00
      0.3163926960D+01  0.3623119853D+00
 SP   3 1.00       0.000000000000
      0.7868272350D+01 -0.1193324198D+00  0.6899906659D-01
      0.1881288540D+01 -0.1608541517D+00  0.3164239610D+00
      0.5442492580D+00  0.1143456438D+01  0.7443082909D+00
 SP   1 1.00       0.000000000000
      0.1687144782D+00  0.1000000000D+01  0.1000000000D+01
 D   1 1.00       0.000000000000
      0.8000000000D+00  0.1000000000D+01
 ****
     23 0
 S   3 1.00       0.000000000000
      0.1873113696D+02  0.3349460434D-01
      0.2825394365D+01  0.2347269535D+00
      0.6401216923D+00  0.8137573261D+00
 S   1 1.00       0.000000000000
      0.1612777588D+00  0.1000000000D+01
 ****
     24 0
 S   3 1.00       0.000000000000
      0.1873113696D+02  0.3349460434D-01
      0.2825394365D+01  0.2347269535D+00
      0.6401216923D+00  0.8137573261D+00
 S   1 1.00       0.000000000000
      0.1612777588D+00  0.1000000000D+01
 ****
     25 0
 S   6 1.00       0.000000000000
      0.3047524880D+04  0.1834737132D-02
      0.4573695180D+03  0.1403732281D-01
      0.1039486850D+03  0.6884262226D-01
      0.2921015530D+02  0.2321844432D+00
      0.9286662960D+01  0.4679413484D+00
      0.3163926960D+01  0.3623119853D+00
 SP   3 1.00       0.000000000000
      0.7868272350D+01 -0.1193324198D+00  0.6899906659D-01
      0.1881288540D+01 -0.1608541517D+00  0.3164239610D+00
      0.5442492580D+00  0.1143456438D+01  0.7443082909D+00
 SP   1 1.00       0.000000000000
      0.1687144782D+00  0.1000000000D+01  0.1000000000D+01
 D   1 1.00       0.000000000000
      0.8000000000D+00  0.1000000000D+01
 ****
     26 0
 S   3 1.00       0.000000000000
      0.1873113696D+02  0.3349460434D-01
      0.2825394365D+01  0.2347269535D+00
      0.6401216923D+00  0.8137573261D+00
 S   1 1.00       0.000000000000
      0.1612777588D+00  0.1000000000D+01
 ****
     27 0
 S   3 1.00       0.000000000000
      0.1873113696D+02  0.3349460434D-01
      0.2825394365D+01  0.2347269535D+00
      0.6401216923D+00  0.8137573261D+00
 S   1 1.00       0.000000000000
      0.1612777588D+00  0.1000000000D+01
 ****
     28 0
 S   6 1.00       0.000000000000
      0.3047524880D+04  0.1834737132D-02
      0.4573695180D+03  0.1403732281D-01
      0.1039486850D+03  0.6884262226D-01
      0.2921015530D+02  0.2321844432D+00
      0.9286662960D+01  0.4679413484D+00
      0.3163926960D+01  0.3623119853D+00
 SP   3 1.00       0.000000000000
      0.7868272350D+01 -0.1193324198D+00  0.6899906659D-01
      0.1881288540D+01 -0.1608541517D+00  0.3164239610D+00
      0.5442492580D+00  0.1143456438D+01  0.7443082909D+00
 SP   1 1.00       0.000000000000
      0.1687144782D+00  0.1000000000D+01  0.1000000000D+01
 D   1 1.00       0.000000000000
      0.8000000000D+00  0.1000000000D+01
 ****
     29 0
 S   6 1.00       0.000000000000
      0.3047524880D+04  0.1834737132D-02
      0.4573695180D+03  0.1403732281D-01
      0.1039486850D+03  0.6884262226D-01
      0.2921015530D+02  0.2321844432D+00
      0.9286662960D+01  0.4679413484D+00
      0.3163926960D+01  0.3623119853D+00
 SP   3 1.00       0.000000000000
      0.7868272350D+01 -0.1193324198D+00  0.6899906659D-01
      0.1881288540D+01 -0.1608541517D+00  0.3164239610D+00
      0.5442492580D+00  0.1143456438D+01  0.7443082909D+00
 SP   1 1.00       0.000000000000
      0.1687144782D+00  0.1000000000D+01  0.1000000000D+01
 D   1 1.00       0.000000000000
      0.8000000000D+00  0.1000000000D+01
 ****
     30 0
 S   3 1.00       0.000000000000
      0.1873113696D+02  0.3349460434D-01
      0.2825394365D+01  0.2347269535D+00
      0.6401216923D+00  0.8137573261D+00
 S   1 1.00       0.000000000000
      0.1612777588D+00  0.1000000000D+01
 ****
     31 0
 S   6 1.00       0.000000000000
      0.3047524880D+04  0.1834737132D-02
      0.4573695180D+03  0.1403732281D-01
      0.1039486850D+03  0.6884262226D-01
      0.2921015530D+02  0.2321844432D+00
      0.9286662960D+01  0.4679413484D+00
      0.3163926960D+01  0.3623119853D+00
 SP   3 1.00       0.000000000000
      0.7868272350D+01 -0.1193324198D+00  0.6899906659D-01
      0.1881288540D+01 -0.1608541517D+00  0.3164239610D+00
      0.5442492580D+00  0.1143456438D+01  0.7443082909D+00
 SP   1 1.00       0.000000000000
      0.1687144782D+00  0.1000000000D+01  0.1000000000D+01
 D   1 1.00       0.000000000000
      0.8000000000D+00  0.1000000000D+01
 ****
     32 0
 S   3 1.00       0.000000000000
      0.1873113696D+02  0.3349460434D-01
      0.2825394365D+01  0.2347269535D+00
      0.6401216923D+00  0.8137573261D+00
 S   1 1.00       0.000000000000
      0.1612777588D+00  0.1000000000D+01
 ****
     33 0
 S   3 1.00       0.000000000000
      0.1873113696D+02  0.3349460434D-01
      0.2825394365D+01  0.2347269535D+00
      0.6401216923D+00  0.8137573261D+00
 S   1 1.00       0.000000000000
      0.1612777588D+00  0.1000000000D+01
 ****
     34 0
 S   6 1.00       0.000000000000
      0.3047524880D+04  0.1834737132D-02
      0.4573695180D+03  0.1403732281D-01
      0.1039486850D+03  0.6884262226D-01
      0.2921015530D+02  0.2321844432D+00
      0.9286662960D+01  0.4679413484D+00
      0.3163926960D+01  0.3623119853D+00
 SP   3 1.00       0.000000000000
      0.7868272350D+01 -0.1193324198D+00  0.6899906659D-01
      0.1881288540D+01 -0.1608541517D+00  0.3164239610D+00
      0.5442492580D+00  0.1143456438D+01  0.7443082909D+00
 SP   1 1.00       0.000000000000
      0.1687144782D+00  0.1000000000D+01  0.1000000000D+01
 D   1 1.00       0.000000000000
      0.8000000000D+00  0.1000000000D+01
 ****
     35 0
 S   3 1.00       0.000000000000
      0.1873113696D+02  0.3349460434D-01
      0.2825394365D+01  0.2347269535D+00
      0.6401216923D+00  0.8137573261D+00
 S   1 1.00       0.000000000000
      0.1612777588D+00  0.1000000000D+01
 ****
     36 0
 S   3 1.00       0.000000000000
      0.1873113696D+02  0.3349460434D-01
      0.2825394365D+01  0.2347269535D+00
      0.6401216923D+00  0.8137573261D+00
 S   1 1.00       0.000000000000
      0.1612777588D+00  0.1000000000D+01
 ****
     37 0
 S   6 1.00       0.000000000000
      0.3047524880D+04  0.1834737132D-02
      0.4573695180D+03  0.1403732281D-01
      0.1039486850D+03  0.6884262226D-01
      0.2921015530D+02  0.2321844432D+00
      0.9286662960D+01  0.4679413484D+00
      0.3163926960D+01  0.3623119853D+00
 SP   3 1.00       0.000000000000
      0.7868272350D+01 -0.1193324198D+00  0.6899906659D-01
      0.1881288540D+01 -0.1608541517D+00  0.3164239610D+00
      0.5442492580D+00  0.1143456438D+01  0.7443082909D+00
 SP   1 1.00       0.000000000000
      0.1687144782D+00  0.1000000000D+01  0.1000000000D+01
 D   1 1.00       0.000000000000
      0.8000000000D+00  0.1000000000D+01
 ****
     38 0
 S   3 1.00       0.000000000000
      0.1873113696D+02  0.3349460434D-01
      0.2825394365D+01  0.2347269535D+00
      0.6401216923D+00  0.8137573261D+00
 S   1 1.00       0.000000000000
      0.1612777588D+00  0.1000000000D+01
 ****
     39 0
 S   6 1.00       0.000000000000
      0.3047524880D+04  0.1834737132D-02
      0.4573695180D+03  0.1403732281D-01
      0.1039486850D+03  0.6884262226D-01
      0.2921015530D+02  0.2321844432D+00
      0.9286662960D+01  0.4679413484D+00
      0.3163926960D+01  0.3623119853D+00
 SP   3 1.00       0.000000000000
      0.7868272350D+01 -0.1193324198D+00  0.6899906659D-01
      0.1881288540D+01 -0.1608541517D+00  0.3164239610D+00
      0.5442492580D+00  0.1143456438D+01  0.7443082909D+00
 SP   1 1.00       0.000000000000
      0.1687144782D+00  0.1000000000D+01  0.1000000000D+01
 D   1 1.00       0.000000000000
      0.8000000000D+00  0.1000000000D+01
 ****
     40 0
 S   3 1.00       0.000000000000
      0.1873113696D+02  0.3349460434D-01
      0.2825394365D+01  0.2347269535D+00
      0.6401216923D+00  0.8137573261D+00
 S   1 1.00       0.000000000000
      0.1612777588D+00  0.1000000000D+01
 ****
     41 0
 S   3 1.00       0.000000000000
      0.1873113696D+02  0.3349460434D-01
      0.2825394365D+01  0.2347269535D+00
      0.6401216923D+00  0.8137573261D+00
 S   1 1.00       0.000000000000
      0.1612777588D+00  0.1000000000D+01
 ****
     42 0
 S   3 1.00       0.000000000000
      0.1873113696D+02  0.3349460434D-01
      0.2825394365D+01  0.2347269535D+00
      0.6401216923D+00  0.8137573261D+00
 S   1 1.00       0.000000000000
      0.1612777588D+00  0.1000000000D+01
 ****
     43 0
 S   6 1.00       0.000000000000
      0.3047524880D+04  0.1834737132D-02
      0.4573695180D+03  0.1403732281D-01
      0.1039486850D+03  0.6884262226D-01
      0.2921015530D+02  0.2321844432D+00
      0.9286662960D+01  0.4679413484D+00
      0.3163926960D+01  0.3623119853D+00
 SP   3 1.00       0.000000000000
      0.7868272350D+01 -0.1193324198D+00  0.6899906659D-01
      0.1881288540D+01 -0.1608541517D+00  0.3164239610D+00
      0.5442492580D+00  0.1143456438D+01  0.7443082909D+00
 SP   1 1.00       0.000000000000
      0.1687144782D+00  0.1000000000D+01  0.1000000000D+01
 D   1 1.00       0.000000000000
      0.8000000000D+00  0.1000000000D+01
 ****
     44 0
 S   3 1.00       0.000000000000
      0.1873113696D+02  0.3349460434D-01
      0.2825394365D+01  0.2347269535D+00
      0.6401216923D+00  0.8137573261D+00
 S   1 1.00       0.000000000000
      0.1612777588D+00  0.1000000000D+01
 ****
     45 0
 S   6 1.00       0.000000000000
      0.3047524880D+04  0.1834737132D-02
      0.4573695180D+03  0.1403732281D-01
      0.1039486850D+03  0.6884262226D-01
      0.2921015530D+02  0.2321844432D+00
      0.9286662960D+01  0.4679413484D+00
      0.3163926960D+01  0.3623119853D+00
 SP   3 1.00       0.000000000000
      0.7868272350D+01 -0.1193324198D+00  0.6899906659D-01
      0.1881288540D+01 -0.1608541517D+00  0.3164239610D+00
      0.5442492580D+00  0.1143456438D+01  0.7443082909D+00
 SP   1 1.00       0.000000000000
      0.1687144782D+00  0.1000000000D+01  0.1000000000D+01
 D   1 1.00       0.000000000000
      0.8000000000D+00  0.1000000000D+01
 ****
     46 0
 S   3 1.00       0.000000000000
      0.1873113696D+02  0.3349460434D-01
      0.2825394365D+01  0.2347269535D+00
      0.6401216923D+00  0.8137573261D+00
 S   1 1.00       0.000000000000
      0.1612777588D+00  0.1000000000D+01
 ****
     47 0
 S   3 1.00       0.000000000000
      0.1873113696D+02  0.3349460434D-01
      0.2825394365D+01  0.2347269535D+00
      0.6401216923D+00  0.8137573261D+00
 S   1 1.00       0.000000000000
      0.1612777588D+00  0.1000000000D+01
 ****
     48 0
 S   3 1.00       0.000000000000
      0.1873113696D+02  0.3349460434D-01
      0.2825394365D+01  0.2347269535D+00
      0.6401216923D+00  0.8137573261D+00
 S   1 1.00       0.000000000000
      0.1612777588D+00  0.1000000000D+01
 ****
     49 0
 S   6 1.00       0.000000000000
      0.3047524880D+04  0.1834737132D-02
      0.4573695180D+03  0.1403732281D-01
      0.1039486850D+03  0.6884262226D-01
      0.2921015530D+02  0.2321844432D+00
      0.9286662960D+01  0.4679413484D+00
      0.3163926960D+01  0.3623119853D+00
 SP   3 1.00       0.000000000000
      0.7868272350D+01 -0.1193324198D+00  0.6899906659D-01
      0.1881288540D+01 -0.1608541517D+00  0.3164239610D+00
      0.5442492580D+00  0.1143456438D+01  0.7443082909D+00
 SP   1 1.00       0.000000000000
      0.1687144782D+00  0.1000000000D+01  0.1000000000D+01
 D   1 1.00       0.000000000000
      0.8000000000D+00  0.1000000000D+01
 ****
     50 0
 S   3 1.00       0.000000000000
      0.1873113696D+02  0.3349460434D-01
      0.2825394365D+01  0.2347269535D+00
      0.6401216923D+00  0.8137573261D+00
 S   1 1.00       0.000000000000
      0.1612777588D+00  0.1000000000D+01
 ****
     51 0
 S   3 1.00       0.000000000000
      0.1873113696D+02  0.3349460434D-01
      0.2825394365D+01  0.2347269535D+00
      0.6401216923D+00  0.8137573261D+00
 S   1 1.00       0.000000000000
      0.1612777588D+00  0.1000000000D+01
 ****
     52 0
 S   3 1.00       0.000000000000
      0.1873113696D+02  0.3349460434D-01
      0.2825394365D+01  0.2347269535D+00
      0.6401216923D+00  0.8137573261D+00
 S   1 1.00       0.000000000000
      0.1612777588D+00  0.1000000000D+01
 ****
     53 0
 S   6 1.00       0.000000000000
      0.5484671660D+04  0.1831074430D-02
      0.8252349460D+03  0.1395017220D-01
      0.1880469580D+03  0.6844507810D-01
      0.5296450000D+02  0.2327143360D+00
      0.1689757040D+02  0.4701928980D+00
      0.5799635340D+01  0.3585208530D+00
 SP   3 1.00       0.000000000000
      0.1553961625D+02 -0.1107775495D+00  0.7087426823D-01
      0.3599933586D+01 -0.1480262627D+00  0.3397528391D+00
      0.1013761750D+01  0.1130767015D+01  0.7271585773D+00
 SP   1 1.00       0.000000000000
      0.2700058226D+00  0.1000000000D+01  0.1000000000D+01
 D   1 1.00       0.000000000000
      0.8000000000D+00  0.1000000000D+01
 ****
     54 0
 S   6 1.00       0.000000000000
      0.5484671660D+04  0.1831074430D-02
      0.8252349460D+03  0.1395017220D-01
      0.1880469580D+03  0.6844507810D-01
      0.5296450000D+02  0.2327143360D+00
      0.1689757040D+02  0.4701928980D+00
      0.5799635340D+01  0.3585208530D+00
 SP   3 1.00       0.000000000000
      0.1553961625D+02 -0.1107775495D+00  0.7087426823D-01
      0.3599933586D+01 -0.1480262627D+00  0.3397528391D+00
      0.1013761750D+01  0.1130767015D+01  0.7271585773D+00
 SP   1 1.00       0.000000000000
      0.2700058226D+00  0.1000000000D+01  0.1000000000D+01
 D   1 1.00       0.000000000000
      0.8000000000D+00  0.1000000000D+01
 ****
     55 0
 S   3 1.00       0.000000000000
      0.1873113696D+02  0.3349460434D-01
      0.2825394365D+01  0.2347269535D+00
      0.6401216923D+00  0.8137573261D+00
 S   1 1.00       0.000000000000
      0.1612777588D+00  0.1000000000D+01
 ****
     56 0
 S   6 1.00       0.000000000000
      0.5484671660D+04  0.1831074430D-02
      0.8252349460D+03  0.1395017220D-01
      0.1880469580D+03  0.6844507810D-01
      0.5296450000D+02  0.2327143360D+00
      0.1689757040D+02  0.4701928980D+00
      0.5799635340D+01  0.3585208530D+00
 SP   3 1.00       0.000000000000
      0.1553961625D+02 -0.1107775495D+00  0.7087426823D-01
      0.3599933586D+01 -0.1480262627D+00  0.3397528391D+00
      0.1013761750D+01  0.1130767015D+01  0.7271585773D+00
 SP   1 1.00       0.000000000000
      0.2700058226D+00  0.1000000000D+01  0.1000000000D+01
 D   1 1.00       0.000000000000
      0.8000000000D+00  0.1000000000D+01
 ****
     57 0
 S   3 1.00       0.000000000000
      0.1873113696D+02  0.3349460434D-01
      0.2825394365D+01  0.2347269535D+00
      0.6401216923D+00  0.8137573261D+00
 S   1 1.00       0.000000000000
      0.1612777588D+00  0.1000000000D+01
 ****
     58 0
 S   6 1.00       0.000000000000
      0.3047524880D+04  0.1834737132D-02
      0.4573695180D+03  0.1403732281D-01
      0.1039486850D+03  0.6884262226D-01
      0.2921015530D+02  0.2321844432D+00
      0.9286662960D+01  0.4679413484D+00
      0.3163926960D+01  0.3623119853D+00
 SP   3 1.00       0.000000000000
      0.7868272350D+01 -0.1193324198D+00  0.6899906659D-01
      0.1881288540D+01 -0.1608541517D+00  0.3164239610D+00
      0.5442492580D+00  0.1143456438D+01  0.7443082909D+00
 SP   1 1.00       0.000000000000
      0.1687144782D+00  0.1000000000D+01  0.1000000000D+01
 D   1 1.00       0.000000000000
      0.8000000000D+00  0.1000000000D+01
 ****
     59 0
 S   3 1.00       0.000000000000
      0.1873113696D+02  0.3349460434D-01
      0.2825394365D+01  0.2347269535D+00
      0.6401216923D+00  0.8137573261D+00
 S   1 1.00       0.000000000000
      0.1612777588D+00  0.1000000000D+01
 ****
     60 0
 S   3 1.00       0.000000000000
      0.1873113696D+02  0.3349460434D-01
      0.2825394365D+01  0.2347269535D+00
      0.6401216923D+00  0.8137573261D+00
 S   1 1.00       0.000000000000
      0.1612777588D+00  0.1000000000D+01
 ****
     61 0
 S   6 1.00       0.000000000000
      0.3047524880D+04  0.1834737132D-02
      0.4573695180D+03  0.1403732281D-01
      0.1039486850D+03  0.6884262226D-01
      0.2921015530D+02  0.2321844432D+00
      0.9286662960D+01  0.4679413484D+00
      0.3163926960D+01  0.3623119853D+00
 SP   3 1.00       0.000000000000
      0.7868272350D+01 -0.1193324198D+00  0.6899906659D-01
      0.1881288540D+01 -0.1608541517D+00  0.3164239610D+00
      0.5442492580D+00  0.1143456438D+01  0.7443082909D+00
 SP   1 1.00       0.000000000000
      0.1687144782D+00  0.1000000000D+01  0.1000000000D+01
 D   1 1.00       0.000000000000
      0.8000000000D+00  0.1000000000D+01
 ****
     62 0
 S   3 1.00       0.000000000000
      0.1873113696D+02  0.3349460434D-01
      0.2825394365D+01  0.2347269535D+00
      0.6401216923D+00  0.8137573261D+00
 S   1 1.00       0.000000000000
      0.1612777588D+00  0.1000000000D+01
 ****
     63 0
 S   3 1.00       0.000000000000
      0.1873113696D+02  0.3349460434D-01
      0.2825394365D+01  0.2347269535D+00
      0.6401216923D+00  0.8137573261D+00
 S   1 1.00       0.000000000000
      0.1612777588D+00  0.1000000000D+01
 ****
     64 0
 S   6 1.00       0.000000000000
      0.3047524880D+04  0.1834737132D-02
      0.4573695180D+03  0.1403732281D-01
      0.1039486850D+03  0.6884262226D-01
      0.2921015530D+02  0.2321844432D+00
      0.9286662960D+01  0.4679413484D+00
      0.3163926960D+01  0.3623119853D+00
 SP   3 1.00       0.000000000000
      0.7868272350D+01 -0.1193324198D+00  0.6899906659D-01
      0.1881288540D+01 -0.1608541517D+00  0.3164239610D+00
      0.5442492580D+00  0.1143456438D+01  0.7443082909D+00
 SP   1 1.00       0.000000000000
      0.1687144782D+00  0.1000000000D+01  0.1000000000D+01
 D   1 1.00       0.000000000000
      0.8000000000D+00  0.1000000000D+01
 ****
     65 0
 S   3 1.00       0.000000000000
      0.1873113696D+02  0.3349460434D-01
      0.2825394365D+01  0.2347269535D+00
      0.6401216923D+00  0.8137573261D+00
 S   1 1.00       0.000000000000
      0.1612777588D+00  0.1000000000D+01
 ****
     66 0
 S   3 1.00       0.000000000000
      0.1873113696D+02  0.3349460434D-01
      0.2825394365D+01  0.2347269535D+00
      0.6401216923D+00  0.8137573261D+00
 S   1 1.00       0.000000000000
      0.1612777588D+00  0.1000000000D+01
 ****
     67 0
 S   6 1.00       0.000000000000
      0.3047524880D+04  0.1834737132D-02
      0.4573695180D+03  0.1403732281D-01
      0.1039486850D+03  0.6884262226D-01
      0.2921015530D+02  0.2321844432D+00
      0.9286662960D+01  0.4679413484D+00
      0.3163926960D+01  0.3623119853D+00
 SP   3 1.00       0.000000000000
      0.7868272350D+01 -0.1193324198D+00  0.6899906659D-01
      0.1881288540D+01 -0.1608541517D+00  0.3164239610D+00
      0.5442492580D+00  0.1143456438D+01  0.7443082909D+00
 SP   1 1.00       0.000000000000
      0.1687144782D+00  0.1000000000D+01  0.1000000000D+01
 D   1 1.00       0.000000000000
      0.8000000000D+00  0.1000000000D+01
 ****
     68 0
 S   3 1.00       0.000000000000
      0.1873113696D+02  0.3349460434D-01
      0.2825394365D+01  0.2347269535D+00
      0.6401216923D+00  0.8137573261D+00
 S   1 1.00       0.000000000000
      0.1612777588D+00  0.1000000000D+01
 ****
     69 0
 S   6 1.00       0.000000000000
      0.3047524880D+04  0.1834737132D-02
      0.4573695180D+03  0.1403732281D-01
      0.1039486850D+03  0.6884262226D-01
      0.2921015530D+02  0.2321844432D+00
      0.9286662960D+01  0.4679413484D+00
      0.3163926960D+01  0.3623119853D+00
 SP   3 1.00       0.000000000000
      0.7868272350D+01 -0.1193324198D+00  0.6899906659D-01
      0.1881288540D+01 -0.1608541517D+00  0.3164239610D+00
      0.5442492580D+00  0.1143456438D+01  0.7443082909D+00
 SP   1 1.00       0.000000000000
      0.1687144782D+00  0.1000000000D+01  0.1000000000D+01
 D   1 1.00       0.000000000000
      0.8000000000D+00  0.1000000000D+01
 ****
     70 0
 S   3 1.00       0.000000000000
      0.1873113696D+02  0.3349460434D-01
      0.2825394365D+01  0.2347269535D+00
      0.6401216923D+00  0.8137573261D+00
 S   1 1.00       0.000000000000
      0.1612777588D+00  0.1000000000D+01
 ****
     71 0
 S   3 1.00       0.000000000000
      0.1873113696D+02  0.3349460434D-01
      0.2825394365D+01  0.2347269535D+00
      0.6401216923D+00  0.8137573261D+00
 S   1 1.00       0.000000000000
      0.1612777588D+00  0.1000000000D+01
 ****
     72 0
 S   3 1.00       0.000000000000
      0.1873113696D+02  0.3349460434D-01
      0.2825394365D+01  0.2347269535D+00
      0.6401216923D+00  0.8137573261D+00
 S   1 1.00       0.000000000000
      0.1612777588D+00  0.1000000000D+01
 ****
     73 0
 S   6 1.00       0.000000000000
      0.3047524880D+04  0.1834737132D-02
      0.4573695180D+03  0.1403732281D-01
      0.1039486850D+03  0.6884262226D-01
      0.2921015530D+02  0.2321844432D+00
      0.9286662960D+01  0.4679413484D+00
      0.3163926960D+01  0.3623119853D+00
 SP   3 1.00       0.000000000000
      0.7868272350D+01 -0.1193324198D+00  0.6899906659D-01
      0.1881288540D+01 -0.1608541517D+00  0.3164239610D+00
      0.5442492580D+00  0.1143456438D+01  0.7443082909D+00
 SP   1 1.00       0.000000000000
      0.1687144782D+00  0.1000000000D+01  0.1000000000D+01
 D   1 1.00       0.000000000000
      0.8000000000D+00  0.1000000000D+01
 ****
     74 0
 S   3 1.00       0.000000000000
      0.1873113696D+02  0.3349460434D-01
      0.2825394365D+01  0.2347269535D+00
      0.6401216923D+00  0.8137573261D+00
 S   1 1.00       0.000000000000
      0.1612777588D+00  0.1000000000D+01
 ****
     75 0
 S   3 1.00       0.000000000000
      0.1873113696D+02  0.3349460434D-01
      0.2825394365D+01  0.2347269535D+00
      0.6401216923D+00  0.8137573261D+00
 S   1 1.00       0.000000000000
      0.1612777588D+00  0.1000000000D+01
 ****
     76 0
 S   3 1.00       0.000000000000
      0.1873113696D+02  0.3349460434D-01
      0.2825394365D+01  0.2347269535D+00
      0.6401216923D+00  0.8137573261D+00
 S   1 1.00       0.000000000000
      0.1612777588D+00  0.1000000000D+01
 ****

 AO basis set (Overlap normalization):
 Atom C1       Shell     1 S   6     bf    1 -     1         -1.912118820642          3.746357492006          3.183201851207
      0.3047524880D+04  0.1834737132D-02
      0.4573695180D+03  0.1403732281D-01
      0.1039486850D+03  0.6884262226D-01
      0.2921015530D+02  0.2321844432D+00
      0.9286662960D+01  0.4679413484D+00
      0.3163926960D+01  0.3623119853D+00
 Atom C1       Shell     2 SP   3    bf    2 -     5         -1.912118820642          3.746357492006          3.183201851207
      0.7868272350D+01 -0.1193324198D+00  0.6899906659D-01
      0.1881288540D+01 -0.1608541517D+00  0.3164239610D+00
      0.5442492580D+00  0.1143456438D+01  0.7443082909D+00
 Atom C1       Shell     3 SP   1    bf    6 -     9         -1.912118820642          3.746357492006          3.183201851207
      0.1687144782D+00  0.1000000000D+01  0.1000000000D+01
 Atom C1       Shell     4 D   1     bf   10 -    15         -1.912118820642          3.746357492006          3.183201851207
      0.8000000000D+00  0.1000000000D+01
 Atom H2       Shell     5 S   3     bf   16 -    16         -1.877326902735          1.899332423401          4.123483484510
      0.1873113696D+02  0.3349460434D-01
      0.2825394365D+01  0.2347269535D+00
      0.6401216923D+00  0.8137573261D+00
 Atom H2       Shell     6 S   1     bf   17 -    17         -1.877326902735          1.899332423401          4.123483484510
      0.1612777588D+00  0.1000000000D+01
 Atom C3       Shell     7 S   6     bf   18 -    18          0.595964725768          5.112315886031          3.690590218735
      0.3047524880D+04  0.1834737132D-02
      0.4573695180D+03  0.1403732281D-01
      0.1039486850D+03  0.6884262226D-01
      0.2921015530D+02  0.2321844432D+00
      0.9286662960D+01  0.4679413484D+00
      0.3163926960D+01  0.3623119853D+00
 Atom C3       Shell     8 SP   3    bf   19 -    22          0.595964725768          5.112315886031          3.690590218735
      0.7868272350D+01 -0.1193324198D+00  0.6899906659D-01
      0.1881288540D+01 -0.1608541517D+00  0.3164239610D+00
      0.5442492580D+00  0.1143456438D+01  0.7443082909D+00
 Atom C3       Shell     9 SP   1    bf   23 -    26          0.595964725768          5.112315886031          3.690590218735
      0.1687144782D+00  0.1000000000D+01  0.1000000000D+01
 Atom C3       Shell    10 D   1     bf   27 -    32          0.595964725768          5.112315886031          3.690590218735
      0.8000000000D+00  0.1000000000D+01
 Atom H4       Shell    11 S   3     bf   33 -    33          0.896326905809          5.295711766323          5.728244755810
      0.1873113696D+02  0.3349460434D-01
      0.2825394365D+01  0.2347269535D+00
      0.6401216923D+00  0.8137573261D+00
 Atom H4       Shell    12 S   1     bf   34 -    34          0.896326905809          5.295711766323          5.728244755810
      0.1612777588D+00  0.1000000000D+01
 Atom H5       Shell    13 S   3     bf   35 -    35          0.423681663459          7.046481763520          2.936652589670
      0.1873113696D+02  0.3349460434D-01
      0.2825394365D+01  0.2347269535D+00
      0.6401216923D+00  0.8137573261D+00
 Atom H5       Shell    14 S   1     bf   36 -    36          0.423681663459          7.046481763520          2.936652589670
      0.1612777588D+00  0.1000000000D+01
 Atom C6       Shell    15 S   6     bf   37 -    37          2.838341307257          3.804695208557          2.472870162883
      0.3047524880D+04  0.1834737132D-02
      0.4573695180D+03  0.1403732281D-01
      0.1039486850D+03  0.6884262226D-01
      0.2921015530D+02  0.2321844432D+00
      0.9286662960D+01  0.4679413484D+00
      0.3163926960D+01  0.3623119853D+00
 Atom C6       Shell    16 SP   3    bf   38 -    41          2.838341307257          3.804695208557          2.472870162883
      0.7868272350D+01 -0.1193324198D+00  0.6899906659D-01
      0.1881288540D+01 -0.1608541517D+00  0.3164239610D+00
      0.5442492580D+00  0.1143456438D+01  0.7443082909D+00
 Atom C6       Shell    17 SP   1    bf   42 -    45          2.838341307257          3.804695208557          2.472870162883
      0.1687144782D+00  0.1000000000D+01  0.1000000000D+01
 Atom C6       Shell    18 D   1     bf   46 -    51          2.838341307257          3.804695208557          2.472870162883
      0.8000000000D+00  0.1000000000D+01
 Atom C7       Shell    19 S   6     bf   52 -    52          2.618132560341          3.142195644500         -0.336538416827
      0.3047524880D+04  0.1834737132D-02
      0.4573695180D+03  0.1403732281D-01
      0.1039486850D+03  0.6884262226D-01
      0.2921015530D+02  0.2321844432D+00
      0.9286662960D+01  0.4679413484D+00
      0.3163926960D+01  0.3623119853D+00
 Atom C7       Shell    20 SP   3    bf   53 -    56          2.618132560341          3.142195644500         -0.336538416827
      0.7868272350D+01 -0.1193324198D+00  0.6899906659D-01
      0.1881288540D+01 -0.1608541517D+00  0.3164239610D+00
      0.5442492580D+00  0.1143456438D+01  0.7443082909D+00
 Atom C7       Shell    21 SP   1    bf   57 -    60          2.618132560341          3.142195644500         -0.336538416827
      0.1687144782D+00  0.1000000000D+01  0.1000000000D+01
 Atom C7       Shell    22 D   1     bf   61 -    66          2.618132560341          3.142195644500         -0.336538416827
      0.8000000000D+00  0.1000000000D+01
 Atom C8       Shell    23 S   6     bf   67 -    67         -0.022005785228          1.914409319894         -0.804475330928
      0.3047524880D+04  0.1834737132D-02
      0.4573695180D+03  0.1403732281D-01
      0.1039486850D+03  0.6884262226D-01
      0.2921015530D+02  0.2321844432D+00
      0.9286662960D+01  0.4679413484D+00
      0.3163926960D+01  0.3623119853D+00
 Atom C8       Shell    24 SP   3    bf   68 -    71         -0.022005785228          1.914409319894         -0.804475330928
      0.7868272350D+01 -0.1193324198D+00  0.6899906659D-01
      0.1881288540D+01 -0.1608541517D+00  0.3164239610D+00
      0.5442492580D+00  0.1143456438D+01  0.7443082909D+00
 Atom C8       Shell    25 SP   1    bf   72 -    75         -0.022005785228          1.914409319894         -0.804475330928
      0.1687144782D+00  0.1000000000D+01  0.1000000000D+01
 Atom C8       Shell    26 D   1     bf   76 -    81         -0.022005785228          1.914409319894         -0.804475330928
      0.8000000000D+00  0.1000000000D+01
 Atom H9       Shell    27 S   3     bf   82 -    82          0.000000000000          0.000000000000          0.000000000000
      0.1873113696D+02  0.3349460434D-01
      0.2825394365D+01  0.2347269535D+00
      0.6401216923D+00  0.8137573261D+00
 Atom H9       Shell    28 S   1     bf   83 -    83          0.000000000000          0.000000000000          0.000000000000
      0.1612777588D+00  0.1000000000D+01
 Atom H10      Shell    29 S   3     bf   84 -    84         -0.330771841944          1.692254986540         -2.838800057173
      0.1873113696D+02  0.3349460434D-01
      0.2825394365D+01  0.2347269535D+00
      0.6401216923D+00  0.8137573261D+00
 Atom H10      Shell    30 S   1     bf   85 -    85         -0.330771841944          1.692254986540         -2.838800057173
      0.1612777588D+00  0.1000000000D+01
 Atom C11      Shell    31 S   6     bf   86 -    86         -2.265523118795          3.356871518963          0.343195355076
      0.3047524880D+04  0.1834737132D-02
      0.4573695180D+03  0.1403732281D-01
      0.1039486850D+03  0.6884262226D-01
      0.2921015530D+02  0.2321844432D+00
      0.9286662960D+01  0.4679413484D+00
      0.3163926960D+01  0.3623119853D+00
 Atom C11      Shell    32 SP   3    bf   87 -    90         -2.265523118795          3.356871518963          0.343195355076
      0.7868272350D+01 -0.1193324198D+00  0.6899906659D-01
      0.1881288540D+01 -0.1608541517D+00  0.3164239610D+00
      0.5442492580D+00  0.1143456438D+01  0.7443082909D+00
 Atom C11      Shell    33 SP   1    bf   91 -    94         -2.265523118795          3.356871518963          0.343195355076
      0.1687144782D+00  0.1000000000D+01  0.1000000000D+01
 Atom C11      Shell    34 D   1     bf   95 -   100         -2.265523118795          3.356871518963          0.343195355076
      0.8000000000D+00  0.1000000000D+01
 Atom H12      Shell    35 S   3     bf  101 -   101         -2.483011850607          5.210750321895         -0.571973953312
      0.1873113696D+02  0.3349460434D-01
      0.2825394365D+01  0.2347269535D+00
      0.6401216923D+00  0.8137573261D+00
 Atom H12      Shell    36 S   1     bf  102 -   102         -2.483011850607          5.210750321895         -0.571973953312
      0.1612777588D+00  0.1000000000D+01
 Atom H13      Shell    37 S   3     bf  103 -   103         -4.023636648436          2.317430305186          0.000000000000
      0.1873113696D+02  0.3349460434D-01
      0.2825394365D+01  0.2347269535D+00
      0.6401216923D+00  0.8137573261D+00
 Atom H13      Shell    38 S   1     bf  104 -   104         -4.023636648436          2.317430305186          0.000000000000
      0.1612777588D+00  0.1000000000D+01
 Atom C14      Shell    39 S   6     bf  105 -   105          4.909897474464          3.303065668035          3.838235560847
      0.3047524880D+04  0.1834737132D-02
      0.4573695180D+03  0.1403732281D-01
      0.1039486850D+03  0.6884262226D-01
      0.2921015530D+02  0.2321844432D+00
      0.9286662960D+01  0.4679413484D+00
      0.3163926960D+01  0.3623119853D+00
 Atom C14      Shell    40 SP   3    bf  106 -   109          4.909897474464          3.303065668035          3.838235560847
      0.7868272350D+01 -0.1193324198D+00  0.6899906659D-01
      0.1881288540D+01 -0.1608541517D+00  0.3164239610D+00
      0.5442492580D+00  0.1143456438D+01  0.7443082909D+00
 Atom C14      Shell    41 SP   1    bf  110 -   113          4.909897474464          3.303065668035          3.838235560847
      0.1687144782D+00  0.1000000000D+01  0.1000000000D+01
 Atom C14      Shell    42 D   1     bf  114 -   119          4.909897474464          3.303065668035          3.838235560847
      0.8000000000D+00  0.1000000000D+01
 Atom H15      Shell    43 S   3     bf  120 -   120          4.961365620782          3.797684929316          5.832644357878
      0.1873113696D+02  0.3349460434D-01
      0.2825394365D+01  0.2347269535D+00
      0.6401216923D+00  0.8137573261D+00
 Atom H15      Shell    44 S   1     bf  121 -   121          4.961365620782          3.797684929316          5.832644357878
      0.1612777588D+00  0.1000000000D+01
 Atom C16      Shell    45 S   6     bf  122 -   122          7.298266322336          2.149907916540          2.836329750480
      0.3047524880D+04  0.1834737132D-02
      0.4573695180D+03  0.1403732281D-01
      0.1039486850D+03  0.6884262226D-01
      0.2921015530D+02  0.2321844432D+00
      0.9286662960D+01  0.4679413484D+00
      0.3163926960D+01  0.3623119853D+00
 Atom C16      Shell    46 SP   3    bf  123 -   126          7.298266322336          2.149907916540          2.836329750480
      0.7868272350D+01 -0.1193324198D+00  0.6899906659D-01
      0.1881288540D+01 -0.1608541517D+00  0.3164239610D+00
      0.5442492580D+00  0.1143456438D+01  0.7443082909D+00
 Atom C16      Shell    47 SP   1    bf  127 -   130          7.298266322336          2.149907916540          2.836329750480
      0.1687144782D+00  0.1000000000D+01  0.1000000000D+01
 Atom C16      Shell    48 D   1     bf  131 -   136          7.298266322336          2.149907916540          2.836329750480
      0.8000000000D+00  0.1000000000D+01
 Atom H17      Shell    49 S   3     bf  137 -   137          7.635294650663          0.305209327572          3.738225093388
      0.1873113696D+02  0.3349460434D-01
      0.2825394365D+01  0.2347269535D+00
      0.6401216923D+00  0.8137573261D+00
 Atom H17      Shell    50 S   1     bf  138 -   138          7.635294650663          0.305209327572          3.738225093388
      0.1612777588D+00  0.1000000000D+01
 Atom C18      Shell    51 S   6     bf  139 -   139          7.381046493683          1.876293959533         -0.055076918520
      0.3047524880D+04  0.1834737132D-02
      0.4573695180D+03  0.1403732281D-01
      0.1039486850D+03  0.6884262226D-01
      0.2921015530D+02  0.2321844432D+00
      0.9286662960D+01  0.4679413484D+00
      0.3163926960D+01  0.3623119853D+00
 Atom C18      Shell    52 SP   3    bf  140 -   143          7.381046493683          1.876293959533         -0.055076918520
      0.7868272350D+01 -0.1193324198D+00  0.6899906659D-01
      0.1881288540D+01 -0.1608541517D+00  0.3164239610D+00
      0.5442492580D+00  0.1143456438D+01  0.7443082909D+00
 Atom C18      Shell    53 SP   1    bf  144 -   147          7.381046493683          1.876293959533         -0.055076918520
      0.1687144782D+00  0.1000000000D+01  0.1000000000D+01
 Atom C18      Shell    54 D   1     bf  148 -   153          7.381046493683          1.876293959533         -0.055076918520
      0.8000000000D+00  0.1000000000D+01
 Atom H19      Shell    55 S   3     bf  154 -   154          7.952803884380          3.719896450652         -0.816166027163
      0.1873113696D+02  0.3349460434D-01
      0.2825394365D+01  0.2347269535D+00
      0.6401216923D+00  0.8137573261D+00
 Atom H19      Shell    56 S   1     bf  155 -   155          7.952803884380          3.719896450652         -0.816166027163
      0.1612777588D+00  0.1000000000D+01
 Atom C20      Shell    57 S   6     bf  156 -   156          4.712687185914          1.181519989619         -1.070413144794
      0.3047524880D+04  0.1834737132D-02
      0.4573695180D+03  0.1403732281D-01
      0.1039486850D+03  0.6884262226D-01
      0.2921015530D+02  0.2321844432D+00
      0.9286662960D+01  0.4679413484D+00
      0.3163926960D+01  0.3623119853D+00
 Atom C20      Shell    58 SP   3    bf  157 -   160          4.712687185914          1.181519989619         -1.070413144794
      0.7868272350D+01 -0.1193324198D+00  0.6899906659D-01
      0.1881288540D+01 -0.1608541517D+00  0.3164239610D+00
      0.5442492580D+00  0.1143456438D+01  0.7443082909D+00
 Atom C20      Shell    59 SP   1    bf  161 -   164          4.712687185914          1.181519989619         -1.070413144794
      0.1687144782D+00  0.1000000000D+01  0.1000000000D+01
 Atom C20      Shell    60 D   1     bf  165 -   170          4.712687185914          1.181519989619         -1.070413144794
      0.8000000000D+00  0.1000000000D+01
 Atom H21      Shell    61 S   3     bf  171 -   171          4.184100626517         -0.586597561197         -0.104497093039
      0.1873113696D+02  0.3349460434D-01
      0.2825394365D+01  0.2347269535D+00
      0.6401216923D+00  0.8137573261D+00
 Atom H21      Shell    62 S   1     bf  172 -   172          4.184100626517         -0.586597561197         -0.104497093039
      0.1612777588D+00  0.1000000000D+01
 Atom C22      Shell    63 S   6     bf  173 -   173          4.792827183087          0.589848740522         -3.930176576466
      0.3047524880D+04  0.1834737132D-02
      0.4573695180D+03  0.1403732281D-01
      0.1039486850D+03  0.6884262226D-01
      0.2921015530D+02  0.2321844432D+00
      0.9286662960D+01  0.4679413484D+00
      0.3163926960D+01  0.3623119853D+00
 Atom C22      Shell    64 SP   3    bf  174 -   177          4.792827183087          0.589848740522         -3.930176576466
      0.7868272350D+01 -0.1193324198D+00  0.6899906659D-01
      0.1881288540D+01 -0.1608541517D+00  0.3164239610D+00
      0.5442492580D+00  0.1143456438D+01  0.7443082909D+00
 Atom C22      Shell    65 SP   1    bf  178 -   181          4.792827183087          0.589848740522         -3.930176576466
      0.1687144782D+00  0.1000000000D+01  0.1000000000D+01
 Atom C22      Shell    66 D   1     bf  182 -   187          4.792827183087          0.589848740522         -3.930176576466
      0.8000000000D+00  0.1000000000D+01
 Atom H23      Shell    67 S   3     bf  188 -   188          5.118808418105          2.335009425845         -4.994438965053
      0.1873113696D+02  0.3349460434D-01
      0.2825394365D+01  0.2347269535D+00
      0.6401216923D+00  0.8137573261D+00
 Atom H23      Shell    68 S   1     bf  189 -   189          5.118808418105          2.335009425845         -4.994438965053
      0.1612777588D+00  0.1000000000D+01
 Atom H24      Shell    69 S   3     bf  190 -   190          2.944692883036         -0.113691026415         -4.541635242386
      0.1873113696D+02  0.3349460434D-01
      0.2825394365D+01  0.2347269535D+00
      0.6401216923D+00  0.8137573261D+00
 Atom H24      Shell    70 S   1     bf  191 -   191          2.944692883036         -0.113691026415         -4.541635242386
      0.1612777588D+00  0.1000000000D+01
 Atom C25      Shell    71 S   6     bf  192 -   192          6.814917085354         -1.362349659618         -4.690881333711
      0.3047524880D+04  0.1834737132D-02
      0.4573695180D+03  0.1403732281D-01
      0.1039486850D+03  0.6884262226D-01
      0.2921015530D+02  0.2321844432D+00
      0.9286662960D+01  0.4679413484D+00
      0.3163926960D+01  0.3623119853D+00
 Atom C25      Shell    72 SP   3    bf  193 -   196          6.814917085354         -1.362349659618         -4.690881333711
      0.7868272350D+01 -0.1193324198D+00  0.6899906659D-01
      0.1881288540D+01 -0.1608541517D+00  0.3164239610D+00
      0.5442492580D+00  0.1143456438D+01  0.7443082909D+00
 Atom C25      Shell    73 SP   1    bf  197 -   200          6.814917085354         -1.362349659618         -4.690881333711
      0.1687144782D+00  0.1000000000D+01  0.1000000000D+01
 Atom C25      Shell    74 D   1     bf  201 -   206          6.814917085354         -1.362349659618         -4.690881333711
      0.8000000000D+00  0.1000000000D+01
 Atom H26      Shell    75 S   3     bf  207 -   207          6.339839859958         -3.206664312927         -3.859629358267
      0.1873113696D+02  0.3349460434D-01
      0.2825394365D+01  0.2347269535D+00
      0.6401216923D+00  0.8137573261D+00
 Atom H26      Shell    76 S   1     bf  208 -   208          6.339839859958         -3.206664312927         -3.859629358267
      0.1612777588D+00  0.1000000000D+01
 Atom H27      Shell    77 S   3     bf  209 -   209          6.749523414882         -1.609061550985         -6.743630474012
      0.1873113696D+02  0.3349460434D-01
      0.2825394365D+01  0.2347269535D+00
      0.6401216923D+00  0.8137573261D+00
 Atom H27      Shell    78 S   1     bf  210 -   210          6.749523414882         -1.609061550985         -6.743630474012
      0.1612777588D+00  0.1000000000D+01
 Atom C28      Shell    79 S   6     bf  211 -   211          9.471915302920         -0.586161091152         -3.783877985477
      0.3047524880D+04  0.1834737132D-02
      0.4573695180D+03  0.1403732281D-01
      0.1039486850D+03  0.6884262226D-01
      0.2921015530D+02  0.2321844432D+00
      0.9286662960D+01  0.4679413484D+00
      0.3163926960D+01  0.3623119853D+00
 Atom C28      Shell    80 SP   3    bf  212 -   215          9.471915302920         -0.586161091152         -3.783877985477
      0.7868272350D+01 -0.1193324198D+00  0.6899906659D-01
      0.1881288540D+01 -0.1608541517D+00  0.3164239610D+00
      0.5442492580D+00  0.1143456438D+01  0.7443082909D+00
 Atom C28      Shell    81 SP   1    bf  216 -   219          9.471915302920         -0.586161091152         -3.783877985477
      0.1687144782D+00  0.1000000000D+01  0.1000000000D+01
 Atom C28      Shell    82 D   1     bf  220 -   225          9.471915302920         -0.586161091152         -3.783877985477
      0.8000000000D+00  0.1000000000D+01
 Atom C29      Shell    83 S   6     bf  226 -   226          9.283465350085         -0.165856424984         -0.879252153054
      0.3047524880D+04  0.1834737132D-02
      0.4573695180D+03  0.1403732281D-01
      0.1039486850D+03  0.6884262226D-01
      0.2921015530D+02  0.2321844432D+00
      0.9286662960D+01  0.4679413484D+00
      0.3163926960D+01  0.3623119853D+00
 Atom C29      Shell    84 SP   3    bf  227 -   230          9.283465350085         -0.165856424984         -0.879252153054
      0.7868272350D+01 -0.1193324198D+00  0.6899906659D-01
      0.1881288540D+01 -0.1608541517D+00  0.3164239610D+00
      0.5442492580D+00  0.1143456438D+01  0.7443082909D+00
 Atom C29      Shell    85 SP   1    bf  231 -   234          9.283465350085         -0.165856424984         -0.879252153054
      0.1687144782D+00  0.1000000000D+01  0.1000000000D+01
 Atom C29      Shell    86 D   1     bf  235 -   240          9.283465350085         -0.165856424984         -0.879252153054
      0.8000000000D+00  0.1000000000D+01
 Atom H30      Shell    87 S   3     bf  241 -   241          8.534056185135         -1.959468875772         -0.124157104527
      0.1873113696D+02  0.3349460434D-01
      0.2825394365D+01  0.2347269535D+00
      0.6401216923D+00  0.8137573261D+00
 Atom H30      Shell    88 S   1     bf  242 -   242          8.534056185135         -1.959468875772         -0.124157104527
      0.1612777588D+00  0.1000000000D+01
 Atom C31      Shell    89 S   6     bf  243 -   243         12.048399168566          0.000000000000          0.000000000000
      0.3047524880D+04  0.1834737132D-02
      0.4573695180D+03  0.1403732281D-01
      0.1039486850D+03  0.6884262226D-01
      0.2921015530D+02  0.2321844432D+00
      0.9286662960D+01  0.4679413484D+00
      0.3163926960D+01  0.3623119853D+00
 Atom C31      Shell    90 SP   3    bf  244 -   247         12.048399168566          0.000000000000          0.000000000000
      0.7868272350D+01 -0.1193324198D+00  0.6899906659D-01
      0.1881288540D+01 -0.1608541517D+00  0.3164239610D+00
      0.5442492580D+00  0.1143456438D+01  0.7443082909D+00
 Atom C31      Shell    91 SP   1    bf  248 -   251         12.048399168566          0.000000000000          0.000000000000
      0.1687144782D+00  0.1000000000D+01  0.1000000000D+01
 Atom C31      Shell    92 D   1     bf  252 -   257         12.048399168566          0.000000000000          0.000000000000
      0.8000000000D+00  0.1000000000D+01
 Atom H32      Shell    93 S   3     bf  258 -   258         12.265871251891         -0.511237588484          1.992283781097
      0.1873113696D+02  0.3349460434D-01
      0.2825394365D+01  0.2347269535D+00
      0.6401216923D+00  0.8137573261D+00
 Atom H32      Shell    94 S   1     bf  259 -   259         12.265871251891         -0.511237588484          1.992283781097
      0.1612777588D+00  0.1000000000D+01
 Atom H33      Shell    95 S   3     bf  260 -   260         12.766171011031          1.930304675671         -0.192556497797
      0.1873113696D+02  0.3349460434D-01
      0.2825394365D+01  0.2347269535D+00
      0.6401216923D+00  0.8137573261D+00
 Atom H33      Shell    96 S   1     bf  261 -   261         12.766171011031          1.930304675671         -0.192556497797
      0.1612777588D+00  0.1000000000D+01
 Atom C34      Shell    97 S   6     bf  262 -   262         13.464495587376         -1.852546470420         -1.783010520264
      0.3047524880D+04  0.1834737132D-02
      0.4573695180D+03  0.1403732281D-01
      0.1039486850D+03  0.6884262226D-01
      0.2921015530D+02  0.2321844432D+00
      0.9286662960D+01  0.4679413484D+00
      0.3163926960D+01  0.3623119853D+00
 Atom C34      Shell    98 SP   3    bf  263 -   266         13.464495587376         -1.852546470420         -1.783010520264
      0.7868272350D+01 -0.1193324198D+00  0.6899906659D-01
      0.1881288540D+01 -0.1608541517D+00  0.3164239610D+00
      0.5442492580D+00  0.1143456438D+01  0.7443082909D+00
 Atom C34      Shell    99 SP   1    bf  267 -   270         13.464495587376         -1.852546470420         -1.783010520264
      0.1687144782D+00  0.1000000000D+01  0.1000000000D+01
 Atom C34      Shell   100 D   1     bf  271 -   276         13.464495587376         -1.852546470420         -1.783010520264
      0.8000000000D+00  0.1000000000D+01
 Atom H35      Shell   101 S   3     bf  277 -   277         15.098876274905         -0.920965438588         -2.651023621629
      0.1873113696D+02  0.3349460434D-01
      0.2825394365D+01  0.2347269535D+00
      0.6401216923D+00  0.8137573261D+00
 Atom H35      Shell   102 S   1     bf  278 -   278         15.098876274905         -0.920965438588         -2.651023621629
      0.1612777588D+00  0.1000000000D+01
 Atom H36      Shell   103 S   3     bf  279 -   279         14.208593714824         -3.483849757839         -0.751697887859
      0.1873113696D+02  0.3349460434D-01
      0.2825394365D+01  0.2347269535D+00
      0.6401216923D+00  0.8137573261D+00
 Atom H36      Shell   104 S   1     bf  280 -   280         14.208593714824         -3.483849757839         -0.751697887859
      0.1612777588D+00  0.1000000000D+01
 Atom C37      Shell   105 S   6     bf  281 -   281         11.544465409381         -2.702920244451         -3.860977224329
      0.3047524880D+04  0.1834737132D-02
      0.4573695180D+03  0.1403732281D-01
      0.1039486850D+03  0.6884262226D-01
      0.2921015530D+02  0.2321844432D+00
      0.9286662960D+01  0.4679413484D+00
      0.3163926960D+01  0.3623119853D+00
 Atom C37      Shell   106 SP   3    bf  282 -   285         11.544465409381         -2.702920244451         -3.860977224329
      0.7868272350D+01 -0.1193324198D+00  0.6899906659D-01
      0.1881288540D+01 -0.1608541517D+00  0.3164239610D+00
      0.5442492580D+00  0.1143456438D+01  0.7443082909D+00
[...]
 1602 Fit      -0.000904
 1603 Fit       0.000088
 1604 Fit      -0.002218
 1605 Fit      -0.001852
 1606 Fit      -0.002009
 1607 Fit       0.001920
 1608 Fit      -0.000329
 1609 Fit       0.003696
 1610 Fit       0.002443
 1611 Fit       0.000498
 1612 Fit       0.003435
 1613 Fit       0.002705
 1614 Fit       0.001409
 1615 Fit      -0.000610
 1616 Fit       0.001021
 1617 Fit       0.000575
 1618 Fit      -0.000978
 1619 Fit       0.003229
 1620 Fit       0.000794
 1621 Fit       0.003044
 1622 Fit       0.003667
 1623 Fit       0.003719
 1624 Fit      -0.000753
 1625 Fit       0.001469
 1626 Fit       0.001672
 1627 Fit       0.002119
 1628 Fit       0.001977
 1629 Fit      -0.001533
 1630 Fit       0.000387
 1631 Fit      -0.000630
 1632 Fit      -0.000279
 1633 Fit       0.000996
 1634 Fit       0.001346
 1635 Fit       0.001833
 1636 Fit       0.002380
 1637 Fit      -0.001310
 1638 Fit      -0.000791
 1639 Fit      -0.000128
 1640 Fit       0.000534
 1641 Fit       0.002867
 1642 Fit       0.003360
 1643 Fit       0.001838
 1644 Fit       0.002220
 1645 Fit       0.003572
 1646 Fit      -0.011694
 1647 Fit      -0.009110
 1648 Fit      -0.004901
 1649 Fit      -0.008355
 1650 Fit      -0.002722
 1651 Fit      -0.001293
 1652 Fit      -0.003780
 1653 Fit      -0.014551
 1654 Fit      -0.004805
 1655 Fit      -0.000031
 1656 Fit       0.001925
 1657 Fit       0.000323
 1658 Fit      -0.001238
 1659 Fit       0.002996
 1660 Fit      -0.009390
 1661 Fit      -0.004277
 1662 Fit      -0.001132
 1663 Fit      -0.000689
 1664 Fit      -0.004864
 1665 Fit      -0.003242
 1666 Fit      -0.004251
 1667 Fit      -0.006623
 1668 Fit      -0.010804
 1669 Fit      -0.006895
 1670 Fit      -0.003319
 1671 Fit      -0.004934
 1672 Fit      -0.004694
 1673 Fit      -0.009797
 1674 Fit      -0.004942
 1675 Fit      -0.002735
 1676 Fit       0.001510
 1677 Fit      -0.003749
 1678 Fit       0.002074
 1679 Fit       0.007402
 1680 Fit      -0.000666
 1681 Fit       0.005253
 1682 Fit       0.010929
 1683 Fit       0.019616
 1684 Fit       0.004134
 1685 Fit       0.004937
 1686 Fit       0.004919
 1687 Fit       0.005955
 1688 Fit       0.002253
 1689 Fit       0.004052
 1690 Fit       0.004924
 1691 Fit       0.005540
 1692 Fit       0.004156
 1693 Fit       0.005328
 1694 Fit       0.006671
 1695 Fit       0.004323
 1696 Fit       0.005333
 1697 Fit       0.006631
 1698 Fit       0.005512
 1699 Fit       0.005220
 1700 Fit       0.005006
 1701 Fit       0.007263
 1702 Fit       0.006433
 1703 Fit       0.006282
 1704 Fit       0.006539
 1705 Fit       0.008313
 1706 Fit       0.007647
 1707 Fit       0.008150
 1708 Fit       0.008561
 1709 Fit       0.003542
 1710 Fit       0.003797
 1711 Fit       0.005639
 1712 Fit       0.013968
 1713 Fit       0.011845
 1714 Fit       0.006853
 1715 Fit       0.009802
 1716 Fit       0.008187
 1717 Fit       0.005147
 1718 Fit       0.007231
 1719 Fit       0.005567
 1720 Fit       0.007300
 1721 Fit      -0.007189
 1722 Fit      -0.008007
 1723 Fit      -0.004297
 1724 Fit      -0.001089
 1725 Fit       0.001655
 1726 Fit      -0.001244
 1727 Fit      -0.001143
 1728 Fit       0.000370
 1729 Fit       0.001975
 1730 Fit       0.003369
 1731 Fit       0.001881
 1732 Fit       0.002452
 1733 Fit       0.003524
 1734 Fit       0.004481
 1735 Fit       0.003816
 1736 Fit       0.004896
 1737 Fit      -0.004795
 1738 Fit      -0.004050
 1739 Fit      -0.005910
 1740 Fit      -0.004016
 1741 Fit      -0.000943
 1742 Fit      -0.017339
 1743 Fit       0.000525
 1744 Fit      -0.015936
 1745 Fit      -0.007349
 1746 Fit      -0.013066
 1747 Fit      -0.005413
 1748 Fit      -0.003290
 1749 Fit      -0.004724
 1750 Fit      -0.009463
 1751 Fit      -0.018960
 1752 Fit      -0.008552
 1753 Fit      -0.004394
 1754 Fit      -0.004714
 1755 Fit      -0.018727
 1756 Fit      -0.000223
 1757 Fit       0.002772
 1758 Fit       0.002217
 1759 Fit       0.005397
 1760 Fit       0.007977
 1761 Fit       0.005201
 1762 Fit       0.007475
 1763 Fit       0.008868
 1764 Fit      -0.013107
 1765 Fit      -0.004187
 1766 Fit       0.002512
 1767 Fit       0.005795
 1768 Fit       0.006602
 1769 Fit       0.007193
 1770 Fit       0.008433
 1771 Fit       0.005205
 1772 Fit       0.006805
 1773 Fit       0.005398
 1774 Fit       0.006163
 1775 Fit       0.005545
 1776 Fit       0.005573
 1777 Fit       0.006001
 1778 Fit       0.005813
 1779 Fit       0.007295
 1780 Fit       0.006057
 1781 Fit       0.004882
 1782 Fit       0.008426
 1783 Fit       0.008457
 1784 Fit       0.007278
 1785 Fit       0.005951
 1786 Fit       0.006155
 1787 Fit       0.005341
 1788 Fit       0.003651
 1789 Fit       0.002550
 1790 Fit       0.007003
 1791 Fit       0.007112
 1792 Fit       0.005926
 1793 Fit       0.005724
 1794 Fit       0.005872
 1795 Fit       0.004717
 1796 Fit       0.004434
 1797 Fit       0.004719
 1798 Fit       0.002969
 1799 Fit       0.005888
 1800 Fit       0.005523
 1801 Fit       0.005275
 1802 Fit       0.004563
 1803 Fit       0.003307
 1804 Fit       0.006253
 1805 Fit       0.005325
 1806 Fit       0.008361
 1807 Fit       0.007850
 1808 Fit       0.007770
 1809 Fit       0.008097
 1810 Fit       0.007600
 1811 Fit       0.007493
 1812 Fit       0.003875
 1813 Fit       0.003339
 1814 Fit       0.001249
 1815 Fit       0.013840
 1816 Fit       0.014380
 1817 Fit       0.010954
 1818 Fit       0.009220
 1819 Fit       0.008947
 1820 Fit       0.009200
 1821 Fit       0.007678
 1822 Fit       0.000015
 1823 Fit       0.000196
 1824 Fit      -0.003290
 1825 Fit      -0.010821
 1826 Fit       0.001769
 1827 Fit      -0.000341
 1828 Fit      -0.003931
 1829 Fit      -0.007169
 1830 Fit       0.003538
 1831 Fit       0.001905
 1832 Fit       0.001680
 1833 Fit       0.001726
 1834 Fit       0.002845
 1835 Fit       0.002905
 1836 Fit       0.002772
 1837 Fit       0.003867
 1838 Fit       0.003881
 1839 Fit       0.004071
 1840 Fit       0.004359
 1841 Fit       0.005553
 1842 Fit       0.007219
 1843 Fit       0.006203
 1844 Fit       0.003262
 1845 Fit       0.007059
 1846 Fit       0.002059
 1847 Fit       0.007039
 1848 Fit       0.005969
 1849 Fit       0.005240
 1850 Fit      -0.003198
 1851 Fit      -0.000231
 1852 Fit       0.000489
 1853 Fit       0.000201
 1854 Fit       0.001355
 1855 Fit       0.001148
 1856 Fit       0.001783
 1857 Fit       0.003368
 1858 Fit       0.000654
 1859 Fit       0.001322
 1860 Fit       0.003721
 1861 Fit       0.002766
 1862 Fit       0.005151
 1863 Fit       0.003510
 1864 Fit       0.001287
 1865 Fit      -0.000923
 1866 Fit       0.004804
 1867 Fit       0.003212
 1868 Fit       0.001487
 1869 Fit      -0.000140
 1870 Fit       0.001965
 1871 Fit       0.002222
 1872 Fit       0.001772
 1873 Fit       0.002297
 1874 Fit       0.003701
 1875 Fit       0.005418
 1876 Fit       0.003812
 1877 Fit       0.003590
 1878 Fit       0.004349
 1879 Fit       0.006191
 1880 Fit       0.005050
 1881 Fit       0.003016
 1882 Fit       0.003389
 1883 Fit       0.002251
 1884 Fit       0.002821
 1885 Fit       0.002966
 1886 Fit       0.002526
 1887 Fit       0.002654
 1888 Fit       0.003380
 1889 Fit       0.001475
 1890 Fit       0.000992
 1891 Fit       0.000996
 1892 Fit       0.001224
 1893 Fit       0.001815
 1894 Fit       0.000741
 1895 Fit       0.000452
 1896 Fit       0.001363
 1897 Fit       0.000850
 1898 Fit       0.004991
 1899 Fit       0.003982
 1900 Fit       0.004487
 1901 Fit       0.002335
 1902 Fit       0.003012
 1903 Fit       0.003417
 1904 Fit       0.003575
 1905 Fit       0.001499
 1906 Fit       0.001765
 1907 Fit       0.001598
 1908 Fit       0.001442
 1909 Fit       0.002281
 1910 Fit       0.003996
 1911 Fit       0.002943
 1912 Fit       0.001883
 1913 Fit       0.000881
 1914 Fit       0.002046
 1915 Fit       0.003232
 1916 Fit       0.004118
 1917 Fit       0.003361
 1918 Fit       0.002344
 1919 Fit       0.001442
 1920 Fit       0.001210
 1921 Fit       0.002025
 1922 Fit       0.003190
 1923 Fit       0.002425
 1924 Fit       0.003968
 1925 Fit       0.005483
 1926 Fit       0.005767
 1927 Fit       0.004899
 1928 Fit       0.002601
 1929 Fit       0.002257
 1930 Fit       0.003475
 1931 Fit       0.002436
 1932 Fit      -0.003563
 1933 Fit       0.001571
 1934 Fit       0.001619
 1935 Fit       0.002688
 1936 Fit       0.004684
 1937 Fit       0.006504
 1938 Fit       0.004310
 1939 Fit       0.002924
 1940 Fit       0.003475
 1941 Fit       0.004899
 1942 Fit       0.003653
 1943 Fit       0.004189
 1944 Fit       0.005481
 1945 Fit       0.006797
 1946 Fit       0.008372
 1947 Fit       0.005723
 1948 Fit       0.006101
 1949 Fit       0.007326
 1950 Fit       0.007724
 1951 Fit       0.007110
 1952 Fit       0.002970
 1953 Fit       0.008194
 1954 Fit       0.014363
 1955 Fit       0.002806
 1956 Fit       0.006321
 1957 Fit       0.009961
 1958 Fit       0.004294
 1959 Fit       0.006772
 1960 Fit       0.008364
 1961 Fit      -0.015900
 1962 Fit      -0.008963
 1963 Fit      -0.005865
 1964 Fit      -0.004102
 1965 Fit      -0.002378
 1966 Fit       0.001125
 1967 Fit       0.000246
 1968 Fit       0.000236
 1969 Fit       0.003499
 1970 Fit       0.001974
 1971 Fit      -0.007975
 1972 Fit      -0.017153
 1973 Fit      -0.023307
 1974 Fit      -0.026002
 1975 Fit      -0.025909
 1976 Fit      -0.017650
 1977 Fit      -0.020559
 1978 Fit      -0.020140
 1979 Fit      -0.013366
 1980 Fit      -0.007889
 1981 Fit       0.000374
 1982 Fit      -0.009943
 1983 Fit      -0.015155
 1984 Fit      -0.013006
 1985 Fit      -0.007148
 1986 Fit       0.001237
 1987 Fit      -0.002159
 1988 Fit      -0.013153
 1989 Fit      -0.019295
 1990 Fit      -0.020059
 1991 Fit      -0.016333
 1992 Fit      -0.010793
 1993 Fit      -0.006536
 1994 Fit       0.001693
 1995 Fit      -0.011377
 1996 Fit      -0.020399
 1997 Fit      -0.024208
 1998 Fit      -0.023026
 1999 Fit      -0.003756
 2000 Fit       0.003717
 2001 Fit      -0.011072
 2002 Fit      -0.021012
 2003 Fit      -0.026431
 2004 Fit      -0.027616
 2005 Fit       0.010531
 2006 Fit       0.011462
 2007 Fit       0.014960
 2008 Fit       0.007213
 2009 Fit       0.009803
 2010 Fit       0.016351
 2011 Fit       0.017899
 2012 Fit       0.016113
 2013 Fit       0.009209
 2014 Fit       0.011412
 2015 Fit       0.017542
 2016 Fit       0.020033
 2017 Fit       0.019508
 2018 Fit       0.013529
 2019 Fit       0.006269
 2020 Fit       0.017303
 2021 Fit      -0.023963
 2022 Fit      -0.019190
 2023 Fit      -0.021707
 2024 Fit      -0.025933
 2025 Fit      -0.025436
 2026 Fit      -0.020581
 2027 Fit      -0.011132
 2028 Fit      -0.010977
 2029 Fit      -0.013940
 2030 Fit      -0.019807
 2031 Fit      -0.025226
 2032 Fit      -0.027111
 2033 Fit      -0.024337
 2034 Fit      -0.010745
 2035 Fit      -0.019387
 2036 Fit      -0.024898
 2037 Fit      -0.025675
 2038 Fit      -0.021466
 2039 Fit      -0.004494
 2040 Fit      -0.014793
 2041 Fit      -0.021187
 2042 Fit      -0.022699
 2043 Fit      -0.019212
 2044 Fit      -0.008320
 2045 Fit      -0.015737
 2046 Fit      -0.016130
 2047 Fit      -0.005834
 2048 Fit       0.002093
 2049 Fit       0.002737
 2050 Fit      -0.001895
 2051 Fit       0.012325
 2052 Fit       0.011375
 2053 Fit       0.007365
 2054 Fit      -0.000483
 2055 Fit       0.018306
 2056 Fit       0.016603
 2057 Fit       0.012609
 2058 Fit       0.005529
 2059 Fit       0.022145
 2060 Fit       0.019407
 2061 Fit       0.014784
 2062 Fit       0.007031
 2063 Fit       0.001374
 2064 Fit       0.001886
 2065 Fit       0.001743
 2066 Fit       0.001834
 2067 Fit       0.001453
 2068 Fit       0.001529
 2069 Fit       0.002870
 2070 Fit       0.002509
 2071 Fit       0.002511
 2072 Fit       0.003560
 2073 Fit       0.003649
 2074 Fit       0.003469
 2075 Fit       0.004006
 2076 Fit       0.004466
 2077 Fit       0.003304
 2078 Fit       0.003668
 2079 Fit       0.002506
 2080 Fit       0.003027
 2081 Fit       0.001852
 2082 Fit       0.006403
 2083 Fit       0.003778
 2084 Fit       0.005268
 2085 Fit       0.003426
 2086 Fit       0.003385
 2087 Fit       0.003368
 2088 Fit       0.002367
 2089 Fit       0.003973
 2090 Fit       0.002854
 2091 Fit       0.001693
 2092 Fit       0.002841
 2093 Fit       0.001638
 2094 Fit       0.002114
 2095 Fit       0.001826
 2096 Fit       0.001129
 2097 Fit      -0.001213
 2098 Fit       0.000377
 2099 Fit       0.003252
 2100 Fit       0.000511
 2101 Fit       0.000441
 2102 Fit       0.001183
 2103 Fit       0.003381
 2104 Fit       0.003850
 2105 Fit       0.002534
 2106 Fit       0.001948
 2107 Fit       0.002499
 2108 Fit       0.003150
 2109 Fit       0.002479
 2110 Fit       0.003283
 2111 Fit       0.003860
 2112 Fit       0.002442
 2113 Fit       0.002873
 2114 Fit       0.002993
 2115 Fit       0.001991
 2116 Fit       0.002044
 2117 Fit       0.001829
 2118 Fit       0.001232
 2119 Fit       0.000828
 2120 Fit       0.000247
 2121 Fit       0.002456
 2122 Fit       0.002480
 2123 Fit       0.002250
 2124 Fit       0.002932
 2125 Fit       0.001930
 2126 Fit       0.002784
 2127 Fit       0.001901
 2128 Fit       0.001886
 2129 Fit       0.000466
 2130 Fit       0.001516
 2131 Fit       0.000863
 2132 Fit       0.000177
 2133 Fit       0.000050
 2134 Fit       0.001281
 2135 Fit      -0.000217
 2136 Fit       0.001830
 2137 Fit       0.002147
 2138 Fit      -0.000304
 2139 Fit       0.001799
 2140 Fit       0.001035
 2141 Fit       0.001360
 2142 Fit       0.000324
 2143 Fit       0.002216
 2144 Fit       0.002610
 2145 Fit       0.002232
 2146 Fit       0.000919
 2147 Fit       0.002435
 2148 Fit       0.002909
 2149 Fit       0.003359
 2150 Fit       0.003177
 2151 Fit       0.002166
 2152 Fit       0.000128
 2153 Fit       0.003822
 2154 Fit       0.003868
 2155 Fit       0.001294
 2156 Fit       0.002439
 2157 Fit       0.002355
 2158 Fit       0.001126
 2159 Fit       0.003205
 2160 Fit       0.003236
 2161 Fit       0.002568
 2162 Fit       0.000410
 2163 Fit       0.002121
 2164 Fit       0.003710
 2165 Fit       0.003471
 2166 Fit       0.002774
 2167 Fit       0.001870
 2168 Fit       0.000506
 2169 Fit       0.002859
 2170 Fit       0.003241
 2171 Fit       0.002478
 2172 Fit       0.004477
 2173 Fit       0.003187
 2174 Fit       0.002839
 2175 Fit       0.006236
 2176 Fit       0.003365
 2177 Fit      -0.000735
 2178 Fit      -0.000891
 2179 Fit      -0.001283
 2180 Fit       0.000470
 2181 Fit      -0.001396
 2182 Fit      -0.001581
 2183 Fit      -0.001110
 2184 Fit       0.000610
 2185 Fit      -0.001229
 2186 Fit      -0.001158
 2187 Fit      -0.000961
 2188 Fit      -0.000216
 2189 Fit       0.003135
 2190 Fit       0.001889
 2191 Fit       0.000402
 2192 Fit       0.003079
 2193 Fit       0.002227
 2194 Fit       0.001028
 2195 Fit      -0.000503
 2196 Fit       0.002121
 2197 Fit       0.001515
 2198 Fit       0.000452
 2199 Fit      -0.001003
 2200 Fit       0.000217
 2201 Fit       0.000013
 2202 Fit      -0.001003
 2203 Fit       0.002764
 2204 Fit       0.000899
 2205 Fit       0.002651
 2206 Fit       0.003340
 2207 Fit      -0.000176
 2208 Fit       0.001407
 2209 Fit       0.001961
 2210 Fit       0.002433
 2211 Fit       0.002521
 2212 Fit      -0.000411
 2213 Fit       0.000970
 2214 Fit       0.000662
 2215 Fit       0.001061
 2216 Fit       0.001142
 2217 Fit      -0.000239
 2218 Fit      -0.000208
 2219 Fit       0.000123
 2220 Fit      -0.000589
 2221 Fit       0.001359
 2222 Fit       0.001706
 2223 Fit       0.002141
 2224 Fit       0.002701
 2225 Fit      -0.000182
 2226 Fit       0.000080
 2227 Fit       0.000493
 2228 Fit       0.000963
 2229 Fit       0.002503
 2230 Fit       0.002997
 2231 Fit       0.001889
 2232 Fit       0.002023
 2233 Fit       0.003037
 -----------------------------------------------------------------
 Leave Link  602 at Thu Apr 27 16:23:25 2017, MaxMem=    33554432 cpu:         4.8
 (Enter /home/michal/g09/l9999.exe)

 Test job not archived.
 1\1\GINC-LINUX\SP\RHF\6-31G(d)\C27H46O3\MICHAL\27-Apr-2017\0\\#P HF/6-
 31G* SCF(Conver=6) NoSymm Test Pop=mk IOp(6/33=2) GFInput GFPrint\\MEP
  - Input generated by R.E.D.-III.x MOLECULE\\0,1\C,0,-1.0118497,1.9824
 87,1.68447787\H,0,-0.99343861,1.00508343,2.18205348\C,0,0.31537095,2.7
 0532105,1.95297623\H,0,0.47431577,2.80236997,3.03125657\H,0,0.22420268
 ,3.72883755,1.55400962\C,0,1.50198553,2.01335799,1.30858653\C,0,1.3854
 5608,1.66277832,-0.17808846\C,0,-0.01164496,1.01306178,-0.42571001\H,0
 ,0.,0.,0.\H,0,-0.17503692,0.89550277,-1.50222829\C,0,-1.1988632,1.7763
 799,0.18161116\H,0,-1.31395328,2.75741031,-0.30267558\H,0,-2.12921681,
 1.2263313,0.\C,0,2.59820584,1.74790707,2.03110678\H,0,2.62544161,2.009
 64831,3.08650246\C,0,3.8620762,1.13768227,1.50092106\H,0,4.04042391,0.
 16150982,1.97818352\C,0,3.90588158,0.992892,-0.02914545\H,0,4.20844256
 ,1.96848442,-0.43189646\C,0,2.49384665,0.62523345,-0.56643824\H,0,2.21
 413069,-0.31041406,-0.05529748\C,0,2.53625491,0.31213451,-2.07975987\H
 ,0,2.70875675,1.23563377,-2.64294327\H,0,1.55826436,-0.0601627,-2.4033
 2986\C,0,3.6062988,-0.72092439,-2.48230749\H,0,3.35489876,-1.69689367,
 -2.04242789\H,0,3.57169396,-0.8514787,-3.56857555\C,0,5.0123217,-0.310
 18309,-2.00234199\C,0,4.91259828,-0.08776744,-0.4652802\H,0,4.51602803
 ,-1.03690627,-0.06570111\C,0,6.37573824,0.,0.\H,0,6.49081951,-0.270535
 28,1.05427117\H,0,6.75556674,1.02147324,-0.10189651\C,0,7.12510419,-0.
 98032537,-0.94352853\H,0,7.9899812,-0.48735392,-1.40286128\H,0,7.51886
 396,-1.84357389,-0.39778139\C,0,6.10906798,-1.43032379,-2.04314115\H,0
 ,5.61054562,-2.3458797,-1.69163881\C,0,5.4990884,0.95069778,-2.7520957
 2\H,0,4.85135498,1.81400648,-2.58027288\H,0,6.50971951,1.24246891,-2.4
 5136308\H,0,5.51834393,0.77278869,-3.83243641\C,0,6.80265295,-1.770647
 75,-3.38575083\H,0,7.31331469,-0.8593283,-3.72971697\C,0,5.8282722,-2.
 19433621,-4.50115447\H,0,5.15158211,-2.99214598,-4.17561168\H,0,6.3820
 3527,-2.56411374,-5.3722337\H,0,5.21007628,-1.35996608,-4.84190674\C,0
 ,1.50621539,2.97062809,-1.00530021\H,0,1.27533129,2.79818138,-2.061178
 07\H,0,0.81418093,3.73640711,-0.64543487\H,0,2.51374795,3.39144762,-0.
 93621595\O,0,4.99186415,1.98556209,1.82870176\O,0,5.17350192,1.9465220
 3,3.27633955\H,0,6.03460649,1.50026304,3.33019807\O,0,-2.11868353,2.65
 99148,2.28611789\H,0,-2.19142371,3.54189707,1.89496508\C,0,7.92384766,
 -2.83208121,-3.21332152\H,0,8.41686575,-2.95159133,-4.18912465\H,0,8.6
 9143323,-2.43491208,-2.53968206\C,0,7.48031624,-4.2206667,-2.72196998\
 H,0,7.08363837,-4.15087031,-1.70144576\H,0,6.64866214,-4.57836328,-3.3
 4178442\C,0,8.59076363,-5.2875468,-2.77498051\H,0,8.9330406,-5.3797075
 1,-3.81595564\H,0,8.15396908,-6.26271373,-2.51285743\C,0,9.82448472,-5
 .05830666,-1.87592853\H,0,10.26614031,-4.08571986,-2.13598831\C,0,9.46
 378778,-5.02891692,-0.38217747\H,0,9.00095551,-5.9758732,-0.07498335\H
 ,0,10.35814912,-4.88167702,0.23391409\H,0,8.76303845,-4.2227795,-0.142
 06039\C,0,10.88748162,-6.13408697,-2.15108217\H,0,10.50433209,-7.13365
 083,-1.90822042\H,0,11.78755974,-5.96823299,-1.54810859\H,0,11.1864215
 3,-6.1399148,-3.20557001\\Version=EM64L-G09RevD.01\HF=-1273.6826179\RM
 SD=5.632e-07\Dipole=0.4269062,-0.424974,-0.8855802\Quadrupole=2.240566
 3,0.2443089,-2.4848751,-5.7515151,2.9865472,-6.125747\PG=C01 [X(C27H46
 O3)]\\@


     ON THE SURVIVAL OF THE FITTEST -
 "STRONG REPRESENTATIVES FROM EACH PAST ERA THRIVE TODAY,
 SUCH AS PROGRAMMING IN THE THIRTY YEAR OLD LANGUAGE KNOWN
 AS FORTRAN, AND EVEN IN THE ANCIENT SCRIPT KNOWN AS DIRECT
 MACHINE CODE. SOME PEOPLE MIGHT LOOK ON SUCH RELICS AS LIVING
 FOSSILS; OTHERS WOULD POINT OUT THAT EVEN A VERY OLD SPECIES
 MIGHT STILL BE FILLING A PARTICULAR ECOLOGICAL NICHE."
     -- ALAN KAY, SCI.AM. SEPTEMBER 1984
 Job cpu time:       0 days  0 hours 12 minutes 21.7 seconds.
 File lengths (MBytes):  RWF=    159 Int=      0 D2E=      0 Chk=     11 Scr=      1
 Normal termination of Gaussian 09 at Thu Apr 27 16:23:25 2017.
