 Entering Gaussian System, Link 0=/home/michal/g09/g09
 Input=JOB2-gau_m1-20-4.com
 Output=JOB2-gau_m1-20-4.log
 Initial command:
 /home/michal/g09/l1.exe "/home/michal/gauss_scratch/Gau-4507.inp" -scrdir="/home/michal/gauss_scratch/"
 Entering Link 1 = /home/michal/g09/l1.exe PID=      4508.
  
 Copyright (c) 1988,1990,1992,1993,1995,1998,2003,2009,2013,
            Gaussian, Inc.  All Rights Reserved.
  
 This is part of the Gaussian(R) 09 program.  It is based on
 the Gaussian(R) 03 system (copyright 2003, Gaussian, Inc.),
 the Gaussian(R) 98 system (copyright 1998, Gaussian, Inc.),
 the Gaussian(R) 94 system (copyright 1995, Gaussian, Inc.),
 the Gaussian 92(TM) system (copyright 1992, Gaussian, Inc.),
 the Gaussian 90(TM) system (copyright 1990, Gaussian, Inc.),
 the Gaussian 88(TM) system (copyright 1988, Gaussian, Inc.),
 the Gaussian 86(TM) system (copyright 1986, Carnegie Mellon
 University), and the Gaussian 82(TM) system (copyright 1983,
 Carnegie Mellon University). Gaussian is a federally registered
 trademark of Gaussian, Inc.
  
 This software contains proprietary and confidential information,
 including trade secrets, belonging to Gaussian, Inc.
  
 This software is provided under written license and may be
 used, copied, transmitted, or stored only in accord with that
 written license.
  
 The following legend is applicable only to US Government
 contracts under FAR:
  
                    RESTRICTED RIGHTS LEGEND
  
 Use, reproduction and disclosure by the US Government is
 subject to restrictions as set forth in subparagraphs (a)
 and (c) of the Commercial Computer Software - Restricted
 Rights clause in FAR 52.227-19.
  
 Gaussian, Inc.
 340 Quinnipiac St., Bldg. 40, Wallingford CT 06492
  
  
 ---------------------------------------------------------------
 Warning -- This program may not be used in any manner that
 competes with the business of Gaussian, Inc. or will provide
 assistance to any competitor of Gaussian, Inc.  The licensee
 of this program is prohibited from giving any competitor of
 Gaussian, Inc. access to this program.  By using this program,
 the user acknowledges that Gaussian, Inc. is engaged in the
 business of creating and licensing software in the field of
 computational chemistry and represents and warrants to the
 licensee that it is not a competitor of Gaussian, Inc. and that
 it will not use this program in any manner prohibited above.
 ---------------------------------------------------------------
  

 Cite this work as:
 Gaussian 09, Revision D.01,
 M. J. Frisch, G. W. Trucks, H. B. Schlegel, G. E. Scuseria, 
 M. A. Robb, J. R. Cheeseman, G. Scalmani, V. Barone, B. Mennucci, 
 G. A. Petersson, H. Nakatsuji, M. Caricato, X. Li, H. P. Hratchian, 
 A. F. Izmaylov, J. Bloino, G. Zheng, J. L. Sonnenberg, M. Hada, 
 M. Ehara, K. Toyota, R. Fukuda, J. Hasegawa, M. Ishida, T. Nakajima, 
 Y. Honda, O. Kitao, H. Nakai, T. Vreven, J. A. Montgomery, Jr., 
 J. E. Peralta, F. Ogliaro, M. Bearpark, J. J. Heyd, E. Brothers, 
 K. N. Kudin, V. N. Staroverov, T. Keith, R. Kobayashi, J. Normand, 
 K. Raghavachari, A. Rendell, J. C. Burant, S. S. Iyengar, J. Tomasi, 
 M. Cossi, N. Rega, J. M. Millam, M. Klene, J. E. Knox, J. B. Cross, 
 V. Bakken, C. Adamo, J. Jaramillo, R. Gomperts, R. E. Stratmann, 
 O. Yazyev, A. J. Austin, R. Cammi, C. Pomelli, J. W. Ochterski, 
 R. L. Martin, K. Morokuma, V. G. Zakrzewski, G. A. Voth, 
 P. Salvador, J. J. Dannenberg, S. Dapprich, A. D. Daniels, 
 O. Farkas, J. B. Foresman, J. V. Ortiz, J. Cioslowski, 
 and D. J. Fox, Gaussian, Inc., Wallingford CT, 2013.
 
 ******************************************
 Gaussian 09:  EM64L-G09RevD.01 24-Apr-2013
                27-Apr-2017 
 ******************************************
 %Mem=256MB
 %NProc=12
 Will use up to   12 processors via shared memory.
 ----------------------------------------------------------------------
 #P HF/6-31G* SCF(Conver=6) NoSymm Test Pop=mk IOp(6/33=2) GFInput GFPr
 int
 ----------------------------------------------------------------------
 1/38=1/1;
 2/12=2,15=1,17=6,18=5,40=1/2;
 3/5=1,6=6,7=1,11=9,16=1,24=110,25=1,30=1/1,2,3;
 4//1;
 5/5=2,6=6,38=5/2;
 6/7=2,8=2,9=2,10=2,15=8,20=1,28=1,33=2/1,2;
 99/5=1,9=1/99;
 Leave Link    1 at Thu Apr 27 16:19:11 2017, MaxMem=    33554432 cpu:         0.6
 (Enter /home/michal/g09/l101.exe)
 ----------------------------------------------
 MEP - Input generated by R.E.D.-III.x MOLECULE
 ----------------------------------------------
 Symbolic Z-matrix:
 Charge =  0 Multiplicity = 1
 C                     0.99855  -0.91399  -1.6808 
 H                     1.15857   0.04898  -2.1811 
 C                     2.20761  -1.82182  -1.94525 
 H                     2.35166  -1.94468  -3.023 
 H                     1.96925  -2.82002  -1.54293 
 C                     3.48119  -1.30585  -1.30204 
 C                     3.4157   -0.93542   0.18301 
 C                     2.12576  -0.09192   0.42781 
 H                     2.28234   0.90817   0. 
 H                     1.98018   0.05009   1.50391 
 C                     0.84181  -0.67859  -0.17884 
 H                     0.58643  -1.63142   0.30812 
 H                     0.        0.        0. 
 C                     4.605    -1.20535  -2.02399 
 H                     4.59497  -1.4735   -3.07809 
 C                     5.94327  -0.78111  -1.49502 
 H                     6.2617    0.15532  -1.97893 
 C                     6.00615  -0.63306   0.03409 
 H                     6.16679  -1.63893   0.44397 
 C                     4.66075  -0.06445   0.56695 
 H                     4.51773   0.89833   0.04972 
 C                     4.74689   0.24916   2.07828 
 H                     4.78625  -0.68575   2.64771 
 H                     3.83181   0.75897   2.3984 
 C                     5.95291   1.12232   2.4753 
 H                     5.8428    2.1212    2.02888 
 H                     5.93711   1.26366   3.56065 
 C                     7.28645   0.51293   1.99963 
 C                     7.15603   0.29672   0.46393 
 H                     6.89766   1.2898    0.05791 
 C                     8.59182   0.        0. 
 H                     8.74324   0.24393  -1.05618 
 H                     8.82372  -1.06411   0.10952 
 C                     9.4726    0.87151   0.93678 
 H                     10.26017   0.26477   1.39896 
 H                     9.98318   1.66793   0.38583 
 C                     8.53113   1.46657   2.03371 
 H                     8.16573   2.44053   1.67611 
 C                     7.58888  -0.79924   2.75822 
 H                     6.82492  -1.56265   2.59102 
 H                     8.54793  -1.23352   2.46061 
 H                     7.63284  -0.61862   3.83744 
 C                     9.26605   1.71269   3.37498 
 H                     9.63395   0.73839   3.72837 
 C                     8.36408   2.2891    4.48265 
 H                     7.82292   3.18082   4.14706 
 H                     8.96441   2.57401   5.3548 
 H                     7.62151   1.56403   4.82504 
 C                     3.34919  -2.24337   1.0161 
 H                     3.14918  -2.03464   2.07173 
 H                     2.55268  -2.90289   0.66179 
 H                     4.2852   -2.80546   0.94628 
 O                     6.93878  -1.78607  -1.81428 
 O                     7.12651  -1.7837   -3.26168 
 H                     8.04352  -1.46797  -3.3161 
 O                    -0.19394  -1.42621  -2.28211 
 H                    -0.39373  -2.28725  -1.88857 
 C                     10.53369   2.59353   3.20048 
 H                     11.04539   2.61895   4.17148 
 H                     11.2294   2.09844   2.51098 
 C                     10.30302   4.03372   2.71266 
 H                     9.75823   4.01381   1.76022 
 H                     9.65445   4.57015   3.41588 
 C                     11.6001   4.83453   2.48818 
 H                     11.34046   5.80132   2.03171 
 H                     12.21251   4.3041    1.74452 
 C                     12.47456   5.11171   3.72981 
 H                     12.74881   4.14797   4.18203 
 C                     13.77866   5.81081   3.31311 
 H                     13.5704   6.78659   2.85554 
 H                     14.43215   5.98182   4.17619 
 H                     14.33669   5.2135    2.58288 
 C                     11.73651   5.9393    4.79405 
 H                     11.42073   6.90754   4.38402 
 H                     12.38604   6.13941   5.65381 
 H                     10.8431   5.42936   5.16864 
 
 NAtoms=     76 NQM=       76 NQMF=       0 NMMI=      0 NMMIF=      0
                NMic=       0 NMicF=      0.
                    Isotopes and Nuclear Properties:
 (Nuclear quadrupole moments (NQMom) in fm**2, nuclear magnetic moments (NMagM)
  in nuclear magnetons)

  Atom         1           2           3           4           5           6           7           8           9          10
 IAtWgt=          12           1          12           1           1          12          12          12           1           1
 AtmWgt=  12.0000000   1.0078250  12.0000000   1.0078250   1.0078250  12.0000000  12.0000000  12.0000000   1.0078250   1.0078250
 NucSpn=           0           1           0           1           1           0           0           0           1           1
 AtZEff=   0.0000000   0.0000000   0.0000000   0.0000000   0.0000000   0.0000000   0.0000000   0.0000000   0.0000000   0.0000000
 NQMom=    0.0000000   0.0000000   0.0000000   0.0000000   0.0000000   0.0000000   0.0000000   0.0000000   0.0000000   0.0000000
 NMagM=    0.0000000   2.7928460   0.0000000   2.7928460   2.7928460   0.0000000   0.0000000   0.0000000   2.7928460   2.7928460
 AtZNuc=   6.0000000   1.0000000   6.0000000   1.0000000   1.0000000   6.0000000   6.0000000   6.0000000   1.0000000   1.0000000

  Atom        11          12          13          14          15          16          17          18          19          20
 IAtWgt=          12           1           1          12           1          12           1          12           1          12
 AtmWgt=  12.0000000   1.0078250   1.0078250  12.0000000   1.0078250  12.0000000   1.0078250  12.0000000   1.0078250  12.0000000
 NucSpn=           0           1           1           0           1           0           1           0           1           0
 AtZEff=   0.0000000   0.0000000   0.0000000   0.0000000   0.0000000   0.0000000   0.0000000   0.0000000   0.0000000   0.0000000
 NQMom=    0.0000000   0.0000000   0.0000000   0.0000000   0.0000000   0.0000000   0.0000000   0.0000000   0.0000000   0.0000000
 NMagM=    0.0000000   2.7928460   2.7928460   0.0000000   2.7928460   0.0000000   2.7928460   0.0000000   2.7928460   0.0000000
 AtZNuc=   6.0000000   1.0000000   1.0000000   6.0000000   1.0000000   6.0000000   1.0000000   6.0000000   1.0000000   6.0000000

  Atom        21          22          23          24          25          26          27          28          29          30
 IAtWgt=           1          12           1           1          12           1           1          12          12           1
 AtmWgt=   1.0078250  12.0000000   1.0078250   1.0078250  12.0000000   1.0078250   1.0078250  12.0000000  12.0000000   1.0078250
 NucSpn=           1           0           1           1           0           1           1           0           0           1
 AtZEff=   0.0000000   0.0000000   0.0000000   0.0000000   0.0000000   0.0000000   0.0000000   0.0000000   0.0000000   0.0000000
 NQMom=    0.0000000   0.0000000   0.0000000   0.0000000   0.0000000   0.0000000   0.0000000   0.0000000   0.0000000   0.0000000
 NMagM=    2.7928460   0.0000000   2.7928460   2.7928460   0.0000000   2.7928460   2.7928460   0.0000000   0.0000000   2.7928460
 AtZNuc=   1.0000000   6.0000000   1.0000000   1.0000000   6.0000000   1.0000000   1.0000000   6.0000000   6.0000000   1.0000000

  Atom        31          32          33          34          35          36          37          38          39          40
 IAtWgt=          12           1           1          12           1           1          12           1          12           1
 AtmWgt=  12.0000000   1.0078250   1.0078250  12.0000000   1.0078250   1.0078250  12.0000000   1.0078250  12.0000000   1.0078250
 NucSpn=           0           1           1           0           1           1           0           1           0           1
 AtZEff=   0.0000000   0.0000000   0.0000000   0.0000000   0.0000000   0.0000000   0.0000000   0.0000000   0.0000000   0.0000000
 NQMom=    0.0000000   0.0000000   0.0000000   0.0000000   0.0000000   0.0000000   0.0000000   0.0000000   0.0000000   0.0000000
 NMagM=    0.0000000   2.7928460   2.7928460   0.0000000   2.7928460   2.7928460   0.0000000   2.7928460   0.0000000   2.7928460
 AtZNuc=   6.0000000   1.0000000   1.0000000   6.0000000   1.0000000   1.0000000   6.0000000   1.0000000   6.0000000   1.0000000

  Atom        41          42          43          44          45          46          47          48          49          50
 IAtWgt=           1           1          12           1          12           1           1           1          12           1
 AtmWgt=   1.0078250   1.0078250  12.0000000   1.0078250  12.0000000   1.0078250   1.0078250   1.0078250  12.0000000   1.0078250
 NucSpn=           1           1           0           1           0           1           1           1           0           1
 AtZEff=   0.0000000   0.0000000   0.0000000   0.0000000   0.0000000   0.0000000   0.0000000   0.0000000   0.0000000   0.0000000
 NQMom=    0.0000000   0.0000000   0.0000000   0.0000000   0.0000000   0.0000000   0.0000000   0.0000000   0.0000000   0.0000000
 NMagM=    2.7928460   2.7928460   0.0000000   2.7928460   0.0000000   2.7928460   2.7928460   2.7928460   0.0000000   2.7928460
 AtZNuc=   1.0000000   1.0000000   6.0000000   1.0000000   6.0000000   1.0000000   1.0000000   1.0000000   6.0000000   1.0000000

  Atom        51          52          53          54          55          56          57          58          59          60
 IAtWgt=           1           1          16          16           1          16           1          12           1           1
 AtmWgt=   1.0078250   1.0078250  15.9949146  15.9949146   1.0078250  15.9949146   1.0078250  12.0000000   1.0078250   1.0078250
 NucSpn=           1           1           0           0           1           0           1           0           1           1
 AtZEff=   0.0000000   0.0000000   0.0000000   0.0000000   0.0000000   0.0000000   0.0000000   0.0000000   0.0000000   0.0000000
 NQMom=    0.0000000   0.0000000   0.0000000   0.0000000   0.0000000   0.0000000   0.0000000   0.0000000   0.0000000   0.0000000
 NMagM=    2.7928460   2.7928460   0.0000000   0.0000000   2.7928460   0.0000000   2.7928460   0.0000000   2.7928460   2.7928460
 AtZNuc=   1.0000000   1.0000000   8.0000000   8.0000000   1.0000000   8.0000000   1.0000000   6.0000000   1.0000000   1.0000000

  Atom        61          62          63          64          65          66          67          68          69          70
 IAtWgt=          12           1           1          12           1           1          12           1          12           1
 AtmWgt=  12.0000000   1.0078250   1.0078250  12.0000000   1.0078250   1.0078250  12.0000000   1.0078250  12.0000000   1.0078250
 NucSpn=           0           1           1           0           1           1           0           1           0           1
 AtZEff=   0.0000000   0.0000000   0.0000000   0.0000000   0.0000000   0.0000000   0.0000000   0.0000000   0.0000000   0.0000000
 NQMom=    0.0000000   0.0000000   0.0000000   0.0000000   0.0000000   0.0000000   0.0000000   0.0000000   0.0000000   0.0000000
 NMagM=    0.0000000   2.7928460   2.7928460   0.0000000   2.7928460   2.7928460   0.0000000   2.7928460   0.0000000   2.7928460
 AtZNuc=   6.0000000   1.0000000   1.0000000   6.0000000   1.0000000   1.0000000   6.0000000   1.0000000   6.0000000   1.0000000

  Atom        71          72          73          74          75          76
 IAtWgt=           1           1          12           1           1           1
 AtmWgt=   1.0078250   1.0078250  12.0000000   1.0078250   1.0078250   1.0078250
 NucSpn=           1           1           0           1           1           1
 AtZEff=   0.0000000   0.0000000   0.0000000   0.0000000   0.0000000   0.0000000
 NQMom=    0.0000000   0.0000000   0.0000000   0.0000000   0.0000000   0.0000000
 NMagM=    2.7928460   2.7928460   0.0000000   2.7928460   2.7928460   2.7928460
 AtZNuc=   1.0000000   1.0000000   6.0000000   1.0000000   1.0000000   1.0000000
 Leave Link  101 at Thu Apr 27 16:19:11 2017, MaxMem=    33554432 cpu:         1.0
 (Enter /home/michal/g09/l202.exe)
 Symmetry turned off by external request.
 Stoichiometry    C27H46O3
 Framework group  C1[X(C27H46O3)]
 Deg. of freedom   222
 Full point group                 C1      NOp   1
                          Input orientation:                          
 ---------------------------------------------------------------------
 Center     Atomic      Atomic             Coordinates (Angstroms)
 Number     Number       Type             X           Y           Z
 ---------------------------------------------------------------------
      1          6           0        0.998548   -0.913994   -1.680802
      2          1           0        1.158570    0.048980   -2.181104
      3          6           0        2.207612   -1.821818   -1.945254
      4          1           0        2.351659   -1.944682   -3.023002
      5          1           0        1.969250   -2.820018   -1.542926
      6          6           0        3.481192   -1.305845   -1.302038
      7          6           0        3.415703   -0.935419    0.183015
      8          6           0        2.125765   -0.091918    0.427809
      9          1           0        2.282340    0.908166    0.000000
     10          1           0        1.980180    0.050092    1.503911
     11          6           0        0.841807   -0.678588   -0.178841
     12          1           0        0.586434   -1.631416    0.308118
     13          1           0        0.000000    0.000000    0.000000
     14          6           0        4.605002   -1.205346   -2.023994
     15          1           0        4.594972   -1.473504   -3.078094
     16          6           0        5.943265   -0.781110   -1.495016
     17          1           0        6.261701    0.155320   -1.978929
     18          6           0        6.006145   -0.633063    0.034089
     19          1           0        6.166791   -1.638931    0.443968
     20          6           0        4.660751   -0.064448    0.566953
     21          1           0        4.517733    0.898334    0.049719
     22          6           0        4.746886    0.249155    2.078282
     23          1           0        4.786245   -0.685752    2.647714
     24          1           0        3.831810    0.758972    2.398395
     25          6           0        5.952910    1.122316    2.475300
     26          1           0        5.842797    2.121200    2.028878
     27          1           0        5.937114    1.263664    3.560651
     28          6           0        7.286453    0.512932    1.999633
     29          6           0        7.156027    0.296716    0.463931
     30          1           0        6.897661    1.289801    0.057909
     31          6           0        8.591816    0.000000    0.000000
     32          1           0        8.743240    0.243927   -1.056185
     33          1           0        8.823716   -1.064111    0.109516
     34          6           0        9.472603    0.871507    0.936778
     35          1           0       10.260166    0.264772    1.398964
     36          1           0        9.983181    1.667929    0.385829
     37          6           0        8.531133    1.466568    2.033707
     38          1           0        8.165731    2.440529    1.676112
     39          6           0        7.588882   -0.799236    2.758224
     40          1           0        6.824920   -1.562652    2.591018
     41          1           0        8.547930   -1.233524    2.460609
     42          1           0        7.632835   -0.618615    3.837442
     43          6           0        9.266047    1.712691    3.374980
     44          1           0        9.633953    0.738390    3.728366
     45          6           0        8.364084    2.289099    4.482653
     46          1           0        7.822922    3.180825    4.147063
     47          1           0        8.964406    2.574013    5.354801
     48          1           0        7.621508    1.564032    4.825037
     49          6           0        3.349188   -2.243373    1.016100
     50          1           0        3.149176   -2.034637    2.071730
     51          1           0        2.552683   -2.902886    0.661793
     52          1           0        4.285198   -2.805455    0.946275
     53          8           0        6.938775   -1.786068   -1.814281
     54          8           0        7.126513   -1.783700   -3.261678
     55          1           0        8.043515   -1.467968   -3.316098
     56          8           0       -0.193943   -1.426210   -2.282112
     57          1           0       -0.393730   -2.287253   -1.888569
     58          6           0       10.533691    2.593526    3.200480
     59          1           0       11.045393    2.618955    4.171476
     60          1           0       11.229401    2.098444    2.510981
     61          6           0       10.303021    4.033724    2.712660
     62          1           0        9.758226    4.013815    1.760218
     63          1           0        9.654454    4.570149    3.415879
     64          6           0       11.600101    4.834531    2.488175
     65          1           0       11.340460    5.801324    2.031706
     66          1           0       12.212513    4.304105    1.744520
     67          6           0       12.474562    5.111707    3.729813
     68          1           0       12.748808    4.147971    4.182031
     69          6           0       13.778659    5.810807    3.313110
     70          1           0       13.570402    6.786593    2.855541
     71          1           0       14.432150    5.981816    4.176189
     72          1           0       14.336689    5.213503    2.582876
     73          6           0       11.736515    5.939298    4.794054
     74          1           0       11.420728    6.907544    4.384017
     75          1           0       12.386037    6.139407    5.653814
     76          1           0       10.843096    5.429364    5.168637
 ---------------------------------------------------------------------
 Rotational constants (GHZ):      0.3363531      0.0559060      0.0520814
 Leave Link  202 at Thu Apr 27 16:19:11 2017, MaxMem=    33554432 cpu:         0.0
 (Enter /home/michal/g09/l301.exe)
 Standard basis: 6-31G(d) (6D, 7F)
 Ernie: Thresh=  0.10000D-02 Tol=  0.10000D-05 Strict=F.
 AO basis set in the form of general basis input (Overlap normalization):
      1 0
 S   6 1.00       0.000000000000
      0.3047524880D+04  0.1834737132D-02
      0.4573695180D+03  0.1403732281D-01
      0.1039486850D+03  0.6884262226D-01
      0.2921015530D+02  0.2321844432D+00
      0.9286662960D+01  0.4679413484D+00
      0.3163926960D+01  0.3623119853D+00
 SP   3 1.00       0.000000000000
      0.7868272350D+01 -0.1193324198D+00  0.6899906659D-01
      0.1881288540D+01 -0.1608541517D+00  0.3164239610D+00
      0.5442492580D+00  0.1143456438D+01  0.7443082909D+00
 SP   1 1.00       0.000000000000
      0.1687144782D+00  0.1000000000D+01  0.1000000000D+01
 D   1 1.00       0.000000000000
      0.8000000000D+00  0.1000000000D+01
 ****
      2 0
 S   3 1.00       0.000000000000
      0.1873113696D+02  0.3349460434D-01
      0.2825394365D+01  0.2347269535D+00
      0.6401216923D+00  0.8137573261D+00
 S   1 1.00       0.000000000000
      0.1612777588D+00  0.1000000000D+01
 ****
      3 0
 S   6 1.00       0.000000000000
      0.3047524880D+04  0.1834737132D-02
      0.4573695180D+03  0.1403732281D-01
      0.1039486850D+03  0.6884262226D-01
      0.2921015530D+02  0.2321844432D+00
      0.9286662960D+01  0.4679413484D+00
      0.3163926960D+01  0.3623119853D+00
 SP   3 1.00       0.000000000000
      0.7868272350D+01 -0.1193324198D+00  0.6899906659D-01
      0.1881288540D+01 -0.1608541517D+00  0.3164239610D+00
      0.5442492580D+00  0.1143456438D+01  0.7443082909D+00
 SP   1 1.00       0.000000000000
      0.1687144782D+00  0.1000000000D+01  0.1000000000D+01
 D   1 1.00       0.000000000000
      0.8000000000D+00  0.1000000000D+01
 ****
      4 0
 S   3 1.00       0.000000000000
      0.1873113696D+02  0.3349460434D-01
      0.2825394365D+01  0.2347269535D+00
      0.6401216923D+00  0.8137573261D+00
 S   1 1.00       0.000000000000
      0.1612777588D+00  0.1000000000D+01
 ****
      5 0
 S   3 1.00       0.000000000000
      0.1873113696D+02  0.3349460434D-01
      0.2825394365D+01  0.2347269535D+00
      0.6401216923D+00  0.8137573261D+00
 S   1 1.00       0.000000000000
      0.1612777588D+00  0.1000000000D+01
 ****
      6 0
 S   6 1.00       0.000000000000
      0.3047524880D+04  0.1834737132D-02
      0.4573695180D+03  0.1403732281D-01
      0.1039486850D+03  0.6884262226D-01
      0.2921015530D+02  0.2321844432D+00
      0.9286662960D+01  0.4679413484D+00
      0.3163926960D+01  0.3623119853D+00
 SP   3 1.00       0.000000000000
      0.7868272350D+01 -0.1193324198D+00  0.6899906659D-01
      0.1881288540D+01 -0.1608541517D+00  0.3164239610D+00
      0.5442492580D+00  0.1143456438D+01  0.7443082909D+00
 SP   1 1.00       0.000000000000
      0.1687144782D+00  0.1000000000D+01  0.1000000000D+01
 D   1 1.00       0.000000000000
      0.8000000000D+00  0.1000000000D+01
 ****
      7 0
 S   6 1.00       0.000000000000
      0.3047524880D+04  0.1834737132D-02
      0.4573695180D+03  0.1403732281D-01
      0.1039486850D+03  0.6884262226D-01
      0.2921015530D+02  0.2321844432D+00
      0.9286662960D+01  0.4679413484D+00
      0.3163926960D+01  0.3623119853D+00
 SP   3 1.00       0.000000000000
      0.7868272350D+01 -0.1193324198D+00  0.6899906659D-01
      0.1881288540D+01 -0.1608541517D+00  0.3164239610D+00
      0.5442492580D+00  0.1143456438D+01  0.7443082909D+00
 SP   1 1.00       0.000000000000
      0.1687144782D+00  0.1000000000D+01  0.1000000000D+01
 D   1 1.00       0.000000000000
      0.8000000000D+00  0.1000000000D+01
 ****
      8 0
 S   6 1.00       0.000000000000
      0.3047524880D+04  0.1834737132D-02
      0.4573695180D+03  0.1403732281D-01
      0.1039486850D+03  0.6884262226D-01
      0.2921015530D+02  0.2321844432D+00
      0.9286662960D+01  0.4679413484D+00
      0.3163926960D+01  0.3623119853D+00
 SP   3 1.00       0.000000000000
      0.7868272350D+01 -0.1193324198D+00  0.6899906659D-01
      0.1881288540D+01 -0.1608541517D+00  0.3164239610D+00
      0.5442492580D+00  0.1143456438D+01  0.7443082909D+00
 SP   1 1.00       0.000000000000
      0.1687144782D+00  0.1000000000D+01  0.1000000000D+01
 D   1 1.00       0.000000000000
      0.8000000000D+00  0.1000000000D+01
 ****
      9 0
 S   3 1.00       0.000000000000
      0.1873113696D+02  0.3349460434D-01
      0.2825394365D+01  0.2347269535D+00
      0.6401216923D+00  0.8137573261D+00
 S   1 1.00       0.000000000000
      0.1612777588D+00  0.1000000000D+01
 ****
     10 0
 S   3 1.00       0.000000000000
      0.1873113696D+02  0.3349460434D-01
      0.2825394365D+01  0.2347269535D+00
      0.6401216923D+00  0.8137573261D+00
 S   1 1.00       0.000000000000
      0.1612777588D+00  0.1000000000D+01
 ****
     11 0
 S   6 1.00       0.000000000000
      0.3047524880D+04  0.1834737132D-02
      0.4573695180D+03  0.1403732281D-01
      0.1039486850D+03  0.6884262226D-01
      0.2921015530D+02  0.2321844432D+00
      0.9286662960D+01  0.4679413484D+00
      0.3163926960D+01  0.3623119853D+00
 SP   3 1.00       0.000000000000
      0.7868272350D+01 -0.1193324198D+00  0.6899906659D-01
      0.1881288540D+01 -0.1608541517D+00  0.3164239610D+00
      0.5442492580D+00  0.1143456438D+01  0.7443082909D+00
 SP   1 1.00       0.000000000000
      0.1687144782D+00  0.1000000000D+01  0.1000000000D+01
 D   1 1.00       0.000000000000
      0.8000000000D+00  0.1000000000D+01
 ****
     12 0
 S   3 1.00       0.000000000000
      0.1873113696D+02  0.3349460434D-01
      0.2825394365D+01  0.2347269535D+00
      0.6401216923D+00  0.8137573261D+00
 S   1 1.00       0.000000000000
      0.1612777588D+00  0.1000000000D+01
 ****
     13 0
 S   3 1.00       0.000000000000
      0.1873113696D+02  0.3349460434D-01
      0.2825394365D+01  0.2347269535D+00
      0.6401216923D+00  0.8137573261D+00
 S   1 1.00       0.000000000000
      0.1612777588D+00  0.1000000000D+01
 ****
     14 0
 S   6 1.00       0.000000000000
      0.3047524880D+04  0.1834737132D-02
      0.4573695180D+03  0.1403732281D-01
      0.1039486850D+03  0.6884262226D-01
      0.2921015530D+02  0.2321844432D+00
      0.9286662960D+01  0.4679413484D+00
      0.3163926960D+01  0.3623119853D+00
 SP   3 1.00       0.000000000000
      0.7868272350D+01 -0.1193324198D+00  0.6899906659D-01
      0.1881288540D+01 -0.1608541517D+00  0.3164239610D+00
      0.5442492580D+00  0.1143456438D+01  0.7443082909D+00
 SP   1 1.00       0.000000000000
      0.1687144782D+00  0.1000000000D+01  0.1000000000D+01
 D   1 1.00       0.000000000000
      0.8000000000D+00  0.1000000000D+01
 ****
     15 0
 S   3 1.00       0.000000000000
      0.1873113696D+02  0.3349460434D-01
      0.2825394365D+01  0.2347269535D+00
      0.6401216923D+00  0.8137573261D+00
 S   1 1.00       0.000000000000
      0.1612777588D+00  0.1000000000D+01
 ****
     16 0
 S   6 1.00       0.000000000000
      0.3047524880D+04  0.1834737132D-02
      0.4573695180D+03  0.1403732281D-01
      0.1039486850D+03  0.6884262226D-01
      0.2921015530D+02  0.2321844432D+00
      0.9286662960D+01  0.4679413484D+00
      0.3163926960D+01  0.3623119853D+00
 SP   3 1.00       0.000000000000
      0.7868272350D+01 -0.1193324198D+00  0.6899906659D-01
      0.1881288540D+01 -0.1608541517D+00  0.3164239610D+00
      0.5442492580D+00  0.1143456438D+01  0.7443082909D+00
 SP   1 1.00       0.000000000000
      0.1687144782D+00  0.1000000000D+01  0.1000000000D+01
 D   1 1.00       0.000000000000
      0.8000000000D+00  0.1000000000D+01
 ****
     17 0
 S   3 1.00       0.000000000000
      0.1873113696D+02  0.3349460434D-01
      0.2825394365D+01  0.2347269535D+00
      0.6401216923D+00  0.8137573261D+00
 S   1 1.00       0.000000000000
      0.1612777588D+00  0.1000000000D+01
 ****
     18 0
 S   6 1.00       0.000000000000
      0.3047524880D+04  0.1834737132D-02
      0.4573695180D+03  0.1403732281D-01
      0.1039486850D+03  0.6884262226D-01
      0.2921015530D+02  0.2321844432D+00
      0.9286662960D+01  0.4679413484D+00
      0.3163926960D+01  0.3623119853D+00
 SP   3 1.00       0.000000000000
      0.7868272350D+01 -0.1193324198D+00  0.6899906659D-01
      0.1881288540D+01 -0.1608541517D+00  0.3164239610D+00
      0.5442492580D+00  0.1143456438D+01  0.7443082909D+00
 SP   1 1.00       0.000000000000
      0.1687144782D+00  0.1000000000D+01  0.1000000000D+01
 D   1 1.00       0.000000000000
      0.8000000000D+00  0.1000000000D+01
 ****
     19 0
 S   3 1.00       0.000000000000
      0.1873113696D+02  0.3349460434D-01
      0.2825394365D+01  0.2347269535D+00
      0.6401216923D+00  0.8137573261D+00
 S   1 1.00       0.000000000000
      0.1612777588D+00  0.1000000000D+01
 ****
     20 0
 S   6 1.00       0.000000000000
      0.3047524880D+04  0.1834737132D-02
      0.4573695180D+03  0.1403732281D-01
      0.1039486850D+03  0.6884262226D-01
      0.2921015530D+02  0.2321844432D+00
      0.9286662960D+01  0.4679413484D+00
      0.3163926960D+01  0.3623119853D+00
 SP   3 1.00       0.000000000000
      0.7868272350D+01 -0.1193324198D+00  0.6899906659D-01
      0.1881288540D+01 -0.1608541517D+00  0.3164239610D+00
      0.5442492580D+00  0.1143456438D+01  0.7443082909D+00
 SP   1 1.00       0.000000000000
      0.1687144782D+00  0.1000000000D+01  0.1000000000D+01
 D   1 1.00       0.000000000000
      0.8000000000D+00  0.1000000000D+01
 ****
     21 0
 S   3 1.00       0.000000000000
      0.1873113696D+02  0.3349460434D-01
      0.2825394365D+01  0.2347269535D+00
      0.6401216923D+00  0.8137573261D+00
 S   1 1.00       0.000000000000
      0.1612777588D+00  0.1000000000D+01
 ****
     22 0
 S   6 1.00       0.000000000000
      0.3047524880D+04  0.1834737132D-02
      0.4573695180D+03  0.1403732281D-01
      0.1039486850D+03  0.6884262226D-01
      0.2921015530D+02  0.2321844432D+00
      0.9286662960D+01  0.4679413484D+00
      0.3163926960D+01  0.3623119853D+00
 SP   3 1.00       0.000000000000
      0.7868272350D+01 -0.1193324198D+00  0.6899906659D-01
      0.1881288540D+01 -0.1608541517D+00  0.3164239610D+00
      0.5442492580D+00  0.1143456438D+01  0.7443082909D+00
 SP   1 1.00       0.000000000000
      0.1687144782D+00  0.1000000000D+01  0.1000000000D+01
 D   1 1.00       0.000000000000
      0.8000000000D+00  0.1000000000D+01
 ****
     23 0
 S   3 1.00       0.000000000000
      0.1873113696D+02  0.3349460434D-01
      0.2825394365D+01  0.2347269535D+00
      0.6401216923D+00  0.8137573261D+00
 S   1 1.00       0.000000000000
      0.1612777588D+00  0.1000000000D+01
 ****
     24 0
 S   3 1.00       0.000000000000
      0.1873113696D+02  0.3349460434D-01
      0.2825394365D+01  0.2347269535D+00
      0.6401216923D+00  0.8137573261D+00
 S   1 1.00       0.000000000000
      0.1612777588D+00  0.1000000000D+01
 ****
     25 0
 S   6 1.00       0.000000000000
      0.3047524880D+04  0.1834737132D-02
      0.4573695180D+03  0.1403732281D-01
      0.1039486850D+03  0.6884262226D-01
      0.2921015530D+02  0.2321844432D+00
      0.9286662960D+01  0.4679413484D+00
      0.3163926960D+01  0.3623119853D+00
 SP   3 1.00       0.000000000000
      0.7868272350D+01 -0.1193324198D+00  0.6899906659D-01
      0.1881288540D+01 -0.1608541517D+00  0.3164239610D+00
      0.5442492580D+00  0.1143456438D+01  0.7443082909D+00
 SP   1 1.00       0.000000000000
      0.1687144782D+00  0.1000000000D+01  0.1000000000D+01
 D   1 1.00       0.000000000000
      0.8000000000D+00  0.1000000000D+01
 ****
     26 0
 S   3 1.00       0.000000000000
      0.1873113696D+02  0.3349460434D-01
      0.2825394365D+01  0.2347269535D+00
      0.6401216923D+00  0.8137573261D+00
 S   1 1.00       0.000000000000
      0.1612777588D+00  0.1000000000D+01
 ****
     27 0
 S   3 1.00       0.000000000000
      0.1873113696D+02  0.3349460434D-01
      0.2825394365D+01  0.2347269535D+00
      0.6401216923D+00  0.8137573261D+00
 S   1 1.00       0.000000000000
      0.1612777588D+00  0.1000000000D+01
 ****
     28 0
 S   6 1.00       0.000000000000
      0.3047524880D+04  0.1834737132D-02
      0.4573695180D+03  0.1403732281D-01
      0.1039486850D+03  0.6884262226D-01
      0.2921015530D+02  0.2321844432D+00
      0.9286662960D+01  0.4679413484D+00
      0.3163926960D+01  0.3623119853D+00
 SP   3 1.00       0.000000000000
      0.7868272350D+01 -0.1193324198D+00  0.6899906659D-01
      0.1881288540D+01 -0.1608541517D+00  0.3164239610D+00
      0.5442492580D+00  0.1143456438D+01  0.7443082909D+00
 SP   1 1.00       0.000000000000
      0.1687144782D+00  0.1000000000D+01  0.1000000000D+01
 D   1 1.00       0.000000000000
      0.8000000000D+00  0.1000000000D+01
 ****
     29 0
 S   6 1.00       0.000000000000
      0.3047524880D+04  0.1834737132D-02
      0.4573695180D+03  0.1403732281D-01
      0.1039486850D+03  0.6884262226D-01
      0.2921015530D+02  0.2321844432D+00
      0.9286662960D+01  0.4679413484D+00
      0.3163926960D+01  0.3623119853D+00
 SP   3 1.00       0.000000000000
      0.7868272350D+01 -0.1193324198D+00  0.6899906659D-01
      0.1881288540D+01 -0.1608541517D+00  0.3164239610D+00
      0.5442492580D+00  0.1143456438D+01  0.7443082909D+00
 SP   1 1.00       0.000000000000
      0.1687144782D+00  0.1000000000D+01  0.1000000000D+01
 D   1 1.00       0.000000000000
      0.8000000000D+00  0.1000000000D+01
 ****
     30 0
 S   3 1.00       0.000000000000
      0.1873113696D+02  0.3349460434D-01
      0.2825394365D+01  0.2347269535D+00
      0.6401216923D+00  0.8137573261D+00
 S   1 1.00       0.000000000000
      0.1612777588D+00  0.1000000000D+01
 ****
     31 0
 S   6 1.00       0.000000000000
      0.3047524880D+04  0.1834737132D-02
      0.4573695180D+03  0.1403732281D-01
      0.1039486850D+03  0.6884262226D-01
      0.2921015530D+02  0.2321844432D+00
      0.9286662960D+01  0.4679413484D+00
      0.3163926960D+01  0.3623119853D+00
 SP   3 1.00       0.000000000000
      0.7868272350D+01 -0.1193324198D+00  0.6899906659D-01
      0.1881288540D+01 -0.1608541517D+00  0.3164239610D+00
      0.5442492580D+00  0.1143456438D+01  0.7443082909D+00
 SP   1 1.00       0.000000000000
      0.1687144782D+00  0.1000000000D+01  0.1000000000D+01
 D   1 1.00       0.000000000000
      0.8000000000D+00  0.1000000000D+01
 ****
     32 0
 S   3 1.00       0.000000000000
      0.1873113696D+02  0.3349460434D-01
      0.2825394365D+01  0.2347269535D+00
      0.6401216923D+00  0.8137573261D+00
 S   1 1.00       0.000000000000
      0.1612777588D+00  0.1000000000D+01
 ****
     33 0
 S   3 1.00       0.000000000000
      0.1873113696D+02  0.3349460434D-01
      0.2825394365D+01  0.2347269535D+00
      0.6401216923D+00  0.8137573261D+00
 S   1 1.00       0.000000000000
      0.1612777588D+00  0.1000000000D+01
 ****
     34 0
 S   6 1.00       0.000000000000
      0.3047524880D+04  0.1834737132D-02
      0.4573695180D+03  0.1403732281D-01
      0.1039486850D+03  0.6884262226D-01
      0.2921015530D+02  0.2321844432D+00
      0.9286662960D+01  0.4679413484D+00
      0.3163926960D+01  0.3623119853D+00
 SP   3 1.00       0.000000000000
      0.7868272350D+01 -0.1193324198D+00  0.6899906659D-01
      0.1881288540D+01 -0.1608541517D+00  0.3164239610D+00
      0.5442492580D+00  0.1143456438D+01  0.7443082909D+00
 SP   1 1.00       0.000000000000
      0.1687144782D+00  0.1000000000D+01  0.1000000000D+01
 D   1 1.00       0.000000000000
      0.8000000000D+00  0.1000000000D+01
 ****
     35 0
 S   3 1.00       0.000000000000
      0.1873113696D+02  0.3349460434D-01
      0.2825394365D+01  0.2347269535D+00
      0.6401216923D+00  0.8137573261D+00
 S   1 1.00       0.000000000000
      0.1612777588D+00  0.1000000000D+01
 ****
     36 0
 S   3 1.00       0.000000000000
      0.1873113696D+02  0.3349460434D-01
      0.2825394365D+01  0.2347269535D+00
      0.6401216923D+00  0.8137573261D+00
 S   1 1.00       0.000000000000
      0.1612777588D+00  0.1000000000D+01
 ****
     37 0
 S   6 1.00       0.000000000000
      0.3047524880D+04  0.1834737132D-02
      0.4573695180D+03  0.1403732281D-01
      0.1039486850D+03  0.6884262226D-01
      0.2921015530D+02  0.2321844432D+00
      0.9286662960D+01  0.4679413484D+00
      0.3163926960D+01  0.3623119853D+00
 SP   3 1.00       0.000000000000
      0.7868272350D+01 -0.1193324198D+00  0.6899906659D-01
      0.1881288540D+01 -0.1608541517D+00  0.3164239610D+00
      0.5442492580D+00  0.1143456438D+01  0.7443082909D+00
 SP   1 1.00       0.000000000000
      0.1687144782D+00  0.1000000000D+01  0.1000000000D+01
 D   1 1.00       0.000000000000
      0.8000000000D+00  0.1000000000D+01
 ****
     38 0
 S   3 1.00       0.000000000000
      0.1873113696D+02  0.3349460434D-01
      0.2825394365D+01  0.2347269535D+00
      0.6401216923D+00  0.8137573261D+00
 S   1 1.00       0.000000000000
      0.1612777588D+00  0.1000000000D+01
 ****
     39 0
 S   6 1.00       0.000000000000
      0.3047524880D+04  0.1834737132D-02
      0.4573695180D+03  0.1403732281D-01
      0.1039486850D+03  0.6884262226D-01
      0.2921015530D+02  0.2321844432D+00
      0.9286662960D+01  0.4679413484D+00
      0.3163926960D+01  0.3623119853D+00
 SP   3 1.00       0.000000000000
      0.7868272350D+01 -0.1193324198D+00  0.6899906659D-01
      0.1881288540D+01 -0.1608541517D+00  0.3164239610D+00
      0.5442492580D+00  0.1143456438D+01  0.7443082909D+00
 SP   1 1.00       0.000000000000
      0.1687144782D+00  0.1000000000D+01  0.1000000000D+01
 D   1 1.00       0.000000000000
      0.8000000000D+00  0.1000000000D+01
 ****
     40 0
 S   3 1.00       0.000000000000
      0.1873113696D+02  0.3349460434D-01
      0.2825394365D+01  0.2347269535D+00
      0.6401216923D+00  0.8137573261D+00
 S   1 1.00       0.000000000000
      0.1612777588D+00  0.1000000000D+01
 ****
     41 0
 S   3 1.00       0.000000000000
      0.1873113696D+02  0.3349460434D-01
      0.2825394365D+01  0.2347269535D+00
      0.6401216923D+00  0.8137573261D+00
 S   1 1.00       0.000000000000
      0.1612777588D+00  0.1000000000D+01
 ****
     42 0
 S   3 1.00       0.000000000000
      0.1873113696D+02  0.3349460434D-01
      0.2825394365D+01  0.2347269535D+00
      0.6401216923D+00  0.8137573261D+00
 S   1 1.00       0.000000000000
      0.1612777588D+00  0.1000000000D+01
 ****
     43 0
 S   6 1.00       0.000000000000
      0.3047524880D+04  0.1834737132D-02
      0.4573695180D+03  0.1403732281D-01
      0.1039486850D+03  0.6884262226D-01
      0.2921015530D+02  0.2321844432D+00
      0.9286662960D+01  0.4679413484D+00
      0.3163926960D+01  0.3623119853D+00
 SP   3 1.00       0.000000000000
      0.7868272350D+01 -0.1193324198D+00  0.6899906659D-01
      0.1881288540D+01 -0.1608541517D+00  0.3164239610D+00
      0.5442492580D+00  0.1143456438D+01  0.7443082909D+00
 SP   1 1.00       0.000000000000
      0.1687144782D+00  0.1000000000D+01  0.1000000000D+01
 D   1 1.00       0.000000000000
      0.8000000000D+00  0.1000000000D+01
 ****
     44 0
 S   3 1.00       0.000000000000
      0.1873113696D+02  0.3349460434D-01
      0.2825394365D+01  0.2347269535D+00
      0.6401216923D+00  0.8137573261D+00
 S   1 1.00       0.000000000000
      0.1612777588D+00  0.1000000000D+01
 ****
     45 0
 S   6 1.00       0.000000000000
      0.3047524880D+04  0.1834737132D-02
      0.4573695180D+03  0.1403732281D-01
      0.1039486850D+03  0.6884262226D-01
      0.2921015530D+02  0.2321844432D+00
      0.9286662960D+01  0.4679413484D+00
      0.3163926960D+01  0.3623119853D+00
 SP   3 1.00       0.000000000000
      0.7868272350D+01 -0.1193324198D+00  0.6899906659D-01
      0.1881288540D+01 -0.1608541517D+00  0.3164239610D+00
      0.5442492580D+00  0.1143456438D+01  0.7443082909D+00
 SP   1 1.00       0.000000000000
      0.1687144782D+00  0.1000000000D+01  0.1000000000D+01
 D   1 1.00       0.000000000000
      0.8000000000D+00  0.1000000000D+01
 ****
     46 0
 S   3 1.00       0.000000000000
      0.1873113696D+02  0.3349460434D-01
      0.2825394365D+01  0.2347269535D+00
      0.6401216923D+00  0.8137573261D+00
 S   1 1.00       0.000000000000
      0.1612777588D+00  0.1000000000D+01
 ****
     47 0
 S   3 1.00       0.000000000000
      0.1873113696D+02  0.3349460434D-01
      0.2825394365D+01  0.2347269535D+00
      0.6401216923D+00  0.8137573261D+00
 S   1 1.00       0.000000000000
      0.1612777588D+00  0.1000000000D+01
 ****
     48 0
 S   3 1.00       0.000000000000
      0.1873113696D+02  0.3349460434D-01
      0.2825394365D+01  0.2347269535D+00
      0.6401216923D+00  0.8137573261D+00
 S   1 1.00       0.000000000000
      0.1612777588D+00  0.1000000000D+01
 ****
     49 0
 S   6 1.00       0.000000000000
      0.3047524880D+04  0.1834737132D-02
      0.4573695180D+03  0.1403732281D-01
      0.1039486850D+03  0.6884262226D-01
      0.2921015530D+02  0.2321844432D+00
      0.9286662960D+01  0.4679413484D+00
      0.3163926960D+01  0.3623119853D+00
 SP   3 1.00       0.000000000000
      0.7868272350D+01 -0.1193324198D+00  0.6899906659D-01
      0.1881288540D+01 -0.1608541517D+00  0.3164239610D+00
      0.5442492580D+00  0.1143456438D+01  0.7443082909D+00
 SP   1 1.00       0.000000000000
      0.1687144782D+00  0.1000000000D+01  0.1000000000D+01
 D   1 1.00       0.000000000000
      0.8000000000D+00  0.1000000000D+01
 ****
     50 0
 S   3 1.00       0.000000000000
      0.1873113696D+02  0.3349460434D-01
      0.2825394365D+01  0.2347269535D+00
      0.6401216923D+00  0.8137573261D+00
 S   1 1.00       0.000000000000
      0.1612777588D+00  0.1000000000D+01
 ****
     51 0
 S   3 1.00       0.000000000000
      0.1873113696D+02  0.3349460434D-01
      0.2825394365D+01  0.2347269535D+00
      0.6401216923D+00  0.8137573261D+00
 S   1 1.00       0.000000000000
      0.1612777588D+00  0.1000000000D+01
 ****
     52 0
 S   3 1.00       0.000000000000
      0.1873113696D+02  0.3349460434D-01
      0.2825394365D+01  0.2347269535D+00
      0.6401216923D+00  0.8137573261D+00
 S   1 1.00       0.000000000000
      0.1612777588D+00  0.1000000000D+01
 ****
     53 0
 S   6 1.00       0.000000000000
      0.5484671660D+04  0.1831074430D-02
      0.8252349460D+03  0.1395017220D-01
      0.1880469580D+03  0.6844507810D-01
      0.5296450000D+02  0.2327143360D+00
      0.1689757040D+02  0.4701928980D+00
      0.5799635340D+01  0.3585208530D+00
 SP   3 1.00       0.000000000000
      0.1553961625D+02 -0.1107775495D+00  0.7087426823D-01
      0.3599933586D+01 -0.1480262627D+00  0.3397528391D+00
      0.1013761750D+01  0.1130767015D+01  0.7271585773D+00
 SP   1 1.00       0.000000000000
      0.2700058226D+00  0.1000000000D+01  0.1000000000D+01
 D   1 1.00       0.000000000000
      0.8000000000D+00  0.1000000000D+01
 ****
     54 0
 S   6 1.00       0.000000000000
      0.5484671660D+04  0.1831074430D-02
      0.8252349460D+03  0.1395017220D-01
      0.1880469580D+03  0.6844507810D-01
      0.5296450000D+02  0.2327143360D+00
      0.1689757040D+02  0.4701928980D+00
      0.5799635340D+01  0.3585208530D+00
 SP   3 1.00       0.000000000000
      0.1553961625D+02 -0.1107775495D+00  0.7087426823D-01
      0.3599933586D+01 -0.1480262627D+00  0.3397528391D+00
      0.1013761750D+01  0.1130767015D+01  0.7271585773D+00
 SP   1 1.00       0.000000000000
      0.2700058226D+00  0.1000000000D+01  0.1000000000D+01
 D   1 1.00       0.000000000000
      0.8000000000D+00  0.1000000000D+01
 ****
     55 0
 S   3 1.00       0.000000000000
      0.1873113696D+02  0.3349460434D-01
      0.2825394365D+01  0.2347269535D+00
      0.6401216923D+00  0.8137573261D+00
 S   1 1.00       0.000000000000
      0.1612777588D+00  0.1000000000D+01
 ****
     56 0
 S   6 1.00       0.000000000000
      0.5484671660D+04  0.1831074430D-02
      0.8252349460D+03  0.1395017220D-01
      0.1880469580D+03  0.6844507810D-01
      0.5296450000D+02  0.2327143360D+00
      0.1689757040D+02  0.4701928980D+00
      0.5799635340D+01  0.3585208530D+00
 SP   3 1.00       0.000000000000
      0.1553961625D+02 -0.1107775495D+00  0.7087426823D-01
      0.3599933586D+01 -0.1480262627D+00  0.3397528391D+00
      0.1013761750D+01  0.1130767015D+01  0.7271585773D+00
 SP   1 1.00       0.000000000000
      0.2700058226D+00  0.1000000000D+01  0.1000000000D+01
 D   1 1.00       0.000000000000
      0.8000000000D+00  0.1000000000D+01
 ****
     57 0
 S   3 1.00       0.000000000000
      0.1873113696D+02  0.3349460434D-01
      0.2825394365D+01  0.2347269535D+00
      0.6401216923D+00  0.8137573261D+00
 S   1 1.00       0.000000000000
      0.1612777588D+00  0.1000000000D+01
 ****
     58 0
 S   6 1.00       0.000000000000
      0.3047524880D+04  0.1834737132D-02
      0.4573695180D+03  0.1403732281D-01
      0.1039486850D+03  0.6884262226D-01
      0.2921015530D+02  0.2321844432D+00
      0.9286662960D+01  0.4679413484D+00
      0.3163926960D+01  0.3623119853D+00
 SP   3 1.00       0.000000000000
      0.7868272350D+01 -0.1193324198D+00  0.6899906659D-01
      0.1881288540D+01 -0.1608541517D+00  0.3164239610D+00
      0.5442492580D+00  0.1143456438D+01  0.7443082909D+00
 SP   1 1.00       0.000000000000
      0.1687144782D+00  0.1000000000D+01  0.1000000000D+01
 D   1 1.00       0.000000000000
      0.8000000000D+00  0.1000000000D+01
 ****
     59 0
 S   3 1.00       0.000000000000
      0.1873113696D+02  0.3349460434D-01
      0.2825394365D+01  0.2347269535D+00
      0.6401216923D+00  0.8137573261D+00
 S   1 1.00       0.000000000000
      0.1612777588D+00  0.1000000000D+01
 ****
     60 0
 S   3 1.00       0.000000000000
      0.1873113696D+02  0.3349460434D-01
      0.2825394365D+01  0.2347269535D+00
      0.6401216923D+00  0.8137573261D+00
 S   1 1.00       0.000000000000
      0.1612777588D+00  0.1000000000D+01
 ****
     61 0
 S   6 1.00       0.000000000000
      0.3047524880D+04  0.1834737132D-02
      0.4573695180D+03  0.1403732281D-01
      0.1039486850D+03  0.6884262226D-01
      0.2921015530D+02  0.2321844432D+00
      0.9286662960D+01  0.4679413484D+00
      0.3163926960D+01  0.3623119853D+00
 SP   3 1.00       0.000000000000
      0.7868272350D+01 -0.1193324198D+00  0.6899906659D-01
      0.1881288540D+01 -0.1608541517D+00  0.3164239610D+00
      0.5442492580D+00  0.1143456438D+01  0.7443082909D+00
 SP   1 1.00       0.000000000000
      0.1687144782D+00  0.1000000000D+01  0.1000000000D+01
 D   1 1.00       0.000000000000
      0.8000000000D+00  0.1000000000D+01
 ****
     62 0
 S   3 1.00       0.000000000000
      0.1873113696D+02  0.3349460434D-01
      0.2825394365D+01  0.2347269535D+00
      0.6401216923D+00  0.8137573261D+00
 S   1 1.00       0.000000000000
      0.1612777588D+00  0.1000000000D+01
 ****
     63 0
 S   3 1.00       0.000000000000
      0.1873113696D+02  0.3349460434D-01
      0.2825394365D+01  0.2347269535D+00
      0.6401216923D+00  0.8137573261D+00
 S   1 1.00       0.000000000000
      0.1612777588D+00  0.1000000000D+01
 ****
     64 0
 S   6 1.00       0.000000000000
      0.3047524880D+04  0.1834737132D-02
      0.4573695180D+03  0.1403732281D-01
      0.1039486850D+03  0.6884262226D-01
      0.2921015530D+02  0.2321844432D+00
      0.9286662960D+01  0.4679413484D+00
      0.3163926960D+01  0.3623119853D+00
 SP   3 1.00       0.000000000000
      0.7868272350D+01 -0.1193324198D+00  0.6899906659D-01
      0.1881288540D+01 -0.1608541517D+00  0.3164239610D+00
      0.5442492580D+00  0.1143456438D+01  0.7443082909D+00
 SP   1 1.00       0.000000000000
      0.1687144782D+00  0.1000000000D+01  0.1000000000D+01
 D   1 1.00       0.000000000000
      0.8000000000D+00  0.1000000000D+01
 ****
     65 0
 S   3 1.00       0.000000000000
      0.1873113696D+02  0.3349460434D-01
      0.2825394365D+01  0.2347269535D+00
      0.6401216923D+00  0.8137573261D+00
 S   1 1.00       0.000000000000
      0.1612777588D+00  0.1000000000D+01
 ****
     66 0
 S   3 1.00       0.000000000000
      0.1873113696D+02  0.3349460434D-01
      0.2825394365D+01  0.2347269535D+00
      0.6401216923D+00  0.8137573261D+00
 S   1 1.00       0.000000000000
      0.1612777588D+00  0.1000000000D+01
 ****
     67 0
 S   6 1.00       0.000000000000
      0.3047524880D+04  0.1834737132D-02
      0.4573695180D+03  0.1403732281D-01
      0.1039486850D+03  0.6884262226D-01
      0.2921015530D+02  0.2321844432D+00
      0.9286662960D+01  0.4679413484D+00
      0.3163926960D+01  0.3623119853D+00
 SP   3 1.00       0.000000000000
      0.7868272350D+01 -0.1193324198D+00  0.6899906659D-01
      0.1881288540D+01 -0.1608541517D+00  0.3164239610D+00
      0.5442492580D+00  0.1143456438D+01  0.7443082909D+00
 SP   1 1.00       0.000000000000
      0.1687144782D+00  0.1000000000D+01  0.1000000000D+01
 D   1 1.00       0.000000000000
      0.8000000000D+00  0.1000000000D+01
 ****
     68 0
 S   3 1.00       0.000000000000
      0.1873113696D+02  0.3349460434D-01
      0.2825394365D+01  0.2347269535D+00
      0.6401216923D+00  0.8137573261D+00
 S   1 1.00       0.000000000000
      0.1612777588D+00  0.1000000000D+01
 ****
     69 0
 S   6 1.00       0.000000000000
      0.3047524880D+04  0.1834737132D-02
      0.4573695180D+03  0.1403732281D-01
      0.1039486850D+03  0.6884262226D-01
      0.2921015530D+02  0.2321844432D+00
      0.9286662960D+01  0.4679413484D+00
      0.3163926960D+01  0.3623119853D+00
 SP   3 1.00       0.000000000000
      0.7868272350D+01 -0.1193324198D+00  0.6899906659D-01
      0.1881288540D+01 -0.1608541517D+00  0.3164239610D+00
      0.5442492580D+00  0.1143456438D+01  0.7443082909D+00
 SP   1 1.00       0.000000000000
      0.1687144782D+00  0.1000000000D+01  0.1000000000D+01
 D   1 1.00       0.000000000000
      0.8000000000D+00  0.1000000000D+01
 ****
     70 0
 S   3 1.00       0.000000000000
      0.1873113696D+02  0.3349460434D-01
      0.2825394365D+01  0.2347269535D+00
      0.6401216923D+00  0.8137573261D+00
 S   1 1.00       0.000000000000
      0.1612777588D+00  0.1000000000D+01
 ****
     71 0
 S   3 1.00       0.000000000000
      0.1873113696D+02  0.3349460434D-01
      0.2825394365D+01  0.2347269535D+00
      0.6401216923D+00  0.8137573261D+00
 S   1 1.00       0.000000000000
      0.1612777588D+00  0.1000000000D+01
 ****
     72 0
 S   3 1.00       0.000000000000
      0.1873113696D+02  0.3349460434D-01
      0.2825394365D+01  0.2347269535D+00
      0.6401216923D+00  0.8137573261D+00
 S   1 1.00       0.000000000000
      0.1612777588D+00  0.1000000000D+01
 ****
     73 0
 S   6 1.00       0.000000000000
      0.3047524880D+04  0.1834737132D-02
      0.4573695180D+03  0.1403732281D-01
      0.1039486850D+03  0.6884262226D-01
      0.2921015530D+02  0.2321844432D+00
      0.9286662960D+01  0.4679413484D+00
      0.3163926960D+01  0.3623119853D+00
 SP   3 1.00       0.000000000000
      0.7868272350D+01 -0.1193324198D+00  0.6899906659D-01
      0.1881288540D+01 -0.1608541517D+00  0.3164239610D+00
      0.5442492580D+00  0.1143456438D+01  0.7443082909D+00
 SP   1 1.00       0.000000000000
      0.1687144782D+00  0.1000000000D+01  0.1000000000D+01
 D   1 1.00       0.000000000000
      0.8000000000D+00  0.1000000000D+01
 ****
     74 0
 S   3 1.00       0.000000000000
      0.1873113696D+02  0.3349460434D-01
      0.2825394365D+01  0.2347269535D+00
      0.6401216923D+00  0.8137573261D+00
 S   1 1.00       0.000000000000
      0.1612777588D+00  0.1000000000D+01
 ****
     75 0
 S   3 1.00       0.000000000000
      0.1873113696D+02  0.3349460434D-01
      0.2825394365D+01  0.2347269535D+00
      0.6401216923D+00  0.8137573261D+00
 S   1 1.00       0.000000000000
      0.1612777588D+00  0.1000000000D+01
 ****
     76 0
 S   3 1.00       0.000000000000
      0.1873113696D+02  0.3349460434D-01
      0.2825394365D+01  0.2347269535D+00
      0.6401216923D+00  0.8137573261D+00
 S   1 1.00       0.000000000000
      0.1612777588D+00  0.1000000000D+01
 ****

 AO basis set (Overlap normalization):
 Atom C1       Shell     1 S   6     bf    1 -     1          1.886982685178         -1.727199140786         -3.176255992730
      0.3047524880D+04  0.1834737132D-02
      0.4573695180D+03  0.1403732281D-01
      0.1039486850D+03  0.6884262226D-01
      0.2921015530D+02  0.2321844432D+00
      0.9286662960D+01  0.4679413484D+00
      0.3163926960D+01  0.3623119853D+00
 Atom C1       Shell     2 SP   3    bf    2 -     5          1.886982685178         -1.727199140786         -3.176255992730
      0.7868272350D+01 -0.1193324198D+00  0.6899906659D-01
      0.1881288540D+01 -0.1608541517D+00  0.3164239610D+00
      0.5442492580D+00  0.1143456438D+01  0.7443082909D+00
 Atom C1       Shell     3 SP   1    bf    6 -     9          1.886982685178         -1.727199140786         -3.176255992730
      0.1687144782D+00  0.1000000000D+01  0.1000000000D+01
 Atom C1       Shell     4 D   1     bf   10 -    15          1.886982685178         -1.727199140786         -3.176255992730
      0.8000000000D+00  0.1000000000D+01
 Atom H2       Shell     5 S   3     bf   16 -    16          2.189380912846          0.092558861578         -4.121689359622
      0.1873113696D+02  0.3349460434D-01
      0.2825394365D+01  0.2347269535D+00
      0.6401216923D+00  0.8137573261D+00
 Atom H2       Shell     6 S   1     bf   17 -    17          2.189380912846          0.092558861578         -4.121689359622
      0.1612777588D+00  0.1000000000D+01
 Atom C3       Shell     7 S   6     bf   18 -    18          4.171781558549         -3.442737991030         -3.675996714188
      0.3047524880D+04  0.1834737132D-02
      0.4573695180D+03  0.1403732281D-01
      0.1039486850D+03  0.6884262226D-01
      0.2921015530D+02  0.2321844432D+00
      0.9286662960D+01  0.4679413484D+00
      0.3163926960D+01  0.3623119853D+00
 Atom C3       Shell     8 SP   3    bf   19 -    22          4.171781558549         -3.442737991030         -3.675996714188
      0.7868272350D+01 -0.1193324198D+00  0.6899906659D-01
      0.1881288540D+01 -0.1608541517D+00  0.3164239610D+00
      0.5442492580D+00  0.1143456438D+01  0.7443082909D+00
 Atom C3       Shell     9 SP   1    bf   23 -    26          4.171781558549         -3.442737991030         -3.675996714188
      0.1687144782D+00  0.1000000000D+01  0.1000000000D+01
 Atom C3       Shell    10 D   1     bf   27 -    32          4.171781558549         -3.442737991030         -3.675996714188
      0.8000000000D+00  0.1000000000D+01
 Atom H4       Shell    11 S   3     bf   33 -    33          4.443991165580         -3.674916395552         -5.712645198864
      0.1873113696D+02  0.3349460434D-01
      0.2825394365D+01  0.2347269535D+00
      0.6401216923D+00  0.8137573261D+00
 Atom H4       Shell    12 S   1     bf   34 -    34          4.443991165580         -3.674916395552         -5.712645198864
      0.1612777588D+00  0.1000000000D+01
 Atom H5       Shell    13 S   3     bf   35 -    35          3.721343187185         -5.329062522390         -2.915706903007
      0.1873113696D+02  0.3349460434D-01
      0.2825394365D+01  0.2347269535D+00
      0.6401216923D+00  0.8137573261D+00
 Atom H5       Shell    14 S   1     bf   36 -    36          3.721343187185         -5.329062522390         -2.915706903007
      0.1612777588D+00  0.1000000000D+01
 Atom C6       Shell    15 S   6     bf   37 -    37          6.578499080253         -2.467689648765         -2.460496028295
      0.3047524880D+04  0.1834737132D-02
      0.4573695180D+03  0.1403732281D-01
      0.1039486850D+03  0.6884262226D-01
      0.2921015530D+02  0.2321844432D+00
      0.9286662960D+01  0.4679413484D+00
      0.3163926960D+01  0.3623119853D+00
 Atom C6       Shell    16 SP   3    bf   38 -    41          6.578499080253         -2.467689648765         -2.460496028295
      0.7868272350D+01 -0.1193324198D+00  0.6899906659D-01
      0.1881288540D+01 -0.1608541517D+00  0.3164239610D+00
      0.5442492580D+00  0.1143456438D+01  0.7443082909D+00
 Atom C6       Shell    17 SP   1    bf   42 -    45          6.578499080253         -2.467689648765         -2.460496028295
      0.1687144782D+00  0.1000000000D+01  0.1000000000D+01
 Atom C6       Shell    18 D   1     bf   46 -    51          6.578499080253         -2.467689648765         -2.460496028295
      0.8000000000D+00  0.1000000000D+01
 Atom C7       Shell    19 S   6     bf   52 -    52          6.454743145687         -1.767686466491          0.345847340039
      0.3047524880D+04  0.1834737132D-02
      0.4573695180D+03  0.1403732281D-01
      0.1039486850D+03  0.6884262226D-01
      0.2921015530D+02  0.2321844432D+00
      0.9286662960D+01  0.4679413484D+00
      0.3163926960D+01  0.3623119853D+00
 Atom C7       Shell    20 SP   3    bf   53 -    56          6.454743145687         -1.767686466491          0.345847340039
      0.7868272350D+01 -0.1193324198D+00  0.6899906659D-01
      0.1881288540D+01 -0.1608541517D+00  0.3164239610D+00
      0.5442492580D+00  0.1143456438D+01  0.7443082909D+00
 Atom C7       Shell    21 SP   1    bf   57 -    60          6.454743145687         -1.767686466491          0.345847340039
      0.1687144782D+00  0.1000000000D+01  0.1000000000D+01
 Atom C7       Shell    22 D   1     bf   61 -    66          6.454743145687         -1.767686466491          0.345847340039
      0.8000000000D+00  0.1000000000D+01
 Atom C8       Shell    23 S   6     bf   67 -    67          4.017112916983         -0.173700205731          0.808442168437
      0.3047524880D+04  0.1834737132D-02
      0.4573695180D+03  0.1403732281D-01
      0.1039486850D+03  0.6884262226D-01
      0.2921015530D+02  0.2321844432D+00
      0.9286662960D+01  0.4679413484D+00
      0.3163926960D+01  0.3623119853D+00
 Atom C8       Shell    24 SP   3    bf   68 -    71          4.017112916983         -0.173700205731          0.808442168437
      0.7868272350D+01 -0.1193324198D+00  0.6899906659D-01
      0.1881288540D+01 -0.1608541517D+00  0.3164239610D+00
      0.5442492580D+00  0.1143456438D+01  0.7443082909D+00
 Atom C8       Shell    25 SP   1    bf   72 -    75          4.017112916983         -0.173700205731          0.808442168437
      0.1687144782D+00  0.1000000000D+01  0.1000000000D+01
 Atom C8       Shell    26 D   1     bf   76 -    81          4.017112916983         -0.173700205731          0.808442168437
      0.8000000000D+00  0.1000000000D+01
 Atom H9       Shell    27 S   3     bf   82 -    82          4.312996899623          1.716184569664          0.000000000000
      0.1873113696D+02  0.3349460434D-01
      0.2825394365D+01  0.2347269535D+00
      0.6401216923D+00  0.8137573261D+00
 Atom H9       Shell    28 S   1     bf   83 -    83          4.312996899623          1.716184569664          0.000000000000
      0.1612777588D+00  0.1000000000D+01
 Atom H10      Shell    29 S   3     bf   84 -    84          3.741997572564          0.094659632325          2.841980711919
      0.1873113696D+02  0.3349460434D-01
      0.2825394365D+01  0.2347269535D+00
      0.6401216923D+00  0.8137573261D+00
 Atom H10      Shell    30 S   1     bf   85 -    85          3.741997572564          0.094659632325          2.841980711919
      0.1612777588D+00  0.1000000000D+01
 Atom C11      Shell    31 S   6     bf   86 -    86          1.590785253664         -1.282345571549         -0.337961059352
      0.3047524880D+04  0.1834737132D-02
      0.4573695180D+03  0.1403732281D-01
      0.1039486850D+03  0.6884262226D-01
      0.2921015530D+02  0.2321844432D+00
      0.9286662960D+01  0.4679413484D+00
      0.3163926960D+01  0.3623119853D+00
 Atom C11      Shell    32 SP   3    bf   87 -    90          1.590785253664         -1.282345571549         -0.337961059352
      0.7868272350D+01 -0.1193324198D+00  0.6899906659D-01
      0.1881288540D+01 -0.1608541517D+00  0.3164239610D+00
      0.5442492580D+00  0.1143456438D+01  0.7443082909D+00
 Atom C11      Shell    33 SP   1    bf   91 -    94          1.590785253664         -1.282345571549         -0.337961059352
      0.1687144782D+00  0.1000000000D+01  0.1000000000D+01
 Atom C11      Shell    34 D   1     bf   95 -   100          1.590785253664         -1.282345571549         -0.337961059352
      0.8000000000D+00  0.1000000000D+01
 Atom H12      Shell    35 S   3     bf  101 -   101          1.108199560526         -3.082930185801          0.582259279119
      0.1873113696D+02  0.3349460434D-01
      0.2825394365D+01  0.2347269535D+00
      0.6401216923D+00  0.8137573261D+00
 Atom H12      Shell    36 S   1     bf  102 -   102          1.108199560526         -3.082930185801          0.582259279119
      0.1612777588D+00  0.1000000000D+01
 Atom H13      Shell    37 S   3     bf  103 -   103          0.000000000000          0.000000000000          0.000000000000
      0.1873113696D+02  0.3349460434D-01
      0.2825394365D+01  0.2347269535D+00
      0.6401216923D+00  0.8137573261D+00
 Atom H13      Shell    38 S   1     bf  104 -   104          0.000000000000          0.000000000000          0.000000000000
      0.1612777588D+00  0.1000000000D+01
 Atom C14      Shell    39 S   6     bf  105 -   105          8.702193566254         -2.277773665294         -3.824794921522
      0.3047524880D+04  0.1834737132D-02
      0.4573695180D+03  0.1403732281D-01
      0.1039486850D+03  0.6884262226D-01
      0.2921015530D+02  0.2321844432D+00
      0.9286662960D+01  0.4679413484D+00
      0.3163926960D+01  0.3623119853D+00
 Atom C14      Shell    40 SP   3    bf  106 -   109          8.702193566254         -2.277773665294         -3.824794921522
      0.7868272350D+01 -0.1193324198D+00  0.6899906659D-01
      0.1881288540D+01 -0.1608541517D+00  0.3164239610D+00
      0.5442492580D+00  0.1143456438D+01  0.7443082909D+00
 Atom C14      Shell    41 SP   1    bf  110 -   113          8.702193566254         -2.277773665294         -3.824794921522
      0.1687144782D+00  0.1000000000D+01  0.1000000000D+01
 Atom C14      Shell    42 D   1     bf  114 -   119          8.702193566254         -2.277773665294         -3.824794921522
      0.8000000000D+00  0.1000000000D+01
 Atom H15      Shell    43 S   3     bf  120 -   120          8.683239046223         -2.784518977917         -5.816754557895
      0.1873113696D+02  0.3349460434D-01
      0.2825394365D+01  0.2347269535D+00
      0.6401216923D+00  0.8137573261D+00
 Atom H15      Shell    44 S   1     bf  121 -   121          8.683239046223         -2.784518977917         -5.816754557895
      0.1612777588D+00  0.1000000000D+01
 Atom C16      Shell    45 S   6     bf  122 -   122         11.231144073336         -1.476084527679         -2.825171711351
      0.3047524880D+04  0.1834737132D-02
      0.4573695180D+03  0.1403732281D-01
      0.1039486850D+03  0.6884262226D-01
      0.2921015530D+02  0.2321844432D+00
      0.9286662960D+01  0.4679413484D+00
      0.3163926960D+01  0.3623119853D+00
 Atom C16      Shell    46 SP   3    bf  123 -   126         11.231144073336         -1.476084527679         -2.825171711351
      0.7868272350D+01 -0.1193324198D+00  0.6899906659D-01
      0.1881288540D+01 -0.1608541517D+00  0.3164239610D+00
      0.5442492580D+00  0.1143456438D+01  0.7443082909D+00
 Atom C16      Shell    47 SP   1    bf  127 -   130         11.231144073336         -1.476084527679         -2.825171711351
      0.1687144782D+00  0.1000000000D+01  0.1000000000D+01
 Atom C16      Shell    48 D   1     bf  131 -   136         11.231144073336         -1.476084527679         -2.825171711351
      0.8000000000D+00  0.1000000000D+01
 Atom H17      Shell    49 S   3     bf  137 -   137         11.832899543585          0.293512924364         -3.739634205473
      0.1873113696D+02  0.3349460434D-01
      0.2825394365D+01  0.2347269535D+00
      0.6401216923D+00  0.8137573261D+00
 Atom H17      Shell    50 S   1     bf  138 -   138         11.832899543585          0.293512924364         -3.739634205473
      0.1612777588D+00  0.1000000000D+01
 Atom C18      Shell    51 S   6     bf  139 -   139         11.349969202195         -1.196315335815          0.064419100911
      0.3047524880D+04  0.1834737132D-02
      0.4573695180D+03  0.1403732281D-01
      0.1039486850D+03  0.6884262226D-01
      0.2921015530D+02  0.2321844432D+00
      0.9286662960D+01  0.4679413484D+00
      0.3163926960D+01  0.3623119853D+00
 Atom C18      Shell    52 SP   3    bf  140 -   143         11.349969202195         -1.196315335815          0.064419100911
      0.7868272350D+01 -0.1193324198D+00  0.6899906659D-01
      0.1881288540D+01 -0.1608541517D+00  0.3164239610D+00
      0.5442492580D+00  0.1143456438D+01  0.7443082909D+00
 Atom C18      Shell    53 SP   1    bf  144 -   147         11.349969202195         -1.196315335815          0.064419100911
      0.1687144782D+00  0.1000000000D+01  0.1000000000D+01
 Atom C18      Shell    54 D   1     bf  148 -   153         11.349969202195         -1.196315335815          0.064419100911
      0.8000000000D+00  0.1000000000D+01
 Atom H19      Shell    55 S   3     bf  154 -   154         11.653545296162         -3.097131439895          0.838977440436
      0.1873113696D+02  0.3349460434D-01
      0.2825394365D+01  0.2347269535D+00
      0.6401216923D+00  0.8137573261D+00
 Atom H19      Shell    56 S   1     bf  155 -   155         11.653545296162         -3.097131439895          0.838977440436
      0.1612777588D+00  0.1000000000D+01
 Atom C20      Shell    57 S   6     bf  156 -   156          8.807543738361         -0.121789523346          1.071385427786
      0.3047524880D+04  0.1834737132D-02
      0.4573695180D+03  0.1403732281D-01
      0.1039486850D+03  0.6884262226D-01
      0.2921015530D+02  0.2321844432D+00
      0.9286662960D+01  0.4679413484D+00
      0.3163926960D+01  0.3623119853D+00
 Atom C20      Shell    58 SP   3    bf  157 -   160          8.807543738361         -0.121789523346          1.071385427786
      0.7868272350D+01 -0.1193324198D+00  0.6899906659D-01
      0.1881288540D+01 -0.1608541517D+00  0.3164239610D+00
      0.5442492580D+00  0.1143456438D+01  0.7443082909D+00
 Atom C20      Shell    59 SP   1    bf  161 -   164          8.807543738361         -0.121789523346          1.071385427786
      0.1687144782D+00  0.1000000000D+01  0.1000000000D+01
 Atom C20      Shell    60 D   1     bf  165 -   170          8.807543738361         -0.121789523346          1.071385427786
      0.8000000000D+00  0.1000000000D+01
 Atom H21      Shell    61 S   3     bf  171 -   171          8.537278602829          1.697605387038          0.093954669991
      0.1873113696D+02  0.3349460434D-01
      0.2825394365D+01  0.2347269535D+00
      0.6401216923D+00  0.8137573261D+00
 Atom H21      Shell    62 S   1     bf  172 -   172          8.537278602829          1.697605387038          0.093954669991
      0.1612777588D+00  0.1000000000D+01
 Atom C22      Shell    63 S   6     bf  173 -   173          8.970314032700          0.470834790228          3.927383995878
      0.3047524880D+04  0.1834737132D-02
      0.4573695180D+03  0.1403732281D-01
      0.1039486850D+03  0.6884262226D-01
      0.2921015530D+02  0.2321844432D+00
      0.9286662960D+01  0.4679413484D+00
      0.3163926960D+01  0.3623119853D+00
 Atom C22      Shell    64 SP   3    bf  174 -   177          8.970314032700          0.470834790228          3.927383995878
      0.7868272350D+01 -0.1193324198D+00  0.6899906659D-01
      0.1881288540D+01 -0.1608541517D+00  0.3164239610D+00
      0.5442492580D+00  0.1143456438D+01  0.7443082909D+00
 Atom C22      Shell    65 SP   1    bf  178 -   181          8.970314032700          0.470834790228          3.927383995878
      0.1687144782D+00  0.1000000000D+01  0.1000000000D+01
 Atom C22      Shell    66 D   1     bf  182 -   187          8.970314032700          0.470834790228          3.927383995878
      0.8000000000D+00  0.1000000000D+01
 Atom H23      Shell    67 S   3     bf  188 -   188          9.044692784017         -1.295883720743          5.003453695700
      0.1873113696D+02  0.3349460434D-01
      0.2825394365D+01  0.2347269535D+00
      0.6401216923D+00  0.8137573261D+00
 Atom H23      Shell    68 S   1     bf  189 -   189          9.044692784017         -1.295883720743          5.003453695700
      0.1612777588D+00  0.1000000000D+01
 Atom H24      Shell    69 S   3     bf  190 -   190          7.241071474355          1.434249808344          4.532310256503
      0.1873113696D+02  0.3349460434D-01
      0.2825394365D+01  0.2347269535D+00
      0.6401216923D+00  0.8137573261D+00
 Atom H24      Shell    70 S   1     bf  191 -   191          7.241071474355          1.434249808344          4.532310256503
      0.1612777588D+00  0.1000000000D+01
 Atom C25      Shell    71 S   6     bf  192 -   192         11.249370047251          2.120869383227          4.677638378636
      0.3047524880D+04  0.1834737132D-02
      0.4573695180D+03  0.1403732281D-01
      0.1039486850D+03  0.6884262226D-01
      0.2921015530D+02  0.2321844432D+00
      0.9286662960D+01  0.4679413484D+00
      0.3163926960D+01  0.3623119853D+00
 Atom C25      Shell    72 SP   3    bf  193 -   196         11.249370047251          2.120869383227          4.677638378636
      0.7868272350D+01 -0.1193324198D+00  0.6899906659D-01
      0.1881288540D+01 -0.1608541517D+00  0.3164239610D+00
      0.5442492580D+00  0.1143456438D+01  0.7443082909D+00
 Atom C25      Shell    73 SP   1    bf  197 -   200         11.249370047251          2.120869383227          4.677638378636
      0.1687144782D+00  0.1000000000D+01  0.1000000000D+01
 Atom C25      Shell    74 D   1     bf  201 -   206         11.249370047251          2.120869383227          4.677638378636
      0.8000000000D+00  0.1000000000D+01
 Atom H26      Shell    75 S   3     bf  207 -   207         11.041286728066          4.008487129769          3.834024192777
      0.1873113696D+02  0.3349460434D-01
      0.2825394365D+01  0.2347269535D+00
      0.6401216923D+00  0.8137573261D+00
 Atom H26      Shell    76 S   1     bf  208 -   208         11.041286728066          4.008487129769          3.834024192777
      0.1612777588D+00  0.1000000000D+01
 Atom H27      Shell    77 S   3     bf  209 -   209         11.219518837214          2.387979129651          6.728655244785
      0.1873113696D+02  0.3349460434D-01
      0.2825394365D+01  0.2347269535D+00
      0.6401216923D+00  0.8137573261D+00
 Atom H27      Shell    78 S   1     bf  210 -   210         11.219518837214          2.387979129651          6.728655244785
      0.1612777588D+00  0.1000000000D+01
 Atom C28      Shell    79 S   6     bf  211 -   211         13.769399913150          0.969301307149          3.778758433924
      0.3047524880D+04  0.1834737132D-02
      0.4573695180D+03  0.1403732281D-01
      0.1039486850D+03  0.6884262226D-01
      0.2921015530D+02  0.2321844432D+00
      0.9286662960D+01  0.4679413484D+00
      0.3163926960D+01  0.3623119853D+00
 Atom C28      Shell    80 SP   3    bf  212 -   215         13.769399913150          0.969301307149          3.778758433924
      0.7868272350D+01 -0.1193324198D+00  0.6899906659D-01
      0.1881288540D+01 -0.1608541517D+00  0.3164239610D+00
      0.5442492580D+00  0.1143456438D+01  0.7443082909D+00
 Atom C28      Shell    81 SP   1    bf  216 -   219         13.769399913150          0.969301307149          3.778758433924
      0.1687144782D+00  0.1000000000D+01  0.1000000000D+01
 Atom C28      Shell    82 D   1     bf  220 -   225         13.769399913150          0.969301307149          3.778758433924
      0.8000000000D+00  0.1000000000D+01
 Atom C29      Shell    83 S   6     bf  226 -   226         13.522930303569          0.560711979245          0.876703252652
      0.3047524880D+04  0.1834737132D-02
      0.4573695180D+03  0.1403732281D-01
      0.1039486850D+03  0.6884262226D-01
      0.2921015530D+02  0.2321844432D+00
      0.9286662960D+01  0.4679413484D+00
      0.3163926960D+01  0.3623119853D+00
 Atom C29      Shell    84 SP   3    bf  227 -   230         13.522930303569          0.560711979245          0.876703252652
      0.7868272350D+01 -0.1193324198D+00  0.6899906659D-01
      0.1881288540D+01 -0.1608541517D+00  0.3164239610D+00
      0.5442492580D+00  0.1143456438D+01  0.7443082909D+00
 Atom C29      Shell    85 SP   1    bf  231 -   234         13.522930303569          0.560711979245          0.876703252652
      0.1687144782D+00  0.1000000000D+01  0.1000000000D+01
 Atom C29      Shell    86 D   1     bf  235 -   240         13.522930303569          0.560711979245          0.876703252652
      0.8000000000D+00  0.1000000000D+01
 Atom H30      Shell    87 S   3     bf  241 -   241         13.034689378212          2.437370013415          0.109432093937
      0.1873113696D+02  0.3349460434D-01
      0.2825394365D+01  0.2347269535D+00
      0.6401216923D+00  0.8137573261D+00
 Atom H30      Shell    88 S   1     bf  242 -   242         13.034689378212          2.437370013415          0.109432093937
      0.1612777588D+00  0.1000000000D+01
 Atom C31      Shell    89 S   6     bf  243 -   243         16.236178411563          0.000000000000          0.000000000000
      0.3047524880D+04  0.1834737132D-02
      0.4573695180D+03  0.1403732281D-01
      0.1039486850D+03  0.6884262226D-01
      0.2921015530D+02  0.2321844432D+00
      0.9286662960D+01  0.4679413484D+00
      0.3163926960D+01  0.3623119853D+00
 Atom C31      Shell    90 SP   3    bf  244 -   247         16.236178411563          0.000000000000          0.000000000000
      0.7868272350D+01 -0.1193324198D+00  0.6899906659D-01
      0.1881288540D+01 -0.1608541517D+00  0.3164239610D+00
      0.5442492580D+00  0.1143456438D+01  0.7443082909D+00
 Atom C31      Shell    91 SP   1    bf  248 -   251         16.236178411563          0.000000000000          0.000000000000
      0.1687144782D+00  0.1000000000D+01  0.1000000000D+01
 Atom C31      Shell    92 D   1     bf  252 -   257         16.236178411563          0.000000000000          0.000000000000
      0.8000000000D+00  0.1000000000D+01
 Atom H32      Shell    93 S   3     bf  258 -   258         16.522328169228          0.460955963410         -1.995899998819
      0.1873113696D+02  0.3349460434D-01
      0.2825394365D+01  0.2347269535D+00
      0.6401216923D+00  0.8137573261D+00
 Atom H32      Shell    94 S   1     bf  259 -   259         16.522328169228          0.460955963410         -1.995899998819
      0.1612777588D+00  0.1000000000D+01
 Atom H33      Shell    95 S   3     bf  260 -   260         16.674407489149         -2.010877420128          0.206955719601
      0.1873113696D+02  0.3349460434D-01
      0.2825394365D+01  0.2347269535D+00
      0.6401216923D+00  0.8137573261D+00
 Atom H33      Shell    96 S   1     bf  261 -   261         16.674407489149         -2.010877420128          0.206955719601
      0.1612777588D+00  0.1000000000D+01
 Atom C34      Shell    97 S   6     bf  262 -   262         17.900624528482          1.646909552893          1.770254415333
      0.3047524880D+04  0.1834737132D-02
      0.4573695180D+03  0.1403732281D-01
      0.1039486850D+03  0.6884262226D-01
      0.2921015530D+02  0.2321844432D+00
      0.9286662960D+01  0.4679413484D+00
      0.3163926960D+01  0.3623119853D+00
 Atom C34      Shell    98 SP   3    bf  263 -   266         17.900624528482          1.646909552893          1.770254415333
      0.7868272350D+01 -0.1193324198D+00  0.6899906659D-01
      0.1881288540D+01 -0.1608541517D+00  0.3164239610D+00
      0.5442492580D+00  0.1143456438D+01  0.7443082909D+00
 Atom C34      Shell    99 SP   1    bf  267 -   270         17.900624528482          1.646909552893          1.770254415333
      0.1687144782D+00  0.1000000000D+01  0.1000000000D+01
 Atom C34      Shell   100 D   1     bf  271 -   276         17.900624528482          1.646909552893          1.770254415333
      0.8000000000D+00  0.1000000000D+01
 Atom H35      Shell   101 S   3     bf  277 -   277         19.388904725013          0.500346151917          2.643658225054
      0.1873113696D+02  0.3349460434D-01
      0.2825394365D+01  0.2347269535D+00
      0.6401216923D+00  0.8137573261D+00
 Atom H35      Shell   102 S   1     bf  278 -   278         19.388904725013          0.500346151917          2.643658225054
      0.1612777588D+00  0.1000000000D+01
 Atom H36      Shell   103 S   3     bf  279 -   279         18.865478176206          3.151928074235          0.729110879563
      0.1873113696D+02  0.3349460434D-01
      0.2825394365D+01  0.2347269535D+00
      0.6401216923D+00  0.8137573261D+00
 Atom H36      Shell   104 S   1     bf  280 -   280         18.865478176206          3.151928074235          0.729110879563
      0.1612777588D+00  0.1000000000D+01
 Atom C37      Shell   105 S   6     bf  281 -   281         16.121505105504          2.771412442172          3.843149623580
      0.3047524880D+04  0.1834737132D-02
      0.4573695180D+03  0.1403732281D-01
      0.1039486850D+03  0.6884262226D-01
      0.2921015530D+02  0.2321844432D+00
      0.9286662960D+01  0.4679413484D+00
      0.3163926960D+01  0.3623119853D+00
 Atom C37      Shell   106 SP   3    bf  282 -   285         16.121505105504          2.771412442172          3.843149623580
      0.7868272350D+01 -0.1193324198D+00  0.6899906659D-01
      0.1881288540D+01 -0.1608541517D+00  0.3164239610D+00
      0.5442492580D+00  0.1143456438D+01  0.7443082909D+00
[...]
 1615 Fit      -0.000108
 1616 Fit      -0.001611
 1617 Fit      -0.001796
 1618 Fit       0.001138
 1619 Fit      -0.001631
 1620 Fit      -0.000723
 1621 Fit       0.000064
 1622 Fit      -0.001076
 1623 Fit       0.000047
 1624 Fit      -0.000008
 1625 Fit       0.000219
 1626 Fit       0.001808
 1627 Fit       0.002357
 1628 Fit       0.001859
 1629 Fit       0.000750
 1630 Fit       0.003115
 1631 Fit       0.003602
 1632 Fit       0.003303
 1633 Fit       0.002067
 1634 Fit       0.001782
 1635 Fit       0.003278
 1636 Fit       0.002287
 1637 Fit       0.000398
 1638 Fit      -0.000461
 1639 Fit       0.000435
 1640 Fit       0.002253
 1641 Fit       0.003919
 1642 Fit       0.002896
 1643 Fit       0.001166
 1644 Fit      -0.000609
 1645 Fit       0.001897
 1646 Fit       0.003226
 1647 Fit      -0.000344
 1648 Fit      -0.000170
 1649 Fit       0.001853
 1650 Fit       0.002744
 1651 Fit      -0.000621
 1652 Fit       0.002104
 1653 Fit       0.003604
 1654 Fit       0.000005
 1655 Fit       0.003050
 1656 Fit       0.001852
 1657 Fit      -0.003086
 1658 Fit       0.001452
 1659 Fit       0.001629
 1660 Fit      -0.001193
 1661 Fit      -0.007157
 1662 Fit      -0.002777
 1663 Fit      -0.001254
 1664 Fit      -0.003670
 1665 Fit      -0.010661
 1666 Fit      -0.005052
 1667 Fit      -0.010282
 1668 Fit      -0.011669
 1669 Fit      -0.008152
 1670 Fit      -0.000370
 1671 Fit      -0.002033
 1672 Fit      -0.005804
 1673 Fit      -0.005835
 1674 Fit      -0.007703
 1675 Fit      -0.004435
 1676 Fit      -0.005331
 1677 Fit      -0.003019
 1678 Fit      -0.003597
 1679 Fit      -0.007672
 1680 Fit      -0.010632
 1681 Fit      -0.006034
 1682 Fit      -0.004137
 1683 Fit      -0.004858
 1684 Fit       0.016378
 1685 Fit       0.008911
 1686 Fit       0.003425
 1687 Fit      -0.003026
 1688 Fit       0.012616
 1689 Fit       0.005530
 1690 Fit       0.000329
 1691 Fit      -0.006184
 1692 Fit       0.004213
 1693 Fit       0.000501
 1694 Fit       0.005491
 1695 Fit       0.004828
 1696 Fit       0.005095
 1697 Fit       0.004131
 1698 Fit       0.005223
 1699 Fit       0.006181
 1700 Fit       0.004976
 1701 Fit       0.004124
 1702 Fit       0.006210
 1703 Fit       0.004955
 1704 Fit       0.003825
 1705 Fit       0.005458
 1706 Fit       0.004741
 1707 Fit       0.002916
 1708 Fit       0.008541
 1709 Fit       0.007982
 1710 Fit       0.007661
 1711 Fit       0.008479
 1712 Fit       0.007370
 1713 Fit       0.006415
 1714 Fit       0.006276
 1715 Fit       0.006560
 1716 Fit       0.007520
 1717 Fit       0.005015
 1718 Fit       0.005612
 1719 Fit       0.004199
 1720 Fit       0.002470
 1721 Fit      -0.000718
 1722 Fit       0.007280
 1723 Fit       0.005742
 1724 Fit       0.007397
 1725 Fit       0.005948
 1726 Fit       0.008796
 1727 Fit       0.009895
 1728 Fit       0.008705
 1729 Fit       0.012872
 1730 Fit       0.014187
 1731 Fit       0.004691
 1732 Fit       0.003755
 1733 Fit       0.004268
 1734 Fit       0.003253
 1735 Fit       0.002220
 1736 Fit       0.001958
 1737 Fit       0.002945
 1738 Fit       0.001493
 1739 Fit      -0.000153
 1740 Fit      -0.001423
 1741 Fit      -0.000581
 1742 Fit       0.000797
 1743 Fit      -0.002019
 1744 Fit      -0.005438
 1745 Fit      -0.009056
 1746 Fit      -0.002271
 1747 Fit      -0.009041
 1748 Fit      -0.019456
 1749 Fit      -0.000906
 1750 Fit      -0.021316
 1751 Fit      -0.002178
 1752 Fit      -0.004364
 1753 Fit      -0.004491
 1754 Fit      -0.004237
 1755 Fit      -0.004706
 1756 Fit      -0.011984
 1757 Fit      -0.022988
 1758 Fit      -0.006556
 1759 Fit      -0.004573
 1760 Fit      -0.004150
 1761 Fit      -0.010612
 1762 Fit      -0.008278
 1763 Fit      -0.004403
 1764 Fit      -0.003213
 1765 Fit      -0.006139
 1766 Fit      -0.014227
 1767 Fit      -0.007274
 1768 Fit       0.010012
 1769 Fit       0.008483
 1770 Fit       0.006952
 1771 Fit       0.004024
 1772 Fit       0.011467
 1773 Fit       0.007296
 1774 Fit       0.004804
 1775 Fit       0.001122
 1776 Fit       0.002587
 1777 Fit      -0.000732
 1778 Fit      -0.002583
 1779 Fit      -0.004703
 1780 Fit       0.007089
 1781 Fit       0.007923
 1782 Fit       0.007060
 1783 Fit       0.008274
 1784 Fit       0.006262
 1785 Fit       0.001906
 1786 Fit       0.005207
 1787 Fit       0.006506
 1788 Fit       0.005575
 1789 Fit       0.005694
 1790 Fit       0.006134
 1791 Fit       0.005225
 1792 Fit       0.006482
 1793 Fit       0.005478
 1794 Fit       0.006183
 1795 Fit       0.004828
 1796 Fit       0.006269
 1797 Fit       0.007604
 1798 Fit       0.005276
 1799 Fit       0.006380
 1800 Fit       0.005841
 1801 Fit       0.005991
 1802 Fit       0.002753
 1803 Fit       0.004289
 1804 Fit       0.003165
 1805 Fit       0.005068
 1806 Fit       0.004521
 1807 Fit       0.004397
 1808 Fit       0.006124
 1809 Fit       0.005798
 1810 Fit       0.005714
 1811 Fit       0.006104
 1812 Fit       0.007051
 1813 Fit       0.007083
 1814 Fit       0.004275
 1815 Fit       0.005529
 1816 Fit       0.006454
 1817 Fit       0.003673
 1818 Fit       0.004844
 1819 Fit       0.005344
 1820 Fit       0.005648
 1821 Fit       0.007563
 1822 Fit       0.007762
 1823 Fit       0.008415
 1824 Fit       0.007720
 1825 Fit       0.007936
 1826 Fit       0.008578
 1827 Fit       0.001441
 1828 Fit       0.004029
 1829 Fit       0.007649
 1830 Fit       0.003744
 1831 Fit       0.007878
 1832 Fit       0.010357
 1833 Fit       0.009123
 1834 Fit       0.008965
 1835 Fit       0.009361
 1836 Fit       0.014749
 1837 Fit       0.019421
 1838 Fit       0.013959
 1839 Fit       0.013842
 1840 Fit      -0.006683
 1841 Fit      -0.002770
 1842 Fit       0.000426
 1843 Fit       0.002100
 1844 Fit      -0.007935
 1845 Fit      -0.001829
 1846 Fit       0.000737
 1847 Fit      -0.005885
 1848 Fit       0.001247
 1849 Fit       0.002406
 1850 Fit       0.002444
 1851 Fit       0.001839
 1852 Fit       0.004769
 1853 Fit       0.004024
 1854 Fit       0.004526
 1855 Fit       0.003859
 1856 Fit       0.003651
 1857 Fit       0.002759
 1858 Fit       0.002742
 1859 Fit       0.002813
 1860 Fit       0.001781
 1861 Fit       0.003355
 1862 Fit       0.004626
 1863 Fit       0.004152
 1864 Fit       0.005112
 1865 Fit       0.005610
 1866 Fit       0.006251
 1867 Fit       0.006864
 1868 Fit       0.005779
 1869 Fit       0.006340
 1870 Fit       0.007148
 1871 Fit       0.006657
 1872 Fit       0.006759
 1873 Fit       0.007546
 1874 Fit       0.002885
 1875 Fit       0.001475
 1876 Fit       0.001137
 1877 Fit       0.000769
 1878 Fit       0.000118
 1879 Fit       0.000824
 1880 Fit      -0.000138
 1881 Fit      -0.000954
 1882 Fit       0.004500
 1883 Fit       0.002176
 1884 Fit       0.005121
 1885 Fit       0.002919
 1886 Fit       0.000600
 1887 Fit       0.003061
 1888 Fit      -0.000281
 1889 Fit       0.000770
 1890 Fit       0.002319
 1891 Fit       0.000278
 1892 Fit       0.002016
 1893 Fit       0.003662
 1894 Fit      -0.000359
 1895 Fit       0.001986
 1896 Fit       0.004086
 1897 Fit       0.005047
 1898 Fit       0.003883
 1899 Fit       0.005863
 1900 Fit       0.004145
 1901 Fit       0.003582
 1902 Fit       0.004955
 1903 Fit       0.003265
 1904 Fit       0.002032
 1905 Fit       0.001775
 1906 Fit       0.002463
 1907 Fit       0.002894
 1908 Fit       0.002786
 1909 Fit       0.003049
 1910 Fit       0.002837
 1911 Fit       0.002899
 1912 Fit       0.003373
 1913 Fit       0.002692
 1914 Fit       0.001074
 1915 Fit       0.001512
 1916 Fit       0.000592
 1917 Fit       0.001111
 1918 Fit       0.001920
 1919 Fit       0.001743
 1920 Fit       0.001138
 1921 Fit       0.001085
 1922 Fit       0.002078
 1923 Fit       0.002955
 1924 Fit       0.001966
 1925 Fit       0.001767
 1926 Fit       0.003451
 1927 Fit       0.003251
 1928 Fit       0.002725
 1929 Fit       0.004184
 1930 Fit       0.004241
 1931 Fit       0.003515
 1932 Fit       0.004961
 1933 Fit       0.002585
 1934 Fit       0.003573
 1935 Fit       0.003272
 1936 Fit       0.002085
 1937 Fit       0.001349
 1938 Fit       0.001684
 1939 Fit       0.002674
 1940 Fit       0.004322
 1941 Fit       0.004046
 1942 Fit       0.002368
 1943 Fit       0.002325
 1944 Fit       0.003496
 1945 Fit       0.002825
 1946 Fit       0.003531
 1947 Fit       0.003367
 1948 Fit       0.005361
 1949 Fit       0.005869
 1950 Fit       0.005337
 1951 Fit       0.003521
 1952 Fit       0.003155
 1953 Fit       0.003001
 1954 Fit       0.005000
 1955 Fit       0.007224
 1956 Fit       0.005940
 1957 Fit       0.003942
 1958 Fit       0.002125
 1959 Fit       0.001583
 1960 Fit       0.000794
 1961 Fit      -0.000421
 1962 Fit       0.007091
 1963 Fit       0.007790
 1964 Fit       0.007133
 1965 Fit       0.005929
 1966 Fit       0.005793
 1967 Fit       0.007874
 1968 Fit       0.006440
 1969 Fit       0.005096
 1970 Fit       0.003899
 1971 Fit       0.003711
 1972 Fit       0.005562
 1973 Fit       0.008060
 1974 Fit       0.006184
 1975 Fit       0.012345
 1976 Fit       0.008780
 1977 Fit       0.005143
 1978 Fit       0.012207
 1979 Fit       0.006433
 1980 Fit       0.001360
 1981 Fit       0.002156
 1982 Fit       0.004113
 1983 Fit       0.000101
 1984 Fit       0.000266
 1985 Fit       0.001761
 1986 Fit      -0.003040
 1987 Fit      -0.004869
 1988 Fit      -0.010555
 1989 Fit      -0.013166
 1990 Fit      -0.018687
 1991 Fit      -0.020767
 1992 Fit      -0.020022
 1993 Fit      -0.015989
 1994 Fit      -0.026250
 1995 Fit      -0.025416
 1996 Fit      -0.021336
 1997 Fit      -0.013799
 1998 Fit      -0.003853
 1999 Fit      -0.026490
 2000 Fit      -0.027573
 2001 Fit      -0.024768
 2002 Fit      -0.017572
 2003 Fit      -0.005872
 2004 Fit       0.000867
 2005 Fit      -0.005521
 2006 Fit      -0.023969
 2007 Fit      -0.023403
 2008 Fit      -0.017785
 2009 Fit      -0.006954
 2010 Fit      -0.000854
 2011 Fit      -0.008104
 2012 Fit      -0.011180
 2013 Fit      -0.017636
 2014 Fit      -0.020297
 2015 Fit      -0.018058
 2016 Fit      -0.010410
 2017 Fit       0.001502
 2018 Fit       0.001458
 2019 Fit       0.000345
 2020 Fit      -0.008184
 2021 Fit      -0.013483
 2022 Fit      -0.014902
 2023 Fit      -0.008475
 2024 Fit      -0.007825
 2025 Fit       0.015070
 2026 Fit      -0.001346
 2027 Fit       0.009143
 2028 Fit       0.017614
 2029 Fit       0.020046
 2030 Fit       0.019660
 2031 Fit       0.016055
 2032 Fit       0.002074
 2033 Fit       0.011952
 2034 Fit       0.016213
 2035 Fit       0.018014
 2036 Fit       0.015273
 2037 Fit       0.009764
 2038 Fit       0.011334
 2039 Fit       0.010851
 2040 Fit      -0.003477
 2041 Fit      -0.016773
 2042 Fit      -0.013879
 2043 Fit      -0.004272
 2044 Fit      -0.021100
 2045 Fit      -0.022689
 2046 Fit      -0.019205
 2047 Fit      -0.011133
 2048 Fit      -0.023416
 2049 Fit      -0.025971
 2050 Fit      -0.023471
 2051 Fit      -0.016651
 2052 Fit      -0.007569
 2053 Fit      -0.020068
 2054 Fit      -0.025518
 2055 Fit      -0.027050
 2056 Fit      -0.023994
 2057 Fit      -0.018114
 2058 Fit      -0.012803
 2059 Fit      -0.010916
 2060 Fit      -0.018025
 2061 Fit      -0.021224
 2062 Fit      -0.025902
 2063 Fit      -0.025503
 2064 Fit      -0.021219
 2065 Fit      -0.019021
 2066 Fit      -0.023979
 2067 Fit       0.009348
 2068 Fit       0.016234
 2069 Fit       0.020181
 2070 Fit      -0.001407
 2071 Fit       0.008205
 2072 Fit       0.014186
 2073 Fit       0.017328
 2074 Fit       0.018515
 2075 Fit       0.002517
 2076 Fit       0.008998
 2077 Fit       0.011939
 2078 Fit       0.012006
 2079 Fit      -0.000233
 2080 Fit       0.002969
 2081 Fit       0.001073
 2082 Fit       0.001371
 2083 Fit       0.001188
 2084 Fit       0.004651
 2085 Fit       0.003923
 2086 Fit       0.003823
 2087 Fit       0.002880
 2088 Fit       0.003179
 2089 Fit       0.001743
 2090 Fit       0.002206
 2091 Fit       0.001626
 2092 Fit       0.002374
 2093 Fit       0.001814
 2094 Fit       0.002956
 2095 Fit       0.003448
 2096 Fit       0.002964
 2097 Fit       0.003962
 2098 Fit       0.003325
 2099 Fit       0.001732
 2100 Fit       0.002587
 2101 Fit       0.002215
 2102 Fit       0.002756
 2103 Fit       0.004527
 2104 Fit       0.003029
 2105 Fit       0.004262
 2106 Fit       0.006263
 2107 Fit       0.004277
 2108 Fit       0.003427
 2109 Fit       0.004861
 2110 Fit       0.006661
 2111 Fit       0.005850
 2112 Fit       0.003070
 2113 Fit       0.002770
 2114 Fit       0.004073
 2115 Fit       0.001673
 2116 Fit       0.002252
 2117 Fit       0.003323
 2118 Fit      -0.000610
 2119 Fit       0.000247
 2120 Fit       0.002798
 2121 Fit       0.003330
 2122 Fit       0.003314
 2123 Fit       0.002963
 2124 Fit       0.002316
 2125 Fit      -0.000076
 2126 Fit       0.001922
 2127 Fit       0.002728
 2128 Fit       0.002814
 2129 Fit       0.002685
 2130 Fit       0.001093
 2131 Fit       0.002094
 2132 Fit       0.002321
 2133 Fit       0.001010
 2134 Fit       0.002586
 2135 Fit       0.003686
 2136 Fit       0.002897
 2137 Fit       0.004136
 2138 Fit       0.003734
 2139 Fit       0.002567
 2140 Fit       0.000890
 2141 Fit       0.004441
 2142 Fit       0.003785
 2143 Fit       0.002601
 2144 Fit       0.002195
 2145 Fit       0.003202
 2146 Fit       0.002668
 2147 Fit       0.003058
 2148 Fit       0.002231
 2149 Fit       0.002546
 2150 Fit       0.002294
 2151 Fit       0.001362
 2152 Fit       0.001840
 2153 Fit      -0.001278
 2154 Fit       0.000492
 2155 Fit      -0.001073
 2156 Fit      -0.001120
 2157 Fit       0.000801
 2158 Fit      -0.000052
 2159 Fit      -0.000513
 2160 Fit      -0.001038
 2161 Fit      -0.001536
 2162 Fit      -0.001566
 2163 Fit      -0.001424
 2164 Fit      -0.001203
 2165 Fit      -0.001065
 2166 Fit      -0.000724
 2167 Fit      -0.000372
 2168 Fit      -0.000513
 2169 Fit      -0.000776
 2170 Fit       0.000470
 2171 Fit       0.001537
 2172 Fit      -0.000036
 2173 Fit       0.001349
 2174 Fit       0.002420
 2175 Fit       0.003361
 2176 Fit      -0.000591
 2177 Fit       0.000986
 2178 Fit       0.002186
 2179 Fit       0.002923
 2180 Fit       0.000423
 2181 Fit       0.001388
 2182 Fit      -0.000444
 2183 Fit       0.002954
 2184 Fit       0.002783
 2185 Fit       0.002839
 2186 Fit       0.002164
 2187 Fit       0.001989
 2188 Fit       0.001344
 2189 Fit       0.000462
 2190 Fit       0.001709
 2191 Fit       0.001926
 2192 Fit       0.000864
 2193 Fit       0.000754
 2194 Fit       0.000225
 2195 Fit      -0.000574
 2196 Fit       0.000321
 2197 Fit       0.000620
 2198 Fit      -0.000775
 2199 Fit      -0.000942
 2200 Fit       0.001593
 2201 Fit       0.001044
 2202 Fit       0.000235
 2203 Fit       0.000335
 2204 Fit       0.002845
 2205 Fit       0.002346
 2206 Fit       0.001519
 2207 Fit       0.001246
 2208 Fit      -0.000304
 2209 Fit       0.003342
 2210 Fit       0.002517
 2211 Fit       0.001590
 2212 Fit      -0.000059
 2213 Fit       0.002876
 2214 Fit       0.001302
 2215 Fit      -0.000106
 2216 Fit       0.000470
 2217 Fit      -0.000760
 2218 Fit      -0.000983
 2219 Fit       0.001637
 2220 Fit       0.001421
 2221 Fit      -0.000982
 2222 Fit      -0.000932
 2223 Fit      -0.000629
 2224 Fit      -0.000938
 2225 Fit       0.000072
 2226 Fit      -0.000426
 2227 Fit      -0.000428
 2228 Fit      -0.000622
 2229 Fit       0.000608
 2230 Fit       0.001229
 2231 Fit       0.001178
 2232 Fit       0.000654
 2233 Fit       0.002002
 2234 Fit       0.002494
 2235 Fit       0.002378
 2236 Fit       0.001782
 2237 Fit       0.003325
 2238 Fit       0.003095
 2239 Fit       0.002268
 2240 Fit       0.001540
 2241 Fit       0.002597
 2242 Fit       0.001873
 2243 Fit       0.000598
 2244 Fit       0.000123
 2245 Fit       0.000822
 2246 Fit       0.001987
 2247 Fit       0.003176
 2248 Fit       0.002503
 2249 Fit       0.001285
 2250 Fit       0.000014
 2251 Fit       0.001928
 2252 Fit       0.002790
 2253 Fit       0.000820
 2254 Fit      -0.000364
 2255 Fit       0.001473
 2256 Fit       0.002212
 2257 Fit       0.001672
 2258 Fit       0.002890
 2259 Fit       0.001541
 2260 Fit       0.002926
 2261 Fit       0.002071
 -----------------------------------------------------------------
 Leave Link  602 at Thu Apr 27 16:20:13 2017, MaxMem=    33554432 cpu:         3.9
 (Enter /home/michal/g09/l9999.exe)

 Test job not archived.
 1\1\GINC-LINUX\SP\RHF\6-31G(d)\C27H46O3\MICHAL\27-Apr-2017\0\\#P HF/6-
 31G* SCF(Conver=6) NoSymm Test Pop=mk IOp(6/33=2) GFInput GFPrint\\MEP
  - Input generated by R.E.D.-III.x MOLECULE\\0,1\C,0,0.99854823,-0.913
 99442,-1.68080228\H,0,1.15857048,0.04898004,-2.18110407\C,0,2.20761172
 ,-1.82181848,-1.94525368\H,0,2.35165884,-1.944682,-3.02300164\H,0,1.96
 925,-2.82001843,-1.54292564\C,0,3.48119178,-1.30584512,-1.30203842\C,0
 ,3.41570296,-0.93541939,0.18301453\C,0,2.1257646,-0.09191819,0.4278091
 7\H,0,2.28233966,0.90816576,0.\H,0,1.98017983,0.05009172,1.50391142\C,
 0,0.8418073,-0.67858805,-0.17884129\H,0,0.58643395,-1.63141639,0.30811
 834\H,0,0.,0.,0.\C,0,4.6050025,-1.20534591,-2.0239943\H,0,4.5949722,-1
 .47350398,-3.07809394\C,0,5.94326547,-0.78111029,-1.49501648\H,0,6.261
 70075,0.15532035,-1.97892919\C,0,6.00614502,-0.63306281,0.03408912\H,0
 ,6.16679057,-1.63893137,0.44396774\C,0,4.66075141,-0.06444824,0.566952
 75\H,0,4.51773326,0.89833408,0.04971867\C,0,4.74688574,0.24915504,2.07
 82821\H,0,4.78624528,-0.68575213,2.64771366\H,0,3.83180999,0.75897231,
 2.39839529\C,0,5.95291024,1.12231574,2.47529962\H,0,5.84279729,2.12120
 003,2.02887822\H,0,5.93711366,1.26366413,3.560651\C,0,7.28645261,0.512
 93216,1.99963284\C,0,7.15602651,0.296716,0.46393138\H,0,6.89766054,1.2
 8980066,0.05790897\C,0,8.59181557,0.,0.\H,0,8.7432395,0.24392739,-1.05
 618479\H,0,8.82371641,-1.0641105,0.10951625\C,0,9.47260252,0.871507,0.
 93677829\H,0,10.26016648,0.26477178,1.39896368\H,0,9.98318108,1.667928
 5,0.38582886\C,0,8.53113307,1.4665683,2.03370719\H,0,8.16573094,2.4405
 2926,1.67611161\C,0,7.58888206,-0.79923617,2.7582237\H,0,6.82491984,-1
 .56265218,2.59101755\H,0,8.54792975,-1.23352444,2.46060856\H,0,7.63283
 513,-0.61861536,3.83744215\C,0,9.2660473,1.71269107,3.37497998\H,0,9.6
 3395266,0.73838961,3.72836601\C,0,8.36408448,2.2890991,4.482653\H,0,7.
 822922,3.18082493,4.14706338\H,0,8.96440608,2.57401252,5.35480111\H,0,
 7.62150777,1.56403222,4.82503706\C,0,3.34918758,-2.24337294,1.0161\H,0
 ,3.14917627,-2.03463717,2.07173046\H,0,2.55268277,-2.9028864,0.6617929
 1\H,0,4.28519835,-2.80545511,0.94627544\O,0,6.93877522,-1.78606803,-1.
 81428087\O,0,7.12651298,-1.78370036,-3.26167802\H,0,8.04351531,-1.4679
 6843,-3.31609816\O,0,-0.19394323,-1.42620979,-2.28211218\H,0,-0.393730
 36,-2.28725275,-1.88856872\C,0,10.53369112,2.59352564,3.20047977\H,0,1
 1.0453926,2.61895491,4.17147638\H,0,11.22940127,2.09844407,2.51098052\
 C,0,10.30302052,4.03372443,2.71266041\H,0,9.75822561,4.01381462,1.7602
 1779\H,0,9.65445402,4.57014896,3.41587946\C,0,11.60010098,4.83453051,2
 .48817523\H,0,11.34046043,5.80132357,2.0317056\H,0,12.21251257,4.30410
 472,1.7445199\C,0,12.47456221,5.11170662,3.72981288\H,0,12.74880765,4.
 14797095,4.18203094\C,0,13.77865907,5.81080719,3.31311035\H,0,13.57040
 193,6.7865929,2.85554138\H,0,14.43215008,5.98181626,4.17618851\H,0,14.
 33668873,5.21350263,2.58287556\C,0,11.73651496,5.93929782,4.79405366\H
 ,0,11.42072794,6.9075443,4.38401741\H,0,12.38603699,6.13940719,5.65381
 36\H,0,10.84309642,5.42936373,5.16863737\\Version=EM64L-G09RevD.01\HF=
 -1273.6826864\RMSD=5.625e-07\Dipole=0.4862962,0.3583188,0.8646596\Quad
 rupole=6.3251574,-2.1226108,-4.2025466,7.590973,-0.2828412,-4.4236194\
 PG=C01 [X(C27H46O3)]\\@


 IN THE FIGHT BETWEEN YOU AND THE WORLD, BACK THE WORLD

                                        -- FRANZ KAFKA
 Job cpu time:       0 days  0 hours 11 minutes 37.0 seconds.
 File lengths (MBytes):  RWF=    159 Int=      0 D2E=      0 Chk=     11 Scr=      1
 Normal termination of Gaussian 09 at Thu Apr 27 16:20:13 2017.
